                         Program Version 4.2.0 -  RELEASE  -
|  1> # ORCA input file
|  2> # SCF done       -181.865589934662          0.000373362683
|  3> ! CAM-B3LYP def2-SVP def2/J RIJCOSX Grid4 TightSCF
|  4> %maxcore 5000
|  5> %tddft
|  6>     Mode sTDDFT
|  7>     Ethresh 5.0
|  8>     maxcore 5000
|  9> end
| 10>
| 11> %pal
| 12>   nprocs 6
| 13>   end
| 14> * xyz 0 1
| 15>    C        1.42135         1.45631         2.44726
| 16>    C        2.13420         2.59093         2.73331
| 17>    C        2.83343         2.79123         3.93961
| 18>    N        3.40399         3.00301         4.91292
| 19>    C        2.32531         3.62931         1.79805
| 20>    N        2.54593         4.45923         1.03641
| 21>    C        1.44247         0.22058         3.22152
| 22>    C        1.06075        -0.85348         2.36416
| 23>    C        1.02893        -2.14489         2.80518
| 24>    C        1.37250        -2.42333         4.14743
| 25>    C        1.74153        -1.35233         5.01217
| 26>    C        1.77309        -0.02452         4.52642
| 27>    C        2.07671        -1.64519         6.34965
| 28>    C        2.05164        -2.93271         6.81233
| 29>    C        1.68835        -3.98632         5.96034
| 30>    C        1.35665        -3.73699         4.65631
| 31>    C        0.72331        -0.32006         1.03197
| 32>    O        0.41581        -0.93149         0.03502
| 33>    C        0.77045         1.16300         1.18829
| 34>    C        0.14027         1.94845         0.27470
| 35>    C       -0.34287         3.27249         0.39596
| 36>    C       -0.77515         4.05843        -0.66058
| 37>    C       -1.28819         5.27816        -0.23710
| 38>    C       -1.28853         5.43366         1.16042
| 39>    S       -0.62436         4.05108         1.94901
| 40>    C       -1.82644         6.63637         1.59380
| 41>    C       -2.25015         7.42214         0.53059
| 42>    S       -1.97456         6.65890        -1.02086
| 43>    C       -2.86249         8.70273         0.62229
| 44>    C       -3.31111         9.39755        -0.52416
| 45>    C       -3.97305        10.67207        -0.46976
| 46>    N       -4.36201        11.24996        -1.62681
| 47>    C       -4.13833        10.65467        -2.75116
| 48>    C       -3.49067         9.39271        -2.80525
| 49>    N       -3.10289         8.80982        -1.71961
| 50>    F       -3.26600         8.78005        -3.96149
| 51>    F       -4.53758        11.26784        -3.86236
| 52>    C       -4.21659        11.32969         0.75942
| 53>    C       -3.73262        10.65416         1.90278
| 54>    C       -3.07768         9.36958         1.84996
| 55>    N       -2.73200         8.95062         3.06946
| 56>    S       -3.17216        10.04332         4.15602
| 57>    N       -3.82951        11.10540         3.15336
| 58>    C       -4.89819        12.57400         0.89358
| 59>    C       -5.51793        13.32442        -0.09462
| 60>    C       -6.09465        14.47897         0.41770
| 61>    C       -5.92042        14.63933         1.80666
| 62>    S       -5.03764        13.31430         2.48025
| 63>    C       -6.49046        15.79381         2.32323
| 64>    C       -7.11699        16.54692         1.34086
| 65>    S       -6.99661        15.78347        -0.24999
| 66>    C       -7.84196        17.75523         1.38876
| 67>    C       -8.00876        18.66981         2.39215
| 68>    C       -8.82946        19.86433         2.25417
| 69>    C       -9.80239        20.08694         1.31475
| 70>    C      -10.58017        21.26259         1.25271
| 71>    N      -11.24251        22.19408         1.14482
| 72>    C      -10.21057        19.17561         0.31739
| 73>    N      -10.62226        18.48844        -0.50575
| 74>    C       -8.50294        20.76265         3.35436
| 75>    C       -7.59866        20.09262         4.22474
| 76>    C       -7.30627        18.74872         3.69822
| 77>    O       -6.61700        17.91091         4.24234
| 78>    C       -7.11416        20.68111         5.35710
| 79>    C       -7.51468        21.99847         5.67267
| 80>    C       -8.41462        22.67968         4.80300
| 81>    C       -8.90364        22.04101         3.64011
| 82>    C       -8.80346        23.99586         5.12520
| 83>    C       -8.32730        24.61097         6.25100
| 84>    C       -7.44094        23.93933         7.10615
| 85>    C       -7.04396        22.66050         6.82353
| 86>    H        0.74521        -2.94584         2.13874
| 87>    H        2.04709         0.77087         5.20222
| 88>    H        2.35881        -0.83123         7.00123
| 89>    H        2.31231        -3.14671         7.83803
| 90>    H        1.67267        -4.99615         6.34221
| 91>    H        1.07634        -4.54406         3.99532
| 92>    H       -0.11473         1.45157        -0.65730
| 93>    H       -0.69245         3.75158        -1.68703
| 94>    H       -1.91571         6.94779         2.61710
| 95>    H       -5.53935        13.02834        -1.12500
| 96>    H       -6.45597        16.09063         3.35477
| 97>    H       -8.31970        17.99385         0.44490
| 98>    H       -6.43100        20.14851         6.00201
| 99>    H       -9.57834        22.58603         2.99938
|100>    H       -9.48706        24.50871         4.46463
|101>    H       -8.63116        25.61935         6.48886
|102>    H       -7.07409        24.44025         7.98955
|103>    H       -6.36168        22.13784         7.47794
|104> *
|105>
|106>                          ****END OF INPUT****

CARTESIAN COORDINATES (ANGSTROEM)
---------------------------------
  C      1.421350    1.456310    2.447260
  C      2.134200    2.590930    2.733310
  C      2.833430    2.791230    3.939610
  N      3.403990    3.003010    4.912920
  C      2.325310    3.629310    1.798050
  N      2.545930    4.459230    1.036410
  C      1.442470    0.220580    3.221520
  C      1.060750   -0.853480    2.364160
  C      1.028930   -2.144890    2.805180
  C      1.372500   -2.423330    4.147430
  C      1.741530   -1.352330    5.012170
  C      1.773090   -0.024520    4.526420
  C      2.076710   -1.645190    6.349650
  C      2.051640   -2.932710    6.812330
  C      1.688350   -3.986320    5.960340
  C      1.356650   -3.736990    4.656310
  C      0.723310   -0.320060    1.031970
  O      0.415810   -0.931490    0.035020
  C      0.770450    1.163000    1.188290
  C      0.140270    1.948450    0.274700
  C     -0.342870    3.272490    0.395960
  C     -0.775150    4.058430   -0.660580
  C     -1.288190    5.278160   -0.237100
  C     -1.288530    5.433660    1.160420
  S     -0.624360    4.051080    1.949010
  C     -1.826440    6.636370    1.593800
  C     -2.250150    7.422140    0.530590
  S     -1.974560    6.658900   -1.020860
  C     -2.862490    8.702730    0.622290
  C     -3.311110    9.397550   -0.524160
  C     -3.973050   10.672070   -0.469760
  N     -4.362010   11.249960   -1.626810
  C     -4.138330   10.654670   -2.751160
  C     -3.490670    9.392710   -2.805250
  N     -3.102890    8.809820   -1.719610
  F     -3.266000    8.780050   -3.961490
  F     -4.537580   11.267840   -3.862360
  C     -4.216590   11.329690    0.759420
  C     -3.732620   10.654160    1.902780
  C     -3.077680    9.369580    1.849960
  N     -2.732000    8.950620    3.069460
  S     -3.172160   10.043320    4.156020
  N     -3.829510   11.105400    3.153360
  C     -4.898190   12.574000    0.893580
  C     -5.517930   13.324420   -0.094620
  C     -6.094650   14.478970    0.417700
  C     -5.920420   14.639330    1.806660
  S     -5.037640   13.314300    2.480250
  C     -6.490460   15.793810    2.323230
  C     -7.116990   16.546920    1.340860
  S     -6.996610   15.783470   -0.249990
  C     -7.841960   17.755230    1.388760
  C     -8.008760   18.669810    2.392150
  C     -8.829460   19.864330    2.254170
  C     -9.802390   20.086940    1.314750
  C    -10.580170   21.262590    1.252710
  N    -11.242510   22.194080    1.144820
  C    -10.210570   19.175610    0.317390
  N    -10.622260   18.488440   -0.505750
  C     -8.502940   20.762650    3.354360
  C     -7.598660   20.092620    4.224740
  C     -7.306270   18.748720    3.698220
  O     -6.617000   17.910910    4.242340
  C     -7.114160   20.681110    5.357100
  C     -7.514680   21.998470    5.672670
  C     -8.414620   22.679680    4.803000
  C     -8.903640   22.041010    3.640110
  C     -8.803460   23.995860    5.125200
  C     -8.327300   24.610970    6.251000
  C     -7.440940   23.939330    7.106150
  C     -7.043960   22.660500    6.823530
  H      0.745210   -2.945840    2.138740
  H      2.047090    0.770870    5.202220
  H      2.358810   -0.831230    7.001230
  H      2.312310   -3.146710    7.838030
  H      1.672670   -4.996150    6.342210
  H      1.076340   -4.544060    3.995320
  H     -0.114730    1.451570   -0.657300
  H     -0.692450    3.751580   -1.687030
  H     -1.915710    6.947790    2.617100
  H     -5.539350   13.028340   -1.125000
  H     -6.455970   16.090630    3.354770
  H     -8.319700   17.993850    0.444900
  H     -6.431000   20.148510    6.002010
  H     -9.578340   22.586030    2.999380
  H     -9.487060   24.508710    4.464630
  H     -8.631160   25.619350    6.488860
  H     -7.074090   24.440250    7.989550
  H     -6.361680   22.137840    7.477940

 Total Charge           Charge          ....    0
 Multiplicity           Mult            ....    1
 Number of Electrons    NEL             ....  512
 Basis Dimension        Dim             .... 1104

ORBITAL ENERGIES
----------------

  NO   OCC          E(Eh)            E(eV)
   0   2.0000     -89.053365     -2423.2653
   1   2.0000     -88.966121     -2420.8912
   2   2.0000     -88.964172     -2420.8382
   3   2.0000     -88.963658     -2420.8242
   4   2.0000     -88.961749     -2420.7723
   5   2.0000     -24.826808      -675.5718
   6   2.0000     -24.824634      -675.5126
   7   2.0000     -19.215858      -522.8901
   8   2.0000     -19.210773      -522.7517
   9   2.0000     -14.467261      -393.6742
  10   2.0000     -14.464253      -393.5923
  11   2.0000     -14.461661      -393.5218
  12   2.0000     -14.461347      -393.5133
  13   2.0000     -14.412896      -392.1948
  14   2.0000     -14.411375      -392.1535
  15   2.0000     -14.409910      -392.1136
  16   2.0000     -14.408137      -392.0653
  17   2.0000     -10.443494      -284.1819
  18   2.0000     -10.441786      -284.1354
  19   2.0000     -10.367058      -282.1020
  20   2.0000     -10.362575      -281.9800
  21   2.0000     -10.357770      -281.8492
  22   2.0000     -10.355996      -281.8010
  23   2.0000     -10.350902      -281.6624
  24   2.0000     -10.349418      -281.6220
  25   2.0000     -10.339646      -281.3561
  26   2.0000     -10.337512      -281.2980
  27   2.0000     -10.337075      -281.2861
  28   2.0000     -10.336340      -281.2661
  29   2.0000     -10.326997      -281.0119
  30   2.0000     -10.326035      -280.9857
  31   2.0000     -10.325349      -280.9670
  32   2.0000     -10.323951      -280.9290
  33   2.0000     -10.321114      -280.8518
  34   2.0000     -10.319876      -280.8181
  35   2.0000     -10.318510      -280.7809
  36   2.0000     -10.316965      -280.7389
  37   2.0000     -10.315356      -280.6951
  38   2.0000     -10.314380      -280.6685
  39   2.0000     -10.313182      -280.6360
  40   2.0000     -10.311361      -280.5864
  41   2.0000     -10.310945      -280.5751
  42   2.0000     -10.310376      -280.5596
  43   2.0000     -10.303035      -280.3598
  44   2.0000     -10.302592      -280.3478
  45   2.0000     -10.302162      -280.3361
  46   2.0000     -10.300917      -280.3022
  47   2.0000     -10.299246      -280.2567
  48   2.0000     -10.297270      -280.2030
  49   2.0000     -10.295795      -280.1628
  50   2.0000     -10.295311      -280.1497
  51   2.0000     -10.295083      -280.1434
  52   2.0000     -10.294792      -280.1355
  53   2.0000     -10.294589      -280.1300
  54   2.0000     -10.294393      -280.1247
  55   2.0000     -10.294156      -280.1182
  56   2.0000     -10.293789      -280.1082
  57   2.0000     -10.293560      -280.1020
  58   2.0000     -10.291743      -280.0526
  59   2.0000     -10.290823      -280.0275
  60   2.0000     -10.289145      -279.9819
  61   2.0000     -10.286963      -279.9225
  62   2.0000     -10.285500      -279.8827
  63   2.0000     -10.284615      -279.8586
  64   2.0000     -10.284446      -279.8540
  65   2.0000     -10.284289      -279.8497
  66   2.0000     -10.284011      -279.8422
  67   2.0000     -10.283934      -279.8401
  68   2.0000     -10.283601      -279.8310
  69   2.0000     -10.283505      -279.8284
  70   2.0000     -10.283090      -279.8171
  71   2.0000      -8.144479      -221.6225
  72   2.0000      -8.061062      -219.3527
  73   2.0000      -8.059710      -219.3159
  74   2.0000      -8.057340      -219.2514
  75   2.0000      -8.055978      -219.2143
  76   2.0000      -6.115577      -166.4133
  77   2.0000      -6.107747      -166.2002
  78   2.0000      -6.107273      -166.1874
  79   2.0000      -6.030625      -164.1016
  80   2.0000      -6.029089      -164.0599
  81   2.0000      -6.027073      -164.0050
  82   2.0000      -6.026606      -163.9923
  83   2.0000      -6.025651      -163.9663
  84   2.0000      -6.025213      -163.9544
  85   2.0000      -6.022589      -163.8830
  86   2.0000      -6.022516      -163.8810
  87   2.0000      -6.021312      -163.8482
  88   2.0000      -6.021310      -163.8482
  89   2.0000      -6.018896      -163.7825
  90   2.0000      -6.017433      -163.7427
  91   2.0000      -1.354319       -36.8529
  92   2.0000      -1.340126       -36.4667
  93   2.0000      -1.151135       -31.3240
  94   2.0000      -1.130685       -30.7675
  95   2.0000      -1.126187       -30.6451
  96   2.0000      -1.125744       -30.6330
  97   2.0000      -1.051453       -28.6115
  98   2.0000      -1.019121       -27.7317
  99   2.0000      -1.017640       -27.6914
 100   2.0000      -1.014051       -27.5937
 101   2.0000      -1.013001       -27.5652
 102   2.0000      -1.003853       -27.3162
 103   2.0000      -0.995129       -27.0788
 104   2.0000      -0.994937       -27.0736
 105   2.0000      -0.989511       -26.9260
 106   2.0000      -0.989168       -26.9166
 107   2.0000      -0.986473       -26.8433
 108   2.0000      -0.969809       -26.3898
 109   2.0000      -0.969007       -26.3680
 110   2.0000      -0.957263       -26.0484
 111   2.0000      -0.948662       -25.8144
 112   2.0000      -0.921511       -25.0756
 113   2.0000      -0.920543       -25.0493
 114   2.0000      -0.903775       -24.5930
 115   2.0000      -0.897108       -24.4116
 116   2.0000      -0.896356       -24.3911
 117   2.0000      -0.889575       -24.2066
 118   2.0000      -0.879317       -23.9274
 119   2.0000      -0.878489       -23.9049
 120   2.0000      -0.872425       -23.7399
 121   2.0000      -0.870561       -23.6892
 122   2.0000      -0.865834       -23.5605
 123   2.0000      -0.859569       -23.3901
 124   2.0000      -0.830809       -22.6075
 125   2.0000      -0.825981       -22.4761
 126   2.0000      -0.825568       -22.4649
 127   2.0000      -0.820898       -22.3378
 128   2.0000      -0.814758       -22.1707
 129   2.0000      -0.809880       -22.0380
 130   2.0000      -0.804785       -21.8993
 131   2.0000      -0.793219       -21.5846
 132   2.0000      -0.781809       -21.2741
 133   2.0000      -0.764693       -20.8084
 134   2.0000      -0.759334       -20.6625
 135   2.0000      -0.758677       -20.6446
 136   2.0000      -0.755679       -20.5631
 137   2.0000      -0.737117       -20.0580
 138   2.0000      -0.718311       -19.5462
 139   2.0000      -0.706686       -19.2299
 140   2.0000      -0.701598       -19.0915
 141   2.0000      -0.699776       -19.0419
 142   2.0000      -0.696082       -18.9414
 143   2.0000      -0.693810       -18.8795
 144   2.0000      -0.691391       -18.8137
 145   2.0000      -0.686105       -18.6699
 146   2.0000      -0.677003       -18.4222
 147   2.0000      -0.674249       -18.3473
 148   2.0000      -0.673182       -18.3182
 149   2.0000      -0.665800       -18.1173
 150   2.0000      -0.656897       -17.8751
 151   2.0000      -0.655348       -17.8329
 152   2.0000      -0.644458       -17.5366
 153   2.0000      -0.641005       -17.4426
 154   2.0000      -0.638600       -17.3772
 155   2.0000      -0.635115       -17.2824
 156   2.0000      -0.629752       -17.1364
 157   2.0000      -0.629344       -17.1253
 158   2.0000      -0.626672       -17.0526
 159   2.0000      -0.609171       -16.5764
 160   2.0000      -0.605129       -16.4664
 161   2.0000      -0.604103       -16.4385
 162   2.0000      -0.601442       -16.3661
 163   2.0000      -0.595536       -16.2054
 164   2.0000      -0.587425       -15.9847
 165   2.0000      -0.586853       -15.9691
 166   2.0000      -0.581760       -15.8305
 167   2.0000      -0.580993       -15.8096
 168   2.0000      -0.576690       -15.6925
 169   2.0000      -0.572637       -15.5823
 170   2.0000      -0.561176       -15.2704
 171   2.0000      -0.557526       -15.1711
 172   2.0000      -0.554517       -15.0892
 173   2.0000      -0.548361       -14.9217
 174   2.0000      -0.546868       -14.8810
 175   2.0000      -0.544268       -14.8103
 176   2.0000      -0.544056       -14.8045
 177   2.0000      -0.537860       -14.6359
 178   2.0000      -0.535739       -14.5782
 179   2.0000      -0.533391       -14.5143
 180   2.0000      -0.532172       -14.4811
 181   2.0000      -0.530062       -14.4237
 182   2.0000      -0.526327       -14.3221
 183   2.0000      -0.523543       -14.2463
 184   2.0000      -0.518839       -14.1183
 185   2.0000      -0.517730       -14.0881
 186   2.0000      -0.516679       -14.0596
 187   2.0000      -0.515384       -14.0243
 188   2.0000      -0.512300       -13.9404
 189   2.0000      -0.510560       -13.8931
 190   2.0000      -0.510126       -13.8812
 191   2.0000      -0.509259       -13.8576
 192   2.0000      -0.506803       -13.7908
 193   2.0000      -0.505163       -13.7462
 194   2.0000      -0.495803       -13.4915
 195   2.0000      -0.495019       -13.4702
 196   2.0000      -0.493995       -13.4423
 197   2.0000      -0.490773       -13.3546
 198   2.0000      -0.487190       -13.2571
 199   2.0000      -0.486859       -13.2481
 200   2.0000      -0.484903       -13.1949
 201   2.0000      -0.482502       -13.1296
 202   2.0000      -0.482241       -13.1225
 203   2.0000      -0.475758       -12.9460
 204   2.0000      -0.467434       -12.7195
 205   2.0000      -0.463923       -12.6240
 206   2.0000      -0.462153       -12.5758
 207   2.0000      -0.460566       -12.5326
 208   2.0000      -0.459486       -12.5032
 209   2.0000      -0.456060       -12.4100
 210   2.0000      -0.448306       -12.1990
 211   2.0000      -0.445992       -12.1361
 212   2.0000      -0.444046       -12.0831
 213   2.0000      -0.440649       -11.9907
 214   2.0000      -0.440456       -11.9854
 215   2.0000      -0.439594       -11.9620
 216   2.0000      -0.438485       -11.9318
 217   2.0000      -0.437149       -11.8954
 218   2.0000      -0.433239       -11.7890
 219   2.0000      -0.432084       -11.7576
 220   2.0000      -0.431401       -11.7390
 221   2.0000      -0.430027       -11.7016
 222   2.0000      -0.428411       -11.6577
 223   2.0000      -0.428052       -11.6479
 224   2.0000      -0.426039       -11.5931
 225   2.0000      -0.425019       -11.5654
 226   2.0000      -0.422079       -11.4853
 227   2.0000      -0.420756       -11.4493
 228   2.0000      -0.414983       -11.2923
 229   2.0000      -0.413887       -11.2625
 230   2.0000      -0.409268       -11.1367
 231   2.0000      -0.404227       -10.9996
 232   2.0000      -0.403088       -10.9686
 233   2.0000      -0.399126       -10.8608
 234   2.0000      -0.394827       -10.7438
 235   2.0000      -0.390424       -10.6240
 236   2.0000      -0.375446       -10.2164
 237   2.0000      -0.374446       -10.1892
 238   2.0000      -0.372416       -10.1340
 239   2.0000      -0.369698       -10.0600
 240   2.0000      -0.368824       -10.0362
 241   2.0000      -0.366277        -9.9669
 242   2.0000      -0.359132        -9.7725
 243   2.0000      -0.352933        -9.6038
 244   2.0000      -0.347557        -9.4575
 245   2.0000      -0.336711        -9.1624
 246   2.0000      -0.332485        -9.0474
 247   2.0000      -0.318809        -8.6752
 248   2.0000      -0.314297        -8.5525
 249   2.0000      -0.310954        -8.4615
 250   2.0000      -0.300144        -8.1673
 251   2.0000      -0.299582        -8.1520
 252   2.0000      -0.293553        -7.9880
 253   2.0000      -0.291482        -7.9316
 254   2.0000      -0.278884        -7.5888
 255   2.0000      -0.245554        -6.6819
 256   0.0000      -0.128943        -3.5087
 257   0.0000      -0.088791        -2.4161
 258   0.0000      -0.084912        -2.3106
 259   0.0000      -0.054924        -1.4946
 260   0.0000      -0.052010        -1.4153

MULLIKEN ATOMIC CHARGES
-----------------------
   0 C :    0.248623
   1 C :   -0.319380
   2 C :   -0.173035
   3 N :    0.150394
   4 C :   -0.208087
   5 N :    0.172621
   6 C :    0.039941
   7 C :    0.009115
   8 C :   -0.078063
   9 C :    0.091585
  10 C :    0.093079
  11 C :   -0.079151
  12 C :   -0.017623
  13 C :    0.037050
  14 C :    0.033969
  15 C :   -0.013674
  16 C :    0.141369
  17 O :   -0.144683
  18 C :   -0.135426
  19 C :    0.045253
  20 C :   -0.081758
  21 C :   -0.010622
  22 C :    0.034795
  23 C :    0.014161
  24 S :    0.156562
  25 C :   -0.043638
  26 C :   -0.176907
  27 S :    0.170153
  28 C :    0.183573
  29 C :   -0.055510
  30 C :   -0.070797
  31 N :    0.001608
  32 C :    0.142758
  33 C :    0.155623
  34 N :   -0.044648
  35 F :   -0.132049
  36 F :   -0.137618
  37 C :    0.206252
  38 C :   -0.023905
  39 C :   -0.003183
  40 N :   -0.294979
  41 S :    0.566080
  42 N :   -0.324240
  43 C :   -0.177077
  44 C :   -0.049128
  45 C :    0.021559
  46 C :    0.003871
  47 S :    0.170238
  48 C :   -0.006901
  49 C :   -0.116477
  50 S :    0.153455
  51 C :    0.043936
  52 C :   -0.090178
  53 C :    0.301826
  54 C :   -0.348762
  55 C :   -0.182072
  56 N :    0.145652
  57 C :   -0.204139
  58 N :    0.156937
  59 C :    0.049379
  60 C :    0.001641
  61 C :    0.159013
  62 O :   -0.160433
  63 C :   -0.086433
  64 C :    0.100592
  65 C :    0.097668
  66 C :   -0.085895
  67 C :   -0.022749
  68 C :    0.037655
  69 C :    0.037039
  70 C :   -0.018594
  71 H :   -0.012831
  72 H :   -0.007193
  73 H :   -0.012222
  74 H :   -0.006013
  75 H :   -0.006354
  76 H :   -0.017962
  77 H :    0.025381
  78 H :   -0.000975
  79 H :    0.003003
  80 H :    0.005228
  81 H :    0.016846
  82 H :    0.016787
  83 H :   -0.014717
  84 H :   -0.006893
  85 H :   -0.008979
  86 H :   -0.005824
  87 H :   -0.006355
  88 H :   -0.018133
Sum of atomic charges:   -0.0000000

LOEWDIN ATOMIC CHARGES
----------------------
   0 C :    0.060698
   1 C :   -0.140980
   2 C :   -0.018425
   3 N :   -0.053712
   4 C :   -0.037102
   5 N :   -0.048057
   6 C :   -0.021382
   7 C :   -0.056530
   8 C :    0.031849
   9 C :   -0.009676
  10 C :   -0.005476
  11 C :    0.014246
  12 C :   -0.007215
  13 C :   -0.013639
  14 C :   -0.014277
  15 C :   -0.009336
  16 C :    0.083407
  17 O :   -0.145385
  18 C :   -0.096447
  19 C :    0.050004
  20 C :   -0.167077
  21 C :   -0.020467
  22 C :   -0.202947
  23 C :   -0.181269
  24 S :    0.449023
  25 C :   -0.046990
  26 C :   -0.151717
  27 S :    0.462438
  28 C :   -0.036604
  29 C :   -0.012113
  30 C :   -0.004409
  31 N :   -0.029674
  32 C :    0.062087
  33 C :    0.064589
  34 N :   -0.050863
  35 F :   -0.021433
  36 F :   -0.026310
  37 C :   -0.042220
  38 C :   -0.044856
  39 C :   -0.037153
  40 N :   -0.277392
  41 S :    0.685799
  42 N :   -0.295596
  43 C :   -0.145971
  44 C :   -0.052286
  45 C :   -0.184973
  46 C :   -0.204356
  47 S :    0.461496
  48 C :   -0.016319
  49 C :   -0.169357
  50 S :    0.435234
  51 C :    0.047013
  52 C :   -0.095082
  53 C :    0.076359
  54 C :   -0.143288
  55 C :   -0.017042
  56 N :   -0.056848
  57 C :   -0.026727
  58 N :   -0.052276
  59 C :   -0.025635
  60 C :   -0.054342
  61 C :    0.087651
  62 O :   -0.145236
  63 C :    0.030018
  64 C :   -0.008720
  65 C :   -0.006482
  66 C :    0.018496
  67 C :   -0.005749
  68 C :   -0.014247
  69 C :   -0.013241
  70 C :   -0.010461
  71 H :    0.039079
  72 H :    0.038242
  73 H :    0.033805
  74 H :    0.032628
  75 H :    0.032280
  76 H :    0.031650
  77 H :    0.051873
  78 H :    0.039743
  79 H :    0.033385
  80 H :    0.032992
  81 H :    0.037290
  82 H :    0.044000
  83 H :    0.037926
  84 H :    0.038958
  85 H :    0.034648
  86 H :    0.032789
  87 H :    0.032298
  88 H :    0.031372

  Mayer bond orders larger than 0.100000
B(  0-C ,  1-C ) :   1.6608 B(  0-C ,  6-C ) :   1.0007 B(  0-C , 18-C ) :   1.0333
B(  1-C ,  2-C ) :   1.1387 B(  1-C ,  4-C ) :   1.1457 B(  2-C ,  3-N ) :   2.9886
B(  4-C ,  5-N ) :   3.0309 B(  6-C ,  7-C ) :   1.2149 B(  6-C , 11-C ) :   1.4614
B(  7-C ,  8-C ) :   1.4792 B(  7-C , 16-C ) :   0.9212 B(  8-C ,  9-C ) :   1.1845
B(  8-C , 71-H ) :   1.0143 B(  9-C , 10-C ) :   1.2590 B(  9-C , 15-C ) :   1.2456
B( 10-C , 11-C ) :   1.2030 B( 10-C , 12-C ) :   1.2414 B( 11-C , 72-H ) :   0.9938
B( 12-C , 13-C ) :   1.4905 B( 12-C , 73-H ) :   0.9964 B( 13-C , 14-C ) :   1.2615
B( 13-C , 74-H ) :   0.9880 B( 14-C , 15-C ) :   1.4889 B( 14-C , 75-H ) :   0.9889
B( 15-C , 76-H ) :   0.9969 B( 16-C , 17-O ) :   2.2680 B( 16-C , 18-C ) :   0.9384
B( 18-C , 19-C ) :   1.6367 B( 19-C , 20-C ) :   1.1581 B( 19-C , 77-H ) :   0.9453
B( 20-C , 21-C ) :   1.4344 B( 20-C , 24-S ) :   1.0874 B( 21-C , 22-C ) :   1.2769
B( 21-C , 78-H ) :   1.0100 B( 22-C , 23-C ) :   1.3631 B( 22-C , 27-S ) :   1.0217
B( 23-C , 24-S ) :   1.0824 B( 23-C , 25-C ) :   1.2623 B( 25-C , 26-C ) :   1.4612
B( 25-C , 79-H ) :   0.9890 B( 26-C , 27-S ) :   1.0982 B( 26-C , 28-C ) :   1.2012
B( 28-C , 29-C ) :   1.2900 B( 28-C , 37-C ) :   0.1267 B( 28-C , 39-C ) :   1.2010
B( 29-C , 30-C ) :   1.1154 B( 29-C , 34-N ) :   1.3800 B( 30-C , 31-N ) :   1.4235
B( 30-C , 37-C ) :   1.3004 B( 31-N , 32-C ) :   1.6696 B( 32-C , 33-C ) :   1.1036
B( 32-C , 36-F ) :   1.1766 B( 33-C , 34-N ) :   1.6573 B( 33-C , 35-F ) :   1.1906
B( 37-C , 38-C ) :   1.1858 B( 37-C , 43-C ) :   1.1883 B( 38-C , 39-C ) :   1.1115
B( 38-C , 42-N ) :   1.4724 B( 39-C , 40-N ) :   1.5016 B( 40-N , 41-S ) :   1.2834
B( 40-N , 42-N ) :   0.1527 B( 41-S , 42-N ) :   1.2794 B( 43-C , 44-C ) :   1.4606
B( 43-C , 47-S ) :   1.1077 B( 44-C , 45-C ) :   1.2439 B( 44-C , 80-H ) :   0.9950
B( 45-C , 46-C ) :   1.3505 B( 45-C , 50-S ) :   1.0912 B( 46-C , 47-S ) :   1.0322
B( 46-C , 48-C ) :   1.2804 B( 48-C , 49-C ) :   1.4376 B( 48-C , 81-H ) :   0.9825
B( 49-C , 50-S ) :   1.0742 B( 49-C , 51-C ) :   1.2274 B( 51-C , 52-C ) :   1.5852
B( 51-C , 82-H ) :   0.9195 B( 52-C , 53-C ) :   1.0750 B( 52-C , 61-C ) :   0.9422
B( 53-C , 54-C ) :   1.6257 B( 53-C , 59-C ) :   0.9850 B( 54-C , 55-C ) :   1.1472
B( 54-C , 57-C ) :   1.1371 B( 55-C , 56-N ) :   2.9673 B( 57-C , 58-N ) :   2.9922
B( 59-C , 60-C ) :   1.2155 B( 59-C , 66-C ) :   1.4507 B( 60-C , 61-C ) :   0.9528
B( 60-C , 63-C ) :   1.4715 B( 61-C , 62-O ) :   2.1672 B( 63-C , 64-C ) :   1.1769
B( 63-C , 83-H ) :   1.0165 B( 64-C , 65-C ) :   1.2562 B( 64-C , 70-C ) :   1.2447
B( 65-C , 66-C ) :   1.2038 B( 65-C , 67-C ) :   1.2405 B( 66-C , 84-H ) :   0.9908
B( 67-C , 68-C ) :   1.4894 B( 67-C , 85-H ) :   0.9974 B( 68-C , 69-C ) :   1.2599
B( 68-C , 86-H ) :   0.9882 B( 69-C , 70-C ) :   1.4873 B( 69-C , 87-H ) :   0.9892
B( 70-C , 88-H ) :   0.9980

-----------------------------------------------------------------------------
         ABSORPTION SPECTRUM VIA TRANSITION ELECTRIC DIPOLE MOMENTS
-----------------------------------------------------------------------------
State   Energy  Wavelength   fosc         T2         TX        TY        TZ
        (cm-1)    (nm)                  (au**2)     (au)      (au)      (au)
-----------------------------------------------------------------------------
   0   10653.4    938.7   1.240637990  38.33829   2.87379  -5.48415  -0.06062
   1   18744.4    533.5   0.041863040   0.73525  -0.07716  -0.10242  -0.84782
   2   20158.0    496.1   0.640962780  10.46793  -1.79018   2.59797  -0.71674
   3   20814.0    480.4   0.053915698   0.85278   0.37040  -0.60791   0.58824
   4   20874.7    479.0   0.242846262   3.82990  -0.75848   1.67700   0.66503
   5   21119.9    473.5   0.337142841   5.25530  -0.95310   1.96816   0.68794
   6   24424.0    409.4   0.019014249   0.25629  -0.37280  -0.32364   0.11212
   7   25000.9    400.0   0.022489403   0.29614   0.06451   0.07471   0.53516
   8   26674.5    374.9   0.046797186   0.57756   0.40240  -0.64214   0.05738
   9   27327.1    365.9   0.026691981   0.32156   0.20870   0.39706   0.34692
  10   27495.9    363.7   0.026319329   0.31512  -0.10981  -0.48167  -0.26656
  11   27601.7    362.3   0.012117548   0.14453   0.06374   0.30407   0.21911
  12   27747.4    360.4   0.037798864   0.44847  -0.12543   0.32806  -0.57019
  13   28210.4    354.5   0.082869239   0.96707   0.08611  -0.87391  -0.44264
  14   28509.3    350.8   0.192450206   2.22233  -0.21203   1.47544   0.02138
  15   28839.4    346.7   0.024284282   0.27721   0.25396   0.23506   0.39682
  16   29019.6    344.6   0.154797858   1.75610  -0.05519   1.31221   0.17650
  17   29319.9    341.1   0.052539730   0.58993  -0.07422   0.43083   0.63152
  18   29753.8    336.1   0.028339210   0.31356  -0.54031  -0.03984  -0.14154
  19   29904.8    334.4   0.008418605   0.09268  -0.14276  -0.24095  -0.11933
  20   29926.0    334.2   0.005727393   0.06301  -0.08642   0.23268   0.03735
  21   30357.8    329.4   0.154406130   1.67444   0.14577   0.18829   1.27190
  22   30480.6    328.1   0.011174038   0.12069  -0.06688  -0.02755  -0.33979
  23   30863.6    324.0   0.338734278   3.61316  -0.22160   1.24656  -1.41780
  24   31304.3    319.4   0.313214040   3.29391   0.11713   1.44975   1.08555
  25   31966.4    312.8   0.002626187   0.02705   0.03926   0.13907  -0.07851
  26   32434.6    308.3   0.030003159   0.30453  -0.21846  -0.45267  -0.22782
  27   33589.6    297.7   0.332371122   3.25757   0.79191  -1.59057   0.31708
  28   33797.3    295.9   0.076254570   0.74278   0.36081   0.77928  -0.07289
  29   33921.1    294.8   0.133954603   1.30006  -0.10547  -0.08691  -1.13198
  30   34072.2    293.5   0.096325487   0.93071   0.02744  -0.47333  -0.84019
  31   35196.4    284.1   0.332380667   3.10894   0.07005  -0.40168   1.71543
  32   35350.5    282.9   0.380990871   3.54809   0.42789   1.80907   0.30375
  33   35475.6    281.9   0.273640300   2.53937  -0.96898  -0.87275  -0.91584
  34   35819.8    279.2   0.003854856   0.03543   0.10879   0.05122   0.14481
  35   36061.2    277.3   0.088702050   0.80978   0.44789   0.28902   0.72502
  36   36470.4    274.2   0.148563096   1.34105   0.13678   1.07573  -0.40639
  37   36645.1    272.9   0.045275879   0.40675  -0.01649   0.42289  -0.47712
  38   37024.8    270.1   0.007697920   0.06845   0.10616  -0.23505   0.04392
  39   37145.2    269.2   0.010993945   0.09744   0.04825  -0.26098   0.16431
  40   37283.3    268.2   0.058984803   0.52084   0.12146   0.04820   0.70976
  41   37299.9    268.1   0.004449093   0.03927  -0.02328  -0.12501   0.15199
  42   37431.4    267.2   0.123965136   1.09028   0.37617   0.00647   0.97403
  43   37512.5    266.6   0.002180790   0.01914   0.00511  -0.00516   0.13815
  44   37613.9    265.9   0.013080597   0.11449   0.06300   0.24664   0.22291
  45   37747.3    264.9   0.012594307   0.10984  -0.08425   0.25681   0.19182
  46   37862.2    264.1   0.007774395   0.06760  -0.07155  -0.15364  -0.19717
  47   37994.7    263.2   0.317625055   2.75212   0.18484   0.18592   1.63810
  48   38281.0    261.2   0.179171417   1.54085   0.09476  -0.22187   1.21764
  49   38414.6    260.3   0.058043771   0.49743  -0.12309   0.65938  -0.21795
  50   39338.2    254.2   0.000924931   0.00774   0.02047  -0.03704  -0.07713
  51   39370.4    254.0   0.025102033   0.20990  -0.04057   0.43098   0.15004
  52   39515.7    253.1   0.085927179   0.71587  -0.54382   0.50431  -0.40719
  53   39919.7    250.5   0.034793711   0.28694   0.06143  -0.30836   0.43368
  54   40002.3    250.0   0.052682702   0.43357   0.03628   0.57623   0.31656
  55   40230.8    248.6   0.174985411   1.43192  -0.86754   0.31332  -0.76231

FINAL SINGLE POINT ENERGY     -4843.450348933919

DIPOLE MOMENT
-------------
                                X             Y             Z
Electronic contribution:     -3.29548      -0.64831     -42.40257
Nuclear contribution   :      3.73540      -0.52287      44.78164
                        -----------------------------------------
Total Dipole Moment    :      0.43992      -1.17118       2.37907
                        -----------------------------------------
Magnitude (a.u.)       :      2.68797
Magnitude (Debye)      :      6.83228

Rotational constants in cm-1:     0.002139     0.000211     0.000196
Rotational constants in MHz :    64.129740     6.317205     5.880035

                             ****ORCA TERMINATED NORMALLY****
TOTAL RUN TIME: 0 days 0 hours 8 minutes 44 seconds 441 msec
