                         Program Version 4.2.0 -  RELEASE  -
|  1> # ORCA input file
|  2> # SCF done       -191.806006693318          0.000986946200
|  3> ! CAM-B3LYP def2-SVP def2/J RIJCOSX Grid4 TightSCF
|  4> %maxcore 5000
|  5> %tddft
|  6>     Mode sTDDFT
|  7>     Ethresh 5.0
|  8>     maxcore 5000
|  9> end
| 10>
| 11> %pal
| 12>   nprocs 6
| 13>   end
| 14> * xyz 0 1
| 15>    C       -2.05174        -0.64412        -3.61180
| 16>    C       -2.60676        -1.90999        -3.52618
| 17>    C       -3.67245        -2.52770        -4.35986
| 18>    O       -4.25188        -2.08787        -5.29925
| 19>    O       -3.91285        -3.77388        -3.83726
| 20>    C       -3.10699        -4.03156        -2.75471
| 21>    O       -3.18854        -5.03931        -2.12442
| 22>    C       -2.23528        -2.84565        -2.55879
| 23>    C       -1.26554        -2.58144        -1.57486
| 24>    C       -0.71175        -1.29128        -1.66650
| 25>    C       -1.09332        -0.37472        -2.64801
| 26>    C       -0.27048         0.85019        -2.46273
| 27>    O       -0.28507         1.87269        -3.06753
| 28>    O        0.57842         0.60282        -1.41343
| 29>    C        0.38690        -0.65521        -0.89236
| 30>    O        1.04809        -1.07964         0.00191
| 31>    C       -0.86284        -3.53678        -0.57406
| 32>    S       -0.61785        -5.21096        -0.97842
| 33>    C       -0.14226        -5.58057         0.64096
| 34>    C       -0.21106        -4.44140         1.45089
| 35>    C       -0.60128        -3.29002         0.75411
| 36>    C        0.08743        -4.47816         2.82393
| 37>    N        0.32914        -4.53983         3.94348
| 38>    C        0.25966        -6.87005         1.07227
| 39>    C        0.33208        -7.94262         0.24421
| 40>    C        0.70907        -9.28101         0.51907
| 41>    N        1.02789        -9.89341         1.70793
| 42>    C        1.10902        -9.32180         3.03129
| 43>    C        2.42612        -8.58267         3.25632
| 44>    C        1.32602       -11.26552         1.52636
| 45>    O        1.62668       -12.01069         2.43131
| 46>    C        1.16832       -11.48108         0.10458
| 47>    C        0.79000       -10.25422        -0.47809
| 48>    C        0.61733       -10.47275        -1.89484
| 49>    O        0.31772        -9.72938        -2.80361
| 50>    N        0.88244       -11.85418        -2.07222
| 51>    C        0.88418       -12.40096        -3.40789
| 52>    C        2.29483       -12.70533        -3.90471
| 53>    C        1.21683       -12.46162        -0.88382
| 54>    C        1.54256       -13.81787        -0.59527
| 55>    C        1.44291       -14.90865        -1.38558
| 56>    C        1.78285       -16.25392        -0.98754
| 57>    C        2.51304       -16.55350         0.16516
| 58>    C        2.82099       -17.86361         0.48236
| 59>    N        3.67087       -18.08801         1.62728
| 60>    O        3.73211       -17.21193         2.45847
| 61>    O        4.28962       -19.13223         1.67305
| 62>    C        2.39470       -18.94429        -0.30983
| 63>    C        1.67871       -18.63042        -1.47015
| 64>    C        1.39321       -17.32690        -1.80498
| 65>    C        2.62378       -20.32155         0.07458
| 66>    C        2.88667       -21.29143        -0.81943
| 67>    C        3.16306       -22.67141        -0.52223
| 68>    C        2.85384       -23.38726         0.65471
| 69>    C        2.05286       -23.02623         1.85763
| 70>    O        1.45141       -22.03273         2.12372
| 71>    O        2.05034       -24.11199         2.69835
| 72>    C        2.74722       -25.16395         2.16441
| 73>    O        2.87885       -26.21094         2.71084
| 74>    C        3.24465       -24.71740         0.83697
| 75>    C        3.94540       -25.45924        -0.09993
| 76>    C        4.21252       -24.78065        -1.27663
| 77>    C        3.83427       -23.45517        -1.48366
| 78>    C        4.27699       -23.09522        -2.85458
| 79>    O        4.15208       -22.07816        -3.46431
| 80>    O        4.89660       -24.19842        -3.39030
| 81>    C        4.90057       -25.25112        -2.50781
| 82>    O        5.37987       -26.30949        -2.75566
| 83>    H       -2.33880         0.07054        -4.36490
| 84>    H       -0.71088        -2.32857         1.22066
| 85>    H        0.51831        -6.93107         2.11852
| 86>    H        0.07701        -7.79386        -0.79965
| 87>    H        1.05115       -10.16746         3.72344
| 88>    H        0.24721        -8.67329         3.20477
| 89>    H        3.25496        -9.28414         3.20409
| 90>    H        2.42325        -8.12014         4.23913
| 91>    H        2.58200        -7.80997         2.50676
| 92>    H        0.43665       -11.62524        -4.03736
| 93>    H        0.24338       -13.28553        -3.45160
| 94>    H        2.88395       -11.79190        -3.92420
| 95>    H        2.24920       -13.10832        -4.91263
| 96>    H        2.79556       -13.42491        -3.26115
| 97>    H        1.86767       -13.93729         0.43037
| 98>    H        1.05318       -14.82754        -2.38857
| 99>    H        2.88008       -15.77433         0.81575
|100>    H        1.32666       -19.43460        -2.09681
|101>    H        0.84208       -17.12333        -2.71137
|102>    H        2.58456       -20.54345         1.12948
|103>    H        3.01507       -21.02727        -1.86029
|104>    H        4.24027       -26.48115         0.07051
|105> *
|106>
|107>                          ****END OF INPUT****

CARTESIAN COORDINATES (ANGSTROEM)
---------------------------------
  C     -2.051740   -0.644120   -3.611800
  C     -2.606760   -1.909990   -3.526180
  C     -3.672450   -2.527700   -4.359860
  O     -4.251880   -2.087870   -5.299250
  O     -3.912850   -3.773880   -3.837260
  C     -3.106990   -4.031560   -2.754710
  O     -3.188540   -5.039310   -2.124420
  C     -2.235280   -2.845650   -2.558790
  C     -1.265540   -2.581440   -1.574860
  C     -0.711750   -1.291280   -1.666500
  C     -1.093320   -0.374720   -2.648010
  C     -0.270480    0.850190   -2.462730
  O     -0.285070    1.872690   -3.067530
  O      0.578420    0.602820   -1.413430
  C      0.386900   -0.655210   -0.892360
  O      1.048090   -1.079640    0.001910
  C     -0.862840   -3.536780   -0.574060
  S     -0.617850   -5.210960   -0.978420
  C     -0.142260   -5.580570    0.640960
  C     -0.211060   -4.441400    1.450890
  C     -0.601280   -3.290020    0.754110
  C      0.087430   -4.478160    2.823930
  N      0.329140   -4.539830    3.943480
  C      0.259660   -6.870050    1.072270
  C      0.332080   -7.942620    0.244210
  C      0.709070   -9.281010    0.519070
  N      1.027890   -9.893410    1.707930
  C      1.109020   -9.321800    3.031290
  C      2.426120   -8.582670    3.256320
  C      1.326020  -11.265520    1.526360
  O      1.626680  -12.010690    2.431310
  C      1.168320  -11.481080    0.104580
  C      0.790000  -10.254220   -0.478090
  C      0.617330  -10.472750   -1.894840
  O      0.317720   -9.729380   -2.803610
  N      0.882440  -11.854180   -2.072220
  C      0.884180  -12.400960   -3.407890
  C      2.294830  -12.705330   -3.904710
  C      1.216830  -12.461620   -0.883820
  C      1.542560  -13.817870   -0.595270
  C      1.442910  -14.908650   -1.385580
  C      1.782850  -16.253920   -0.987540
  C      2.513040  -16.553500    0.165160
  C      2.820990  -17.863610    0.482360
  N      3.670870  -18.088010    1.627280
  O      3.732110  -17.211930    2.458470
  O      4.289620  -19.132230    1.673050
  C      2.394700  -18.944290   -0.309830
  C      1.678710  -18.630420   -1.470150
  C      1.393210  -17.326900   -1.804980
  C      2.623780  -20.321550    0.074580
  C      2.886670  -21.291430   -0.819430
  C      3.163060  -22.671410   -0.522230
  C      2.853840  -23.387260    0.654710
  C      2.052860  -23.026230    1.857630
  O      1.451410  -22.032730    2.123720
  O      2.050340  -24.111990    2.698350
  C      2.747220  -25.163950    2.164410
  O      2.878850  -26.210940    2.710840
  C      3.244650  -24.717400    0.836970
  C      3.945400  -25.459240   -0.099930
  C      4.212520  -24.780650   -1.276630
  C      3.834270  -23.455170   -1.483660
  C      4.276990  -23.095220   -2.854580
  O      4.152080  -22.078160   -3.464310
  O      4.896600  -24.198420   -3.390300
  C      4.900570  -25.251120   -2.507810
  O      5.379870  -26.309490   -2.755660
  H     -2.338800    0.070540   -4.364900
  H     -0.710880   -2.328570    1.220660
  H      0.518310   -6.931070    2.118520
  H      0.077010   -7.793860   -0.799650
  H      1.051150  -10.167460    3.723440
  H      0.247210   -8.673290    3.204770
  H      3.254960   -9.284140    3.204090
  H      2.423250   -8.120140    4.239130
  H      2.582000   -7.809970    2.506760
  H      0.436650  -11.625240   -4.037360
  H      0.243380  -13.285530   -3.451600
  H      2.883950  -11.791900   -3.924200
  H      2.249200  -13.108320   -4.912630
  H      2.795560  -13.424910   -3.261150
  H      1.867670  -13.937290    0.430370
  H      1.053180  -14.827540   -2.388570
  H      2.880080  -15.774330    0.815750
  H      1.326660  -19.434600   -2.096810
  H      0.842080  -17.123330   -2.711370
  H      2.584560  -20.543450    1.129480
  H      3.015070  -21.027270   -1.860290
  H      4.240270  -26.481150    0.070510

 Total Charge           Charge          ....    0
 Multiplicity           Mult            ....    1
 Number of Electrons    NEL             ....  476
 Basis Dimension        Dim             .... 1066

ORBITAL ENERGIES
----------------

  NO   OCC          E(Eh)            E(eV)
   0   2.0000     -88.992608     -2421.6120
   1   2.0000     -19.311189      -525.4842
   2   2.0000     -19.311093      -525.4816
   3   2.0000     -19.305030      -525.3166
   4   2.0000     -19.304397      -525.2993
   5   2.0000     -19.258181      -524.0418
   6   2.0000     -19.258044      -524.0380
   7   2.0000     -19.258020      -524.0374
   8   2.0000     -19.257802      -524.0314
   9   2.0000     -19.255359      -523.9650
  10   2.0000     -19.254561      -523.9432
  11   2.0000     -19.253566      -523.9162
  12   2.0000     -19.252031      -523.8744
  13   2.0000     -19.252018      -523.8741
  14   2.0000     -19.250629      -523.8362
  15   2.0000     -19.202039      -522.5141
  16   2.0000     -19.198271      -522.4115
  17   2.0000     -14.660158      -398.9232
  18   2.0000     -14.463837      -393.5810
  19   2.0000     -14.461655      -393.5217
  20   2.0000     -14.417669      -392.3247
  21   2.0000     -10.454043      -284.4690
  22   2.0000     -10.453577      -284.4563
  23   2.0000     -10.451260      -284.3932
  24   2.0000     -10.451230      -284.3924
  25   2.0000     -10.448025      -284.3052
  26   2.0000     -10.447741      -284.2975
  27   2.0000     -10.444967      -284.2220
  28   2.0000     -10.443314      -284.1770
  29   2.0000     -10.384913      -282.5879
  30   2.0000     -10.382083      -282.5108
  31   2.0000     -10.370785      -282.2034
  32   2.0000     -10.355533      -281.7884
  33   2.0000     -10.352661      -281.7102
  34   2.0000     -10.352281      -281.6999
  35   2.0000     -10.352082      -281.6945
  36   2.0000     -10.351958      -281.6911
  37   2.0000     -10.351801      -281.6868
  38   2.0000     -10.351430      -281.6767
  39   2.0000     -10.348920      -281.6084
  40   2.0000     -10.346263      -281.5361
  41   2.0000     -10.345735      -281.5218
  42   2.0000     -10.343319      -281.4560
  43   2.0000     -10.342708      -281.4394
  44   2.0000     -10.342634      -281.4374
  45   2.0000     -10.339960      -281.3646
  46   2.0000     -10.339903      -281.3631
  47   2.0000     -10.338733      -281.3312
  48   2.0000     -10.329577      -281.0821
  49   2.0000     -10.324528      -280.9447
  50   2.0000     -10.318080      -280.7692
  51   2.0000     -10.317933      -280.7652
  52   2.0000     -10.316881      -280.7366
  53   2.0000     -10.316525      -280.7269
  54   2.0000     -10.316184      -280.7176
  55   2.0000     -10.312612      -280.6204
  56   2.0000     -10.312232      -280.6101
  57   2.0000     -10.311668      -280.5947
  58   2.0000     -10.310835      -280.5721
  59   2.0000     -10.310317      -280.5580
  60   2.0000     -10.310000      -280.5494
  61   2.0000     -10.307493      -280.4812
  62   2.0000     -10.306463      -280.4531
  63   2.0000     -10.299897      -280.2744
  64   2.0000     -10.273430      -279.5543
  65   2.0000     -10.272438      -279.5272
  66   2.0000     -10.271585      -279.5040
  67   2.0000     -10.265134      -279.3285
  68   2.0000      -8.087505      -220.0722
  69   2.0000      -6.056671      -164.8104
  70   2.0000      -6.052468      -164.6960
  71   2.0000      -6.049852      -164.6248
  72   2.0000      -1.336595       -36.3706
  73   2.0000      -1.260980       -34.3130
  74   2.0000      -1.260673       -34.3046
  75   2.0000      -1.254970       -34.1495
  76   2.0000      -1.254548       -34.1380
  77   2.0000      -1.186816       -32.2949
  78   2.0000      -1.186574       -32.2883
  79   2.0000      -1.180964       -32.1357
  80   2.0000      -1.180204       -32.1150
  81   2.0000      -1.155718       -31.4487
  82   2.0000      -1.149190       -31.2711
  83   2.0000      -1.149120       -31.2691
  84   2.0000      -1.143182       -31.1076
  85   2.0000      -1.143005       -31.1027
  86   2.0000      -1.142335       -31.0845
  87   2.0000      -1.135942       -30.9106
  88   2.0000      -1.072382       -29.1810
  89   2.0000      -1.062950       -28.9243
  90   2.0000      -1.041208       -28.3327
  91   2.0000      -1.025070       -27.8936
  92   2.0000      -1.023468       -27.8500
  93   2.0000      -1.005795       -27.3691
  94   2.0000      -0.996967       -27.1288
  95   2.0000      -0.946592       -25.7581
  96   2.0000      -0.946484       -25.7551
  97   2.0000      -0.944229       -25.6938
  98   2.0000      -0.938306       -25.5326
  99   2.0000      -0.937268       -25.5043
 100   2.0000      -0.932362       -25.3708
 101   2.0000      -0.919216       -25.0131
 102   2.0000      -0.908334       -24.7170
 103   2.0000      -0.895716       -24.3737
 104   2.0000      -0.881734       -23.9932
 105   2.0000      -0.881347       -23.9827
 106   2.0000      -0.861458       -23.4415
 107   2.0000      -0.854212       -23.2443
 108   2.0000      -0.829835       -22.5810
 109   2.0000      -0.828190       -22.5362
 110   2.0000      -0.821737       -22.3606
 111   2.0000      -0.820980       -22.3400
 112   2.0000      -0.812757       -22.1163
 113   2.0000      -0.810110       -22.0442
 114   2.0000      -0.800623       -21.7861
 115   2.0000      -0.795723       -21.6527
 116   2.0000      -0.790889       -21.5212
 117   2.0000      -0.784153       -21.3379
 118   2.0000      -0.767883       -20.8951
 119   2.0000      -0.761239       -20.7144
 120   2.0000      -0.757802       -20.6208
 121   2.0000      -0.750310       -20.4170
 122   2.0000      -0.742293       -20.1988
 123   2.0000      -0.727735       -19.8027
 124   2.0000      -0.718394       -19.5485
 125   2.0000      -0.715210       -19.4618
 126   2.0000      -0.698968       -19.0199
 127   2.0000      -0.696521       -18.9533
 128   2.0000      -0.685037       -18.6408
 129   2.0000      -0.682176       -18.5630
 130   2.0000      -0.676264       -18.4021
 131   2.0000      -0.672995       -18.3131
 132   2.0000      -0.670591       -18.2477
 133   2.0000      -0.664733       -18.0883
 134   2.0000      -0.663171       -18.0458
 135   2.0000      -0.658972       -17.9315
 136   2.0000      -0.656940       -17.8762
 137   2.0000      -0.643802       -17.5188
 138   2.0000      -0.639390       -17.3987
 139   2.0000      -0.634751       -17.2725
 140   2.0000      -0.627755       -17.0821
 141   2.0000      -0.623206       -16.9583
 142   2.0000      -0.622732       -16.9454
 143   2.0000      -0.618234       -16.8230
 144   2.0000      -0.616431       -16.7740
 145   2.0000      -0.615573       -16.7506
 146   2.0000      -0.609746       -16.5920
 147   2.0000      -0.604201       -16.4411
 148   2.0000      -0.600036       -16.3278
 149   2.0000      -0.595883       -16.2148
 150   2.0000      -0.590643       -16.0722
 151   2.0000      -0.587921       -15.9981
 152   2.0000      -0.587077       -15.9752
 153   2.0000      -0.583327       -15.8731
 154   2.0000      -0.581685       -15.8285
 155   2.0000      -0.580291       -15.7905
 156   2.0000      -0.573155       -15.5964
 157   2.0000      -0.571711       -15.5571
 158   2.0000      -0.567358       -15.4386
 159   2.0000      -0.565005       -15.3746
 160   2.0000      -0.559381       -15.2215
 161   2.0000      -0.558646       -15.2015
 162   2.0000      -0.557618       -15.1735
 163   2.0000      -0.554798       -15.0968
 164   2.0000      -0.554242       -15.0817
 165   2.0000      -0.550429       -14.9779
 166   2.0000      -0.548241       -14.9184
 167   2.0000      -0.545915       -14.8551
 168   2.0000      -0.544479       -14.8160
 169   2.0000      -0.540309       -14.7025
 170   2.0000      -0.535600       -14.5744
 171   2.0000      -0.531546       -14.4641
 172   2.0000      -0.527724       -14.3601
 173   2.0000      -0.527401       -14.3513
 174   2.0000      -0.524434       -14.2706
 175   2.0000      -0.523045       -14.2328
 176   2.0000      -0.522709       -14.2236
 177   2.0000      -0.520147       -14.1539
 178   2.0000      -0.519520       -14.1368
 179   2.0000      -0.517627       -14.0853
 180   2.0000      -0.516641       -14.0585
 181   2.0000      -0.515488       -14.0271
 182   2.0000      -0.513507       -13.9732
 183   2.0000      -0.510371       -13.8879
 184   2.0000      -0.510024       -13.8785
 185   2.0000      -0.508572       -13.8390
 186   2.0000      -0.503834       -13.7100
 187   2.0000      -0.502623       -13.6771
 188   2.0000      -0.501637       -13.6502
 189   2.0000      -0.497102       -13.5268
 190   2.0000      -0.493178       -13.4201
 191   2.0000      -0.484150       -13.1744
 192   2.0000      -0.481474       -13.1016
 193   2.0000      -0.474854       -12.9214
 194   2.0000      -0.471053       -12.8180
 195   2.0000      -0.470299       -12.7975
 196   2.0000      -0.467613       -12.7244
 197   2.0000      -0.463216       -12.6047
 198   2.0000      -0.458089       -12.4652
 199   2.0000      -0.456911       -12.4332
 200   2.0000      -0.454087       -12.3563
 201   2.0000      -0.450696       -12.2641
 202   2.0000      -0.448261       -12.1978
 203   2.0000      -0.446217       -12.1422
 204   2.0000      -0.442821       -12.0498
 205   2.0000      -0.434833       -11.8324
 206   2.0000      -0.433850       -11.8056
 207   2.0000      -0.430480       -11.7140
 208   2.0000      -0.429103       -11.6765
 209   2.0000      -0.428982       -11.6732
 210   2.0000      -0.426258       -11.5991
 211   2.0000      -0.425269       -11.5722
 212   2.0000      -0.423153       -11.5146
 213   2.0000      -0.417816       -11.3694
 214   2.0000      -0.413245       -11.2450
 215   2.0000      -0.410325       -11.1655
 216   2.0000      -0.408935       -11.1277
 217   2.0000      -0.407653       -11.0928
 218   2.0000      -0.401765       -10.9326
 219   2.0000      -0.397191       -10.8081
 220   2.0000      -0.396429       -10.7874
 221   2.0000      -0.394619       -10.7381
 222   2.0000      -0.393047       -10.6954
 223   2.0000      -0.389112       -10.5883
 224   2.0000      -0.386995       -10.5307
 225   2.0000      -0.386291       -10.5115
 226   2.0000      -0.381707       -10.3868
 227   2.0000      -0.379770       -10.3341
 228   2.0000      -0.375618       -10.2211
 229   2.0000      -0.361478        -9.8363
 230   2.0000      -0.357756        -9.7350
 231   2.0000      -0.346719        -9.4347
 232   2.0000      -0.342465        -9.3189
 233   2.0000      -0.340920        -9.2769
 234   2.0000      -0.326039        -8.8720
 235   2.0000      -0.313913        -8.5420
 236   2.0000      -0.309185        -8.4133
 237   2.0000      -0.248133        -6.7520
 238   0.0000      -0.112200        -3.0531
 239   0.0000      -0.110489        -3.0066
 240   0.0000      -0.102651        -2.7933
 241   0.0000      -0.087277        -2.3749
 242   0.0000      -0.074173        -2.0184

MULLIKEN ATOMIC CHARGES
-----------------------
   0 C :   -0.055642
   1 C :   -0.034486
   2 C :    0.238610
   3 O :   -0.086327
   4 O :   -0.223983
   5 C :    0.238913
   6 O :   -0.093687
   7 C :   -0.092118
   8 C :    0.115146
   9 C :   -0.087902
  10 C :   -0.034218
  11 C :    0.236617
  12 O :   -0.086826
  13 O :   -0.224706
  14 C :    0.238417
  15 O :   -0.090263
  16 C :   -0.176003
  17 S :    0.219423
  18 C :   -0.054369
  19 C :   -0.067024
  20 C :    0.097925
  21 C :   -0.190514
  22 N :    0.136400
  23 C :    0.003450
  24 C :   -0.039268
  25 C :    0.128361
  26 N :   -0.272854
  27 C :    0.092412
  28 C :    0.002354
  29 C :    0.152453
  30 O :   -0.186134
  31 C :   -0.039040
  32 C :   -0.038597
  33 C :    0.151539
  34 O :   -0.189109
  35 N :   -0.276022
  36 C :    0.094532
  37 C :   -0.000965
  38 C :    0.116632
  39 C :   -0.013048
  40 C :    0.015602
  41 C :    0.102689
  42 C :   -0.057627
  43 C :    0.160185
  44 N :    0.242285
  45 O :   -0.215600
  46 O :   -0.232712
  47 C :    0.022722
  48 C :   -0.017256
  49 C :    0.011170
  50 C :    0.066426
  51 C :   -0.075171
  52 C :    0.090968
  53 C :   -0.089949
  54 C :    0.248831
  55 O :   -0.104715
  56 O :   -0.220991
  57 C :    0.233949
  58 O :   -0.089565
  59 C :   -0.031974
  60 C :   -0.064756
  61 C :   -0.030442
  62 C :   -0.087054
  63 C :    0.245862
  64 O :   -0.105106
  65 O :   -0.227235
  66 C :    0.234578
  67 O :   -0.087829
  68 H :    0.031337
  69 H :    0.003916
  70 H :    0.014429
  71 H :    0.017849
  72 H :    0.047431
  73 H :    0.030061
  74 H :    0.028982
  75 H :    0.033765
  76 H :    0.019570
  77 H :    0.047689
  78 H :    0.026801
  79 H :    0.028714
  80 H :    0.023440
  81 H :    0.023482
  82 H :    0.016041
  83 H :   -0.024853
  84 H :    0.015729
  85 H :   -0.002142
  86 H :   -0.009368
  87 H :    0.035327
  88 H :    0.016807
  89 H :    0.027632
Sum of atomic charges:   -0.0000000

LOEWDIN ATOMIC CHARGES
----------------------
   0 C :    0.042734
   1 C :   -0.035856
   2 C :    0.103122
   3 O :   -0.085267
   4 O :   -0.051060
   5 C :    0.100642
   6 O :   -0.096110
   7 C :   -0.054108
   8 C :    0.020094
   9 C :   -0.047252
  10 C :   -0.036350
  11 C :    0.102781
  12 O :   -0.085414
  13 O :   -0.051842
  14 C :    0.106854
  15 O :   -0.086447
  16 C :   -0.189237
  17 S :    0.519145
  18 C :   -0.130279
  19 C :   -0.105304
  20 C :    0.012269
  21 C :   -0.033057
  22 N :   -0.050253
  23 C :   -0.025697
  24 C :   -0.015564
  25 C :    0.071968
  26 N :   -0.004987
  27 C :    0.034783
  28 C :   -0.062178
  29 C :    0.081683
  30 O :   -0.187125
  31 C :   -0.114078
  32 C :   -0.110203
  33 C :    0.083073
  34 O :   -0.188889
  35 N :   -0.008277
  36 C :    0.034178
  37 C :   -0.062901
  38 C :    0.077223
  39 C :   -0.020479
  40 C :   -0.000778
  41 C :   -0.021018
  42 C :    0.019311
  43 C :   -0.017732
  44 N :    0.285035
  45 O :   -0.185555
  46 O :   -0.191084
  47 C :   -0.005653
  48 C :    0.001087
  49 C :    0.010381
  50 C :    0.043913
  51 C :   -0.048085
  52 C :    0.043732
  53 C :   -0.049604
  54 C :    0.112153
  55 O :   -0.093124
  56 O :   -0.049615
  57 C :    0.101758
  58 O :   -0.088809
  59 C :   -0.036812
  60 C :    0.037324
  61 C :   -0.038562
  62 C :   -0.051317
  63 C :    0.110260
  64 O :   -0.099326
  65 O :   -0.053733
  66 C :    0.103632
  67 O :   -0.087263
  68 H :    0.057318
  69 H :    0.041532
  70 H :    0.042648
  71 H :    0.041632
  72 H :    0.039636
  73 H :    0.023993
  74 H :    0.033024
  75 H :    0.035957
  76 H :    0.021292
  77 H :    0.038914
  78 H :    0.019228
  79 H :    0.032777
  80 H :    0.031592
  81 H :    0.022180
  82 H :    0.047586
  83 H :    0.029674
  84 H :    0.044158
  85 H :    0.038572
  86 H :    0.034851
  87 H :    0.030850
  88 H :    0.034184
  89 H :    0.055554

  Mayer bond orders larger than 0.100000
B(  0-C ,  1-C ) :   1.3370 B(  0-C , 10-C ) :   1.3366 B(  0-C , 68-H ) :   1.0248
B(  1-C ,  2-C ) :   0.8826 B(  1-C ,  7-C ) :   1.3630 B(  2-C ,  3-O ) :   2.3123
B(  2-C ,  4-O ) :   1.0460 B(  4-O ,  5-C ) :   1.0588 B(  5-C ,  6-O ) :   2.2539
B(  5-C ,  7-C ) :   0.9113 B(  7-C ,  8-C ) :   1.3578 B(  8-C ,  9-C ) :   1.3794
B(  8-C , 16-C ) :   1.0374 B(  9-C , 10-C ) :   1.3643 B(  9-C , 14-C ) :   0.9062
B( 10-C , 11-C ) :   0.8823 B( 11-C , 12-O ) :   2.3117 B( 11-C , 13-O ) :   1.0481
B( 13-O , 14-C ) :   1.0570 B( 14-C , 15-O ) :   2.2592 B( 16-C , 17-S ) :   1.1347
B( 16-C , 20-C ) :   1.4975 B( 17-S , 18-C ) :   1.1769 B( 18-C , 19-C ) :   1.4149
B( 18-C , 23-C ) :   1.1909 B( 19-C , 20-C ) :   1.3034 B( 19-C , 21-C ) :   1.0955
B( 20-C , 69-H ) :   0.9937 B( 21-C , 22-N ) :   3.0113 B( 23-C , 24-C ) :   1.5610
B( 23-C , 70-H ) :   0.9627 B( 24-C , 25-C ) :   1.1904 B( 24-C , 71-H ) :   0.9488
B( 25-C , 26-N ) :   1.1742 B( 25-C , 32-C ) :   1.3424 B( 26-N , 27-C ) :   0.9367
B( 26-N , 29-C ) :   1.0332 B( 27-C , 28-C ) :   1.1165 B( 27-C , 72-H ) :   0.9237
B( 27-C , 73-H ) :   0.9514 B( 28-C , 74-H ) :   0.9612 B( 28-C , 75-H ) :   0.9684
B( 28-C , 76-H ) :   0.9680 B( 29-C , 30-O ) :   2.1289 B( 29-C , 31-C ) :   0.9758
B( 31-C , 32-C ) :   1.2351 B( 31-C , 38-C ) :   1.3531 B( 32-C , 33-C ) :   0.9808
B( 33-C , 34-O ) :   2.1232 B( 33-C , 35-N ) :   1.0293 B( 35-N , 36-C ) :   0.9431
B( 35-N , 38-C ) :   1.1723 B( 36-C , 37-C ) :   1.1144 B( 36-C , 77-H ) :   0.9221
B( 36-C , 78-H ) :   0.9508 B( 37-C , 79-H ) :   0.9622 B( 37-C , 80-H ) :   0.9676
B( 37-C , 81-H ) :   0.9681 B( 38-C , 39-C ) :   1.1687 B( 39-C , 40-C ) :   1.6112
B( 39-C , 82-H ) :   0.9425 B( 40-C , 41-C ) :   1.0690 B( 40-C , 83-H ) :   0.9877
B( 41-C , 42-C ) :   1.2925 B( 41-C , 49-C ) :   1.3172 B( 42-C , 43-C ) :   1.3973
B( 42-C , 84-H ) :   0.9863 B( 43-C , 44-N ) :   0.8762 B( 43-C , 47-C ) :   1.3377
B( 44-N , 45-O ) :   1.5679 B( 44-N , 46-O ) :   1.5185 B( 45-O , 46-O ) :   0.2670
B( 47-C , 48-C ) :   1.3581 B( 47-C , 50-C ) :   1.0585 B( 48-C , 49-C ) :   1.3870
B( 48-C , 85-H ) :   0.9900 B( 49-C , 86-H ) :   0.9983 B( 50-C , 51-C ) :   1.7167
B( 50-C , 87-H ) :   0.9213 B( 51-C , 52-C ) :   1.1386 B( 51-C , 88-H ) :   0.9515
B( 52-C , 53-C ) :   1.2993 B( 52-C , 62-C ) :   1.3364 B( 53-C , 54-C ) :   0.9129
B( 53-C , 59-C ) :   1.3783 B( 54-C , 55-O ) :   2.2162 B( 54-C , 56-O ) :   1.0648
B( 56-O , 57-C ) :   1.0467 B( 57-C , 58-O ) :   2.3095 B( 57-C , 59-C ) :   0.8843
B( 59-C , 60-C ) :   1.3412 B( 60-C , 61-C ) :   1.3348 B( 60-C , 89-H ) :   1.0243
B( 61-C , 62-C ) :   1.3669 B( 61-C , 66-C ) :   0.8826 B( 62-C , 63-C ) :   0.9239
B( 63-C , 64-O ) :   2.2145 B( 63-C , 65-O ) :   1.0643 B( 65-O , 66-C ) :   1.0437
B( 66-C , 67-O ) :   2.3139

-----------------------------------------------------------------------------
         ABSORPTION SPECTRUM VIA TRANSITION ELECTRIC DIPOLE MOMENTS
-----------------------------------------------------------------------------
State   Energy  Wavelength   fosc         T2         TX        TY        TZ
        (cm-1)    (nm)                  (au**2)     (au)      (au)      (au)
-----------------------------------------------------------------------------
   0   15012.1    666.1   1.077757604  23.63493  -0.91821   4.67742   0.95582
   1   17500.4    571.4   0.048826870   0.91852  -0.12796  -0.88906  -0.33424
   2   22134.8    451.8   0.062972205   0.93659  -0.10671  -0.77362  -0.57159
   3   22691.2    440.7   0.048797583   0.70797   0.09060  -0.27556  -0.78983
   4   24895.0    401.7   0.167545107   2.21562  -0.30820   0.99811  -1.06039
   5   25970.3    385.1   0.008940172   0.11333  -0.11630  -0.04209  -0.31310
   6   26865.0    372.2   0.082551709   1.01161   0.60881  -0.58797   0.54337
   7   27325.7    366.0   0.321890977   3.87805  -0.43012   1.79464  -0.68724
   8   27870.1    358.8   0.145419507   1.71775   0.13995   1.07727  -0.73325
   9   28141.7    355.3   0.022132782   0.25892  -0.00042   0.38413   0.33371
  10   28233.3    354.2   0.185712894   2.16549  -0.29484   1.42584   0.21339
  11   28936.5    345.6   0.755962446   8.60062   0.70277  -2.84495   0.11392
  12   30308.7    329.9   0.003255148   0.03536   0.10643  -0.07763   0.13418
  13   31002.8    322.6   0.011879401   0.12614   0.12800   0.05001   0.32750
  14   31775.2    314.7   0.003842613   0.03981   0.05479  -0.17420   0.08041
  15   32973.3    303.3   0.055704646   0.55617   0.03188  -0.69180  -0.27670
  16   33141.5    301.7   0.011062320   0.10989   0.10511  -0.31434  -0.00546
  17   34061.7    293.6   0.032522922   0.31434  -0.26752  -0.22645  -0.43760
  18   34480.2    290.0   0.014563604   0.13905  -0.22203  -0.12839   0.27068
  19   34538.1    289.5   0.003158291   0.03010  -0.02588   0.09019  -0.14595
  20   34935.3    286.2   0.075892749   0.71517  -0.02725  -0.18258  -0.82528
  21   35666.1    280.4   0.010483091   0.09676   0.07323  -0.21125  -0.21628
  22   35987.1    277.9   0.014875237   0.13608  -0.05309   0.36504   0.00268
  23   36141.6    276.7   0.065965092   0.60087  -0.12051   0.75372   0.13514
  24   36648.2    272.9   0.244514505   2.19648  -0.40038   1.26988  -0.65083
  25   36781.0    271.9   0.003694996   0.03307  -0.04554   0.14381  -0.10158
  26   36854.8    271.3   0.077310150   0.69059   0.22636  -0.67723   0.42510
  27   37432.4    267.1   0.012278401   0.10799  -0.06283  -0.29915  -0.12062
  28   37929.6    263.6   0.012100019   0.10502   0.30147   0.09619  -0.06989
  29   38606.0    259.0   0.026747003   0.22808  -0.29763   0.08326  -0.36410
  30   38708.4    258.3   0.078300155   0.66594  -0.27612   0.61418  -0.46096
  31   38765.4    258.0   0.033672130   0.28596   0.35049   0.25044   0.31685
  32   38931.8    256.9   0.033934499   0.28695   0.03159  -0.43578  -0.30993
  33   39089.2    255.8   0.144253546   1.21491  -0.30787   0.89738  -0.56110
  34   39129.5    255.6   0.005050941   0.04250  -0.03362   0.17950  -0.09563
  35   39269.7    254.6   0.047508265   0.39828   0.27145  -0.52073   0.23116
  36   39535.5    252.9   0.000720235   0.00600   0.02086   0.07055   0.02418

FINAL SINGLE POINT ENERGY     -3621.045521777353

DIPOLE MOMENT
-------------
                                X             Y             Z
Electronic contribution:     -9.34410       4.61246      -4.44379
Nuclear contribution   :      8.43114      -4.17979       2.28174
                        -----------------------------------------
Total Dipole Moment    :     -0.91297       0.43267      -2.16205
                        -----------------------------------------
Magnitude (a.u.)       :      2.38645
Magnitude (Debye)      :      6.06588

Rotational constants in cm-1:     0.003001     0.000225     0.000216
Rotational constants in MHz :    89.970972     6.735540     6.469997

                             ****ORCA TERMINATED NORMALLY****
TOTAL RUN TIME: 0 days 0 hours 8 minutes 15 seconds 418 msec
