                         Program Version 4.2.0 -  RELEASE  -
|  1> # ORCA input file
|  2> # SCF done       -179.470499258791          0.000419330348
|  3> ! CAM-B3LYP def2-SVP def2/J RIJCOSX Grid4 TightSCF
|  4> %maxcore 5000
|  5> %tddft
|  6>     Mode sTDDFT
|  7>     Ethresh 5.0
|  8>     maxcore 5000
|  9> end
| 10>
| 11> %pal
| 12>   nprocs 6
| 13>   end
| 14> * xyz 0 1
| 15>    C       13.93452        -2.19108        -0.59969
| 16>    C       15.27233        -2.41178        -0.50321
| 17>    S       15.77751        -3.66360        -1.58016
| 18>    C       14.15223        -3.89414        -2.18122
| 19>   Cl       13.80453        -5.04805        -3.37026
| 20>    C       13.28997        -3.03901        -1.56105
| 21>    C       11.85880        -2.73362        -1.60644
| 22>    O       11.00595        -3.22201        -2.32106
| 23>    C       11.65763        -1.70105        -0.56790
| 24>    C       12.94511        -1.30501        -0.01910
| 25>    C       13.20957        -0.26692         0.83245
| 26>    C       14.50831        -0.04953         1.33802
| 27>    N       15.55237         0.12854         1.77934
| 28>    C       12.29044         0.72301         1.24099
| 29>    N       11.62713         1.60634         1.55327
| 30>    C       10.45894        -1.30304        -0.05012
| 31>    C        9.14487        -1.63050        -0.43763
| 32>    S        8.70541        -2.42364        -1.91728
| 33>    C        7.03698        -2.18543        -1.53155
| 34>    N        6.05262        -2.65161        -2.42977
| 35>    O        4.88886        -2.46241        -2.13525
| 36>    O        6.44370        -3.20607        -3.43678
| 37>    C        6.80906        -1.57115        -0.32719
| 38>    C        8.00923        -1.25130         0.32763
| 39>    C        8.12977        -0.67787         1.62681
| 40>    C        7.15074        -0.11573         2.37632
| 41>    C        7.46794         0.42722         3.65041
| 42>    N        6.56434         1.06328         4.46479
| 43>    C        5.17796         1.33222         4.16927
| 44>    C        5.01984         2.52385         3.22788
| 45>    C        7.15816         1.52813         5.65441
| 46>    O        6.54206         2.11096         6.52170
| 47>    C        8.54316         1.12530         5.54048
| 48>    C        8.70119         0.44387         4.30537
| 49>    C       10.08517         0.03249         4.20744
| 50>    O       10.69161        -0.60713         3.36229
| 51>    N       10.68088         0.52219         5.37388
| 52>    C       12.08129         0.30721         5.64818
| 53>    C       12.29955        -0.85474         6.61370
| 54>    C        9.77534         1.16580         6.18583
| 55>    C       10.12060         1.73858         7.44070
| 56>    C        9.22821         2.34364         8.25177
| 57>    C        9.61440         2.90526         9.52810
| 58>    N       10.88626         2.78251         9.92707
| 59>    C       11.20403         3.31584        11.08987
| 60>    C       10.28278         3.97260        11.89266
| 61>    C        8.97344         4.04491        11.40287
| 62>    N        8.65892         3.50877        10.22550
| 63>    C        7.87783         4.72070        12.06946
| 64>    C        7.90175         5.25856        13.30045
| 65>    C        6.77930         5.91467        13.90055
| 66>    C        5.81261         6.65945        13.31394
| 67>    C        4.55217         6.93140        14.08407
| 68>    O        4.38372         6.74544        15.26402
| 69>    C        3.60344         7.40768        13.07355
| 70>    C        2.28269         7.74150        13.01719
| 71>    S        1.84379         8.22811        11.39716
| 72>    C        3.45105         7.98565        10.81828
| 73>    C        4.27091         7.55027        11.81218
| 74>    C        5.67390         7.21641        11.97456
| 75>    C        6.65576         7.57704        11.09331
| 76>    C        6.34516         8.19561         9.86277
| 77>    N        6.10472         8.69369         8.85809
| 78>    C        8.04040         7.45528        11.31979
| 79>    N        9.17874         7.42125        11.46146
| 80>   Cl        1.14539         7.72305        14.27179
| 81>    H       15.99641        -1.93287         0.12569
| 82>    H       10.52649        -0.65767         0.81629
| 83>    H        5.82251        -1.38839         0.05806
| 84>    H        9.11344        -0.70207         2.06739
| 85>    H        6.13373        -0.04455         2.02173
| 86>    H        4.70316         1.55818         5.12815
| 87>    H        4.71298         0.43637         3.74857
| 88>    H        5.44278         3.41482         3.68508
| 89>    H        3.96605         2.70073         3.03147
| 90>    H        5.52849         2.34643         2.28286
| 91>    H       12.51980         1.22776         6.04095
| 92>    H       12.54907         0.08017         4.68604
| 93>    H       11.81421        -0.66347         7.56800
| 94>    H       13.36334        -0.99546         6.78299
| 95>    H       11.89020        -1.77011         6.19289
| 96>    H       11.14986         1.68507         7.76542
| 97>    H        8.18465         2.43950         7.98901
| 98>    H       12.23961         3.21058        11.38894
| 99>    H       10.57113         4.41317        12.83098
|100>    H        6.97180         4.75148        11.47827
|101>    H        8.77068         5.14026        13.93359
|102>    H        6.64889         5.76038        14.96818
|103>    H        3.67281         8.17119         9.78611
|104> *
|105>
|106>                          ****END OF INPUT****

CARTESIAN COORDINATES (ANGSTROEM)
---------------------------------
  C     13.934520   -2.191080   -0.599690
  C     15.272330   -2.411780   -0.503210
  S     15.777510   -3.663600   -1.580160
  C     14.152230   -3.894140   -2.181220
  Cl    13.804530   -5.048050   -3.370260
  C     13.289970   -3.039010   -1.561050
  C     11.858800   -2.733620   -1.606440
  O     11.005950   -3.222010   -2.321060
  C     11.657630   -1.701050   -0.567900
  C     12.945110   -1.305010   -0.019100
  C     13.209570   -0.266920    0.832450
  C     14.508310   -0.049530    1.338020
  N     15.552370    0.128540    1.779340
  C     12.290440    0.723010    1.240990
  N     11.627130    1.606340    1.553270
  C     10.458940   -1.303040   -0.050120
  C      9.144870   -1.630500   -0.437630
  S      8.705410   -2.423640   -1.917280
  C      7.036980   -2.185430   -1.531550
  N      6.052620   -2.651610   -2.429770
  O      4.888860   -2.462410   -2.135250
  O      6.443700   -3.206070   -3.436780
  C      6.809060   -1.571150   -0.327190
  C      8.009230   -1.251300    0.327630
  C      8.129770   -0.677870    1.626810
  C      7.150740   -0.115730    2.376320
  C      7.467940    0.427220    3.650410
  N      6.564340    1.063280    4.464790
  C      5.177960    1.332220    4.169270
  C      5.019840    2.523850    3.227880
  C      7.158160    1.528130    5.654410
  O      6.542060    2.110960    6.521700
  C      8.543160    1.125300    5.540480
  C      8.701190    0.443870    4.305370
  C     10.085170    0.032490    4.207440
  O     10.691610   -0.607130    3.362290
  N     10.680880    0.522190    5.373880
  C     12.081290    0.307210    5.648180
  C     12.299550   -0.854740    6.613700
  C      9.775340    1.165800    6.185830
  C     10.120600    1.738580    7.440700
  C      9.228210    2.343640    8.251770
  C      9.614400    2.905260    9.528100
  N     10.886260    2.782510    9.927070
  C     11.204030    3.315840   11.089870
  C     10.282780    3.972600   11.892660
  C      8.973440    4.044910   11.402870
  N      8.658920    3.508770   10.225500
  C      7.877830    4.720700   12.069460
  C      7.901750    5.258560   13.300450
  C      6.779300    5.914670   13.900550
  C      5.812610    6.659450   13.313940
  C      4.552170    6.931400   14.084070
  O      4.383720    6.745440   15.264020
  C      3.603440    7.407680   13.073550
  C      2.282690    7.741500   13.017190
  S      1.843790    8.228110   11.397160
  C      3.451050    7.985650   10.818280
  C      4.270910    7.550270   11.812180
  C      5.673900    7.216410   11.974560
  C      6.655760    7.577040   11.093310
  C      6.345160    8.195610    9.862770
  N      6.104720    8.693690    8.858090
  C      8.040400    7.455280   11.319790
  N      9.178740    7.421250   11.461460
  Cl     1.145390    7.723050   14.271790
  H     15.996410   -1.932870    0.125690
  H     10.526490   -0.657670    0.816290
  H      5.822510   -1.388390    0.058060
  H      9.113440   -0.702070    2.067390
  H      6.133730   -0.044550    2.021730
  H      4.703160    1.558180    5.128150
  H      4.712980    0.436370    3.748570
  H      5.442780    3.414820    3.685080
  H      3.966050    2.700730    3.031470
  H      5.528490    2.346430    2.282860
  H     12.519800    1.227760    6.040950
  H     12.549070    0.080170    4.686040
  H     11.814210   -0.663470    7.568000
  H     13.363340   -0.995460    6.782990
  H     11.890200   -1.770110    6.192890
  H     11.149860    1.685070    7.765420
  H      8.184650    2.439500    7.989010
  H     12.239610    3.210580   11.388940
  H     10.571130    4.413170   12.830980
  H      6.971800    4.751480   11.478270
  H      8.770680    5.140260   13.933590
  H      6.648890    5.760380   14.968180
  H      3.672810    8.171190    9.786110

 Total Charge           Charge          ....    0
 Multiplicity           Mult            ....    1
 Number of Electrons    NEL             ....  492
 Basis Dimension        Dim             .... 1059

ORBITAL ENERGIES
----------------

  NO   OCC          E(Eh)            E(eV)
   0   2.0000    -101.620245     -2765.2274
   1   2.0000    -101.619788     -2765.2150
   2   2.0000     -88.996164     -2421.7087
   3   2.0000     -88.995777     -2421.6982
   4   2.0000     -88.987919     -2421.4844
   5   2.0000     -19.246975      -523.7368
   6   2.0000     -19.246271      -523.7177
   7   2.0000     -19.231854      -523.3253
   8   2.0000     -19.223491      -523.0978
   9   2.0000     -19.196284      -522.3574
  10   2.0000     -19.192341      -522.2501
  11   2.0000     -14.656553      -398.8251
  12   2.0000     -14.455971      -393.3670
  13   2.0000     -14.455236      -393.3470
  14   2.0000     -14.423856      -392.4931
  15   2.0000     -14.422620      -392.4594
  16   2.0000     -14.421424      -392.4269
  17   2.0000     -14.415938      -392.2776
  18   2.0000     -14.415843      -392.2750
  19   2.0000     -14.414874      -392.2487
  20   2.0000     -10.385310      -282.5986
  21   2.0000     -10.379719      -282.4465
  22   2.0000     -10.379467      -282.4397
  23   2.0000     -10.379081      -282.4292
  24   2.0000     -10.377634      -282.3898
  25   2.0000     -10.375115      -282.3212
  26   2.0000     -10.353719      -281.7390
  27   2.0000     -10.352552      -281.7073
  28   2.0000     -10.351229      -281.6713
  29   2.0000     -10.349105      -281.6135
  30   2.0000     -10.348513      -281.5973
  31   2.0000     -10.345880      -281.5257
  32   2.0000     -10.343819      -281.4696
  33   2.0000     -10.337660      -281.3020
  34   2.0000     -10.336152      -281.2610
  35   2.0000     -10.335868      -281.2533
  36   2.0000     -10.331692      -281.1396
  37   2.0000     -10.331678      -281.1393
  38   2.0000     -10.329488      -281.0797
  39   2.0000     -10.326961      -281.0109
  40   2.0000     -10.325268      -280.9648
  41   2.0000     -10.324399      -280.9412
  42   2.0000     -10.324321      -280.9391
  43   2.0000     -10.323413      -280.9143
  44   2.0000     -10.318839      -280.7899
  45   2.0000     -10.317155      -280.7441
  46   2.0000     -10.316054      -280.7141
  47   2.0000     -10.315329      -280.6944
  48   2.0000     -10.311754      -280.5971
  49   2.0000     -10.311267      -280.5838
  50   2.0000     -10.311157      -280.5809
  51   2.0000     -10.310700      -280.5684
  52   2.0000     -10.306832      -280.4632
  53   2.0000     -10.305327      -280.4222
  54   2.0000     -10.303864      -280.3824
  55   2.0000     -10.303283      -280.3666
  56   2.0000     -10.303115      -280.3620
  57   2.0000     -10.302303      -280.3399
  58   2.0000     -10.298562      -280.2381
  59   2.0000     -10.293790      -280.1083
  60   2.0000     -10.287060      -279.9251
  61   2.0000     -10.279531      -279.7203
  62   2.0000     -10.265615      -279.3416
  63   2.0000     -10.264516      -279.3117
  64   2.0000     -10.262368      -279.2532
  65   2.0000     -10.262099      -279.2459
  66   2.0000      -9.574980      -260.5484
  67   2.0000      -9.574550      -260.5367
  68   2.0000      -8.091853      -220.1905
  69   2.0000      -8.091526      -220.1816
  70   2.0000      -8.081097      -219.8978
  71   2.0000      -7.345623      -199.8846
  72   2.0000      -7.345149      -199.8717
  73   2.0000      -7.335024      -199.5962
  74   2.0000      -7.334614      -199.5850
  75   2.0000      -7.334468      -199.5810
  76   2.0000      -7.334072      -199.5702
  77   2.0000      -6.061202      -164.9337
  78   2.0000      -6.060933      -164.9264
  79   2.0000      -6.056635      -164.8094
  80   2.0000      -6.056296      -164.8002
  81   2.0000      -6.054142      -164.7416
  82   2.0000      -6.053739      -164.7306
  83   2.0000      -6.050569      -164.6444
  84   2.0000      -6.045796      -164.5145
  85   2.0000      -6.043325      -164.4472
  86   2.0000      -1.328552       -36.1517
  87   2.0000      -1.148634       -31.2559
  88   2.0000      -1.147338       -31.2207
  89   2.0000      -1.140655       -31.0388
  90   2.0000      -1.136223       -30.9182
  91   2.0000      -1.129612       -30.7383
  92   2.0000      -1.088669       -29.6242
  93   2.0000      -1.066174       -29.0121
  94   2.0000      -1.057945       -28.7882
  95   2.0000      -1.041108       -28.3300
  96   2.0000      -1.041088       -28.3294
  97   2.0000      -1.021071       -27.7848
  98   2.0000      -1.020541       -27.7703
  99   2.0000      -1.016574       -27.6624
 100   2.0000      -1.001742       -27.2588
 101   2.0000      -0.996928       -27.1278
 102   2.0000      -0.991490       -26.9798
 103   2.0000      -0.990674       -26.9576
 104   2.0000      -0.988008       -26.8851
 105   2.0000      -0.958713       -26.0879
 106   2.0000      -0.958066       -26.0703
 107   2.0000      -0.935597       -25.4589
 108   2.0000      -0.932625       -25.3780
 109   2.0000      -0.928107       -25.2551
 110   2.0000      -0.916922       -24.9507
 111   2.0000      -0.914376       -24.8814
 112   2.0000      -0.906623       -24.6705
 113   2.0000      -0.905688       -24.6450
 114   2.0000      -0.884312       -24.0634
 115   2.0000      -0.876114       -23.8403
 116   2.0000      -0.870027       -23.6746
 117   2.0000      -0.858674       -23.3657
 118   2.0000      -0.850001       -23.1297
 119   2.0000      -0.835454       -22.7339
 120   2.0000      -0.835354       -22.7311
 121   2.0000      -0.821413       -22.3518
 122   2.0000      -0.818768       -22.2798
 123   2.0000      -0.805498       -21.9187
 124   2.0000      -0.799329       -21.7508
 125   2.0000      -0.789689       -21.4885
 126   2.0000      -0.764339       -20.7987
 127   2.0000      -0.761674       -20.7262
 128   2.0000      -0.760279       -20.6883
 129   2.0000      -0.755895       -20.5689
 130   2.0000      -0.745084       -20.2748
 131   2.0000      -0.735398       -20.0112
 132   2.0000      -0.717648       -19.5282
 133   2.0000      -0.711337       -19.3565
 134   2.0000      -0.706629       -19.2283
 135   2.0000      -0.698764       -19.0143
 136   2.0000      -0.690606       -18.7923
 137   2.0000      -0.684386       -18.6231
 138   2.0000      -0.679144       -18.4805
 139   2.0000      -0.678912       -18.4741
 140   2.0000      -0.669349       -18.2139
 141   2.0000      -0.657285       -17.8856
 142   2.0000      -0.651932       -17.7400
 143   2.0000      -0.648659       -17.6509
 144   2.0000      -0.639715       -17.4075
 145   2.0000      -0.638490       -17.3742
 146   2.0000      -0.638195       -17.3662
 147   2.0000      -0.632742       -17.2178
 148   2.0000      -0.625027       -17.0079
 149   2.0000      -0.619193       -16.8491
 150   2.0000      -0.618424       -16.8282
 151   2.0000      -0.612842       -16.6763
 152   2.0000      -0.609857       -16.5951
 153   2.0000      -0.602115       -16.3844
 154   2.0000      -0.600920       -16.3519
 155   2.0000      -0.589727       -16.0473
 156   2.0000      -0.584993       -15.9185
 157   2.0000      -0.578618       -15.7450
 158   2.0000      -0.575024       -15.6472
 159   2.0000      -0.571885       -15.5618
 160   2.0000      -0.568047       -15.4573
 161   2.0000      -0.564672       -15.3655
 162   2.0000      -0.556340       -15.1388
 163   2.0000      -0.554557       -15.0902
 164   2.0000      -0.551374       -15.0036
 165   2.0000      -0.547455       -14.8970
 166   2.0000      -0.546313       -14.8659
 167   2.0000      -0.544409       -14.8141
 168   2.0000      -0.537691       -14.6313
 169   2.0000      -0.535481       -14.5712
 170   2.0000      -0.533843       -14.5266
 171   2.0000      -0.532246       -14.4831
 172   2.0000      -0.531172       -14.4539
 173   2.0000      -0.529721       -14.4145
 174   2.0000      -0.529594       -14.4110
 175   2.0000      -0.525183       -14.2909
 176   2.0000      -0.524521       -14.2729
 177   2.0000      -0.519118       -14.1259
 178   2.0000      -0.513085       -13.9617
 179   2.0000      -0.510170       -13.8824
 180   2.0000      -0.509358       -13.8603
 181   2.0000      -0.508809       -13.8454
 182   2.0000      -0.505570       -13.7573
 183   2.0000      -0.505349       -13.7512
 184   2.0000      -0.501817       -13.6551
 185   2.0000      -0.500925       -13.6309
 186   2.0000      -0.498822       -13.5736
 187   2.0000      -0.489922       -13.3315
 188   2.0000      -0.489867       -13.3300
 189   2.0000      -0.487360       -13.2617
 190   2.0000      -0.484740       -13.1905
 191   2.0000      -0.476190       -12.9578
 192   2.0000      -0.469117       -12.7653
 193   2.0000      -0.466392       -12.6912
 194   2.0000      -0.465871       -12.6770
 195   2.0000      -0.464006       -12.6262
 196   2.0000      -0.459682       -12.5086
 197   2.0000      -0.457304       -12.4439
 198   2.0000      -0.457055       -12.4371
 199   2.0000      -0.456918       -12.4334
 200   2.0000      -0.455459       -12.3937
 201   2.0000      -0.453011       -12.3271
 202   2.0000      -0.451758       -12.2929
 203   2.0000      -0.448817       -12.2129
 204   2.0000      -0.447493       -12.1769
 205   2.0000      -0.446354       -12.1459
 206   2.0000      -0.444162       -12.0863
 207   2.0000      -0.443453       -12.0670
 208   2.0000      -0.441604       -12.0166
 209   2.0000      -0.440288       -11.9809
 210   2.0000      -0.437440       -11.9034
 211   2.0000      -0.435556       -11.8521
 212   2.0000      -0.430383       -11.7113
 213   2.0000      -0.429046       -11.6749
 214   2.0000      -0.427896       -11.6437
 215   2.0000      -0.427167       -11.6238
 216   2.0000      -0.422603       -11.4996
 217   2.0000      -0.417565       -11.3625
 218   2.0000      -0.415369       -11.3028
 219   2.0000      -0.413677       -11.2567
 220   2.0000      -0.407836       -11.0978
 221   2.0000      -0.405811       -11.0427
 222   2.0000      -0.405183       -11.0256
 223   2.0000      -0.392807       -10.6888
 224   2.0000      -0.391892       -10.6639
 225   2.0000      -0.387211       -10.5366
 226   2.0000      -0.385435       -10.4882
 227   2.0000      -0.384694       -10.4681
 228   2.0000      -0.381810       -10.3896
 229   2.0000      -0.377239       -10.2652
 230   2.0000      -0.373323       -10.1586
 231   2.0000      -0.351807        -9.5732
 232   2.0000      -0.348425        -9.4811
 233   2.0000      -0.347684        -9.4610
 234   2.0000      -0.339934        -9.2501
 235   2.0000      -0.338239        -9.2039
 236   2.0000      -0.335014        -9.1162
 237   2.0000      -0.332189        -9.0393
 238   2.0000      -0.330949        -9.0056
 239   2.0000      -0.329965        -8.9788
 240   2.0000      -0.319396        -8.6912
 241   2.0000      -0.317763        -8.6468
 242   2.0000      -0.316023        -8.5994
 243   2.0000      -0.304112        -8.2753
 244   2.0000      -0.297168        -8.0863
 245   2.0000      -0.241078        -6.5601
 246   0.0000      -0.112883        -3.0717
 247   0.0000      -0.100411        -2.7323
 248   0.0000      -0.079361        -2.1595
 249   0.0000      -0.058964        -1.6045
 250   0.0000      -0.055470        -1.5094

MULLIKEN ATOMIC CHARGES
-----------------------
   0 C :    0.036152
   1 C :   -0.130896
   2 S :    0.186577
   3 C :   -0.169984
   4 Cl:    0.003716
   5 C :    0.075648
   6 C :    0.168049
   7 O :   -0.157638
   8 C :   -0.106838
   9 C :    0.283798
  10 C :   -0.308840
  11 C :   -0.202611
  12 N :    0.153791
  13 C :   -0.185160
  14 N :    0.163986
  15 C :   -0.034682
  16 C :   -0.088674
  17 S :    0.262727
  18 C :    0.022922
  19 N :    0.259209
  20 O :   -0.237834
  21 O :   -0.238311
  22 C :   -0.008833
  23 C :    0.154666
  24 C :   -0.031538
  25 C :    0.005154
  26 C :    0.118183
  27 N :   -0.256247
  28 C :    0.100070
  29 C :    0.002392
  30 C :    0.159503
  31 O :   -0.195942
  32 C :   -0.060328
  33 C :   -0.058718
  34 C :    0.195387
  35 O :   -0.245061
  36 N :   -0.245580
  37 C :    0.102318
  38 C :    0.003270
  39 C :    0.146769
  40 C :    0.003395
  41 C :    0.044334
  42 C :   -0.078654
  43 N :   -0.069206
  44 C :    0.079894
  45 C :   -0.027801
  46 C :    0.020270
  47 N :   -0.033542
  48 C :    0.055667
  49 C :    0.023471
  50 C :    0.038251
  51 C :   -0.124314
  52 C :    0.128425
  53 O :   -0.125292
  54 C :    0.096292
  55 C :   -0.174348
  56 S :    0.189371
  57 C :   -0.125237
  58 C :    0.009783
  59 C :    0.268442
  60 C :   -0.315666
  61 C :   -0.184325
  62 N :    0.160063
  63 C :   -0.186139
  64 N :    0.173603
  65 Cl:    0.002490
  66 H :    0.054369
  67 H :    0.034529
  68 H :    0.008951
  69 H :    0.017583
  70 H :   -0.029694
  71 H :    0.043477
  72 H :    0.021617
  73 H :    0.033856
  74 H :    0.025083
  75 H :    0.015782
  76 H :    0.032555
  77 H :    0.039718
  78 H :    0.019800
  79 H :    0.026058
  80 H :    0.024020
  81 H :   -0.005311
  82 H :    0.013676
  83 H :    0.009305
  84 H :   -0.000922
  85 H :    0.017468
  86 H :    0.015505
  87 H :    0.036523
  88 H :    0.056253
Sum of atomic charges:   -0.0000000

LOEWDIN ATOMIC CHARGES
----------------------
   0 C :   -0.056358
   1 C :   -0.149083
   2 S :    0.475529
   3 C :   -0.270859
   4 Cl:    0.195484
   5 C :   -0.116931
   6 C :    0.082264
   7 O :   -0.151058
   8 C :   -0.083637
   9 C :    0.072759
  10 C :   -0.124831
  11 C :   -0.015002
  12 N :   -0.053447
  13 C :   -0.025152
  14 N :   -0.046395
  15 C :    0.058415
  16 C :   -0.163847
  17 S :    0.560137
  18 C :   -0.186994
  19 N :    0.270718
  20 O :   -0.205773
  21 O :   -0.205737
  22 C :   -0.017119
  23 C :   -0.032431
  24 C :    0.022719
  25 C :   -0.031177
  26 C :    0.077145
  27 N :    0.000000
  28 C :    0.036394
  29 C :   -0.060592
  30 C :    0.082433
  31 O :   -0.189950
  32 C :   -0.115435
  33 C :   -0.117848
  34 C :    0.087615
  35 O :   -0.214098
  36 N :    0.010206
  37 C :    0.039364
  38 C :   -0.060664
  39 C :    0.077578
  40 C :   -0.019344
  41 C :    0.016587
  42 C :    0.025059
  43 N :   -0.082785
  44 C :    0.052156
  45 C :   -0.043892
  46 C :    0.029204
  47 N :   -0.074467
  48 C :    0.022463
  49 C :   -0.017095
  50 C :    0.068375
  51 C :   -0.077307
  52 C :    0.081419
  53 O :   -0.129479
  54 C :   -0.118950
  55 C :   -0.272300
  56 S :    0.478603
  57 C :   -0.149835
  58 C :   -0.057335
  59 C :    0.066217
  60 C :   -0.128324
  61 C :   -0.015445
  62 N :   -0.045247
  63 C :   -0.014728
  64 N :   -0.040726
  65 Cl:    0.193592
  66 H :    0.038327
  67 H :    0.054638
  68 H :    0.041343
  69 H :    0.037185
  70 H :    0.028284
  71 H :    0.038110
  72 H :    0.022230
  73 H :    0.034213
  74 H :    0.031168
  75 H :    0.022001
  76 H :    0.028032
  77 H :    0.036307
  78 H :    0.024076
  79 H :    0.031801
  80 H :    0.030044
  81 H :    0.032937
  82 H :    0.039912
  83 H :    0.028169
  84 H :    0.034641
  85 H :    0.040159
  86 H :    0.037334
  87 H :    0.049748
  88 H :    0.038585

  Mayer bond orders larger than 0.100000
B(  0-C ,  1-C ) :   1.5514 B(  0-C ,  5-C ) :   1.2243 B(  0-C ,  9-C ) :   0.9969
B(  1-C ,  2-S ) :   1.1571 B(  1-C , 66-H ) :   0.9554 B(  2-S ,  3-C ) :   1.1522
B(  3-C ,  4-Cl) :   1.1325 B(  3-C ,  5-C ) :   1.4728 B(  5-C ,  6-C ) :   0.9667
B(  6-C ,  7-O ) :   2.1575 B(  6-C ,  8-C ) :   0.9572 B(  8-C ,  9-C ) :   1.0612
B(  8-C , 15-C ) :   1.6005 B(  9-C , 10-C ) :   1.6652 B( 10-C , 11-C ) :   1.1535
B( 10-C , 13-C ) :   1.1360 B( 11-C , 12-N ) :   2.9908 B( 13-C , 14-N ) :   2.9698
B( 15-C , 16-C ) :   1.2350 B( 15-C , 67-H ) :   0.9359 B( 16-C , 17-S ) :   1.1241
B( 16-C , 23-C ) :   1.3213 B( 17-S , 18-C ) :   1.1206 B( 18-C , 19-N ) :   0.9379
B( 18-C , 22-C ) :   1.4652 B( 19-N , 20-O ) :   1.5460 B( 19-N , 21-O ) :   1.5372
B( 20-O , 21-O ) :   0.2762 B( 22-C , 23-C ) :   1.2381 B( 22-C , 68-H ) :   0.9993
B( 23-C , 24-C ) :   1.1039 B( 24-C , 25-C ) :   1.6158 B( 24-C , 69-H ) :   0.9401
B( 25-C , 26-C ) :   1.1425 B( 25-C , 70-H ) :   0.9712 B( 26-C , 27-N ) :   1.1679
B( 26-C , 33-C ) :   1.3364 B( 27-N , 28-C ) :   0.9462 B( 27-N , 30-C ) :   1.0453
B( 28-C , 29-C ) :   1.1207 B( 28-C , 71-H ) :   0.9276 B( 28-C , 72-H ) :   0.9502
B( 29-C , 73-H ) :   0.9639 B( 29-C , 74-H ) :   0.9678 B( 29-C , 75-H ) :   0.9684
B( 30-C , 31-O ) :   2.0615 B( 30-C , 32-C ) :   0.9803 B( 32-C , 33-C ) :   1.2559
B( 32-C , 39-C ) :   1.3585 B( 33-C , 34-C ) :   0.9964 B( 34-C , 35-O ) :   1.9333
B( 34-C , 36-N ) :   1.0878 B( 35-O , 69-H ) :   0.1323 B( 36-N , 37-C ) :   0.9422
B( 36-N , 39-C ) :   1.1612 B( 37-C , 38-C ) :   1.1213 B( 37-C , 76-H ) :   0.9496
B( 37-C , 77-H ) :   0.9308 B( 38-C , 78-H ) :   0.9683 B( 38-C , 79-H ) :   0.9678
B( 38-C , 80-H ) :   0.9636 B( 39-C , 40-C ) :   1.1105 B( 40-C , 41-C ) :   1.6396
B( 40-C , 81-H ) :   0.9600 B( 41-C , 42-C ) :   1.0232 B( 41-C , 82-H ) :   0.9566
B( 42-C , 43-N ) :   1.5169 B( 42-C , 47-N ) :   1.5503 B( 43-N , 44-C ) :   1.5569
B( 44-C , 45-C ) :   1.3714 B( 44-C , 83-H ) :   0.9790 B( 45-C , 46-C ) :   1.3682
B( 45-C , 84-H ) :   0.9639 B( 46-C , 47-N ) :   1.5075 B( 46-C , 48-C ) :   1.0679
B( 48-C , 49-C ) :   1.7119 B( 48-C , 85-H ) :   0.9697 B( 49-C , 50-C ) :   1.0934
B( 49-C , 86-H ) :   0.9470 B( 50-C , 51-C ) :   1.7503 B( 50-C , 87-H ) :   0.9240
B( 51-C , 52-C ) :   0.9303 B( 51-C , 59-C ) :   1.0163 B( 52-C , 53-O ) :   2.2818
B( 52-C , 54-C ) :   0.9261 B( 54-C , 55-C ) :   1.4777 B( 54-C , 58-C ) :   1.2219
B( 55-C , 56-S ) :   1.1549 B( 55-C , 65-Cl) :   1.1311 B( 56-S , 57-C ) :   1.1612
B( 57-C , 58-C ) :   1.5525 B( 57-C , 88-H ) :   0.9547 B( 58-C , 59-C ) :   1.0094
B( 59-C , 60-C ) :   1.6825 B( 60-C , 61-C ) :   1.1289 B( 60-C , 63-C ) :   1.1619
B( 61-C , 62-N ) :   3.0002 B( 63-C , 64-N ) :   2.9926

-----------------------------------------------------------------------------
         ABSORPTION SPECTRUM VIA TRANSITION ELECTRIC DIPOLE MOMENTS
-----------------------------------------------------------------------------
State   Energy  Wavelength   fosc         T2         TX        TY        TZ
        (cm-1)    (nm)                  (au**2)     (au)      (au)      (au)
-----------------------------------------------------------------------------
   0   12188.5    820.4   0.251243149   6.78609  -0.63661   0.90455   2.35852
   1   18510.6    540.2   0.200293049   3.56222   1.05776   0.53584   1.46841
   2   19514.4    512.4   0.169669133   2.86236   0.70994   0.66625   1.38364
   3   23544.0    424.7   0.528835105   7.39460  -2.64085  -0.46777  -0.44909
   4   24997.0    400.0   0.017903889   0.23580   0.39890   0.19443   0.19716
   5   25577.4    391.0   0.068944464   0.88740   0.43298  -0.80464  -0.22910
   6   25941.1    385.5   0.243090765   3.08500   1.06358  -1.37961   0.22471
   7   26824.3    372.8   0.050263669   0.61688  -0.67018   0.25069   0.32387
   8   27445.3    364.4   0.005209548   0.06249  -0.05711  -0.23496   0.06341
   9   27785.4    359.9   0.182981581   2.16803  -1.27893   0.46789   0.55986
  10   27942.2    357.9   0.005510023   0.06492  -0.19499   0.16318   0.01634
  11   28341.2    352.8   0.038434564   0.44646   0.62853  -0.13128  -0.18485
  12   28425.6    351.8   0.050837653   0.58878  -0.68806   0.31226   0.13360
  13   28906.0    345.9   0.000686697   0.00782   0.01034  -0.07513  -0.04549
  14   29506.7    338.9   0.038504501   0.42960   0.54708  -0.31112   0.18307
  15   29979.8    333.6   0.032133679   0.35286   0.05566   0.32460   0.49437
  16   30796.0    324.7   0.025607069   0.27374   0.50132  -0.05901   0.13762
  17   31024.0    322.3   0.343894307   3.64924   1.10005   0.61752   1.43451
  18   31204.3    320.5   0.012100512   0.12766  -0.29153   0.15133   0.14062
  19   31310.3    319.4   0.429041499   4.51116  -0.18251   1.13801   1.78404
  20   32023.8    312.3   0.026932667   0.27687   0.21643   0.33711   0.34117
  21   32089.6    311.6   0.004048402   0.04153   0.14600   0.04571   0.13464
  22   32204.6    310.5   0.023076126   0.23590  -0.25129  -0.23815  -0.34063
  23   32728.6    305.5   0.005101425   0.05131  -0.09681  -0.12653  -0.16104
  24   32764.2    305.2   0.013520529   0.13585   0.29530   0.16311   0.14849
  25   33685.1    296.9   0.170181166   1.66322   0.48344  -0.90537  -0.78090
  26   34025.2    293.9   0.155106324   1.50073   0.79783  -0.79503  -0.48181
  27   34558.2    289.4   0.021364748   0.20353   0.38998  -0.17005  -0.15007
  28   34961.6    286.0   0.108344674   1.02022  -0.83734   0.10069   0.55582
  29   35105.7    284.9   0.016048857   0.15050  -0.20222  -0.18299   0.27590
  30   35235.5    283.8   0.004850524   0.04532   0.20279   0.01710   0.06247
  31   35273.2    283.5   0.080159726   0.74815   0.53571  -0.12489  -0.66751
  32   35483.3    281.8   0.020653258   0.19162   0.09063  -0.27685  -0.32674
  33   35974.7    278.0   0.105659522   0.96691  -0.20673  -0.21021  -0.93807
  34   36167.7    276.5   0.020899980   0.19024  -0.33948   0.11948   0.24641
  35   36541.1    273.7   1.129151474  10.17295   2.78215  -0.99850  -1.19815
  36   36692.5    272.5   0.012614092   0.11318  -0.26232   0.20769   0.03501
  37   37155.6    269.1   0.161071239   1.42715  -0.28843   0.80206   0.83705
  38   37199.6    268.8   0.156247411   1.38277  -0.00626  -0.76776  -0.89066
  39   37657.8    265.5   0.295475010   2.58310   0.09787  -1.14560  -1.12300
  40   37835.6    264.3   0.140443020   1.22201  -0.97844   0.23922   0.45545
  41   38263.8    261.3   0.005649317   0.04861   0.10656  -0.07804  -0.17652
  42   38358.3    260.7   0.052861186   0.45368  -0.30666  -0.25886  -0.54096
  43   38532.3    259.5   0.216368540   1.84861  -1.21577  -0.00809   0.60863
  44   38896.7    257.1   0.002126726   0.01800  -0.10126  -0.07563   0.04502
  45   39154.2    255.4   0.007663666   0.06444   0.04111  -0.06872  -0.24088
  46   39504.4    253.1   0.112710485   0.93928  -0.18599   0.54509   0.77946
  47   39743.4    251.6   0.005881366   0.04872  -0.03254  -0.20315   0.07994
  48   39970.9    250.2   0.005243255   0.04318   0.02393  -0.11934  -0.16844

FINAL SINGLE POINT ENERGY     -4821.587856265000

DIPOLE MOMENT
-------------
                                X             Y             Z
Electronic contribution:     -5.22859      -2.35343     -21.50603
Nuclear contribution   :      5.40032       1.54677      23.27685
                        -----------------------------------------
Total Dipole Moment    :      0.17173      -0.80666       1.77082
                        -----------------------------------------
Magnitude (a.u.)       :      1.95346
Magnitude (Debye)      :      4.96529

Rotational constants in cm-1:     0.001937     0.000300     0.000269
Rotational constants in MHz :    58.069625     8.985743     8.058922

                             ****ORCA TERMINATED NORMALLY****
TOTAL RUN TIME: 0 days 0 hours 8 minutes 10 seconds 963 msec
