                         Program Version 4.2.0 -  RELEASE  -
|  1> # ORCA input file
|  2> # SCF done       -218.745819695957          0.000670559218
|  3> ! CAM-B3LYP def2-SVP def2/J RIJCOSX Grid4 TightSCF
|  4> %maxcore 5000
|  5> %tddft
|  6>     Mode sTDDFT
|  7>     Ethresh 5.0
|  8>     maxcore 5000
|  9> end
| 10>
| 11> %pal
| 12>   nprocs 6
| 13>   end
| 14> * xyz 0 1
| 15>    C        1.51857         0.78855        -0.04287
| 16>    C        2.05644         0.65622         1.20909
| 17>    C        2.92809        -0.38798         1.58727
| 18>    N        3.62957        -1.21397         1.96507
| 19>    C        1.82666         1.52043         2.30105
| 20>    N        1.68772         2.16866         3.23868
| 21>    C        1.78334        -0.08317        -1.17926
| 22>    C        1.08147         0.41556        -2.31377
| 23>    C        1.14617        -0.19755        -3.53183
| 24>    C        1.93392        -1.36090        -3.67511
| 25>    C        2.63659        -1.86979        -2.54460
| 26>    C        2.54892        -1.21358        -1.29591
| 27>    C        3.41655        -3.03418        -2.69764
| 28>    C        3.50081        -3.66611        -3.90842
| 29>    C        2.80978        -3.16341        -5.02109
| 30>    C        2.04351        -2.03514        -4.90708
| 31>    C        0.33972         1.62337        -1.93788
| 32>    O       -0.42931         2.26019        -2.63165
| 33>    C        0.63583         1.85216        -0.49991
| 34>    C        0.07086         2.81242         0.28180
| 35>    C       -0.67339         3.95796        -0.11376
| 36>    S       -1.90314         4.50452         0.99346
| 37>    C       -2.28937         5.86250        -0.00747
| 38>    C       -1.48381         5.88499        -1.14257
| 39>    C       -0.56165         4.82822        -1.19137
| 40>    C        0.50865         4.81586        -2.23588
| 41>    N        1.78134         4.30706        -1.67559
| 42>    O        2.37712         3.47423        -2.31562
| 43>    O        2.15169         4.77602        -0.62766
| 44>    C        0.75577         6.24707        -2.72443
| 45>    C       -0.53767         6.81037        -3.29659
| 46>    C       -1.62969         6.90285        -2.22511
| 47>    N       -2.97537         6.77161        -2.90518
| 48>    O       -3.86614         6.22975        -2.30691
| 49>    O       -3.05302         7.24088        -4.00969
| 50>    C       -3.26554         6.82790         0.32204
| 51>    C       -4.17830         6.75239         1.32313
| 52>    C       -5.11934         7.79719         1.49260
| 53>    N       -6.11189         7.81339         2.43826
| 54>    C       -6.32733         6.83117         3.47260
| 55>    C       -5.32777         6.98313         4.61654
| 56>    C       -6.92556         8.96314         2.33478
| 57>    O       -7.86408         9.18989         3.06537
| 58>    C       -6.36146         9.68938         1.21711
| 59>    C       -5.25362         8.96111         0.72842
| 60>    C       -4.70749         9.70305        -0.38072
| 61>    O       -3.75205         9.48557        -1.11243
| 62>    N       -5.51511        10.84344        -0.48961
| 63>    C       -5.29699        11.76314        -1.58068
| 64>    C       -6.34647        11.60735        -2.67789
| 65>    C       -6.52117        10.84667         0.45821
| 66>    C       -7.54889        11.78949         0.70308
| 67>    C       -7.75861        13.01427         0.15662
| 68>    C       -8.84520        13.85569         0.50645
| 69>    S      -10.11080        13.36938         1.60267
| 70>    C      -10.92193        14.89473         1.42656
| 71>    C      -10.21544        15.73030         0.55242
| 72>    C       -9.05793        15.13893         0.03601
| 73>    C      -10.64059        17.02893         0.22164
| 74>    N      -10.97601        18.08953        -0.05612
| 75>    C      -12.13254        15.20809         2.08151
| 76>    C      -12.83028        14.33773         2.86129
| 77>    C      -14.04376        14.70320         3.48382
| 78>    C      -14.82363        13.85881         4.22319
| 79>    C      -16.07392        14.18321         4.88497
| 80>    C      -16.65097        15.42239         4.99542
| 81>    C      -17.86868        15.67134         5.66311
| 82>    N      -18.85239        15.94496         6.18816
| 83>    C      -16.12173        16.62657         4.48607
| 84>    N      -15.75918        17.65002         4.11154
| 85>    C      -16.61023        12.95037         5.45205
| 86>    C      -15.69423        11.89176         5.19132
| 87>    C      -14.54369        12.41225         4.43422
| 88>    O      -13.58055        11.77931         4.05564
| 89>    C      -15.92934        10.61310         5.60748
| 90>    C      -17.11780        10.32665         6.31534
| 91>    C      -18.04214        11.37881         6.57727
| 92>    C      -17.76963        12.69385         6.13560
| 93>    C      -19.22709        11.08189         7.28109
| 94>    C      -19.48805         9.80781         7.70634
| 95>    C      -18.57703         8.77264         7.44801
| 96>    C      -17.41704         9.02655         6.76768
| 97>    H        0.60617         0.20274        -4.37688
| 98>    H        3.09165        -1.62538        -0.46011
| 99>    H        3.94766        -3.41662        -1.83841
|100>    H        4.10108        -4.55710        -4.01566
|101>    H        2.88766        -3.67471        -5.96889
|102>    H        1.50937        -1.64372        -5.76048
|103>    H        0.14600         2.69571         1.35604
|104>    H        0.24008         4.15548        -3.07071
|105>    H        1.52701         6.24476        -3.49619
|106>    H        1.10225         6.85558        -1.88556
|107>    H       -0.87910         6.15855        -4.10412
|108>    H       -0.35760         7.79469        -3.72719
|109>    H       -1.66366         7.91053        -1.79025
|110>    H       -3.28064         7.70991        -0.30174
|111>    H       -4.21993         5.88712         1.96870
|112>    H       -6.27401         5.82809         3.04018
|113>    H       -7.34116         7.00268         3.84487
|114>    H       -4.30680         6.85677         4.26316
|115>    H       -5.52794         6.23743         5.38071
|116>    H       -5.42068         7.97044         5.06217
|117>    H       -4.31179        11.50963        -1.98418
|118>    H       -5.25694        12.78760        -1.20178
|119>    H       -6.30179        10.60180        -3.08882
|120>    H       -6.15093        12.31659        -3.47748
|121>    H       -7.34911        11.77801        -2.29273
|122>    H       -8.23997        11.45255         1.46798
|123>    H       -7.08835        13.43208        -0.57868
|124>    H       -8.39744        15.63375        -0.65420
|125>    H      -12.51171        16.21139         1.92145
|126>    H      -12.46204        13.33175         3.00850
|127>    H      -14.36641        15.72698         3.34220
|128>    H      -15.21660         9.82956         5.39694
|129>    H      -18.49163        13.46593         6.34830
|130>    H      -19.92508        11.88237         7.47799
|131>    H      -20.39851         9.59042         8.24447
|132>    H      -18.79925         7.77307         7.79066
|133>    H      -16.71175         8.23369         6.56567
|134> *
|135>
|136>                          ****END OF INPUT****

CARTESIAN COORDINATES (ANGSTROEM)
---------------------------------
  C      1.518570    0.788550   -0.042870
  C      2.056440    0.656220    1.209090
  C      2.928090   -0.387980    1.587270
  N      3.629570   -1.213970    1.965070
  C      1.826660    1.520430    2.301050
  N      1.687720    2.168660    3.238680
  C      1.783340   -0.083170   -1.179260
  C      1.081470    0.415560   -2.313770
  C      1.146170   -0.197550   -3.531830
  C      1.933920   -1.360900   -3.675110
  C      2.636590   -1.869790   -2.544600
  C      2.548920   -1.213580   -1.295910
  C      3.416550   -3.034180   -2.697640
  C      3.500810   -3.666110   -3.908420
  C      2.809780   -3.163410   -5.021090
  C      2.043510   -2.035140   -4.907080
  C      0.339720    1.623370   -1.937880
  O     -0.429310    2.260190   -2.631650
  C      0.635830    1.852160   -0.499910
  C      0.070860    2.812420    0.281800
  C     -0.673390    3.957960   -0.113760
  S     -1.903140    4.504520    0.993460
  C     -2.289370    5.862500   -0.007470
  C     -1.483810    5.884990   -1.142570
  C     -0.561650    4.828220   -1.191370
  C      0.508650    4.815860   -2.235880
  N      1.781340    4.307060   -1.675590
  O      2.377120    3.474230   -2.315620
  O      2.151690    4.776020   -0.627660
  C      0.755770    6.247070   -2.724430
  C     -0.537670    6.810370   -3.296590
  C     -1.629690    6.902850   -2.225110
  N     -2.975370    6.771610   -2.905180
  O     -3.866140    6.229750   -2.306910
  O     -3.053020    7.240880   -4.009690
  C     -3.265540    6.827900    0.322040
  C     -4.178300    6.752390    1.323130
  C     -5.119340    7.797190    1.492600
  N     -6.111890    7.813390    2.438260
  C     -6.327330    6.831170    3.472600
  C     -5.327770    6.983130    4.616540
  C     -6.925560    8.963140    2.334780
  O     -7.864080    9.189890    3.065370
  C     -6.361460    9.689380    1.217110
  C     -5.253620    8.961110    0.728420
  C     -4.707490    9.703050   -0.380720
  O     -3.752050    9.485570   -1.112430
  N     -5.515110   10.843440   -0.489610
  C     -5.296990   11.763140   -1.580680
  C     -6.346470   11.607350   -2.677890
  C     -6.521170   10.846670    0.458210
  C     -7.548890   11.789490    0.703080
  C     -7.758610   13.014270    0.156620
  C     -8.845200   13.855690    0.506450
  S    -10.110800   13.369380    1.602670
  C    -10.921930   14.894730    1.426560
  C    -10.215440   15.730300    0.552420
  C     -9.057930   15.138930    0.036010
  C    -10.640590   17.028930    0.221640
  N    -10.976010   18.089530   -0.056120
  C    -12.132540   15.208090    2.081510
  C    -12.830280   14.337730    2.861290
  C    -14.043760   14.703200    3.483820
  C    -14.823630   13.858810    4.223190
  C    -16.073920   14.183210    4.884970
  C    -16.650970   15.422390    4.995420
  C    -17.868680   15.671340    5.663110
  N    -18.852390   15.944960    6.188160
  C    -16.121730   16.626570    4.486070
  N    -15.759180   17.650020    4.111540
  C    -16.610230   12.950370    5.452050
  C    -15.694230   11.891760    5.191320
  C    -14.543690   12.412250    4.434220
  O    -13.580550   11.779310    4.055640
  C    -15.929340   10.613100    5.607480
  C    -17.117800   10.326650    6.315340
  C    -18.042140   11.378810    6.577270
  C    -17.769630   12.693850    6.135600
  C    -19.227090   11.081890    7.281090
  C    -19.488050    9.807810    7.706340
  C    -18.577030    8.772640    7.448010
  C    -17.417040    9.026550    6.767680
  H      0.606170    0.202740   -4.376880
  H      3.091650   -1.625380   -0.460110
  H      3.947660   -3.416620   -1.838410
  H      4.101080   -4.557100   -4.015660
  H      2.887660   -3.674710   -5.968890
  H      1.509370   -1.643720   -5.760480
  H      0.146000    2.695710    1.356040
  H      0.240080    4.155480   -3.070710
  H      1.527010    6.244760   -3.496190
  H      1.102250    6.855580   -1.885560
  H     -0.879100    6.158550   -4.104120
  H     -0.357600    7.794690   -3.727190
  H     -1.663660    7.910530   -1.790250
  H     -3.280640    7.709910   -0.301740
  H     -4.219930    5.887120    1.968700
  H     -6.274010    5.828090    3.040180
  H     -7.341160    7.002680    3.844870
  H     -4.306800    6.856770    4.263160
  H     -5.527940    6.237430    5.380710
  H     -5.420680    7.970440    5.062170
  H     -4.311790   11.509630   -1.984180
  H     -5.256940   12.787600   -1.201780
  H     -6.301790   10.601800   -3.088820
  H     -6.150930   12.316590   -3.477480
  H     -7.349110   11.778010   -2.292730
  H     -8.239970   11.452550    1.467980
  H     -7.088350   13.432080   -0.578680
  H     -8.397440   15.633750   -0.654200
  H    -12.511710   16.211390    1.921450
  H    -12.462040   13.331750    3.008500
  H    -14.366410   15.726980    3.342200
  H    -15.216600    9.829560    5.396940
  H    -18.491630   13.465930    6.348300
  H    -19.925080   11.882370    7.477990
  H    -20.398510    9.590420    8.244470
  H    -18.799250    7.773070    7.790660
  H    -16.711750    8.233690    6.565670

 Total Charge           Charge          ....    0
 Multiplicity           Mult            ....    1
 Number of Electrons    NEL             ....  574
 Basis Dimension        Dim             .... 1341

ORBITAL ENERGIES
----------------

  NO   OCC          E(Eh)            E(eV)
   0   2.0000     -88.984382     -2421.3881
   1   2.0000     -88.984004     -2421.3779
   2   2.0000     -19.260189      -524.0964
   3   2.0000     -19.258983      -524.0636
   4   2.0000     -19.253700      -523.9198
   5   2.0000     -19.252336      -523.8827
   6   2.0000     -19.223988      -523.1113
   7   2.0000     -19.216210      -522.8997
   8   2.0000     -19.202351      -522.5225
   9   2.0000     -19.201760      -522.5065
  10   2.0000     -14.656021      -398.8106
  11   2.0000     -14.650741      -398.6669
  12   2.0000     -14.464248      -393.5922
  13   2.0000     -14.463822      -393.5806
  14   2.0000     -14.420821      -392.4105
  15   2.0000     -14.418992      -392.3607
  16   2.0000     -14.415418      -392.2635
  17   2.0000     -14.414714      -392.2443
  18   2.0000     -14.412963      -392.1967
  19   2.0000     -10.385253      -282.5971
  20   2.0000     -10.384033      -282.5639
  21   2.0000     -10.375354      -282.3277
  22   2.0000     -10.366706      -282.0924
  23   2.0000     -10.355039      -281.7749
  24   2.0000     -10.348361      -281.5932
  25   2.0000     -10.347887      -281.5803
  26   2.0000     -10.345341      -281.5110
  27   2.0000     -10.344516      -281.4886
  28   2.0000     -10.343356      -281.4570
  29   2.0000     -10.340871      -281.3894
  30   2.0000     -10.339154      -281.3427
  31   2.0000     -10.337160      -281.2884
  32   2.0000     -10.334300      -281.2106
  33   2.0000     -10.332756      -281.1686
  34   2.0000     -10.332546      -281.1629
  35   2.0000     -10.330895      -281.1179
  36   2.0000     -10.330005      -281.0937
  37   2.0000     -10.323098      -280.9058
  38   2.0000     -10.321363      -280.8586
  39   2.0000     -10.320202      -280.8270
  40   2.0000     -10.317190      -280.7450
  41   2.0000     -10.316776      -280.7337
  42   2.0000     -10.315863      -280.7089
  43   2.0000     -10.315619      -280.7023
  44   2.0000     -10.315135      -280.6891
  45   2.0000     -10.314911      -280.6830
  46   2.0000     -10.314834      -280.6809
  47   2.0000     -10.312710      -280.6231
  48   2.0000     -10.311048      -280.5779
  49   2.0000     -10.310800      -280.5711
  50   2.0000     -10.309076      -280.5242
  51   2.0000     -10.307918      -280.4927
  52   2.0000     -10.305980      -280.4400
  53   2.0000     -10.305930      -280.4386
  54   2.0000     -10.304802      -280.4079
  55   2.0000     -10.303699      -280.3779
  56   2.0000     -10.301607      -280.3210
  57   2.0000     -10.300869      -280.3009
  58   2.0000     -10.300666      -280.2954
  59   2.0000     -10.300414      -280.2885
  60   2.0000     -10.300043      -280.2784
  61   2.0000     -10.299643      -280.2675
  62   2.0000     -10.299268      -280.2573
  63   2.0000     -10.296729      -280.1882
  64   2.0000     -10.296457      -280.1808
  65   2.0000     -10.295409      -280.1523
  66   2.0000     -10.295219      -280.1471
  67   2.0000     -10.293482      -280.0999
  68   2.0000     -10.292047      -280.0608
  69   2.0000     -10.289362      -279.9878
  70   2.0000     -10.288855      -279.9740
  71   2.0000     -10.288544      -279.9655
  72   2.0000     -10.288028      -279.9515
  73   2.0000     -10.287118      -279.9267
  74   2.0000     -10.285954      -279.8950
  75   2.0000     -10.285308      -279.8775
  76   2.0000     -10.284969      -279.8682
  77   2.0000     -10.284425      -279.8534
  78   2.0000     -10.273492      -279.5559
  79   2.0000     -10.271167      -279.4927
  80   2.0000     -10.269686      -279.4524
  81   2.0000     -10.269437      -279.4456
  82   2.0000      -8.079964      -219.8670
  83   2.0000      -8.079055      -219.8423
  84   2.0000      -6.049032      -164.6025
  85   2.0000      -6.048150      -164.5785
  86   2.0000      -6.045117      -164.4960
  87   2.0000      -6.044210      -164.4713
  88   2.0000      -6.042220      -164.4172
  89   2.0000      -6.041329      -164.3929
  90   2.0000      -1.340018       -36.4637
  91   2.0000      -1.335355       -36.3369
  92   2.0000      -1.160042       -31.5664
  93   2.0000      -1.157425       -31.4951
  94   2.0000      -1.143843       -31.1255
  95   2.0000      -1.138866       -30.9901
  96   2.0000      -1.136888       -30.9363
  97   2.0000      -1.130726       -30.7686
  98   2.0000      -1.074073       -29.2270
  99   2.0000      -1.064236       -28.9593
 100   2.0000      -1.028063       -27.9750
 101   2.0000      -1.022451       -27.8223
 102   2.0000      -1.022263       -27.8172
 103   2.0000      -1.016600       -27.6631
 104   2.0000      -1.002698       -27.2848
 105   2.0000      -0.998019       -27.1575
 106   2.0000      -0.997222       -27.1358
 107   2.0000      -0.994048       -27.0494
 108   2.0000      -0.992105       -26.9966
 109   2.0000      -0.976309       -26.5667
 110   2.0000      -0.970586       -26.4110
 111   2.0000      -0.969404       -26.3788
 112   2.0000      -0.948152       -25.8005
 113   2.0000      -0.940259       -25.5857
 114   2.0000      -0.938147       -25.5283
 115   2.0000      -0.928081       -25.2544
 116   2.0000      -0.925095       -25.1731
 117   2.0000      -0.921477       -25.0747
 118   2.0000      -0.915431       -24.9101
 119   2.0000      -0.906805       -24.6754
 120   2.0000      -0.893120       -24.3030
 121   2.0000      -0.885817       -24.1043
 122   2.0000      -0.883953       -24.0536
 123   2.0000      -0.880071       -23.9479
 124   2.0000      -0.879487       -23.9320
 125   2.0000      -0.872990       -23.7553
 126   2.0000      -0.869383       -23.6571
 127   2.0000      -0.861439       -23.4410
 128   2.0000      -0.846866       -23.0444
 129   2.0000      -0.836685       -22.7674
 130   2.0000      -0.836387       -22.7592
 131   2.0000      -0.831584       -22.6286
 132   2.0000      -0.828961       -22.5572
 133   2.0000      -0.827178       -22.5086
 134   2.0000      -0.811121       -22.0717
 135   2.0000      -0.803359       -21.8605
 136   2.0000      -0.784989       -21.3606
 137   2.0000      -0.773493       -21.0478
 138   2.0000      -0.768960       -20.9245
 139   2.0000      -0.767188       -20.8762
 140   2.0000      -0.760594       -20.6968
 141   2.0000      -0.740941       -20.1620
 142   2.0000      -0.738679       -20.1005
 143   2.0000      -0.735450       -20.0126
 144   2.0000      -0.722364       -19.6565
 145   2.0000      -0.720573       -19.6078
 146   2.0000      -0.710134       -19.3237
 147   2.0000      -0.707908       -19.2632
 148   2.0000      -0.704891       -19.1811
 149   2.0000      -0.703754       -19.1501
 150   2.0000      -0.703253       -19.1365
 151   2.0000      -0.701805       -19.0971
 152   2.0000      -0.697131       -18.9699
 153   2.0000      -0.691066       -18.8049
 154   2.0000      -0.685417       -18.6511
 155   2.0000      -0.677726       -18.4419
 156   2.0000      -0.675326       -18.3766
 157   2.0000      -0.669347       -18.2139
 158   2.0000      -0.660809       -17.9815
 159   2.0000      -0.658049       -17.9064
 160   2.0000      -0.654636       -17.8136
 161   2.0000      -0.653079       -17.7712
 162   2.0000      -0.646891       -17.6028
 163   2.0000      -0.642770       -17.4907
 164   2.0000      -0.640578       -17.4310
 165   2.0000      -0.637012       -17.3340
 166   2.0000      -0.635064       -17.2810
 167   2.0000      -0.630828       -17.1657
 168   2.0000      -0.622154       -16.9297
 169   2.0000      -0.617610       -16.8060
 170   2.0000      -0.613295       -16.6886
 171   2.0000      -0.610132       -16.6025
 172   2.0000      -0.605661       -16.4809
 173   2.0000      -0.604392       -16.4463
 174   2.0000      -0.600702       -16.3459
 175   2.0000      -0.598116       -16.2756
 176   2.0000      -0.594289       -16.1714
 177   2.0000      -0.592740       -16.1293
 178   2.0000      -0.589218       -16.0334
 179   2.0000      -0.586921       -15.9709
 180   2.0000      -0.581175       -15.8146
 181   2.0000      -0.575281       -15.6542
 182   2.0000      -0.566749       -15.4220
 183   2.0000      -0.561449       -15.2778
 184   2.0000      -0.560489       -15.2517
 185   2.0000      -0.554591       -15.0912
 186   2.0000      -0.551708       -15.0127
 187   2.0000      -0.549704       -14.9582
 188   2.0000      -0.548946       -14.9376
 189   2.0000      -0.545710       -14.8495
 190   2.0000      -0.544877       -14.8269
 191   2.0000      -0.542083       -14.7508
 192   2.0000      -0.540659       -14.7121
 193   2.0000      -0.539305       -14.6752
 194   2.0000      -0.538257       -14.6467
 195   2.0000      -0.536620       -14.6022
 196   2.0000      -0.535986       -14.5849
 197   2.0000      -0.534771       -14.5519
 198   2.0000      -0.528341       -14.3769
 199   2.0000      -0.525711       -14.3053
 200   2.0000      -0.524574       -14.2744
 201   2.0000      -0.522607       -14.2209
 202   2.0000      -0.521920       -14.2022
 203   2.0000      -0.519762       -14.1434
 204   2.0000      -0.519478       -14.1357
 205   2.0000      -0.516316       -14.0497
 206   2.0000      -0.515823       -14.0363
 207   2.0000      -0.514169       -13.9912
 208   2.0000      -0.512613       -13.9489
 209   2.0000      -0.509062       -13.8523
 210   2.0000      -0.508883       -13.8474
 211   2.0000      -0.506509       -13.7828
 212   2.0000      -0.500563       -13.6210
 213   2.0000      -0.500216       -13.6116
 214   2.0000      -0.498798       -13.5730
 215   2.0000      -0.495433       -13.4814
 216   2.0000      -0.493908       -13.4399
 217   2.0000      -0.490962       -13.3597
 218   2.0000      -0.486977       -13.2513
 219   2.0000      -0.485061       -13.1992
 220   2.0000      -0.483234       -13.1495
 221   2.0000      -0.481783       -13.1100
 222   2.0000      -0.476256       -12.9596
 223   2.0000      -0.474025       -12.8989
 224   2.0000      -0.473035       -12.8719
 225   2.0000      -0.468913       -12.7598
 226   2.0000      -0.467890       -12.7319
 227   2.0000      -0.464811       -12.6481
 228   2.0000      -0.462908       -12.5964
 229   2.0000      -0.462108       -12.5746
 230   2.0000      -0.459983       -12.5168
 231   2.0000      -0.456748       -12.4287
 232   2.0000      -0.454575       -12.3696
 233   2.0000      -0.452493       -12.3129
 234   2.0000      -0.448290       -12.1986
 235   2.0000      -0.447362       -12.1733
 236   2.0000      -0.445524       -12.1233
 237   2.0000      -0.445133       -12.1127
 238   2.0000      -0.443458       -12.0671
 239   2.0000      -0.443143       -12.0585
 240   2.0000      -0.442842       -12.0503
 241   2.0000      -0.441557       -12.0154
 242   2.0000      -0.439078       -11.9479
 243   2.0000      -0.438702       -11.9377
 244   2.0000      -0.438188       -11.9237
 245   2.0000      -0.437223       -11.8974
 246   2.0000      -0.435345       -11.8463
 247   2.0000      -0.433623       -11.7995
 248   2.0000      -0.432378       -11.7656
 249   2.0000      -0.431622       -11.7450
 250   2.0000      -0.431245       -11.7348
 251   2.0000      -0.430049       -11.7022
 252   2.0000      -0.426630       -11.6092
 253   2.0000      -0.424102       -11.5404
 254   2.0000      -0.423219       -11.5164
 255   2.0000      -0.418131       -11.3779
 256   2.0000      -0.417199       -11.3526
 257   2.0000      -0.413790       -11.2598
 258   2.0000      -0.410939       -11.1822
 259   2.0000      -0.404773       -11.0144
 260   2.0000      -0.401862       -10.9352
 261   2.0000      -0.399333       -10.8664
 262   2.0000      -0.395032       -10.7494
 263   2.0000      -0.392418       -10.6782
 264   2.0000      -0.389209       -10.5909
 265   2.0000      -0.387680       -10.5493
 266   2.0000      -0.382436       -10.4066
 267   2.0000      -0.380122       -10.3437
 268   2.0000      -0.379519       -10.3272
 269   2.0000      -0.371834       -10.1181
 270   2.0000      -0.368665       -10.0319
 271   2.0000      -0.359086        -9.7712
 272   2.0000      -0.350639        -9.5414
 273   2.0000      -0.346959        -9.4412
 274   2.0000      -0.346144        -9.4191
 275   2.0000      -0.343176        -9.3383
 276   2.0000      -0.341409        -9.2902
 277   2.0000      -0.335613        -9.1325
 278   2.0000      -0.334342        -9.0979
 279   2.0000      -0.325868        -8.8673
 280   2.0000      -0.320238        -8.7141
 281   2.0000      -0.315788        -8.5930
 282   2.0000      -0.302242        -8.2244
 283   2.0000      -0.295928        -8.0526
 284   2.0000      -0.292555        -7.9608
 285   2.0000      -0.281861        -7.6698
 286   2.0000      -0.241917        -6.5829
 287   0.0000      -0.117493        -3.1971
 288   0.0000      -0.103379        -2.8131
 289   0.0000      -0.080988        -2.2038
 290   0.0000      -0.062517        -1.7012
 291   0.0000      -0.058187        -1.5833

MULLIKEN ATOMIC CHARGES
-----------------------
   0 C :    0.328610
   1 C :   -0.339422
   2 C :   -0.183319
   3 N :    0.150409
   4 C :   -0.192068
   5 N :    0.161445
   6 C :    0.056115
   7 C :    0.004309
   8 C :   -0.076695
   9 C :    0.098034
  10 C :    0.097776
  11 C :   -0.085523
  12 C :   -0.018458
  13 C :    0.036587
  14 C :    0.036802
  15 C :   -0.014884
  16 C :    0.157914
  17 O :   -0.171101
  18 C :   -0.076490
  19 C :   -0.038455
  20 C :   -0.127095
  21 S :    0.170480
  22 C :   -0.050173
  23 C :   -0.084493
  24 C :    0.068808
  25 C :    0.101968
  26 N :    0.178284
  27 O :   -0.221748
  28 O :   -0.206352
  29 C :    0.068763
  30 C :    0.098691
  31 C :    0.082025
  32 N :    0.209108
  33 O :   -0.210422
  34 O :   -0.219932
  35 C :    0.044486
  36 C :   -0.035436
  37 C :    0.142816
  38 N :   -0.261429
  39 C :    0.098406
  40 C :    0.001488
  41 C :    0.150560
  42 O :   -0.178640
  43 C :   -0.031106
  44 C :   -0.072281
  45 C :    0.179821
  46 O :   -0.252013
  47 N :   -0.256539
  48 C :    0.097942
  49 C :   -0.001693
  50 C :    0.104700
  51 C :   -0.038817
  52 C :    0.026865
  53 C :   -0.032412
  54 S :    0.165269
  55 C :   -0.038912
  56 C :   -0.030703
  57 C :    0.003876
  58 C :   -0.189547
  59 N :    0.146034
  60 C :    0.010767
  61 C :   -0.006429
  62 C :   -0.044523
  63 C :   -0.064669
  64 C :    0.333899
  65 C :   -0.353229
  66 C :   -0.183476
  67 N :    0.149635
  68 C :   -0.196220
  69 N :    0.156611
  70 C :    0.047880
  71 C :   -0.000247
  72 C :    0.148580
  73 O :   -0.149964
  74 C :   -0.080955
  75 C :    0.098675
  76 C :    0.097203
  77 C :   -0.085880
  78 C :   -0.019500
  79 C :    0.036975
  80 C :    0.037783
  81 C :   -0.019034
  82 H :   -0.015958
  83 H :   -0.008191
  84 H :   -0.008653
  85 H :   -0.003460
  86 H :   -0.004346
  87 H :   -0.017746
  88 H :    0.029887
  89 H :    0.064137
  90 H :    0.030358
  91 H :    0.033379
  92 H :    0.027980
  93 H :    0.029913
  94 H :    0.078111
  95 H :    0.012449
  96 H :   -0.022176
  97 H :    0.025959
  98 H :    0.046432
  99 H :    0.016670
 100 H :    0.028168
 101 H :    0.030915
 102 H :    0.043250
 103 H :    0.025062
 104 H :    0.033048
 105 H :    0.023774
 106 H :    0.023960
 107 H :    0.019966
 108 H :   -0.013756
 109 H :   -0.000532
 110 H :    0.032334
 111 H :    0.036468
 112 H :    0.015193
 113 H :   -0.012843
 114 H :   -0.009129
 115 H :   -0.008188
 116 H :   -0.005178
 117 H :   -0.005879
 118 H :   -0.017495
Sum of atomic charges:   -0.0000000

LOEWDIN ATOMIC CHARGES
----------------------
   0 C :    0.077823
   1 C :   -0.128410
   2 C :   -0.015797
   3 N :   -0.048319
   4 C :   -0.021124
   5 N :   -0.045129
   6 C :   -0.022909
   7 C :   -0.051485
   8 C :    0.035822
   9 C :   -0.007270
  10 C :   -0.005037
  11 C :    0.021856
  12 C :   -0.004464
  13 C :   -0.012273
  14 C :   -0.011312
  15 C :   -0.008894
  16 C :    0.082019
  17 O :   -0.150542
  18 C :   -0.082897
  19 C :    0.034878
  20 C :   -0.162459
  21 S :    0.480734
  22 C :   -0.149429
  23 C :   -0.060518
  24 C :   -0.026619
  25 C :    0.009521
  26 N :    0.277085
  27 O :   -0.187872
  28 O :   -0.186565
  29 C :   -0.017702
  30 C :   -0.022945
  31 C :    0.016457
  32 N :    0.275309
  33 O :   -0.176667
  34 O :   -0.187426
  35 C :    0.024441
  36 C :   -0.048754
  37 C :    0.092181
  38 N :   -0.001506
  39 C :    0.036945
  40 C :   -0.060240
  41 C :    0.083136
  42 O :   -0.182051
  43 C :   -0.100498
  44 C :   -0.131328
  45 C :    0.084727
  46 O :   -0.226826
  47 N :    0.002049
  48 C :    0.034974
  49 C :   -0.062201
  50 C :    0.058827
  51 C :   -0.025544
  52 C :   -0.031967
  53 C :   -0.150335
  54 S :    0.485923
  55 C :   -0.145291
  56 C :   -0.088199
  57 C :   -0.025817
  58 C :   -0.034521
  59 N :   -0.041160
  60 C :    0.008120
  61 C :   -0.023948
  62 C :    0.064224
  63 C :   -0.085668
  64 C :    0.073794
  65 C :   -0.136786
  66 C :   -0.016763
  67 N :   -0.053378
  68 C :   -0.022016
  69 N :   -0.048824
  70 C :   -0.025161
  71 C :   -0.055620
  72 C :    0.084817
  73 O :   -0.143791
  74 C :    0.032248
  75 C :   -0.008206
  76 C :   -0.005932
  77 C :    0.018968
  78 C :   -0.005333
  79 C :   -0.013471
  80 C :   -0.012261
  81 C :   -0.009913
  82 H :    0.038542
  83 H :    0.039281
  84 H :    0.035094
  85 H :    0.033729
  86 H :    0.033171
  87 H :    0.031879
  88 H :    0.046558
  89 H :    0.045126
  90 H :    0.037779
  91 H :    0.032789
  92 H :    0.036032
  93 H :    0.041934
  94 H :    0.059040
  95 H :    0.035207
  96 H :    0.026115
  97 H :    0.024401
  98 H :    0.039059
  99 H :    0.022179
 100 H :    0.032668
 101 H :    0.032963
 102 H :    0.037457
 103 H :    0.019639
 104 H :    0.034814
 105 H :    0.031450
 106 H :    0.022695
 107 H :    0.041356
 108 H :    0.035480
 109 H :    0.040722
 110 H :    0.049069
 111 H :    0.029862
 112 H :    0.043928
 113 H :    0.039069
 114 H :    0.038918
 115 H :    0.034991
 116 H :    0.033132
 117 H :    0.032547
 118 H :    0.031819

  Mayer bond orders larger than 0.100000
B(  0-C ,  1-C ) :   1.6492 B(  0-C ,  6-C ) :   0.9951 B(  0-C , 18-C ) :   1.0504
B(  1-C ,  2-C ) :   1.1434 B(  1-C ,  4-C ) :   1.1421 B(  2-C ,  3-N ) :   2.9632
B(  4-C ,  5-N ) :   2.9708 B(  6-C ,  7-C ) :   1.2149 B(  6-C , 11-C ) :   1.4395
B(  7-C ,  8-C ) :   1.4699 B(  7-C , 16-C ) :   0.9394 B(  8-C ,  9-C ) :   1.1777
B(  8-C , 82-H ) :   1.0172 B(  9-C , 10-C ) :   1.2553 B(  9-C , 15-C ) :   1.2438
B( 10-C , 11-C ) :   1.2095 B( 10-C , 12-C ) :   1.2372 B( 11-C , 83-H ) :   0.9894
B( 12-C , 13-C ) :   1.4902 B( 12-C , 84-H ) :   0.9977 B( 13-C , 14-C ) :   1.2583
B( 13-C , 85-H ) :   0.9889 B( 14-C , 15-C ) :   1.4884 B( 14-C , 86-H ) :   0.9889
B( 15-C , 87-H ) :   0.9978 B( 16-C , 17-O ) :   2.1538 B( 16-C , 18-C ) :   0.9504
B( 18-C , 19-C ) :   1.6443 B( 19-C , 20-C ) :   1.1182 B( 19-C , 88-H ) :   0.9216
B( 20-C , 21-S ) :   1.1320 B( 20-C , 24-C ) :   1.4927 B( 21-S , 22-C ) :   1.1350
B( 22-C , 23-C ) :   1.4456 B( 22-C , 35-C ) :   1.1621 B( 23-C , 24-C ) :   1.3782
B( 23-C , 31-C ) :   1.0129 B( 24-C , 25-C ) :   0.9733 B( 25-C , 26-N ) :   0.8295
B( 25-C , 29-C ) :   1.0496 B( 25-C , 89-H ) :   0.8708 B( 26-N , 27-O ) :   1.5313
B( 26-N , 28-O ) :   1.5766 B( 27-O , 28-O ) :   0.2659 B( 29-C , 30-C ) :   1.1065
B( 29-C , 90-H ) :   0.9294 B( 29-C , 91-H ) :   0.9225 B( 30-C , 31-C ) :   1.0800
B( 30-C , 92-H ) :   0.9125 B( 30-C , 93-H ) :   0.9135 B( 31-C , 32-N ) :   0.8314
B( 31-C , 94-H ) :   0.8573 B( 32-N , 33-O ) :   1.6054 B( 32-N , 34-O ) :   1.5830
B( 33-O , 34-O ) :   0.2651 B( 35-C , 36-C ) :   1.5897 B( 35-C , 95-H ) :   0.9173
B( 36-C , 37-C ) :   1.1681 B( 36-C , 96-H ) :   0.9763 B( 37-C , 38-N ) :   1.1791
B( 37-C , 44-C ) :   1.3060 B( 38-N , 39-C ) :   0.9420 B( 38-N , 41-C ) :   1.0243
B( 39-C , 40-C ) :   1.1190 B( 39-C , 97-H ) :   0.9507 B( 39-C , 98-H ) :   0.9290
B( 40-C , 99-H ) :   0.9689 B( 40-C ,100-H ) :   0.9682 B( 40-C ,101-H ) :   0.9644
B( 41-C , 42-O ) :   2.1455 B( 41-C , 43-C ) :   0.9681 B( 43-C , 44-C ) :   1.2529
B( 43-C , 50-C ) :   1.3587 B( 44-C , 45-C ) :   1.0158 B( 45-C , 46-O ) :   1.9365
B( 45-C , 47-N ) :   1.0902 B( 46-O , 95-H ) :   0.1311 B( 47-N , 48-C ) :   0.9428
B( 47-N , 50-C ) :   1.1487 B( 48-C , 49-C ) :   1.1159 B( 48-C ,102-H ) :   0.9227
B( 48-C ,103-H ) :   0.9507 B( 49-C ,104-H ) :   0.9619 B( 49-C ,105-H ) :   0.9678
B( 49-C ,106-H ) :   0.9683 B( 50-C , 51-C ) :   1.2063 B( 51-C , 52-C ) :   1.5533
B( 51-C ,107-H ) :   0.9432 B( 52-C , 53-C ) :   1.1713 B( 52-C ,108-H ) :   0.9797
B( 53-C , 54-S ) :   1.1192 B( 53-C , 57-C ) :   1.4325 B( 54-S , 55-C ) :   1.1221
B( 55-C , 56-C ) :   1.4174 B( 55-C , 60-C ) :   1.1800 B( 56-C , 57-C ) :   1.2936
B( 56-C , 58-C ) :   1.1015 B( 57-C ,109-H ) :   1.0103 B( 58-C , 59-N ) :   3.0231
B( 60-C , 61-C ) :   1.5448 B( 60-C ,110-H ) :   0.9736 B( 61-C , 62-C ) :   1.1651
B( 61-C ,111-H ) :   0.9763 B( 62-C , 63-C ) :   1.5426 B( 62-C ,112-H ) :   0.9652
B( 63-C , 64-C ) :   1.0605 B( 63-C , 72-C ) :   0.9408 B( 64-C , 65-C ) :   1.6290
B( 64-C , 70-C ) :   0.9875 B( 65-C , 66-C ) :   1.1479 B( 65-C , 68-C ) :   1.1467
B( 66-C , 67-N ) :   2.9617 B( 68-C , 69-N ) :   2.9668 B( 70-C , 71-C ) :   1.2159
B( 70-C , 77-C ) :   1.4494 B( 71-C , 72-C ) :   0.9445 B( 71-C , 74-C ) :   1.4702
B( 72-C , 73-O ) :   2.1995 B( 74-C , 75-C ) :   1.1801 B( 74-C ,113-H ) :   1.0156
B( 75-C , 76-C ) :   1.2561 B( 75-C , 81-C ) :   1.2422 B( 76-C , 77-C ) :   1.2063
B( 76-C , 78-C ) :   1.2401 B( 77-C ,114-H ) :   0.9884 B( 78-C , 79-C ) :   1.4889
B( 78-C ,115-H ) :   0.9970 B( 79-C , 80-C ) :   1.2603 B( 79-C ,116-H ) :   0.9880
B( 80-C , 81-C ) :   1.4905 B( 80-C ,117-H ) :   0.9882 B( 81-C ,118-H ) :   0.9974

-----------------------------------------------------------------------------
         ABSORPTION SPECTRUM VIA TRANSITION ELECTRIC DIPOLE MOMENTS
-----------------------------------------------------------------------------
State   Energy  Wavelength   fosc         T2         TX        TY        TZ
        (cm-1)    (nm)                  (au**2)     (au)      (au)      (au)
-----------------------------------------------------------------------------
   0   13045.1    766.6   1.393374293  35.16388   4.37738  -3.90344  -0.87496
   1   17822.8    561.1   0.197921467   3.65588   0.84389   1.36837  -1.03503
   2   22290.1    448.6   0.560296092   8.27525  -2.14262  -0.70568   1.78506
   3   22514.4    444.2   0.019446999   0.28436   0.38049   0.22946  -0.29484
   4   23817.0    419.9   0.562895652   7.78065   2.01811  -1.89191  -0.35854
   5   24885.5    401.8   0.152632500   2.01918  -1.19125  -0.35173   0.69021
   6   25444.7    393.0   0.204080171   2.64046  -0.88528   1.14406   0.74018
   7   26089.9    383.3   0.001282812   0.01619   0.10816  -0.03343  -0.05807
   8   26509.8    377.2   0.008391648   0.10421  -0.11624   0.18510   0.23757
   9   27309.8    366.2   0.014980996   0.18059  -0.00152   0.11291  -0.40968
  10   27775.6    360.0   0.021674658   0.25690  -0.19274   0.37877  -0.27619
  11   28127.6    355.5   0.002183364   0.02555  -0.06630  -0.09014   0.11417
  12   28478.3    351.1   0.045861225   0.53016   0.40994  -0.60168   0.00953
  13   28713.1    348.3   0.124850579   1.43148  -0.38054  -1.13240   0.06599
  14   28854.0    346.6   0.078621278   0.89703  -0.49778  -0.29552   0.74961
  15   29094.3    343.7   0.263453494   2.98107   0.95236  -0.51541  -1.34478
  16   29661.1    337.1   0.040947513   0.45448   0.10405   0.66038  -0.08692
  17   30328.3    329.7   0.028324451   0.30746   0.24808  -0.40249   0.28969
  18   30450.4    328.4   0.047608398   0.51471  -0.01235  -0.47636   0.53632
  19   31618.3    316.3   0.019681582   0.20493  -0.25183   0.20912   0.31270
  20   32384.0    308.8   0.505118015   5.13497   0.83460   1.92905  -0.84686
  21   32433.0    308.3   0.025209986   0.25589   0.01499   0.47443   0.17490
  22   32653.0    306.3   0.566705042   5.71359   0.17899  -1.67121  -1.69959
  23   32779.7    305.1   0.082766665   0.83124   0.41664   0.10953  -0.80353
  24   33076.6    302.3   0.032139477   0.31988   0.27141   0.30397  -0.39220
  25   33333.0    300.0   0.098141026   0.96929   0.00596   0.09864   0.97955
  26   33630.2    297.4   0.026159282   0.25608   0.21547  -0.38697   0.24475
  27   33746.9    296.3   0.071634275   0.69881   0.56360  -0.07867  -0.61235
  28   33803.2    295.8   0.003571118   0.03478   0.11330  -0.09817  -0.11093
  29   34158.4    292.8   0.143064510   1.37883  -0.42156   1.08802   0.13168
  30   34281.7    291.7   0.013860809   0.13311   0.01403   0.35991   0.05811
  31   34781.5    287.5   0.216577071   2.04993   0.32879   1.18943  -0.72600
  32   34795.8    287.4   0.181534389   1.71754   0.52719   0.74692  -0.93900
  33   35279.9    283.4   0.068941262   0.64332   0.15099   0.62255  -0.48266
  34   35784.1    279.5   0.039023484   0.35901   0.23568  -0.01407  -0.55070
  35   36400.9    274.7   0.153612982   1.38929  -0.39172  -1.10498  -0.12192
  36   36664.8    272.7   0.108496563   0.97419   0.42124   0.84998   0.27255
  37   37140.2    269.2   0.198836643   1.76249  -0.50400   1.22503  -0.08815
  38   37435.4    267.1   0.009214839   0.08104  -0.05964  -0.11044   0.25550
  39   37730.9    265.0   0.151326742   1.32037  -0.30306   0.27892  -1.07272
  40   38056.3    262.8   0.003073509   0.02659  -0.11851   0.11159   0.00955
  41   38210.9    261.7   0.148102793   1.27600   0.70686  -0.84648   0.24458
  42   38461.7    260.0   0.050806171   0.43487   0.17107  -0.45001   0.45067
  43   38615.9    259.0   0.031725550   0.27047   0.16223  -0.21536  -0.44471
  44   38648.4    258.7   0.075260430   0.64108   0.10941  -0.29819  -0.73497
  45   38804.4    257.7   0.001887748   0.01602  -0.08684   0.07962  -0.04619
  46   38868.9    257.3   0.060489958   0.51234   0.08187  -0.20757  -0.68011
  47   39117.1    255.6   0.002272825   0.01913   0.07541   0.07130   0.09142
  48   39296.3    254.5   0.029194829   0.24459  -0.17519  -0.27430   0.37236
  49   39465.8    253.4   0.060657658   0.50599  -0.38493   0.59817   0.00211
  50   39708.7    251.8   0.211992008   1.75756   1.08581  -0.55232  -0.52299
  51   39782.4    251.4   0.166242875   1.37571   0.65985  -0.89339   0.37704

FINAL SINGLE POINT ENERGY     -4309.051693286485

DIPOLE MOMENT
-------------
                                X             Y             Z
Electronic contribution:     -2.68349       6.27800      11.49467
Nuclear contribution   :      3.81817      -9.79711     -13.41747
                        -----------------------------------------
Total Dipole Moment    :      1.13468      -3.51911      -1.92279
                        -----------------------------------------
Magnitude (a.u.)       :      4.16759
Magnitude (Debye)      :     10.59317

Rotational constants in cm-1:     0.001439     0.000179     0.000166
Rotational constants in MHz :    43.137614     5.379909     4.980887

                             ****ORCA TERMINATED NORMALLY****
TOTAL RUN TIME: 0 days 0 hours 20 minutes 15 seconds 679 msec
