                         Program Version 4.2.0 -  RELEASE  -
|  1> # ORCA input file
|  2> # SCF done       -158.794341250361          0.000779639701
|  3> ! CAM-B3LYP def2-SVP def2/J RIJCOSX Grid4 TightSCF
|  4> %maxcore 5000
|  5> %tddft
|  6>     Mode sTDDFT
|  7>     Ethresh 5.0
|  8>     maxcore 5000
|  9> end
| 10>
| 11> %pal
| 12>   nprocs 6
| 13>   end
| 14> * xyz 0 1
| 15>    O       -3.05388         1.07322        -0.98738
| 16>    C       -2.00628         1.32646        -0.15811
| 17>    N       -1.64534         0.29069         0.54097
| 18>    C       -2.49403        -0.71434         0.16390
| 19>    C       -3.35754        -0.21240        -0.78133
| 20>    C       -2.41732        -2.05816         0.72559
| 21>    O       -3.14502        -2.96708         0.42207
| 22>    C       -1.42032         2.62425        -0.12061
| 23>    C       -0.36241         3.03243         0.66479
| 24>    C       -0.05468         4.37660         0.44552
| 25>    C       -0.89015         4.97426        -0.51696
| 26>    S       -2.04953         3.89189        -1.14743
| 27>    C       -0.50724         6.32740        -0.67194
| 28>    C        0.57202         6.59438         0.19347
| 29>    C        0.90834         5.36587         0.90353
| 30>    C        1.94177         5.16949         1.76890
| 31>    C        2.90415         6.16416         2.05520
| 32>    N        3.72590         6.93308         2.26942
| 33>    C        2.16103         3.92786         2.40545
| 34>    N        2.34685         2.92688         2.93169
| 35>    C        0.99646         7.91742         0.14542
| 36>    C        0.25663         8.65838        -0.76899
| 37>    S       -0.97956         7.69776        -1.57169
| 38>    C        0.41378        10.02458        -1.07059
| 39>    C        1.23302        10.95134        -0.41020
| 40>    C        1.15739        12.27301        -0.97394
| 41>    N        1.84521        13.28825        -0.44490
| 42>    C        2.58078        13.02598         0.61178
| 43>    C        3.31702        14.16413         1.22418
| 44>    O        3.12763        15.31419         0.89818
| 45>    C        4.27696        13.78224         2.27688
| 46>    C        4.34797        12.55433         2.79982
| 47>    C        3.47394        11.44122         2.38437
| 48>    O        3.41266        10.39631         2.99194
| 49>    C        2.65644        11.71225         1.17168
| 50>    N        1.99382        10.70038         0.65835
| 51>    C        0.28078        12.35550        -2.06520
| 52>    S       -0.44422        10.80697        -2.35967
| 53>    C       -0.01903        13.49608        -2.83422
| 54>    C        0.60694        14.73534        -2.76442
| 55>    C        0.05732        15.63700        -3.66881
| 56>    C       -1.00406        15.09205        -4.41811
| 57>    S       -1.30536        13.45744        -4.03382
| 58>    C       -1.51872        16.09490        -5.27316
| 59>    C       -0.78547        17.27940        -5.07134
| 60>    C        0.24570        17.02401        -4.07773
| 61>    C        1.21732        17.88270        -3.66062
| 62>    C        1.29071        19.21479        -4.12480
| 63>    N        1.35595        20.29982        -4.48864
| 64>    C        2.25493        17.50065        -2.78038
| 65>    N        3.13421        17.20560        -2.10793
| 66>    C       -1.22619        18.32927        -5.87957
| 67>    C       -2.28159        17.94021        -6.67793
| 68>    S       -2.74484        16.27003        -6.44750
| 69>    C       -2.98179        18.74516        -7.62177
| 70>    N       -2.74857        19.99359        -7.90262
| 71>    C       -3.66740        20.32710        -8.86028
| 72>    C       -4.43830        19.21781        -9.11764
| 73>    O       -4.00980        18.21858        -8.33959
| 74>    C       -3.73837        21.65946        -9.44940
| 75>    O       -4.53074        21.99155       -10.29185
| 76>    H       -4.16475        -0.65112        -1.33055
| 77>    H       -1.61187        -2.16464         1.47209
| 78>    H        0.13171         2.36805         1.34895
| 79>    H        1.78391         8.35937         0.72953
| 80>    H        4.90662        14.58559         2.63453
| 81>    H        5.03807        12.31996         3.59897
| 82>    H        1.40731        14.92891        -2.07267
| 83>    H       -0.82611        19.32566        -5.90584
| 84>    H       -5.25661        19.04354        -9.78527
| 85>    H       -2.98088        22.34930        -9.03996
| 86> *
| 87>
| 88>                          ****END OF INPUT****

CARTESIAN COORDINATES (ANGSTROEM)
---------------------------------
  O     -3.053880    1.073220   -0.987380
  C     -2.006280    1.326460   -0.158110
  N     -1.645340    0.290690    0.540970
  C     -2.494030   -0.714340    0.163900
  C     -3.357540   -0.212400   -0.781330
  C     -2.417320   -2.058160    0.725590
  O     -3.145020   -2.967080    0.422070
  C     -1.420320    2.624250   -0.120610
  C     -0.362410    3.032430    0.664790
  C     -0.054680    4.376600    0.445520
  C     -0.890150    4.974260   -0.516960
  S     -2.049530    3.891890   -1.147430
  C     -0.507240    6.327400   -0.671940
  C      0.572020    6.594380    0.193470
  C      0.908340    5.365870    0.903530
  C      1.941770    5.169490    1.768900
  C      2.904150    6.164160    2.055200
  N      3.725900    6.933080    2.269420
  C      2.161030    3.927860    2.405450
  N      2.346850    2.926880    2.931690
  C      0.996460    7.917420    0.145420
  C      0.256630    8.658380   -0.768990
  S     -0.979560    7.697760   -1.571690
  C      0.413780   10.024580   -1.070590
  C      1.233020   10.951340   -0.410200
  C      1.157390   12.273010   -0.973940
  N      1.845210   13.288250   -0.444900
  C      2.580780   13.025980    0.611780
  C      3.317020   14.164130    1.224180
  O      3.127630   15.314190    0.898180
  C      4.276960   13.782240    2.276880
  C      4.347970   12.554330    2.799820
  C      3.473940   11.441220    2.384370
  O      3.412660   10.396310    2.991940
  C      2.656440   11.712250    1.171680
  N      1.993820   10.700380    0.658350
  C      0.280780   12.355500   -2.065200
  S     -0.444220   10.806970   -2.359670
  C     -0.019030   13.496080   -2.834220
  C      0.606940   14.735340   -2.764420
  C      0.057320   15.637000   -3.668810
  C     -1.004060   15.092050   -4.418110
  S     -1.305360   13.457440   -4.033820
  C     -1.518720   16.094900   -5.273160
  C     -0.785470   17.279400   -5.071340
  C      0.245700   17.024010   -4.077730
  C      1.217320   17.882700   -3.660620
  C      1.290710   19.214790   -4.124800
  N      1.355950   20.299820   -4.488640
  C      2.254930   17.500650   -2.780380
  N      3.134210   17.205600   -2.107930
  C     -1.226190   18.329270   -5.879570
  C     -2.281590   17.940210   -6.677930
  S     -2.744840   16.270030   -6.447500
  C     -2.981790   18.745160   -7.621770
  N     -2.748570   19.993590   -7.902620
  C     -3.667400   20.327100   -8.860280
  C     -4.438300   19.217810   -9.117640
  O     -4.009800   18.218580   -8.339590
  C     -3.738370   21.659460   -9.449400
  O     -4.530740   21.991550  -10.291850
  H     -4.164750   -0.651120   -1.330550
  H     -1.611870   -2.164640    1.472090
  H      0.131710    2.368050    1.348950
  H      1.783910    8.359370    0.729530
  H      4.906620   14.585590    2.634530
  H      5.038070   12.319960    3.598970
  H      1.407310   14.928910   -2.072670
  H     -0.826110   19.325660   -5.905840
  H     -5.256610   19.043540   -9.785270
  H     -2.980880   22.349300   -9.039960

 Total Charge           Charge          ....    0
 Multiplicity           Mult            ....    1
 Number of Electrons    NEL             ....  446
 Basis Dimension        Dim             ....  924

ORBITAL ENERGIES
----------------

  NO   OCC          E(Eh)            E(eV)
   0   2.0000     -89.008148     -2422.0348
   1   2.0000     -89.000809     -2421.8351
   2   2.0000     -89.000480     -2421.8262
   3   2.0000     -88.999751     -2421.8063
   4   2.0000     -88.999436     -2421.7978
   5   2.0000     -19.329324      -525.9776
   6   2.0000     -19.329216      -525.9747
   7   2.0000     -19.228880      -523.2444
   8   2.0000     -19.228805      -523.2424
   9   2.0000     -19.217143      -522.9251
  10   2.0000     -19.217072      -522.9231
  11   2.0000     -14.454980      -393.3400
  12   2.0000     -14.454849      -393.3364
  13   2.0000     -14.432596      -392.7309
  14   2.0000     -14.432484      -392.7279
  15   2.0000     -14.429132      -392.6366
  16   2.0000     -14.429092      -392.6355
  17   2.0000     -14.425787      -392.5456
  18   2.0000     -14.425745      -392.5445
  19   2.0000     -10.388215      -282.6777
  20   2.0000     -10.388189      -282.6770
  21   2.0000     -10.377677      -282.3909
  22   2.0000     -10.377573      -282.3881
  23   2.0000     -10.369921      -282.1799
  24   2.0000     -10.369830      -282.1774
  25   2.0000     -10.361925      -281.9623
  26   2.0000     -10.361887      -281.9613
  27   2.0000     -10.357347      -281.8377
  28   2.0000     -10.357288      -281.8361
  29   2.0000     -10.355263      -281.7810
  30   2.0000     -10.355178      -281.7787
  31   2.0000     -10.346503      -281.5427
  32   2.0000     -10.346235      -281.5354
  33   2.0000     -10.344936      -281.5000
  34   2.0000     -10.344847      -281.4976
  35   2.0000     -10.341960      -281.4190
  36   2.0000     -10.341814      -281.4151
  37   2.0000     -10.341692      -281.4117
  38   2.0000     -10.341685      -281.4115
  39   2.0000     -10.340398      -281.3765
  40   2.0000     -10.340229      -281.3719
  41   2.0000     -10.338834      -281.3340
  42   2.0000     -10.338681      -281.3298
  43   2.0000     -10.334241      -281.2090
  44   2.0000     -10.334240      -281.2090
  45   2.0000     -10.332073      -281.1500
  46   2.0000     -10.331973      -281.1473
  47   2.0000     -10.327786      -281.0333
  48   2.0000     -10.327733      -281.0319
  49   2.0000     -10.314078      -280.6603
  50   2.0000     -10.313990      -280.6579
  51   2.0000     -10.311282      -280.5842
  52   2.0000     -10.311267      -280.5838
  53   2.0000     -10.311149      -280.5806
  54   2.0000     -10.311030      -280.5774
  55   2.0000     -10.310853      -280.5726
  56   2.0000     -10.310849      -280.5725
  57   2.0000     -10.310287      -280.5572
  58   2.0000     -10.309576      -280.5378
  59   2.0000     -10.305047      -280.4146
  60   2.0000     -10.304988      -280.4130
  61   2.0000      -8.103060      -220.4955
  62   2.0000      -8.095240      -220.2827
  63   2.0000      -8.095060      -220.2778
  64   2.0000      -8.094522      -220.2632
  65   2.0000      -8.094343      -220.2583
  66   2.0000      -6.072143      -165.2314
  67   2.0000      -6.068009      -165.1189
  68   2.0000      -6.065677      -165.0555
  69   2.0000      -6.064442      -165.0219
  70   2.0000      -6.064262      -165.0170
  71   2.0000      -6.063832      -165.0053
  72   2.0000      -6.063658      -165.0005
  73   2.0000      -6.060309      -164.9094
  74   2.0000      -6.060123      -164.9043
  75   2.0000      -6.059673      -164.8921
  76   2.0000      -6.059486      -164.8870
  77   2.0000      -6.057668      -164.8375
  78   2.0000      -6.057440      -164.8313
  79   2.0000      -6.056766      -164.8130
  80   2.0000      -6.056535      -164.8067
  81   2.0000      -1.257635       -34.2220
  82   2.0000      -1.257570       -34.2202
  83   2.0000      -1.146963       -31.2104
  84   2.0000      -1.142162       -31.0798
  85   2.0000      -1.130830       -30.7715
  86   2.0000      -1.130819       -30.7712
  87   2.0000      -1.106569       -30.1113
  88   2.0000      -1.052196       -28.6317
  89   2.0000      -1.051928       -28.6244
  90   2.0000      -1.035750       -28.1842
  91   2.0000      -1.035691       -28.1826
  92   2.0000      -1.033565       -28.1247
  93   2.0000      -1.025379       -27.9020
  94   2.0000      -1.023584       -27.8531
  95   2.0000      -1.020802       -27.7774
  96   2.0000      -1.008409       -27.4402
  97   2.0000      -1.007626       -27.4189
  98   2.0000      -1.006120       -27.3779
  99   2.0000      -0.997689       -27.1485
 100   2.0000      -0.966967       -26.3125
 101   2.0000      -0.962422       -26.1888
 102   2.0000      -0.941885       -25.6300
 103   2.0000      -0.928154       -25.2564
 104   2.0000      -0.922811       -25.1110
 105   2.0000      -0.900024       -24.4909
 106   2.0000      -0.891842       -24.2683
 107   2.0000      -0.884223       -24.0609
 108   2.0000      -0.880905       -23.9706
 109   2.0000      -0.874044       -23.7840
 110   2.0000      -0.864025       -23.5113
 111   2.0000      -0.861682       -23.4475
 112   2.0000      -0.860246       -23.4085
 113   2.0000      -0.821282       -22.3482
 114   2.0000      -0.807688       -21.9783
 115   2.0000      -0.798431       -21.7264
 116   2.0000      -0.795569       -21.6485
 117   2.0000      -0.788848       -21.4656
 118   2.0000      -0.782536       -21.2939
 119   2.0000      -0.774465       -21.0743
 120   2.0000      -0.773681       -21.0529
 121   2.0000      -0.761951       -20.7338
 122   2.0000      -0.754057       -20.5189
 123   2.0000      -0.725186       -19.7333
 124   2.0000      -0.715023       -19.4568
 125   2.0000      -0.704146       -19.1608
 126   2.0000      -0.703627       -19.1467
 127   2.0000      -0.700189       -19.0531
 128   2.0000      -0.692444       -18.8424
 129   2.0000      -0.688602       -18.7378
 130   2.0000      -0.686806       -18.6889
 131   2.0000      -0.682336       -18.5673
 132   2.0000      -0.670830       -18.2542
 133   2.0000      -0.663653       -18.0589
 134   2.0000      -0.646205       -17.5841
 135   2.0000      -0.636628       -17.3235
 136   2.0000      -0.634522       -17.2662
 137   2.0000      -0.631884       -17.1944
 138   2.0000      -0.627433       -17.0733
 139   2.0000      -0.623368       -16.9627
 140   2.0000      -0.618592       -16.8328
 141   2.0000      -0.617750       -16.8098
 142   2.0000      -0.610589       -16.6150
 143   2.0000      -0.607985       -16.5441
 144   2.0000      -0.601549       -16.3690
 145   2.0000      -0.598947       -16.2982
 146   2.0000      -0.598941       -16.2980
 147   2.0000      -0.577518       -15.7151
 148   2.0000      -0.577256       -15.7079
 149   2.0000      -0.575715       -15.6660
 150   2.0000      -0.574062       -15.6210
 151   2.0000      -0.564973       -15.3737
 152   2.0000      -0.564583       -15.3631
 153   2.0000      -0.562621       -15.3097
 154   2.0000      -0.559941       -15.2368
 155   2.0000      -0.552526       -15.0350
 156   2.0000      -0.552245       -15.0273
 157   2.0000      -0.535183       -14.5631
 158   2.0000      -0.532608       -14.4930
 159   2.0000      -0.530939       -14.4476
 160   2.0000      -0.526750       -14.3336
 161   2.0000      -0.523684       -14.2502
 162   2.0000      -0.516607       -14.0576
 163   2.0000      -0.515801       -14.0357
 164   2.0000      -0.509929       -13.8759
 165   2.0000      -0.509104       -13.8534
 166   2.0000      -0.505941       -13.7674
 167   2.0000      -0.505702       -13.7608
 168   2.0000      -0.504626       -13.7316
 169   2.0000      -0.502248       -13.6669
 170   2.0000      -0.501221       -13.6389
 171   2.0000      -0.498960       -13.5774
 172   2.0000      -0.498740       -13.5714
 173   2.0000      -0.496844       -13.5198
 174   2.0000      -0.494064       -13.4442
 175   2.0000      -0.490753       -13.3541
 176   2.0000      -0.489986       -13.3332
 177   2.0000      -0.485866       -13.2211
 178   2.0000      -0.485549       -13.2125
 179   2.0000      -0.485088       -13.1999
 180   2.0000      -0.478266       -13.0143
 181   2.0000      -0.478100       -13.0098
 182   2.0000      -0.462498       -12.5852
 183   2.0000      -0.462214       -12.5775
 184   2.0000      -0.461159       -12.5488
 185   2.0000      -0.460084       -12.5195
 186   2.0000      -0.458585       -12.4787
 187   2.0000      -0.457397       -12.4464
 188   2.0000      -0.452270       -12.3069
 189   2.0000      -0.451369       -12.2824
 190   2.0000      -0.449007       -12.2181
 191   2.0000      -0.442669       -12.0456
 192   2.0000      -0.440521       -11.9872
 193   2.0000      -0.440390       -11.9836
 194   2.0000      -0.439377       -11.9561
 195   2.0000      -0.439211       -11.9515
 196   2.0000      -0.428540       -11.6612
 197   2.0000      -0.426744       -11.6123
 198   2.0000      -0.426479       -11.6051
 199   2.0000      -0.426226       -11.5982
 200   2.0000      -0.415287       -11.3005
 201   2.0000      -0.413028       -11.2391
 202   2.0000      -0.412688       -11.2298
 203   2.0000      -0.394877       -10.7451
 204   2.0000      -0.389434       -10.5970
 205   2.0000      -0.389378       -10.5955
 206   2.0000      -0.386710       -10.5229
 207   2.0000      -0.375063       -10.2060
 208   2.0000      -0.366941        -9.9850
 209   2.0000      -0.362442        -9.8626
 210   2.0000      -0.360817        -9.8183
 211   2.0000      -0.356294        -9.6953
 212   2.0000      -0.353442        -9.6177
 213   2.0000      -0.347795        -9.4640
 214   2.0000      -0.340842        -9.2748
 215   2.0000      -0.340020        -9.2524
 216   2.0000      -0.338111        -9.2005
 217   2.0000      -0.338108        -9.2004
 218   2.0000      -0.328383        -8.9357
 219   2.0000      -0.326826        -8.8934
 220   2.0000      -0.308818        -8.4034
 221   2.0000      -0.280904        -7.6438
 222   2.0000      -0.242787        -6.6066
 223   0.0000      -0.121510        -3.3065
 224   0.0000      -0.107771        -2.9326
 225   0.0000      -0.095104        -2.5879
 226   0.0000      -0.087692        -2.3862
 227   0.0000      -0.044227        -1.2035

MULLIKEN ATOMIC CHARGES
-----------------------
   0 O :   -0.175654
   1 C :    0.097832
   2 N :   -0.072876
   3 C :   -0.043051
   4 C :    0.132199
   5 C :    0.169889
   6 O :   -0.175236
   7 C :   -0.104583
   8 C :   -0.035103
   9 C :    0.010687
  10 C :   -0.091927
  11 S :    0.220780
  12 C :   -0.095420
  13 C :    0.030281
  14 C :    0.299339
  15 C :   -0.291191
  16 C :   -0.195742
  17 N :    0.200855
  18 C :   -0.194953
  19 N :    0.184307
  20 C :   -0.060591
  21 C :   -0.088954
  22 S :    0.176220
  23 C :   -0.113712
  24 C :    0.020906
  25 C :    0.022973
  26 N :    0.065529
  27 C :   -0.117761
  28 C :    0.139869
  29 O :   -0.093110
  30 C :   -0.014053
  31 C :   -0.016036
  32 C :    0.139760
  33 O :   -0.093463
  34 C :   -0.114269
  35 N :    0.066015
  36 C :   -0.110719
  37 S :    0.196619
  38 C :   -0.089972
  39 C :   -0.061694
  40 C :    0.030642
  41 C :   -0.093576
  42 S :    0.175794
  43 C :   -0.093175
  44 C :    0.010924
  45 C :    0.297700
  46 C :   -0.290207
  47 C :   -0.193754
  48 N :    0.184546
  49 C :   -0.196110
  50 N :    0.198086
  51 C :   -0.032751
  52 C :   -0.104858
  53 S :    0.220716
  54 C :    0.098114
  55 N :   -0.070439
  56 C :   -0.047425
  57 C :    0.134020
  58 O :   -0.176672
  59 C :    0.170521
  60 O :   -0.174596
  61 H :    0.037106
  62 H :   -0.005004
  63 H :    0.027288
  64 H :    0.031812
  65 H :    0.023314
  66 H :    0.023981
  67 H :    0.031642
  68 H :    0.026408
  69 H :    0.037327
  70 H :   -0.005364
Sum of atomic charges:   -0.0000000

LOEWDIN ATOMIC CHARGES
----------------------
   0 O :    0.018562
   1 C :    0.025704
   2 N :   -0.094626
   3 C :   -0.103118
   4 C :    0.071798
   5 C :    0.105685
   6 O :   -0.129525
   7 C :   -0.197084
   8 C :    0.001679
   9 C :   -0.067508
  10 C :   -0.176574
  11 S :    0.492005
  12 C :   -0.182021
  13 C :   -0.061817
  14 C :    0.074671
  15 C :   -0.088285
  16 C :   -0.024020
  17 N :   -0.010349
  18 C :   -0.017831
  19 N :   -0.023850
  20 C :   -0.007877
  21 C :   -0.182676
  22 S :    0.459482
  23 C :   -0.192210
  24 C :   -0.043345
  25 C :   -0.043363
  26 N :    0.007917
  27 C :   -0.037176
  28 C :    0.054861
  29 O :   -0.088623
  30 C :   -0.011945
  31 C :   -0.012055
  32 C :    0.055006
  33 O :   -0.088786
  34 C :   -0.037185
  35 N :    0.007996
  36 C :   -0.192008
  37 S :    0.487592
  38 C :   -0.182649
  39 C :   -0.007948
  40 C :   -0.061772
  41 C :   -0.181967
  42 S :    0.459595
  43 C :   -0.176623
  44 C :   -0.067483
  45 C :    0.074486
  46 C :   -0.088278
  47 C :   -0.017862
  48 N :   -0.023843
  49 C :   -0.023991
  50 N :   -0.010470
  51 C :    0.001909
  52 C :   -0.197076
  53 S :    0.492108
  54 C :    0.025720
  55 N :   -0.094450
  56 C :   -0.103354
  57 C :    0.071923
  58 O :    0.018207
  59 C :    0.105660
  60 O :   -0.129433
  61 H :    0.036968
  62 H :    0.004406
  63 H :    0.050445
  64 H :    0.045177
  65 H :    0.047213
  66 H :    0.047267
  67 H :    0.045180
  68 H :    0.050331
  69 H :    0.037015
  70 H :    0.004487

  Mayer bond orders larger than 0.100000
B(  0-O ,  1-C ) :   1.2056 B(  0-O ,  4-C ) :   1.1537 B(  1-C ,  2-N ) :   1.7749
B(  1-C ,  7-C ) :   1.0468 B(  2-N ,  3-C ) :   1.2964 B(  3-C ,  4-C ) :   1.5183
B(  3-C ,  5-C ) :   0.9659 B(  4-C , 61-H ) :   0.9901 B(  5-C ,  6-O ) :   2.2043
B(  5-C , 62-H ) :   0.9527 B(  7-C ,  8-C ) :   1.4945 B(  7-C , 11-S ) :   1.0997
B(  8-C ,  9-C ) :   1.2667 B(  8-C , 63-H ) :   1.0085 B(  9-C , 10-C ) :   1.4317
B(  9-C , 14-C ) :   0.9912 B( 10-C , 11-S ) :   1.1261 B( 10-C , 12-C ) :   1.2001
B( 12-C , 13-C ) :   1.4279 B( 12-C , 22-S ) :   1.1198 B( 13-C , 14-C ) :   0.9872
B( 13-C , 20-C ) :   1.2692 B( 14-C , 15-C ) :   1.7264 B( 15-C , 16-C ) :   1.1313
B( 15-C , 18-C ) :   1.1356 B( 16-C , 17-N ) :   3.0038 B( 18-C , 19-N ) :   2.9981
B( 20-C , 21-C ) :   1.4570 B( 20-C , 64-H ) :   0.9885 B( 21-C , 22-S ) :   1.0825
B( 21-C , 23-C ) :   1.1835 B( 23-C , 24-C ) :   1.3715 B( 23-C , 36-C ) :   0.1546
B( 23-C , 37-S ) :   1.1520 B( 24-C , 25-C ) :   1.1881 B( 24-C , 35-N ) :   1.4402
B( 25-C , 26-N ) :   1.4395 B( 25-C , 36-C ) :   1.3719 B( 26-N , 27-C ) :   1.7192
B( 27-C , 28-C ) :   0.8880 B( 27-C , 34-C ) :   1.0873 B( 28-C , 29-O ) :   2.2455
B( 28-C , 30-C ) :   1.0215 B( 30-C , 31-C ) :   1.6936 B( 30-C , 65-H ) :   0.9947
B( 31-C , 32-C ) :   1.0224 B( 31-C , 66-H ) :   0.9950 B( 32-C , 33-O ) :   2.2454
B( 32-C , 34-C ) :   0.8882 B( 34-C , 35-N ) :   1.7187 B( 36-C , 37-S ) :   1.1521
B( 36-C , 38-C ) :   1.1841 B( 38-C , 39-C ) :   1.4556 B( 38-C , 42-S ) :   1.0827
B( 39-C , 40-C ) :   1.2691 B( 39-C , 67-H ) :   0.9891 B( 40-C , 41-C ) :   1.4294
B( 40-C , 45-C ) :   0.9852 B( 41-C , 42-S ) :   1.1193 B( 41-C , 43-C ) :   1.1996
B( 43-C , 44-C ) :   1.4339 B( 43-C , 53-S ) :   1.1258 B( 44-C , 45-C ) :   0.9907
B( 44-C , 51-C ) :   1.2687 B( 45-C , 46-C ) :   1.7268 B( 46-C , 47-C ) :   1.1344
B( 46-C , 49-C ) :   1.1307 B( 47-C , 48-N ) :   2.9984 B( 49-C , 50-N ) :   3.0025
B( 51-C , 52-C ) :   1.4948 B( 51-C , 68-H ) :   1.0074 B( 52-C , 53-S ) :   1.0991
B( 52-C , 54-C ) :   1.0465 B( 54-C , 55-N ) :   1.7762 B( 54-C , 58-O ) :   1.2046
B( 55-N , 56-C ) :   1.2975 B( 56-C , 57-C ) :   1.5177 B( 56-C , 59-C ) :   0.9666
B( 57-C , 58-O ) :   1.1540 B( 57-C , 69-H ) :   0.9900 B( 59-C , 60-O ) :   2.2054
B( 59-C , 70-H ) :   0.9524

-----------------------------------------------------------------------------
         ABSORPTION SPECTRUM VIA TRANSITION ELECTRIC DIPOLE MOMENTS
-----------------------------------------------------------------------------
State   Energy  Wavelength   fosc         T2         TX        TY        TZ
        (cm-1)    (nm)                  (au**2)     (au)      (au)      (au)
-----------------------------------------------------------------------------
   0   10831.3    923.3   0.653728697  19.86981  -0.23177   4.09208  -1.75242
   1   12739.0    785.0   0.040991442   1.05933   0.72057   0.33622   0.65350
   2   14749.5    678.0   0.140751405   3.14161  -0.09362   1.62735  -0.69610
   3   18519.3    540.0   0.132651703   2.35810  -0.95742  -0.51684  -1.08366
   4   20324.1    492.0   0.054596945   0.88437  -0.66478  -0.29333  -0.59698
   5   22616.7    442.2   0.065388563   0.95181   0.05392  -0.89522   0.38403
   6   24655.6    405.6   0.002946853   0.03935   0.14947  -0.04256  -0.12326
   7   25756.8    388.2   0.102385439   1.30865   0.74740   0.37835   0.77903
   8   25983.2    384.9   0.004467005   0.05660  -0.01154   0.21872  -0.09289
   9   26604.6    375.9   1.270785749  15.72499  -0.20375   3.63972  -1.56073
  10   26755.8    373.8   0.002011374   0.02475   0.15498  -0.01173  -0.02434
  11   28553.2    350.2   0.193829190   2.23481  -0.07710   1.37259  -0.58724
  12   29505.1    338.9   0.012779927   0.14260   0.02001  -0.34662   0.14848
  13   29805.1    335.5   0.474930528   5.24585  -1.83211  -0.63027  -1.22147
  14   30076.5    332.5   0.091286758   0.99921  -0.06097   0.91656  -0.39422
  15   30388.8    329.1   0.175870185   1.90526   1.01720   0.42218   0.83206
  16   30652.3    326.2   0.000000188   0.00000  -0.00062  -0.00127   0.00013
  17   30835.5    324.3   0.001270146   0.01356  -0.00765  -0.04487  -0.10718
  18   31975.3    312.7   0.015668827   0.16132  -0.28497  -0.12431  -0.25428
  19   32400.5    308.6   0.230582328   2.34288   0.09629  -1.39946   0.61248
  20   32914.9    303.8   0.781677494   7.81826  -2.18841  -0.79662  -1.54743
  21   33252.9    300.7   0.009314796   0.09222   0.01200   0.28237  -0.11109
  22   33580.7    297.8   0.234838950   2.30227  -0.98959  -0.50173  -1.03501
  23   33825.9    295.6   0.000451620   0.00440  -0.02547  -0.06111   0.00358
  24   33850.1    295.4   0.292676798   2.84645   1.39864   0.44679   0.83104
  25   33873.9    295.2   0.010725759   0.10424   0.08164  -0.26846   0.15970
  26   34260.4    291.9   0.004392455   0.04221   0.10021   0.07544   0.16271
  27   35088.8    285.0   0.002766156   0.02595  -0.16040  -0.00086   0.01495
  28   35359.3    282.8   0.158197483   1.47289   0.05779  -1.11451   0.47689
  29   35525.9    281.5   0.001446707   0.01341  -0.04179  -0.04179  -0.09956
  30   35692.1    280.2   0.042695634   0.39381   0.03141  -0.57634   0.24628
  31   36365.8    275.0   0.011275211   0.10207   0.19010   0.10655   0.23363
  32   36394.1    274.8   0.000001605   0.00001  -0.00305   0.00159   0.00164
  33   36397.1    274.7   0.000002875   0.00003  -0.00070   0.00224   0.00453
  34   36661.1    272.8   0.007053691   0.06334  -0.00986   0.23157  -0.09809
  35   36782.7    271.9   0.015605613   0.13967   0.20168   0.13174   0.28573
  36   37144.9    269.2   0.146845373   1.30148   0.06062  -1.04640   0.45040
  37   37388.6    267.5   0.005486500   0.04831   0.03013   0.08742   0.19940
  38   37476.1    266.8   0.008431916   0.07407  -0.01491   0.24866  -0.10963
  39   38072.6    262.7   0.020898504   0.18071   0.24524   0.14737   0.31440
  40   38110.4    262.4   0.002465515   0.02130   0.00129  -0.13674   0.05098
  41   38195.3    261.8   0.056128614   0.48378  -0.47283  -0.22183  -0.45935
  42   38451.1    260.1   0.192374297   1.64708  -0.91559  -0.39212  -0.80932
  43   38514.6    259.6   0.015656639   0.13383   0.01389  -0.33808   0.13905
  44   38691.4    258.5   0.015807572   0.13450  -0.29559  -0.09961  -0.19289
  45   38917.1    257.0   0.114176853   0.96586  -0.04485   0.90410  -0.38268
  46   39252.0    254.8   0.044519175   0.37339  -0.02885   0.56062  -0.24137
  47   39331.3    254.3   0.003726247   0.03119  -0.16141   0.01120   0.07078
  48   39724.6    251.7   0.016461183   0.13642  -0.27183  -0.11037  -0.22439
  49   39917.2    250.5   0.071854791   0.59261  -0.54349  -0.24856  -0.48523
  50   39944.8    250.3   0.002906439   0.02395   0.01936  -0.13527   0.07267
  51   40308.8    248.1   0.190191348   1.55334  -0.06274   1.14266  -0.49370

FINAL SINGLE POINT ENERGY     -4482.952873246567

DIPOLE MOMENT
-------------
                                X             Y             Z
Electronic contribution:     -2.69345      -1.50430      -3.17517
Nuclear contribution   :      0.64996       0.77620       1.73779
                        -----------------------------------------
Total Dipole Moment    :     -2.04350      -0.72810      -1.43739
                        -----------------------------------------
Magnitude (a.u.)       :      2.60232
Magnitude (Debye)      :      6.61458

Rotational constants in cm-1:     0.001828     0.000384     0.000318
Rotational constants in MHz :    54.813675    11.512317     9.544052

                             ****ORCA TERMINATED NORMALLY****
TOTAL RUN TIME: 0 days 0 hours 6 minutes 1 seconds 172 msec
