                         Program Version 4.2.0 -  RELEASE  -
|  1> # ORCA input file
|  2> # SCF done       -171.562561466008          0.000891894490
|  3> ! CAM-B3LYP def2-SVP def2/J RIJCOSX Grid4 TightSCF
|  4> %maxcore 5000
|  5> %tddft
|  6>     Mode sTDDFT
|  7>     Ethresh 5.0
|  8>     maxcore 5000
|  9> end
| 10>
| 11> %pal
| 12>   nprocs 6
| 13>   end
| 14> * xyz 0 1
| 15>    C        2.43666         4.13376         0.56468
| 16>    O        3.21435         4.67475        -0.18167
| 17>    C        1.13566         4.58703         1.08671
| 18>    C        0.62557         3.58107         1.91418
| 19>    C       -0.59208         3.72495         2.54556
| 20>    C       -1.29406         4.90822         2.32983
| 21>    C       -0.78735         5.90527         1.51076
| 22>    C        0.44162         5.75972         0.87269
| 23>    C        1.58707         2.45747         1.94746
| 24>    O        1.52583         1.41345         2.53334
| 25>    N        2.64885         2.86622         1.11354
| 26>    C        3.79075         2.13908         0.82369
| 27>    C        4.13199         0.89699         1.29796
| 28>    C        5.36582         0.48622         0.77480
| 29>    C        5.93043         1.43318        -0.09265
| 30>    S        4.96477         2.83583        -0.27307
| 31>    C        7.16022         0.92191        -0.57589
| 32>    C        7.37897        -0.34910        -0.00725
| 33>    C        6.23651        -0.67532         0.83853
| 34>    C        6.00412        -1.85044         1.48766
| 35>    C        6.85837        -2.97021         1.37457
| 36>    N        7.50537        -3.90868         1.25642
| 37>    C        4.85532        -2.06279         2.28102
| 38>    N        3.93130        -2.25427         2.93179
| 39>    C        8.57972        -0.92512        -0.40100
| 40>    C        9.26874        -0.11119        -1.29404
| 41>    S        8.41536         1.39284        -1.62767
| 42>    C       10.49111        -0.40874        -1.92198
| 43>    C       11.34341        -1.48781        -1.64042
| 44>    C       12.47861        -1.53863        -2.52038
| 45>    N       13.39190        -2.50617        -2.43206
| 46>    C       13.22864        -3.39173        -1.47339
| 47>    C       14.23045        -4.48340        -1.38131
| 48>    O       15.17441        -4.56993        -2.13840
| 49>    C       13.98872        -5.45881        -0.30463
| 50>    C       12.98764        -5.35830         0.57582
| 51>    C       12.01062        -4.25415         0.58085
| 52>    O       11.18907        -4.11765         1.46106
| 53>    C       12.13231        -3.30727        -0.55611
| 54>    N       11.20446        -2.37950        -0.65847
| 55>    C       12.51101        -0.49791        -3.45239
| 56>    S       11.13684         0.53932        -3.22961
| 57>    C       13.48711        -0.32508        -4.44870
| 58>    C       13.57197         0.69328        -5.39001
| 59>    C       14.65412         0.50845        -6.24042
| 60>    C       15.39202        -0.65818        -5.94463
| 61>    S       14.76411        -1.52020        -4.60757
| 62>    C       16.44873        -0.77410        -6.88152
| 63>    C       16.37799         0.32916        -7.76511
| 64>    C       15.25512         1.16971        -7.38676
| 65>    C       14.84732         2.32910        -7.97939
| 66>    C       15.51562         2.87601        -9.09464
| 67>    N       16.05557         3.32219       -10.00255
| 68>    C       13.73212         3.05626        -7.51379
| 69>    N       12.82424         3.64532        -7.13418
| 70>    C       17.36701         0.29138        -8.73106
| 71>    C       18.19211        -0.83033        -8.60814
| 72>    S       17.71976        -1.84623        -7.24896
| 73>    C       19.25269        -1.06799        -9.50404
| 74>    C       20.14916        -2.09752        -9.59854
| 75>    C       20.20529        -3.26585        -8.71542
| 76>    O       19.47787        -3.45503        -7.76085
| 77>    O       21.16037        -4.12149        -9.08179
| 78>    C       21.29472        -5.29062        -8.28817
| 79>    C       21.10554        -2.05286       -10.63597
| 80>    N       21.87412        -1.99681       -11.48539
| 81>    H       -0.97937         2.94447         3.18123
| 82>    H       -2.25036         5.05070         2.80969
| 83>    H       -1.35524         6.81135         1.36376
| 84>    H        0.84223         6.53062         0.23351
| 85>    H        3.51805         0.33618         1.97819
| 86>    H        8.96999        -1.87455        -0.08076
| 87>    H       14.69677        -6.27549        -0.26102
| 88>    H       12.85397        -6.08877         1.36230
| 89>    H       12.86950         1.50640        -5.43155
| 90>    H       17.50380         1.02574        -9.50496
| 91>    H       19.36051        -0.29028       -10.25456
| 92>    H       22.08197        -5.87833        -8.75215
| 93>    H       20.35570        -5.84802        -8.27052
| 94>    H       21.56513        -5.02482        -7.26415
| 95> *
| 96>
| 97>                          ****END OF INPUT****

CARTESIAN COORDINATES (ANGSTROEM)
---------------------------------
  C      2.436660    4.133760    0.564680
  O      3.214350    4.674750   -0.181670
  C      1.135660    4.587030    1.086710
  C      0.625570    3.581070    1.914180
  C     -0.592080    3.724950    2.545560
  C     -1.294060    4.908220    2.329830
  C     -0.787350    5.905270    1.510760
  C      0.441620    5.759720    0.872690
  C      1.587070    2.457470    1.947460
  O      1.525830    1.413450    2.533340
  N      2.648850    2.866220    1.113540
  C      3.790750    2.139080    0.823690
  C      4.131990    0.896990    1.297960
  C      5.365820    0.486220    0.774800
  C      5.930430    1.433180   -0.092650
  S      4.964770    2.835830   -0.273070
  C      7.160220    0.921910   -0.575890
  C      7.378970   -0.349100   -0.007250
  C      6.236510   -0.675320    0.838530
  C      6.004120   -1.850440    1.487660
  C      6.858370   -2.970210    1.374570
  N      7.505370   -3.908680    1.256420
  C      4.855320   -2.062790    2.281020
  N      3.931300   -2.254270    2.931790
  C      8.579720   -0.925120   -0.401000
  C      9.268740   -0.111190   -1.294040
  S      8.415360    1.392840   -1.627670
  C     10.491110   -0.408740   -1.921980
  C     11.343410   -1.487810   -1.640420
  C     12.478610   -1.538630   -2.520380
  N     13.391900   -2.506170   -2.432060
  C     13.228640   -3.391730   -1.473390
  C     14.230450   -4.483400   -1.381310
  O     15.174410   -4.569930   -2.138400
  C     13.988720   -5.458810   -0.304630
  C     12.987640   -5.358300    0.575820
  C     12.010620   -4.254150    0.580850
  O     11.189070   -4.117650    1.461060
  C     12.132310   -3.307270   -0.556110
  N     11.204460   -2.379500   -0.658470
  C     12.511010   -0.497910   -3.452390
  S     11.136840    0.539320   -3.229610
  C     13.487110   -0.325080   -4.448700
  C     13.571970    0.693280   -5.390010
  C     14.654120    0.508450   -6.240420
  C     15.392020   -0.658180   -5.944630
  S     14.764110   -1.520200   -4.607570
  C     16.448730   -0.774100   -6.881520
  C     16.377990    0.329160   -7.765110
  C     15.255120    1.169710   -7.386760
  C     14.847320    2.329100   -7.979390
  C     15.515620    2.876010   -9.094640
  N     16.055570    3.322190  -10.002550
  C     13.732120    3.056260   -7.513790
  N     12.824240    3.645320   -7.134180
  C     17.367010    0.291380   -8.731060
  C     18.192110   -0.830330   -8.608140
  S     17.719760   -1.846230   -7.248960
  C     19.252690   -1.067990   -9.504040
  C     20.149160   -2.097520   -9.598540
  C     20.205290   -3.265850   -8.715420
  O     19.477870   -3.455030   -7.760850
  O     21.160370   -4.121490   -9.081790
  C     21.294720   -5.290620   -8.288170
  C     21.105540   -2.052860  -10.635970
  N     21.874120   -1.996810  -11.485390
  H     -0.979370    2.944470    3.181230
  H     -2.250360    5.050700    2.809690
  H     -1.355240    6.811350    1.363760
  H      0.842230    6.530620    0.233510
  H      3.518050    0.336180    1.978190
  H      8.969990   -1.874550   -0.080760
  H     14.696770   -6.275490   -0.261020
  H     12.853970   -6.088770    1.362300
  H     12.869500    1.506400   -5.431550
  H     17.503800    1.025740   -9.504960
  H     19.360510   -0.290280  -10.254560
  H     22.081970   -5.878330   -8.752150
  H     20.355700   -5.848020   -8.270520
  H     21.565130   -5.024820   -7.264150

 Total Charge           Charge          ....    0
 Multiplicity           Mult            ....    1
 Number of Electrons    NEL             ....  480
 Basis Dimension        Dim             .... 1014

ORBITAL ENERGIES
----------------

  NO   OCC          E(Eh)            E(eV)
   0   2.0000     -89.001849     -2421.8634
   1   2.0000     -88.990850     -2421.5641
   2   2.0000     -88.987776     -2421.4805
   3   2.0000     -88.985899     -2421.4294
   4   2.0000     -88.985526     -2421.4193
   5   2.0000     -19.268391      -524.3196
   6   2.0000     -19.246269      -523.7176
   7   2.0000     -19.241407      -523.5853
   8   2.0000     -19.229204      -523.2532
   9   2.0000     -19.225461      -523.1514
  10   2.0000     -19.218002      -522.9484
  11   2.0000     -14.497832      -394.5061
  12   2.0000     -14.454345      -393.3227
  13   2.0000     -14.452325      -393.2678
  14   2.0000     -14.429920      -392.6581
  15   2.0000     -14.429123      -392.6364
  16   2.0000     -14.423898      -392.4942
  17   2.0000     -14.422067      -392.4444
  18   2.0000     -14.391532      -391.6135
  19   2.0000     -10.422628      -283.6141
  20   2.0000     -10.421445      -283.5819
  21   2.0000     -10.415074      -283.4086
  22   2.0000     -10.378829      -282.4223
  23   2.0000     -10.374559      -282.3061
  24   2.0000     -10.362456      -281.9767
  25   2.0000     -10.360454      -281.9223
  26   2.0000     -10.360131      -281.9135
  27   2.0000     -10.351587      -281.6810
  28   2.0000     -10.346252      -281.5358
  29   2.0000     -10.346136      -281.5327
  30   2.0000     -10.342235      -281.4265
  31   2.0000     -10.341830      -281.4155
  32   2.0000     -10.336368      -281.2669
  33   2.0000     -10.335743      -281.2499
  34   2.0000     -10.334400      -281.2133
  35   2.0000     -10.333854      -281.1985
  36   2.0000     -10.332908      -281.1727
  37   2.0000     -10.330675      -281.1119
  38   2.0000     -10.329657      -281.0843
  39   2.0000     -10.329359      -281.0761
  40   2.0000     -10.328975      -281.0657
  41   2.0000     -10.327832      -281.0346
  42   2.0000     -10.326057      -280.9863
  43   2.0000     -10.324596      -280.9466
  44   2.0000     -10.323683      -280.9217
  45   2.0000     -10.322132      -280.8795
  46   2.0000     -10.321346      -280.8581
  47   2.0000     -10.319554      -280.8093
  48   2.0000     -10.316731      -280.7325
  49   2.0000     -10.316005      -280.7128
  50   2.0000     -10.315231      -280.6917
  51   2.0000     -10.314201      -280.6637
  52   2.0000     -10.314121      -280.6615
  53   2.0000     -10.311209      -280.5823
  54   2.0000     -10.310806      -280.5713
  55   2.0000     -10.309704      -280.5413
  56   2.0000     -10.309170      -280.5268
  57   2.0000     -10.308855      -280.5182
  58   2.0000     -10.305446      -280.4254
  59   2.0000     -10.303933      -280.3843
  60   2.0000     -10.300500      -280.2908
  61   2.0000     -10.299581      -280.2658
  62   2.0000     -10.299476      -280.2630
  63   2.0000     -10.298872      -280.2465
  64   2.0000     -10.294089      -280.1164
  65   2.0000     -10.293090      -280.0892
  66   2.0000      -8.096319      -220.3120
  67   2.0000      -8.085690      -220.0228
  68   2.0000      -8.081015      -219.8956
  69   2.0000      -8.079167      -219.8453
  70   2.0000      -8.077983      -219.8131
  71   2.0000      -6.065411      -165.0482
  72   2.0000      -6.061323      -164.9370
  73   2.0000      -6.058920      -164.8716
  74   2.0000      -6.054951      -164.7636
  75   2.0000      -6.050819      -164.6512
  76   2.0000      -6.050650      -164.6466
  77   2.0000      -6.048537      -164.5891
  78   2.0000      -6.047959      -164.5733
  79   2.0000      -6.047352      -164.5568
  80   2.0000      -6.045985      -164.5196
  81   2.0000      -6.044071      -164.4675
  82   2.0000      -6.043067      -164.4402
  83   2.0000      -6.042647      -164.4288
  84   2.0000      -6.041514      -164.3979
  85   2.0000      -6.040577      -164.3725
  86   2.0000      -1.203820       -32.7576
  87   2.0000      -1.193270       -32.4705
  88   2.0000      -1.167560       -31.7709
  89   2.0000      -1.145476       -31.1700
  90   2.0000      -1.139519       -31.0079
  91   2.0000      -1.109815       -30.1996
  92   2.0000      -1.104216       -30.0472
  93   2.0000      -1.086235       -29.5580
  94   2.0000      -1.043084       -28.3838
  95   2.0000      -1.040585       -28.3157
  96   2.0000      -1.031732       -28.0748
  97   2.0000      -1.021267       -27.7901
  98   2.0000      -1.016665       -27.6649
  99   2.0000      -1.013161       -27.5695
 100   2.0000      -1.007287       -27.4097
 101   2.0000      -1.002281       -27.2735
 102   2.0000      -0.999723       -27.2038
 103   2.0000      -0.993134       -27.0246
 104   2.0000      -0.982933       -26.7470
 105   2.0000      -0.979808       -26.6619
 106   2.0000      -0.958455       -26.0809
 107   2.0000      -0.952605       -25.9217
 108   2.0000      -0.940351       -25.5883
 109   2.0000      -0.927660       -25.2429
 110   2.0000      -0.918384       -24.9905
 111   2.0000      -0.906986       -24.6804
 112   2.0000      -0.894089       -24.3294
 113   2.0000      -0.879547       -23.9337
 114   2.0000      -0.879345       -23.9282
 115   2.0000      -0.875056       -23.8115
 116   2.0000      -0.868350       -23.6290
 117   2.0000      -0.859576       -23.3903
 118   2.0000      -0.854396       -23.2493
 119   2.0000      -0.853042       -23.2125
 120   2.0000      -0.838998       -22.8303
 121   2.0000      -0.815736       -22.1973
 122   2.0000      -0.805721       -21.9248
 123   2.0000      -0.795675       -21.6514
 124   2.0000      -0.792388       -21.5620
 125   2.0000      -0.784901       -21.3583
 126   2.0000      -0.780417       -21.2362
 127   2.0000      -0.773168       -21.0390
 128   2.0000      -0.769834       -20.9483
 129   2.0000      -0.756620       -20.5887
 130   2.0000      -0.733882       -19.9700
 131   2.0000      -0.724972       -19.7275
 132   2.0000      -0.719467       -19.5777
 133   2.0000      -0.701015       -19.0756
 134   2.0000      -0.698519       -19.0077
 135   2.0000      -0.690848       -18.7989
 136   2.0000      -0.686338       -18.6762
 137   2.0000      -0.681354       -18.5406
 138   2.0000      -0.679845       -18.4995
 139   2.0000      -0.677710       -18.4414
 140   2.0000      -0.667456       -18.1624
 141   2.0000      -0.663925       -18.0663
 142   2.0000      -0.654643       -17.8137
 143   2.0000      -0.646970       -17.6050
 144   2.0000      -0.635961       -17.3054
 145   2.0000      -0.632561       -17.2129
 146   2.0000      -0.628462       -17.1013
 147   2.0000      -0.624874       -17.0037
 148   2.0000      -0.618499       -16.8302
 149   2.0000      -0.612770       -16.6743
 150   2.0000      -0.612076       -16.6554
 151   2.0000      -0.606191       -16.4953
 152   2.0000      -0.599555       -16.3147
 153   2.0000      -0.598732       -16.2923
 154   2.0000      -0.596748       -16.2383
 155   2.0000      -0.587593       -15.9892
 156   2.0000      -0.584599       -15.9078
 157   2.0000      -0.580031       -15.7834
 158   2.0000      -0.571316       -15.5463
 159   2.0000      -0.564738       -15.3673
 160   2.0000      -0.563807       -15.3420
 161   2.0000      -0.562389       -15.3034
 162   2.0000      -0.560725       -15.2581
 163   2.0000      -0.556821       -15.1519
 164   2.0000      -0.551846       -15.0165
 165   2.0000      -0.546025       -14.8581
 166   2.0000      -0.545559       -14.8454
 167   2.0000      -0.543024       -14.7764
 168   2.0000      -0.541986       -14.7482
 169   2.0000      -0.538581       -14.6555
 170   2.0000      -0.534076       -14.5329
 171   2.0000      -0.527143       -14.3443
 172   2.0000      -0.524213       -14.2646
 173   2.0000      -0.519313       -14.1312
 174   2.0000      -0.513321       -13.9682
 175   2.0000      -0.510547       -13.8927
 176   2.0000      -0.508290       -13.8313
 177   2.0000      -0.507702       -13.8153
 178   2.0000      -0.506345       -13.7783
 179   2.0000      -0.502790       -13.6816
 180   2.0000      -0.500102       -13.6085
 181   2.0000      -0.497390       -13.5347
 182   2.0000      -0.496875       -13.5207
 183   2.0000      -0.494339       -13.4517
 184   2.0000      -0.494000       -13.4424
 185   2.0000      -0.492958       -13.4141
 186   2.0000      -0.489943       -13.3320
 187   2.0000      -0.487774       -13.2730
 188   2.0000      -0.482171       -13.1205
 189   2.0000      -0.479743       -13.0545
 190   2.0000      -0.479090       -13.0367
 191   2.0000      -0.477121       -12.9831
 192   2.0000      -0.473182       -12.8759
 193   2.0000      -0.467201       -12.7132
 194   2.0000      -0.465630       -12.6704
 195   2.0000      -0.461119       -12.5477
 196   2.0000      -0.457352       -12.4452
 197   2.0000      -0.456830       -12.4310
 198   2.0000      -0.453663       -12.3448
 199   2.0000      -0.453599       -12.3431
 200   2.0000      -0.449688       -12.2366
 201   2.0000      -0.448764       -12.2115
 202   2.0000      -0.446084       -12.1386
 203   2.0000      -0.445316       -12.1177
 204   2.0000      -0.441015       -12.0006
 205   2.0000      -0.439672       -11.9641
 206   2.0000      -0.439117       -11.9490
 207   2.0000      -0.437153       -11.8955
 208   2.0000      -0.433043       -11.7837
 209   2.0000      -0.431905       -11.7527
 210   2.0000      -0.431423       -11.7396
 211   2.0000      -0.426105       -11.5949
 212   2.0000      -0.424169       -11.5422
 213   2.0000      -0.420167       -11.4333
 214   2.0000      -0.419363       -11.4114
 215   2.0000      -0.412886       -11.2352
 216   2.0000      -0.405520       -11.0347
 217   2.0000      -0.401755       -10.9323
 218   2.0000      -0.399494       -10.8708
 219   2.0000      -0.391490       -10.6530
 220   2.0000      -0.387969       -10.5572
 221   2.0000      -0.387035       -10.5318
 222   2.0000      -0.374819       -10.1993
 223   2.0000      -0.373584       -10.1657
 224   2.0000      -0.367849       -10.0097
 225   2.0000      -0.365529        -9.9465
 226   2.0000      -0.363492        -9.8911
 227   2.0000      -0.362378        -9.8608
 228   2.0000      -0.358153        -9.7458
 229   2.0000      -0.353172        -9.6103
 230   2.0000      -0.347800        -9.4641
 231   2.0000      -0.347349        -9.4518
 232   2.0000      -0.344065        -9.3625
 233   2.0000      -0.343389        -9.3441
 234   2.0000      -0.337793        -9.1918
 235   2.0000      -0.320898        -8.7321
 236   2.0000      -0.317862        -8.6495
 237   2.0000      -0.306421        -8.3381
 238   2.0000      -0.274173        -7.4606
 239   2.0000      -0.234943        -6.3931
 240   0.0000      -0.114874        -3.1259
 241   0.0000      -0.100398        -2.7320
 242   0.0000      -0.090326        -2.4579
 243   0.0000      -0.087062        -2.3691
 244   0.0000      -0.070745        -1.9251

MULLIKEN ATOMIC CHARGES
-----------------------
   0 C :    0.226181
   1 O :   -0.165055
   2 C :    0.004313
   3 C :   -0.008496
   4 C :   -0.028773
   5 C :    0.041779
   6 C :    0.042408
   7 C :   -0.027769
   8 C :    0.223671
   9 O :   -0.124348
  10 N :   -0.231577
  11 C :   -0.001074
  12 C :   -0.060743
  13 C :    0.016569
  14 C :   -0.092083
  15 S :    0.210316
  16 C :   -0.093866
  17 C :    0.020373
  18 C :    0.301823
  19 C :   -0.299085
  20 C :   -0.192795
  21 N :    0.189376
  22 C :   -0.192979
  23 N :    0.180165
  24 C :   -0.051037
  25 C :   -0.101055
  26 S :    0.181164
  27 C :   -0.111101
  28 C :    0.026160
  29 C :    0.013069
  30 N :    0.037606
  31 C :   -0.111433
  32 C :    0.137336
  33 O :   -0.107297
  34 C :   -0.018157
  35 C :   -0.011575
  36 C :    0.137284
  37 O :   -0.095672
  38 C :   -0.121388
  39 N :    0.075481
  40 C :   -0.123635
  41 S :    0.213541
  42 C :   -0.067891
  43 C :   -0.090042
  44 C :    0.032162
  45 C :   -0.095359
  46 S :    0.247261
  47 C :   -0.067862
  48 C :    0.026706
  49 C :    0.304870
  50 C :   -0.301897
  51 C :   -0.190870
  52 N :    0.174578
  53 C :   -0.189647
  54 N :    0.169026
  55 C :   -0.044408
  56 C :   -0.063265
  57 S :    0.246837
  58 C :    0.049608
  59 C :   -0.221404
  60 C :    0.240970
  61 O :   -0.247429
  62 O :   -0.278504
  63 C :    0.188120
  64 C :   -0.123871
  65 N :    0.097270
  66 H :    0.009783
  67 H :    0.008713
  68 H :    0.008325
  69 H :    0.007212
  70 H :    0.026420
  71 H :    0.028071
  72 H :    0.018626
  73 H :    0.022151
  74 H :    0.008048
  75 H :    0.015363
  76 H :    0.028630
  77 H :    0.044969
  78 H :    0.036202
  79 H :    0.034905
Sum of atomic charges:   -0.0000000

LOEWDIN ATOMIC CHARGES
----------------------
   0 C :    0.097672
   1 O :   -0.150901
   2 C :   -0.052399
   3 C :   -0.049465
   4 C :    0.017467
   5 C :    0.003393
   6 C :    0.001756
   7 C :    0.016517
   8 C :    0.107824
   9 O :   -0.117056
  10 N :   -0.029727
  11 C :   -0.119852
  12 C :   -0.053811
  13 C :   -0.061218
  14 C :   -0.202088
  15 S :    0.499455
  16 C :   -0.165638
  17 C :   -0.072929
  18 C :    0.077848
  19 C :   -0.094323
  20 C :   -0.021708
  21 N :   -0.019722
  22 C :   -0.018452
  23 N :   -0.026955
  24 C :   -0.000714
  25 C :   -0.195741
  26 S :    0.463250
  27 C :   -0.178178
  28 C :   -0.048401
  29 C :   -0.051938
  30 N :   -0.013712
  31 C :   -0.034887
  32 C :    0.055871
  33 O :   -0.103457
  34 C :   -0.016552
  35 C :   -0.007921
  36 C :    0.053882
  37 O :   -0.091094
  38 C :   -0.044608
  39 N :    0.014127
  40 C :   -0.202960
  41 S :    0.503297
  42 C :   -0.171832
  43 C :   -0.038226
  44 C :   -0.059699
  45 C :   -0.191737
  46 S :    0.532749
  47 C :   -0.166120
  48 C :   -0.082479
  49 C :    0.082297
  50 C :   -0.108020
  51 C :   -0.017588
  52 N :   -0.034283
  53 C :   -0.015821
  54 N :   -0.038091
  55 C :    0.004179
  56 C :   -0.192665
  57 S :    0.550187
  58 C :    0.058420
  59 C :   -0.148922
  60 C :    0.098633
  61 O :   -0.203792
  62 O :   -0.069278
  63 C :    0.085422
  64 C :   -0.038511
  65 N :   -0.064641
  66 H :    0.044065
  67 H :    0.038003
  68 H :    0.037757
  69 H :    0.043186
  70 H :    0.043576
  71 H :    0.044402
  72 H :    0.045657
  73 H :    0.047091
  74 H :    0.036019
  75 H :    0.043176
  76 H :    0.059829
  77 H :    0.030803
  78 H :    0.025166
  79 H :    0.025137

  Mayer bond orders larger than 0.100000
B(  0-C ,  1-O ) :   2.1619 B(  0-C ,  2-C ) :   0.9064 B(  0-C , 10-N ) :   1.0257
B(  2-C ,  3-C ) :   1.3740 B(  2-C ,  7-C ) :   1.4124 B(  3-C ,  4-C ) :   1.4209
B(  3-C ,  8-C ) :   0.8993 B(  4-C ,  5-C ) :   1.3419 B(  4-C , 66-H ) :   1.0073
B(  5-C ,  6-C ) :   1.4052 B(  5-C , 67-H ) :   0.9896 B(  6-C ,  7-C ) :   1.3432
B(  6-C , 68-H ) :   0.9890 B(  7-C , 69-H ) :   1.0080 B(  8-C ,  9-O ) :   2.2256
B(  8-C , 10-N ) :   0.9864 B( 10-N , 11-C ) :   1.0142 B( 11-C , 12-C ) :   1.4898
B( 11-C , 15-S ) :   1.1364 B( 12-C , 13-C ) :   1.2192 B( 12-C , 70-H ) :   1.0034
B( 13-C , 14-C ) :   1.4572 B( 13-C , 18-C ) :   1.0115 B( 14-C , 15-S ) :   1.0538
B( 14-C , 16-C ) :   1.2070 B( 16-C , 17-C ) :   1.4267 B( 16-C , 26-S ) :   1.1349
B( 17-C , 18-C ) :   0.9841 B( 17-C , 24-C ) :   1.2793 B( 18-C , 19-C ) :   1.7188
B( 19-C , 20-C ) :   1.1309 B( 19-C , 22-C ) :   1.1342 B( 20-C , 21-N ) :   3.0016
B( 22-C , 23-N ) :   2.9969 B( 24-C , 25-C ) :   1.4458 B( 24-C , 71-H ) :   0.9884
B( 25-C , 26-S ) :   1.0716 B( 25-C , 27-C ) :   1.1985 B( 27-C , 28-C ) :   1.3539
B( 27-C , 40-C ) :   0.1325 B( 27-C , 41-S ) :   1.1649 B( 28-C , 29-C ) :   1.1827
B( 28-C , 39-N ) :   1.4531 B( 29-C , 30-N ) :   1.4137 B( 29-C , 40-C ) :   1.3366
B( 30-N , 31-C ) :   1.7044 B( 31-C , 32-C ) :   0.8924 B( 31-C , 38-C ) :   1.0986
B( 32-C , 33-O ) :   2.2487 B( 32-C , 34-C ) :   1.0258 B( 34-C , 35-C ) :   1.6835
B( 34-C , 72-H ) :   0.9970 B( 35-C , 36-C ) :   1.0208 B( 35-C , 73-H ) :   0.9963
B( 36-C , 37-O ) :   2.2435 B( 36-C , 38-C ) :   0.8951 B( 38-C , 39-N ) :   1.7082
B( 40-C , 41-S ) :   1.1400 B( 40-C , 42-C ) :   1.2316 B( 42-C , 43-C ) :   1.3905
B( 42-C , 46-S ) :   1.1274 B( 43-C , 44-C ) :   1.3191 B( 43-C , 74-H ) :   0.9948
B( 44-C , 45-C ) :   1.4059 B( 44-C , 49-C ) :   0.9974 B( 45-C , 46-S ) :   1.0895
B( 45-C , 47-C ) :   1.2066 B( 47-C , 48-C ) :   1.3610 B( 47-C , 57-S ) :   1.1290
B( 48-C , 49-C ) :   0.9922 B( 48-C , 55-C ) :   1.3345 B( 49-C , 50-C ) :   1.7098
B( 50-C , 51-C ) :   1.1348 B( 50-C , 53-C ) :   1.1349 B( 51-C , 52-N ) :   2.9929
B( 53-C , 54-N ) :   2.9920 B( 55-C , 56-C ) :   1.3488 B( 55-C , 75-H ) :   1.0043
B( 56-C , 57-S ) :   1.0797 B( 56-C , 58-C ) :   1.2250 B( 58-C , 59-C ) :   1.6399
B( 58-C , 76-H ) :   0.9594 B( 59-C , 60-C ) :   0.9890 B( 59-C , 64-C ) :   1.0639
B( 60-C , 61-O ) :   1.9623 B( 60-C , 62-O ) :   1.2781 B( 62-O , 63-C ) :   0.9145
B( 63-C , 77-H ) :   0.9811 B( 63-C , 78-H ) :   0.9756 B( 63-C , 79-H ) :   0.9770
B( 64-C , 65-N ) :   3.0357

-----------------------------------------------------------------------------
         ABSORPTION SPECTRUM VIA TRANSITION ELECTRIC DIPOLE MOMENTS
-----------------------------------------------------------------------------
State   Energy  Wavelength   fosc         T2         TX        TY        TZ
        (cm-1)    (nm)                  (au**2)     (au)      (au)      (au)
-----------------------------------------------------------------------------
   0   10422.6    959.5   0.689046990  21.76445  -3.77295   0.46921   2.70355
   1   12587.1    794.5   0.025741147   0.67325   0.61433  -0.52124   0.15541
   2   14026.8    712.9   0.082209559   1.92947  -1.09485  -0.03151   0.85428
   3   16843.6    593.7   0.116426282   2.27558   0.71849  -1.15131   0.65866
   4   20173.4    495.7   0.030192321   0.49271  -0.48228   0.45697  -0.22648
   5   22494.0    444.6   0.254122602   3.71922  -1.43750   0.10827   1.28105
   6   22645.7    441.6   0.005538095   0.08051   0.07674   0.20928  -0.17556
   7   24095.2    415.0   0.951559762  13.00115  -2.85864   0.70439   2.08163
   8   24809.6    403.1   0.002215133   0.02939  -0.10250  -0.10256  -0.09148
   9   25159.7    397.5   0.108823559   1.42394  -1.03179   0.57262   0.17732
  10   25750.5    388.3   0.000018378   0.00023  -0.01440  -0.00166   0.00499
  11   26642.9    375.3   0.002119934   0.02619  -0.10524  -0.12093  -0.02223
  12   27486.4    363.8   0.092465675   1.10749  -0.91219   0.14657   0.50389
  13   27689.3    361.2   0.118270476   1.40618   1.00486  -0.08420  -0.62397
  14   29295.7    341.3   0.123883063   1.39214  -0.63936   0.98284  -0.13185
  15   29369.3    340.5   0.083589963   0.93699  -0.03004  -0.72568   0.63990
  16   30000.5    333.3   0.280876216   3.08221   1.11061   0.83503  -1.07307
  17   30798.0    324.7   0.000230145   0.00246   0.02908   0.00281   0.04008
  18   31294.0    319.5   0.051222051   0.53885  -0.05048  -0.54693   0.48700
  19   32137.1    311.2   0.300209616   3.07534  -1.33383   1.07327   0.37992
  20   32467.1    308.0   0.360824248   3.65871  -0.93713   1.59698  -0.47975
  21   32576.6    307.0   0.137781414   1.39239  -0.50030   1.03768  -0.25557
  22   32815.6    304.7   0.678213074   6.80394  -1.01725   2.33537  -0.56144
  23   33353.4    299.8   0.195945031   1.93406  -1.02205   0.94233   0.03852
  24   33439.6    299.0   0.040482198   0.39855   0.13549   0.39180  -0.47611
  25   33518.2    298.3   0.211927476   2.08153  -0.79196  -0.54409   1.07624
  26   33674.8    297.0   0.127089957   1.24246  -0.94767   0.58557  -0.03866
  27   33760.9    296.2   0.059061412   0.57592   0.23919   0.02649  -0.71973
  28   34343.9    291.2   0.065602906   0.62885   0.27121   0.56664  -0.48396
  29   34668.3    288.4   0.091693978   0.87073  -0.56823  -0.45831   0.58121
  30   34956.3    286.1   0.001738300   0.01637  -0.06654   0.01596  -0.10812
  31   35124.1    284.7   0.016820953   0.15766   0.13337   0.31606  -0.19994
  32   35208.4    284.0   0.024629059   0.23029  -0.27440  -0.21319   0.33098
  33   35418.2    282.3   0.062462766   0.58059   0.31426  -0.59176   0.36283
  34   35802.2    279.3   0.001529742   0.01407  -0.04996  -0.07938  -0.07260
  35   36069.1    277.2   0.162862362   1.48649   0.05933  -0.98084   0.72175
  36   36420.6    274.6   0.004046146   0.03657   0.10032   0.13150   0.09601
  37   36615.7    273.1   0.083639535   0.75200  -0.24227   0.74391  -0.37404
  38   37013.4    270.2   0.127773237   1.13647  -0.87104   0.51564   0.33446
  39   37164.3    269.1   0.015620444   0.13837   0.19326   0.18645  -0.25741
  40   37207.3    268.8   0.125492305   1.11036   0.55369  -0.84802   0.29095
  41   37270.6    268.3   0.066866492   0.59063  -0.03895   0.63087  -0.43717
  42   37429.1    267.2   0.130784176   1.15033  -0.43809   0.90498  -0.37338
  43   37778.5    264.7   0.017487330   0.15239  -0.14494  -0.20164   0.30121
  44   38369.7    260.6   0.012349041   0.10595   0.00791   0.23910  -0.22073
  45   38851.7    257.4   0.053773385   0.45565  -0.46033   0.49368  -0.00547
  46   39325.6    254.3   0.007509931   0.06287  -0.17723   0.16133   0.07369
  47   39698.1    251.9   0.005241413   0.04347   0.18031  -0.03294  -0.09935
  48   39913.5    250.5   0.103880867   0.85682  -0.70765   0.59524   0.04171
  49   39995.1    250.0   0.001638814   0.01349   0.07009  -0.09249   0.00470

FINAL SINGLE POINT ENERGY     -4675.695747930619

DIPOLE MOMENT
-------------
                                X             Y             Z
Electronic contribution:     -1.64223       5.30891       1.13370
Nuclear contribution   :     -1.80570      -3.94048       1.10936
                        -----------------------------------------
Total Dipole Moment    :     -3.44792       1.36843       2.24306
                        -----------------------------------------
Magnitude (a.u.)       :      4.33499
Magnitude (Debye)      :     11.01866

Rotational constants in cm-1:     0.002040     0.000319     0.000277
Rotational constants in MHz :    61.158593     9.559972     8.314849

                             ****ORCA TERMINATED NORMALLY****
TOTAL RUN TIME: 0 days 0 hours 6 minutes 21 seconds 322 msec
