                         Program Version 4.2.0 -  RELEASE  -
|  1> # ORCA input file
|  2> # SCF done       -222.373741719519          0.000641307498
|  3> ! CAM-B3LYP def2-SVP def2/J RIJCOSX Grid4 TightSCF
|  4> %maxcore 5000
|  5> %tddft
|  6>     Mode sTDDFT
|  7>     Ethresh 5.0
|  8>     maxcore 5000
|  9> end
| 10>
| 11> %pal
| 12>   nprocs 6
| 13>   end
| 14> * xyz 0 1
| 15>    C        2.11820        -2.09323         7.35859
| 16>    C        2.81431        -2.49851         8.46306
| 17>    F        3.62819        -1.64551         9.09564
| 18>    C        2.68631        -3.81583         8.94896
| 19>    F        3.38131        -4.18530        10.03144
| 20>    C        1.86314        -4.70982         8.32310
| 21>    C        1.13418        -4.32249         7.18203
| 22>    C        1.26228        -2.99096         6.68962
| 23>    C        0.54261        -2.57999         5.54380
| 24>    C       -0.27620        -3.47455         4.90649
| 25>    C       -0.39259        -4.80351         5.40341
| 26>    C        0.28356        -5.22829         6.51094
| 27>    C       -1.30367        -5.56353         4.53545
| 28>    O       -1.65142        -6.72216         4.68689
| 29>    C       -1.69023        -4.65530         3.44856
| 30>    C       -1.11933        -3.34639         3.72017
| 31>    C       -1.35334        -2.18432         3.03536
| 32>    C       -2.22240        -2.04748         1.93136
| 33>    N       -2.92145        -1.85949         1.04036
| 34>    C       -0.77096        -0.94255         3.37025
| 35>    N       -0.32530         0.09154         3.59084
| 36>    C       -2.37420        -5.01870         2.31886
| 37>    C       -2.92439        -6.26015         1.95475
| 38>    C       -3.47274        -6.47774         0.68504
| 39>    C       -3.93852        -7.76926         0.52520
| 40>    C       -3.77404        -8.54391         1.69784
| 41>    S       -3.01658        -7.69997         2.96626
| 42>    C       -4.25951        -9.84963         1.42928
| 43>    C       -4.71713        -9.90228         0.10041
| 44>    C       -4.53405        -8.59748        -0.51265
| 45>    C       -4.83626        -8.24635        -1.79523
| 46>    C       -5.38406        -9.17312        -2.70795
| 47>    N       -5.82116        -9.93729        -3.44274
| 48>    C       -4.60442        -6.94695        -2.29547
| 49>    N       -4.41127        -5.89453        -2.70575
| 50>    C       -5.18991       -11.16314        -0.25913
| 51>    C       -5.09890       -12.05818         0.78976
| 52>    S       -4.42689       -11.34338         2.23828
| 53>    C       -5.46652       -13.44440         0.73609
| 54>    C       -5.44338       -14.30507         1.78631
| 55>    C       -5.81165       -15.67660         1.60721
| 56>    C       -5.80941       -16.57459         2.65953
| 57>    C       -6.16268       -17.92320         2.48731
| 58>    N       -6.45043       -19.02515         2.34060
| 59>    C       -5.44894       -16.18118         3.95878
| 60>    N       -5.14923       -15.84500         5.01545
| 61>    C       -6.16701       -16.06123         0.27505
| 62>    C       -6.16060       -15.14113        -0.72517
| 63>    O       -5.83726       -13.83676        -0.51023
| 64>    C       -6.45261       -15.38650        -2.10602
| 65>    C       -6.74452       -16.56928        -2.75646
| 66>    C       -6.90410       -16.36853        -4.12776
| 67>    C       -6.73972       -15.02256        -4.50762
| 68>    S       -6.38689       -14.00736        -3.18823
| 69>    C       -6.89801       -14.92335        -5.91368
| 70>    C       -7.14924       -16.21340        -6.42122
| 71>    C       -7.18022       -17.15841        -5.31724
| 72>    C       -7.44156       -18.49414        -5.39675
| 73>    C       -7.70944       -19.11426        -6.63606
| 74>    N       -7.91821       -19.59967        -7.65350
| 75>    C       -7.45575       -19.32782        -4.25824
| 76>    N       -7.45850       -19.99903        -3.32940
| 77>    C       -7.31707       -16.22860        -7.79910
| 78>    C       -7.21086       -14.96010        -8.35335
| 79>    S       -6.86387       -13.74049        -7.13426
| 80>    C       -7.28135       -14.57431        -9.71006
| 81>    C       -7.76453       -15.26710       -10.77798
| 82>    C       -7.32771       -14.85167       -12.14430
| 83>    O       -6.77700       -13.81755       -12.43872
| 84>    C       -7.65552       -15.99368       -13.01835
| 85>    C       -7.34082       -16.18637       -14.33285
| 86>    C       -7.72409       -17.39289       -14.96002
| 87>    C       -8.42199       -18.38240       -14.20752
| 88>    C       -8.78900       -19.58911       -14.83641
| 89>    C       -8.48144       -19.80184       -16.15098
| 90>    C       -7.79352       -18.82150       -16.89488
| 91>    C       -7.42230       -17.64176       -16.31319
| 92>    F       -7.50420       -19.05777       -18.18079
| 93>    F       -8.83112       -20.94788       -16.74744
| 94>    C       -8.74235       -18.15095       -12.85012
| 95>    C       -8.37197       -16.96882       -12.26729
| 96>    C       -8.58324       -16.45366       -10.91612
| 97>    C       -9.56789       -16.87950       -10.06370
| 98>    C       -9.89741       -16.22831        -8.85929
| 99>    N      -10.20354       -15.71010        -7.88166
|100>    C      -10.42570       -17.96621       -10.33886
|101>    N      -11.14859       -18.83835       -10.51896
|102>    H        2.22757        -1.08129         7.00098
|103>    H        1.77613        -5.71425         8.70683
|104>    H        0.66534        -1.56728         5.19583
|105>    H        0.17437        -6.24170         6.86608
|106>    H       -2.49467        -4.26289         1.55174
|107>    H       -3.50473        -5.70791        -0.06569
|108>    H       -5.58038       -11.43373        -1.22298
|109>    H       -5.14530       -13.95817         2.76311
|110>    H       -6.43376       -17.08493         0.07276
|111>    H       -6.82603       -17.51896        -2.26077
|112>    H       -7.45880       -17.11647        -8.38717
|113>    H       -6.82111       -13.62265        -9.95953
|114>    H       -6.80393       -15.43063       -14.88561
|115>    H       -9.31864       -20.34833       -14.28250
|116>    H       -6.89576       -16.90213       -16.89578
|117>    H       -9.26014       -18.92042       -12.30003
|118> *
|119>
|120>                          ****END OF INPUT****

CARTESIAN COORDINATES (ANGSTROEM)
---------------------------------
  C      2.118200   -2.093230    7.358590
  C      2.814310   -2.498510    8.463060
  F      3.628190   -1.645510    9.095640
  C      2.686310   -3.815830    8.948960
  F      3.381310   -4.185300   10.031440
  C      1.863140   -4.709820    8.323100
  C      1.134180   -4.322490    7.182030
  C      1.262280   -2.990960    6.689620
  C      0.542610   -2.579990    5.543800
  C     -0.276200   -3.474550    4.906490
  C     -0.392590   -4.803510    5.403410
  C      0.283560   -5.228290    6.510940
  C     -1.303670   -5.563530    4.535450
  O     -1.651420   -6.722160    4.686890
  C     -1.690230   -4.655300    3.448560
  C     -1.119330   -3.346390    3.720170
  C     -1.353340   -2.184320    3.035360
  C     -2.222400   -2.047480    1.931360
  N     -2.921450   -1.859490    1.040360
  C     -0.770960   -0.942550    3.370250
  N     -0.325300    0.091540    3.590840
  C     -2.374200   -5.018700    2.318860
  C     -2.924390   -6.260150    1.954750
  C     -3.472740   -6.477740    0.685040
  C     -3.938520   -7.769260    0.525200
  C     -3.774040   -8.543910    1.697840
  S     -3.016580   -7.699970    2.966260
  C     -4.259510   -9.849630    1.429280
  C     -4.717130   -9.902280    0.100410
  C     -4.534050   -8.597480   -0.512650
  C     -4.836260   -8.246350   -1.795230
  C     -5.384060   -9.173120   -2.707950
  N     -5.821160   -9.937290   -3.442740
  C     -4.604420   -6.946950   -2.295470
  N     -4.411270   -5.894530   -2.705750
  C     -5.189910  -11.163140   -0.259130
  C     -5.098900  -12.058180    0.789760
  S     -4.426890  -11.343380    2.238280
  C     -5.466520  -13.444400    0.736090
  C     -5.443380  -14.305070    1.786310
  C     -5.811650  -15.676600    1.607210
  C     -5.809410  -16.574590    2.659530
  C     -6.162680  -17.923200    2.487310
  N     -6.450430  -19.025150    2.340600
  C     -5.448940  -16.181180    3.958780
  N     -5.149230  -15.845000    5.015450
  C     -6.167010  -16.061230    0.275050
  C     -6.160600  -15.141130   -0.725170
  O     -5.837260  -13.836760   -0.510230
  C     -6.452610  -15.386500   -2.106020
  C     -6.744520  -16.569280   -2.756460
  C     -6.904100  -16.368530   -4.127760
  C     -6.739720  -15.022560   -4.507620
  S     -6.386890  -14.007360   -3.188230
  C     -6.898010  -14.923350   -5.913680
  C     -7.149240  -16.213400   -6.421220
  C     -7.180220  -17.158410   -5.317240
  C     -7.441560  -18.494140   -5.396750
  C     -7.709440  -19.114260   -6.636060
  N     -7.918210  -19.599670   -7.653500
  C     -7.455750  -19.327820   -4.258240
  N     -7.458500  -19.999030   -3.329400
  C     -7.317070  -16.228600   -7.799100
  C     -7.210860  -14.960100   -8.353350
  S     -6.863870  -13.740490   -7.134260
  C     -7.281350  -14.574310   -9.710060
  C     -7.764530  -15.267100  -10.777980
  C     -7.327710  -14.851670  -12.144300
  O     -6.777000  -13.817550  -12.438720
  C     -7.655520  -15.993680  -13.018350
  C     -7.340820  -16.186370  -14.332850
  C     -7.724090  -17.392890  -14.960020
  C     -8.421990  -18.382400  -14.207520
  C     -8.789000  -19.589110  -14.836410
  C     -8.481440  -19.801840  -16.150980
  C     -7.793520  -18.821500  -16.894880
  C     -7.422300  -17.641760  -16.313190
  F     -7.504200  -19.057770  -18.180790
  F     -8.831120  -20.947880  -16.747440
  C     -8.742350  -18.150950  -12.850120
  C     -8.371970  -16.968820  -12.267290
  C     -8.583240  -16.453660  -10.916120
  C     -9.567890  -16.879500  -10.063700
  C     -9.897410  -16.228310   -8.859290
  N    -10.203540  -15.710100   -7.881660
  C    -10.425700  -17.966210  -10.338860
  N    -11.148590  -18.838350  -10.518960
  H      2.227570   -1.081290    7.000980
  H      1.776130   -5.714250    8.706830
  H      0.665340   -1.567280    5.195830
  H      0.174370   -6.241700    6.866080
  H     -2.494670   -4.262890    1.551740
  H     -3.504730   -5.707910   -0.065690
  H     -5.580380  -11.433730   -1.222980
  H     -5.145300  -13.958170    2.763110
  H     -6.433760  -17.084930    0.072760
  H     -6.826030  -17.518960   -2.260770
  H     -7.458800  -17.116470   -8.387170
  H     -6.821110  -13.622650   -9.959530
  H     -6.803930  -15.430630  -14.885610
  H     -9.318640  -20.348330  -14.282500
  H     -6.895760  -16.902130  -16.895780
  H     -9.260140  -18.920420  -12.300030

 Total Charge           Charge          ....    0
 Multiplicity           Mult            ....    1
 Number of Electrons    NEL             ....  606
 Basis Dimension        Dim             .... 1314

ORBITAL ENERGIES
----------------

  NO   OCC          E(Eh)            E(eV)
   0   2.0000     -89.020469     -2422.3701
   1   2.0000     -89.013971     -2422.1933
   2   2.0000     -89.009518     -2422.0721
   3   2.0000     -89.008639     -2422.0482
   4   2.0000     -24.807874      -675.0566
   5   2.0000     -24.807014      -675.0332
   6   2.0000     -24.802221      -674.9027
   7   2.0000     -24.801431      -674.8813
   8   2.0000     -19.342088      -526.3250
   9   2.0000     -19.242407      -523.6125
  10   2.0000     -19.225502      -523.1525
  11   2.0000     -14.451851      -393.2549
  12   2.0000     -14.447353      -393.1325
  13   2.0000     -14.444234      -393.0476
  14   2.0000     -14.442620      -393.0037
  15   2.0000     -14.430818      -392.6825
  16   2.0000     -14.428045      -392.6071
  17   2.0000     -14.427749      -392.5990
  18   2.0000     -14.422231      -392.4489
  19   2.0000     -14.407109      -392.0374
  20   2.0000     -14.405181      -391.9849
  21   2.0000     -10.407218      -283.1948
  22   2.0000     -10.405446      -283.1466
  23   2.0000     -10.392030      -282.7815
  24   2.0000     -10.391367      -282.7635
  25   2.0000     -10.389799      -282.7208
  26   2.0000     -10.385852      -282.6134
  27   2.0000     -10.385776      -282.6113
  28   2.0000     -10.385377      -282.6005
  29   2.0000     -10.380641      -282.4716
  30   2.0000     -10.376843      -282.3683
  31   2.0000     -10.373605      -282.2801
  32   2.0000     -10.367533      -282.1149
  33   2.0000     -10.361326      -281.9460
  34   2.0000     -10.358087      -281.8579
  35   2.0000     -10.357000      -281.8283
  36   2.0000     -10.355647      -281.7915
  37   2.0000     -10.354972      -281.7731
  38   2.0000     -10.354760      -281.7674
  39   2.0000     -10.354472      -281.7595
  40   2.0000     -10.352746      -281.7125
  41   2.0000     -10.352226      -281.6984
  42   2.0000     -10.352152      -281.6964
  43   2.0000     -10.349884      -281.6347
  44   2.0000     -10.349722      -281.6303
  45   2.0000     -10.346676      -281.5474
  46   2.0000     -10.346405      -281.5400
  47   2.0000     -10.344971      -281.5010
  48   2.0000     -10.344057      -281.4761
  49   2.0000     -10.341963      -281.4191
  50   2.0000     -10.341196      -281.3983
  51   2.0000     -10.335933      -281.2550
  52   2.0000     -10.332774      -281.1691
  53   2.0000     -10.332222      -281.1541
  54   2.0000     -10.331743      -281.1410
  55   2.0000     -10.330890      -281.1178
  56   2.0000     -10.330494      -281.1070
  57   2.0000     -10.330212      -281.0994
  58   2.0000     -10.329834      -281.0891
  59   2.0000     -10.328501      -281.0528
  60   2.0000     -10.326699      -281.0038
  61   2.0000     -10.325680      -280.9760
  62   2.0000     -10.324291      -280.9382
  63   2.0000     -10.324255      -280.9373
  64   2.0000     -10.322496      -280.8894
  65   2.0000     -10.322346      -280.8853
  66   2.0000     -10.322088      -280.8783
  67   2.0000     -10.321948      -280.8745
  68   2.0000     -10.320725      -280.8412
  69   2.0000     -10.319728      -280.8141
  70   2.0000     -10.318394      -280.7778
  71   2.0000     -10.316510      -280.7265
  72   2.0000     -10.316028      -280.7134
  73   2.0000     -10.315725      -280.7051
  74   2.0000     -10.314855      -280.6815
  75   2.0000     -10.314694      -280.6771
  76   2.0000     -10.312399      -280.6146
  77   2.0000     -10.311748      -280.5969
  78   2.0000     -10.310711      -280.5687
  79   2.0000     -10.310424      -280.5609
  80   2.0000     -10.309356      -280.5318
  81   2.0000     -10.308424      -280.5065
  82   2.0000     -10.308107      -280.4979
  83   2.0000     -10.307605      -280.4842
  84   2.0000     -10.305741      -280.4335
  85   2.0000     -10.304670      -280.4043
  86   2.0000     -10.300795      -280.2989
  87   2.0000      -8.114746      -220.8135
  88   2.0000      -8.107948      -220.6285
  89   2.0000      -8.103192      -220.4991
  90   2.0000      -8.101667      -220.4576
  91   2.0000      -6.083995      -165.5539
  92   2.0000      -6.079790      -165.4395
  93   2.0000      -6.077200      -165.3690
  94   2.0000      -6.077128      -165.3671
  95   2.0000      -6.072865      -165.2510
  96   2.0000      -6.072331      -165.2365
  97   2.0000      -6.071052      -165.2017
  98   2.0000      -6.070468      -165.1858
  99   2.0000      -6.068142      -165.1225
 100   2.0000      -6.066279      -165.0718
 101   2.0000      -6.065776      -165.0582
 102   2.0000      -6.064319      -165.0185
 103   2.0000      -1.330893       -36.2154
 104   2.0000      -1.325098       -36.0577
 105   2.0000      -1.315964       -35.8092
 106   2.0000      -1.310201       -35.6524
 107   2.0000      -1.253895       -34.1202
 108   2.0000      -1.158151       -31.5149
 109   2.0000      -1.141493       -31.0616
 110   2.0000      -1.069081       -29.0912
 111   2.0000      -1.065235       -28.9865
 112   2.0000      -1.042249       -28.3610
 113   2.0000      -1.036136       -28.1947
 114   2.0000      -1.034429       -28.1482
 115   2.0000      -1.030441       -28.0397
 116   2.0000      -1.027450       -27.9583
 117   2.0000      -1.024589       -27.8805
 118   2.0000      -1.021266       -27.7901
 119   2.0000      -1.018936       -27.7267
 120   2.0000      -1.017695       -27.6929
 121   2.0000      -1.011681       -27.5292
 122   2.0000      -1.007906       -27.4265
 123   2.0000      -1.007815       -27.4240
 124   2.0000      -1.002548       -27.2807
 125   2.0000      -0.995616       -27.0921
 126   2.0000      -0.989555       -26.9272
 127   2.0000      -0.985704       -26.8224
 128   2.0000      -0.984985       -26.8028
 129   2.0000      -0.978754       -26.6333
 130   2.0000      -0.971079       -26.4244
 131   2.0000      -0.956649       -26.0317
 132   2.0000      -0.947136       -25.7729
 133   2.0000      -0.941473       -25.6188
 134   2.0000      -0.935171       -25.4473
 135   2.0000      -0.926485       -25.2109
 136   2.0000      -0.915936       -24.9239
 137   2.0000      -0.909247       -24.7419
 138   2.0000      -0.904606       -24.6156
 139   2.0000      -0.898610       -24.4524
 140   2.0000      -0.898370       -24.4459
 141   2.0000      -0.895492       -24.3676
 142   2.0000      -0.890100       -24.2209
 143   2.0000      -0.884983       -24.0816
 144   2.0000      -0.879979       -23.9455
 145   2.0000      -0.876384       -23.8476
 146   2.0000      -0.875824       -23.8324
 147   2.0000      -0.852965       -23.2103
 148   2.0000      -0.846576       -23.0365
 149   2.0000      -0.843358       -22.9489
 150   2.0000      -0.832911       -22.6647
 151   2.0000      -0.819401       -22.2970
 152   2.0000      -0.815788       -22.1987
 153   2.0000      -0.799874       -21.7657
 154   2.0000      -0.793619       -21.5955
 155   2.0000      -0.783993       -21.3335
 156   2.0000      -0.782824       -21.3017
 157   2.0000      -0.776639       -21.1334
 158   2.0000      -0.770729       -20.9726
 159   2.0000      -0.752593       -20.4791
 160   2.0000      -0.748830       -20.3767
 161   2.0000      -0.736496       -20.0411
 162   2.0000      -0.729945       -19.8628
 163   2.0000      -0.728091       -19.8124
 164   2.0000      -0.724407       -19.7121
 165   2.0000      -0.723444       -19.6859
 166   2.0000      -0.719538       -19.5796
 167   2.0000      -0.711727       -19.3671
 168   2.0000      -0.704303       -19.1651
 169   2.0000      -0.701975       -19.1017
 170   2.0000      -0.698863       -19.0170
 171   2.0000      -0.693429       -18.8692
 172   2.0000      -0.690782       -18.7971
 173   2.0000      -0.685440       -18.6518
 174   2.0000      -0.677421       -18.4336
 175   2.0000      -0.671263       -18.2660
 176   2.0000      -0.666657       -18.1407
 177   2.0000      -0.660408       -17.9706
 178   2.0000      -0.656009       -17.8509
 179   2.0000      -0.654861       -17.8197
 180   2.0000      -0.652014       -17.7422
 181   2.0000      -0.649029       -17.6610
 182   2.0000      -0.648083       -17.6352
 183   2.0000      -0.644259       -17.5312
 184   2.0000      -0.638464       -17.3735
 185   2.0000      -0.632435       -17.2094
 186   2.0000      -0.628751       -17.1092
 187   2.0000      -0.627213       -17.0673
 188   2.0000      -0.622760       -16.9462
 189   2.0000      -0.614986       -16.7346
 190   2.0000      -0.612216       -16.6592
 191   2.0000      -0.609230       -16.5780
 192   2.0000      -0.602817       -16.4035
 193   2.0000      -0.602548       -16.3962
 194   2.0000      -0.598705       -16.2916
 195   2.0000      -0.595529       -16.2052
 196   2.0000      -0.595225       -16.1969
 197   2.0000      -0.589596       -16.0437
 198   2.0000      -0.589498       -16.0411
 199   2.0000      -0.583377       -15.8745
 200   2.0000      -0.581073       -15.8118
 201   2.0000      -0.574126       -15.6228
 202   2.0000      -0.573009       -15.5924
 203   2.0000      -0.570477       -15.5235
 204   2.0000      -0.565260       -15.3815
 205   2.0000      -0.564291       -15.3551
 206   2.0000      -0.559712       -15.2305
 207   2.0000      -0.557365       -15.1667
 208   2.0000      -0.556539       -15.1442
 209   2.0000      -0.552117       -15.0239
 210   2.0000      -0.550971       -14.9927
 211   2.0000      -0.550551       -14.9813
 212   2.0000      -0.547249       -14.8914
 213   2.0000      -0.545791       -14.8517
 214   2.0000      -0.543447       -14.7880
 215   2.0000      -0.540599       -14.7105
 216   2.0000      -0.537973       -14.6390
 217   2.0000      -0.536692       -14.6041
 218   2.0000      -0.530610       -14.4386
 219   2.0000      -0.528047       -14.3689
 220   2.0000      -0.527655       -14.3582
 221   2.0000      -0.525927       -14.3112
 222   2.0000      -0.522645       -14.2219
 223   2.0000      -0.521639       -14.1945
 224   2.0000      -0.520333       -14.1590
 225   2.0000      -0.519505       -14.1364
 226   2.0000      -0.519064       -14.1245
 227   2.0000      -0.516594       -14.0572
 228   2.0000      -0.513088       -13.9618
 229   2.0000      -0.511538       -13.9197
 230   2.0000      -0.509396       -13.8614
 231   2.0000      -0.508142       -13.8272
 232   2.0000      -0.507498       -13.8097
 233   2.0000      -0.505004       -13.7419
 234   2.0000      -0.501913       -13.6578
 235   2.0000      -0.498632       -13.5685
 236   2.0000      -0.497382       -13.5344
 237   2.0000      -0.496009       -13.4971
 238   2.0000      -0.494017       -13.4429
 239   2.0000      -0.489749       -13.3267
 240   2.0000      -0.488866       -13.3027
 241   2.0000      -0.482732       -13.1358
 242   2.0000      -0.482053       -13.1173
 243   2.0000      -0.477423       -12.9913
 244   2.0000      -0.475863       -12.9489
 245   2.0000      -0.473881       -12.8949
 246   2.0000      -0.473333       -12.8800
 247   2.0000      -0.471036       -12.8176
 248   2.0000      -0.470354       -12.7990
 249   2.0000      -0.468650       -12.7526
 250   2.0000      -0.466213       -12.6863
 251   2.0000      -0.462545       -12.5865
 252   2.0000      -0.460943       -12.5429
 253   2.0000      -0.459575       -12.5057
 254   2.0000      -0.459314       -12.4986
 255   2.0000      -0.459044       -12.4912
 256   2.0000      -0.458795       -12.4845
 257   2.0000      -0.456679       -12.4269
 258   2.0000      -0.456354       -12.4180
 259   2.0000      -0.453446       -12.3389
 260   2.0000      -0.452448       -12.3117
 261   2.0000      -0.451887       -12.2965
 262   2.0000      -0.451261       -12.2794
 263   2.0000      -0.449819       -12.2402
 264   2.0000      -0.447271       -12.1709
 265   2.0000      -0.445028       -12.1098
 266   2.0000      -0.443745       -12.0749
 267   2.0000      -0.440558       -11.9882
 268   2.0000      -0.440039       -11.9741
 269   2.0000      -0.439635       -11.9631
 270   2.0000      -0.438185       -11.9236
 271   2.0000      -0.435866       -11.8605
 272   2.0000      -0.434188       -11.8148
 273   2.0000      -0.432579       -11.7711
 274   2.0000      -0.431081       -11.7303
 275   2.0000      -0.428336       -11.6556
 276   2.0000      -0.423405       -11.5214
 277   2.0000      -0.422151       -11.4873
 278   2.0000      -0.421521       -11.4702
 279   2.0000      -0.420451       -11.4411
 280   2.0000      -0.419890       -11.4258
 281   2.0000      -0.416854       -11.3432
 282   2.0000      -0.410285       -11.1644
 283   2.0000      -0.407465       -11.0877
 284   2.0000      -0.401415       -10.9230
 285   2.0000      -0.394069       -10.7232
 286   2.0000      -0.388703       -10.5772
 287   2.0000      -0.378076       -10.2880
 288   2.0000      -0.372956       -10.1486
 289   2.0000      -0.366460        -9.9719
 290   2.0000      -0.359945        -9.7946
 291   2.0000      -0.357605        -9.7309
 292   2.0000      -0.348513        -9.4835
 293   2.0000      -0.344280        -9.3683
 294   2.0000      -0.340187        -9.2570
 295   2.0000      -0.335190        -9.1210
 296   2.0000      -0.330343        -8.9891
 297   2.0000      -0.323365        -8.7992
 298   2.0000      -0.314568        -8.5598
 299   2.0000      -0.308379        -8.3914
 300   2.0000      -0.303455        -8.2574
 301   2.0000      -0.283948        -7.7266
 302   2.0000      -0.277432        -7.5493
 303   0.0000      -0.132088        -3.5943
 304   0.0000      -0.126319        -3.4373
 305   0.0000      -0.106668        -2.9026
 306   0.0000      -0.100648        -2.7388
 307   0.0000      -0.081942        -2.2297

MULLIKEN ATOMIC CHARGES
-----------------------
   0 C :   -0.105846
   1 C :    0.243901
   2 F :   -0.167249
   3 C :    0.239326
   4 F :   -0.167949
   5 C :   -0.102776
   6 C :    0.113823
   7 C :    0.113212
   8 C :   -0.080866
   9 C :    0.048281
  10 C :   -0.003918
  11 C :   -0.076796
  12 C :    0.173361
  13 O :   -0.187607
  14 C :   -0.090607
  15 C :    0.319405
  16 C :   -0.342082
  17 C :   -0.198125
  18 N :    0.161971
  19 C :   -0.183478
  20 N :    0.158385
  21 C :   -0.027526
  22 C :   -0.052036
  23 C :   -0.060353
  24 C :    0.051080
  25 C :   -0.076933
  26 S :    0.258659
  27 C :   -0.090101
  28 C :    0.022308
  29 C :    0.303030
  30 C :   -0.290945
  31 C :   -0.180619
  32 N :    0.163201
  33 C :   -0.191382
  34 N :    0.191218
  35 C :   -0.027605
  36 C :   -0.096087
  37 S :    0.230464
  38 C :    0.264917
  39 C :   -0.173994
  40 C :    0.289459
  41 C :   -0.348422
  42 C :   -0.173069
  43 N :    0.140935
  44 C :   -0.173489
  45 N :    0.129652
  46 C :   -0.164488
  47 C :    0.272076
  48 O :   -0.251056
  49 C :   -0.110461
  50 C :   -0.015018
  51 C :    0.004378
  52 C :   -0.090329
  53 S :    0.239979
  54 C :   -0.074436
  55 C :    0.000275
  56 C :    0.302687
  57 C :   -0.278005
  58 C :   -0.179672
  59 N :    0.172887
  60 C :   -0.193510
  61 N :    0.187460
  62 C :   -0.002548
  63 C :   -0.109163
  64 S :    0.234182
  65 C :    0.085620
  66 C :   -0.134025
  67 C :    0.135799
  68 O :   -0.138668
  69 C :    0.018512
  70 C :   -0.085356
  71 C :    0.113999
  72 C :    0.112331
  73 C :   -0.106590
  74 C :    0.241711
  75 C :    0.241284
  76 C :   -0.105006
  77 F :   -0.169697
  78 F :   -0.168702
  79 C :   -0.080686
  80 C :    0.035015
  81 C :    0.262503
  82 C :   -0.322743
  83 C :   -0.200945
  84 N :    0.171558
  85 C :   -0.170980
  86 N :    0.162894
  87 H :    0.009676
  88 H :    0.002038
  89 H :   -0.004006
  90 H :   -0.007967
  91 H :    0.024048
  92 H :    0.030450
  93 H :    0.010569
  94 H :    0.031507
  95 H :    0.033725
  96 H :    0.021962
  97 H :    0.026754
  98 H :    0.023816
  99 H :   -0.007071
 100 H :    0.009725
 101 H :    0.000685
 102 H :    0.004297
Sum of atomic charges:   -0.0000000

LOEWDIN ATOMIC CHARGES
----------------------
   0 C :   -0.028154
   1 C :    0.069073
   2 F :   -0.045255
   3 C :    0.069449
   4 F :   -0.045895
   5 C :   -0.032011
   6 C :   -0.008705
   7 C :   -0.005121
   8 C :    0.020321
   9 C :   -0.022547
  10 C :   -0.054621
  11 C :    0.033648
  12 C :    0.087389
  13 O :   -0.171994
  14 C :   -0.102344
  15 C :    0.074824
  16 C :   -0.133989
  17 C :   -0.024065
  18 N :   -0.042611
  19 C :   -0.017821
  20 N :   -0.045980
  21 C :    0.057351
  22 C :   -0.178643
  23 C :    0.011343
  24 C :   -0.072618
  25 C :   -0.175403
  26 S :    0.561413
  27 C :   -0.168898
  28 C :   -0.060197
  29 C :    0.077592
  30 C :   -0.096683
  31 C :   -0.012199
  32 N :   -0.036553
  33 C :   -0.021070
  34 N :   -0.017439
  35 C :   -0.009245
  36 C :   -0.185494
  37 S :    0.512582
  38 C :    0.073137
  39 C :   -0.055194
  40 C :    0.053753
  41 C :   -0.170708
  42 C :   -0.032351
  43 N :   -0.058245
  44 C :   -0.029726
  45 N :   -0.066378
  46 C :   -0.046471
  47 C :    0.073793
  48 O :   -0.015946
  49 C :   -0.187774
  50 C :   -0.002356
  51 C :   -0.060649
  52 C :   -0.170681
  53 S :    0.517320
  54 C :   -0.166981
  55 C :   -0.059448
  56 C :    0.078364
  57 C :   -0.090917
  58 C :   -0.012092
  59 N :   -0.026890
  60 C :   -0.020106
  61 N :   -0.018177
  62 C :    0.009068
  63 C :   -0.175416
  64 S :    0.514263
  65 C :    0.042404
  66 C :   -0.085618
  67 C :    0.083814
  68 O :   -0.138957
  69 C :   -0.055622
  70 C :    0.032368
  71 C :   -0.008929
  72 C :   -0.004752
  73 C :   -0.028804
  74 C :    0.068220
  75 C :    0.068216
  76 C :   -0.032571
  77 F :   -0.047744
  78 F :   -0.046588
  79 C :    0.018087
  80 C :   -0.020707
  81 C :    0.064246
  82 C :   -0.132301
  83 C :   -0.015917
  84 N :   -0.043002
  85 C :   -0.018835
  86 N :   -0.040977
  87 H :    0.048743
  88 H :    0.045808
  89 H :    0.040909
  90 H :    0.041301
  91 H :    0.054920
  92 H :    0.049017
  93 H :    0.040569
  94 H :    0.043218
  95 H :    0.051955
  96 H :    0.047510
  97 H :    0.042949
  98 H :    0.047170
  99 H :    0.041373
 100 H :    0.048641
 101 H :    0.045221
 102 H :    0.042043

  Mayer bond orders larger than 0.100000
B(  0-C ,  1-C ) :   1.4389 B(  0-C ,  5-C ) :   0.1077 B(  0-C ,  7-C ) :   1.1910
B(  0-C , 87-H ) :   1.0067 B(  1-C ,  2-F ) :   1.1378 B(  1-C ,  3-C ) :   1.1907
B(  3-C ,  4-F ) :   1.1373 B(  3-C ,  5-C ) :   1.4426 B(  5-C ,  6-C ) :   1.1920
B(  5-C , 88-H ) :   1.0070 B(  6-C ,  7-C ) :   1.2532 B(  6-C , 11-C ) :   1.1907
B(  7-C ,  8-C ) :   1.2142 B(  8-C ,  9-C ) :   1.4547 B(  8-C , 89-H ) :   0.9899
B(  9-C , 10-C ) :   1.2185 B(  9-C , 15-C ) :   0.9852 B( 10-C , 11-C ) :   1.4642
B( 10-C , 12-C ) :   0.9636 B( 11-C , 90-H ) :   1.0171 B( 12-C , 13-O ) :   2.1101
B( 12-C , 14-C ) :   0.9810 B( 14-C , 15-C ) :   1.0641 B( 14-C , 21-C ) :   1.5166
B( 15-C , 16-C ) :   1.6446 B( 16-C , 17-C ) :   1.1399 B( 16-C , 19-C ) :   1.1461
B( 17-C , 18-N ) :   2.9743 B( 19-C , 20-N ) :   2.9654 B( 21-C , 22-C ) :   1.2482
B( 21-C , 91-H ) :   0.9432 B( 22-C , 23-C ) :   1.3368 B( 22-C , 26-S ) :   1.0840
B( 23-C , 24-C ) :   1.3278 B( 23-C , 92-H ) :   1.0089 B( 24-C , 25-C ) :   1.3630
B( 24-C , 29-C ) :   0.9870 B( 25-C , 26-S ) :   1.1294 B( 25-C , 27-C ) :   1.1971
B( 27-C , 28-C ) :   1.4309 B( 27-C , 37-S ) :   1.1389 B( 28-C , 29-C ) :   0.9971
B( 28-C , 35-C ) :   1.2717 B( 29-C , 30-C ) :   1.7217 B( 30-C , 31-C ) :   1.1317
B( 30-C , 33-C ) :   1.1331 B( 31-C , 32-N ) :   2.9874 B( 33-C , 34-N ) :   2.9961
B( 35-C , 36-C ) :   1.4432 B( 35-C , 93-H ) :   1.0051 B( 36-C , 37-S ) :   1.1175
B( 36-C , 38-C ) :   1.0933 B( 38-C , 39-C ) :   1.5694 B( 38-C , 48-O ) :   1.1278
B( 39-C , 40-C ) :   1.1272 B( 39-C , 94-H ) :   0.9610 B( 40-C , 41-C ) :   1.5519
B( 40-C , 46-C ) :   1.1206 B( 41-C , 42-C ) :   1.1287 B( 41-C , 44-C ) :   1.1319
B( 42-C , 43-N ) :   3.0086 B( 44-C , 45-N ) :   3.0036 B( 46-C , 47-C ) :   1.5936
B( 46-C , 95-H ) :   0.9645 B( 47-C , 48-O ) :   1.1091 B( 47-C , 49-C ) :   1.0473
B( 49-C , 50-C ) :   1.4919 B( 49-C , 53-S ) :   1.1049 B( 50-C , 51-C ) :   1.3102
B( 50-C , 96-H ) :   0.9859 B( 51-C , 52-C ) :   1.4310 B( 51-C , 56-C ) :   0.9943
B( 52-C , 53-S ) :   1.1391 B( 52-C , 54-C ) :   1.1881 B( 54-C , 55-C ) :   1.4163
B( 54-C , 64-S ) :   1.1561 B( 55-C , 56-C ) :   1.0005 B( 55-C , 62-C ) :   1.3563
B( 56-C , 57-C ) :   1.7219 B( 57-C , 58-C ) :   1.1336 B( 57-C , 60-C ) :   1.1319
B( 58-C , 59-N ) :   2.9802 B( 60-C , 61-N ) :   2.9922 B( 62-C , 63-C ) :   1.3964
B( 62-C , 97-H ) :   0.9786 B( 63-C , 64-S ) :   1.0991 B( 63-C , 65-C ) :   1.1322
B( 65-C , 66-C ) :   1.6804 B( 65-C , 98-H ) :   0.9261 B( 66-C , 67-C ) :   0.9389
B( 66-C , 81-C ) :   1.0338 B( 67-C , 68-O ) :   2.2700 B( 67-C , 69-C ) :   0.9188
B( 69-C , 70-C ) :   1.4721 B( 69-C , 80-C ) :   1.2204 B( 70-C , 71-C ) :   1.1945
B( 70-C , 99-H ) :   1.0166 B( 71-C , 72-C ) :   1.2551 B( 71-C , 76-C ) :   1.1940
B( 72-C , 73-C ) :   1.1895 B( 72-C , 79-C ) :   1.2175 B( 73-C , 74-C ) :   1.4423
B( 73-C , 76-C ) :   0.1083 B( 73-C ,100-H ) :   1.0065 B( 74-C , 75-C ) :   1.1901
B( 74-C , 78-F ) :   1.1371 B( 75-C , 76-C ) :   1.4436 B( 75-C , 77-F ) :   1.1350
B( 76-C ,101-H ) :   1.0065 B( 79-C , 80-C ) :   1.4570 B( 79-C ,102-H ) :   0.9941
B( 80-C , 81-C ) :   0.9955 B( 81-C , 82-C ) :   1.6573 B( 82-C , 83-C ) :   1.1697
B( 82-C , 85-C ) :   1.1270 B( 83-C , 84-N ) :   2.9941 B( 85-C , 86-N ) :   2.9919

-----------------------------------------------------------------------------
         ABSORPTION SPECTRUM VIA TRANSITION ELECTRIC DIPOLE MOMENTS
-----------------------------------------------------------------------------
State   Energy  Wavelength   fosc         T2         TX        TY        TZ
        (cm-1)    (nm)                  (au**2)     (au)      (au)      (au)
-----------------------------------------------------------------------------
   0   15022.9    665.7   0.403709778   8.84691  -0.92635  -1.16272  -2.57621
   1   15488.1    645.7   0.202307733   4.30021  -0.68031  -1.94544   0.22947
   2   20006.6    499.8   0.048764327   0.80242   0.17791  -0.04005   0.87702
   3   21299.5    469.5   1.360920923  21.03483  -1.67147  -1.73788  -3.90138
   4   21721.7    460.4   0.487407030   7.38708  -0.93234  -2.55256   0.04776
   5   22543.6    443.6   0.445705885   6.50880  -0.90258  -2.36505  -0.31729
   6   24341.1    410.8   0.024676180   0.33374   0.18659   0.47902   0.26357
   7   24977.1    400.4   0.014849938   0.19573   0.41097   0.02464  -0.16196
   8   26059.0    383.7   0.075870425   0.95850   0.67021   0.45921   0.54629
   9   26184.4    381.9   0.054212689   0.68161  -0.35330  -0.30110  -0.68274
  10   26599.5    375.9   0.264235503   3.27034   0.01668  -0.03688   1.80796
  11   27677.2    361.3   0.025428225   0.30246   0.27761   0.46524   0.09460
  12   27812.7    359.5   0.007010753   0.08298   0.10946   0.15750   0.21493
  13   28085.2    356.1   0.116544002   1.36612  -0.29833  -0.77644  -0.82113
  14   28474.4    351.2   0.192344087   2.22382   0.29738   0.18410  -1.44965
  15   28782.6    347.4   0.004794279   0.05484  -0.18658  -0.12743   0.06151
  16   28790.8    347.3   0.022637687   0.25885   0.03670   0.16850  -0.47866
  17   29049.9    344.2   0.088573052   1.00377  -0.07484   0.83977  -0.54125
  18   29309.3    341.2   0.076258340   0.85656   0.05417  -0.50768  -0.77194
  19   30029.0    333.0   0.064031734   0.70199  -0.79156  -0.27358   0.02409
  20   30077.7    332.5   0.306679279   3.35672   0.33825   1.75098   0.41998
  21   30776.3    324.9   0.755244263   8.07880   0.63350  -0.74571   2.66859
  22   31046.4    322.1   0.091204178   0.96712   0.66440   0.24434  -0.68263
  23   31254.0    320.0   0.217710745   2.29325   0.06641  -1.28964   0.79099
  24   31319.4    319.3   0.377979080   3.97311   0.39490  -0.16627   1.94667
  25   31624.1    316.2   0.031615473   0.32912  -0.12833  -0.26483  -0.49246
  26   31841.2    314.1   0.069916322   0.72288   0.56315   0.38015   0.51110
  27   32029.2    312.2   0.172588742   1.77395  -0.16295  -0.97736  -0.89003
  28   32288.5    309.7   0.325648560   3.32030   0.69544   0.01767   1.68415
  29   32540.0    307.3   0.235785064   2.38547  -0.70125   0.93301  -1.01154
  30   32833.0    304.6   0.006742889   0.06761   0.03211  -0.07988   0.24535
  31   33150.8    301.7   0.242256116   2.40578   0.81115   1.20682   0.53982
  32   33466.7    298.8   0.070383547   0.69236   0.36805  -0.14899   0.73123
  33   33692.9    296.8   0.076865540   0.75105  -0.00570  -0.67633  -0.54185
  34   33876.1    295.2   0.004781816   0.04647  -0.01847  -0.01952   0.21389
  35   34036.9    293.8   0.085526920   0.82723   0.16737  -0.29337  -0.84449
  36   34334.2    291.3   0.284800174   2.73080  -0.70700  -0.13267   1.48773
  37   34619.2    288.9   0.097720967   0.92928   0.27498   0.27160   0.88312
  38   34919.3    286.4   0.507048397   4.78035   0.97598  -0.12045   1.95277
  39   35089.8    285.0   0.114003389   1.06958   0.30817   0.96037  -0.22867
  40   35157.6    284.4   0.251296992   2.35311   0.55780  -0.91761  -1.09543
  41   35350.2    282.9   0.427965293   3.98559   0.04527   1.11718  -1.65392
  42   35442.7    282.1   0.126872742   1.17847   0.54224  -0.60945   0.71625
  43   35521.4    281.5   0.122680631   1.13700  -0.03025   0.80194  -0.70213
  44   35773.4    279.5   0.057048221   0.52500  -0.14749   0.00864   0.70935
  45   36198.5    276.3   0.013401769   0.12188  -0.03516   0.30877   0.15909
  46   36297.5    275.5   0.085957734   0.77962   0.12983  -0.86417   0.12640
  47   36647.9    272.9   0.006575960   0.05907   0.13439  -0.10894   0.17071
  48   37052.2    269.9   0.034175412   0.30365   0.13232   0.12410   0.52033
  49   37337.1    267.8   0.094613427   0.83423   0.24111   0.86135  -0.18488
  50   37645.6    265.6   0.009212689   0.08057  -0.08349   0.00151  -0.27128
  51   37758.1    264.8   0.073623790   0.64192   0.03457   0.78435  -0.15977
  52   38038.7    262.9   0.142163081   1.23037  -0.19322  -1.06468   0.24390
  53   38242.4    261.5   0.033629883   0.28951   0.10597   0.33140   0.41043
  54   38418.1    260.3   0.005714684   0.04897   0.11576  -0.14502   0.12058
  55   38762.5    258.0   0.012775983   0.10851  -0.06399   0.15623  -0.28285
  56   39161.2    255.4   0.028631861   0.24070  -0.27832   0.38912  -0.10870
  57   39305.7    254.4   0.017020391   0.14256  -0.08926   0.33422  -0.15129
  58   39351.5    254.1   0.102035050   0.85362  -0.47911  -0.61604   0.49453
  59   39598.5    252.5   0.044819799   0.37262  -0.21716  -0.45364  -0.34594
  60   39660.5    252.1   0.097527207   0.80955   0.25740   0.04399   0.86102
  61   39701.5    251.9   0.006104079   0.05062  -0.07353  -0.21121   0.02453
  62   39967.2    250.2   0.085122267   0.70116   0.56602   0.58129   0.20707
  63   40113.8    249.3   0.056521266   0.46387   0.31644   0.58032  -0.16422
  64   40165.4    249.0   0.015216375   0.12472  -0.19763  -0.22638  -0.18551

FINAL SINGLE POINT ENERGY     -5284.673288668140

DIPOLE MOMENT
-------------
                                X             Y             Z
Electronic contribution:      5.49736       0.52375       0.90382
Nuclear contribution   :     -3.05574       1.36335      -1.32267
                        -----------------------------------------
Total Dipole Moment    :      2.44162       1.88711      -0.41885
                        -----------------------------------------
Magnitude (a.u.)       :      3.11418
Magnitude (Debye)      :      7.91561

Rotational constants in cm-1:     0.001170     0.000154     0.000140
Rotational constants in MHz :    35.066230     4.615002     4.190395

                             ****ORCA TERMINATED NORMALLY****
TOTAL RUN TIME: 0 days 0 hours 11 minutes 9 seconds 45 msec
