                         Program Version 4.2.0 -  RELEASE  -
|  1> # ORCA input file
|  2> # SCF done       -187.738531305332          0.000909186982
|  3> ! CAM-B3LYP def2-SVP def2/J RIJCOSX Grid4 TightSCF
|  4> %maxcore 5000
|  5> %tddft
|  6>     Mode sTDDFT
|  7>     Ethresh 5.0
|  8>     maxcore 5000
|  9> end
| 10>
| 11> %pal
| 12>   nprocs 6
| 13>   end
| 14> * xyz 0 1
| 15>    C       -4.60941        -2.18642        -1.21779
| 16>    O       -4.45317        -2.08916        -0.01373
| 17>    C       -5.45848        -1.32923        -2.06871
| 18>    C       -5.43913        -1.81184        -3.38973
| 19>    C       -6.19120        -1.17684        -4.36339
| 20>    C       -6.94695        -0.06662        -4.00178
| 21>    C       -6.95632         0.40692        -2.68890
| 22>    C       -6.20818        -0.23007        -1.70706
| 23>   Br       -7.99081         1.91928        -2.22617
| 24>   Br       -7.97930         0.79950        -5.32829
| 25>    C       -4.55113        -2.97126        -3.45215
| 26>    C       -4.17134        -3.62829        -4.59117
| 27>    C       -4.65734        -3.31645        -5.87906
| 28>    N       -5.02334        -3.10085        -6.94491
| 29>    C       -3.21353        -4.66510        -4.63682
| 30>    N       -2.41714        -5.48352        -4.74906
| 31>    C       -4.07164        -3.22357        -2.10734
| 32>    C       -3.39880        -4.34340        -1.68454
| 33>    C       -2.79950        -4.57033        -0.43713
| 34>    C       -2.18312        -3.70611         0.46993
| 35>    C       -1.65085        -4.37819         1.59083
| 36>    O       -0.92041        -3.83197         2.57561
| 37>    C       -0.89076        -2.42226         2.66080
| 38>    C       -0.54369        -1.77958         1.32945
| 39>    S       -1.95081        -2.00642         0.18379
| 40>    C       -1.88223        -5.75865         1.56510
| 41>    S       -2.62143        -6.23981         0.07224
| 42>    C       -1.61072        -6.72808         2.56903
| 43>    C       -1.61286        -8.10320         2.22000
| 44>    C       -1.34390        -9.15475         3.16342
| 45>    N       -1.50396       -10.43194         2.78742
| 46>    C       -1.81410       -10.71079         1.54971
| 47>    C       -1.98112        -9.66688         0.57932
| 48>    N       -1.89619        -8.41475         0.95070
| 49>    C       -2.25404        -9.98388        -0.77410
| 50>    N       -2.47484       -10.28824        -1.85561
| 51>    C       -1.96161       -12.07372         1.18435
| 52>    N       -2.05257       -13.17318         0.87848
| 53>    C       -1.00551        -8.87565         4.50407
| 54>    C       -1.11024        -7.52145         4.87926
| 55>    C       -1.41183        -6.46071         3.94172
| 56>    N       -1.52353        -5.28728         4.56610
| 57>    S       -1.25327        -5.48234         6.12838
| 58>    N       -0.98637        -7.06250         6.12518
| 59>    C       -0.71729        -9.88124         5.47681
| 60>    C       -0.12662       -11.13035         5.32634
| 61>    C       -0.14529       -11.89319         6.51017
| 62>    O        0.37514       -13.11984         6.70276
| 63>    C        1.18798       -13.67285         5.68060
| 64>    C        0.61298       -13.46542         4.29321
| 65>    S        0.68027       -11.69507         3.87670
| 66>    C       -0.76131       -11.22858         7.57886
| 67>    S       -1.19114        -9.60361         7.12052
| 68>    C       -0.98441       -11.63851         8.90315
| 69>    C       -1.02187       -12.88398         9.46848
| 70>    C       -0.87514       -12.98765        10.94529
| 71>    O       -0.90717       -12.08414        11.74678
| 72>    C       -0.63532       -14.42428        11.20881
| 73>    C       -0.72941       -15.14173        10.00232
| 74>    C       -1.09567       -14.21588         8.92937
| 75>    C       -1.61376       -14.58691         7.71377
| 76>    C       -2.25150       -13.69247         6.83421
| 77>    N       -2.78297       -12.99140         6.09667
| 78>    C       -1.61266       -15.90806         7.22475
| 79>    N       -1.58690       -16.95523         6.75532
| 80>    C       -0.52071       -16.50971         9.99834
| 81>    C       -0.22269       -17.14076        11.20164
| 82>    C       -0.14362       -16.42314        12.39612
| 83>    C       -0.35145       -15.04919        12.40460
| 84>   Br        0.25036       -17.30954        14.01833
| 85>   Br        0.07556       -19.00768        11.19631
| 86>    H       -6.21253        -1.51711        -5.38604
| 87>    H       -6.21100         0.12498        -0.68833
| 88>    H       -3.36247        -5.19472        -2.35391
| 89>    H       -0.12764        -2.20643         3.41278
| 90>    H       -1.86060        -2.04897         3.01349
| 91>    H        0.34807        -2.23072         0.89461
| 92>    H       -0.40500        -0.70652         1.43405
| 93>    H        1.24862       -14.73859         5.91980
| 94>    H        2.19276       -13.23449         5.73887
| 95>    H       -0.42688       -13.78904         4.23731
| 96>    H        1.20527       -13.98420         3.54370
| 97>    H       -1.10514       -10.82720         9.61609
| 98>    H       -0.57505       -17.09630         9.09532
| 99>    H       -0.29318       -14.48466        13.32224
|100> *
|101>
|102>                          ****END OF INPUT****

CARTESIAN COORDINATES (ANGSTROEM)
---------------------------------
  C     -4.609410   -2.186420   -1.217790
  O     -4.453170   -2.089160   -0.013730
  C     -5.458480   -1.329230   -2.068710
  C     -5.439130   -1.811840   -3.389730
  C     -6.191200   -1.176840   -4.363390
  C     -6.946950   -0.066620   -4.001780
  C     -6.956320    0.406920   -2.688900
  C     -6.208180   -0.230070   -1.707060
  Br    -7.990810    1.919280   -2.226170
  Br    -7.979300    0.799500   -5.328290
  C     -4.551130   -2.971260   -3.452150
  C     -4.171340   -3.628290   -4.591170
  C     -4.657340   -3.316450   -5.879060
  N     -5.023340   -3.100850   -6.944910
  C     -3.213530   -4.665100   -4.636820
  N     -2.417140   -5.483520   -4.749060
  C     -4.071640   -3.223570   -2.107340
  C     -3.398800   -4.343400   -1.684540
  C     -2.799500   -4.570330   -0.437130
  C     -2.183120   -3.706110    0.469930
  C     -1.650850   -4.378190    1.590830
  O     -0.920410   -3.831970    2.575610
  C     -0.890760   -2.422260    2.660800
  C     -0.543690   -1.779580    1.329450
  S     -1.950810   -2.006420    0.183790
  C     -1.882230   -5.758650    1.565100
  S     -2.621430   -6.239810    0.072240
  C     -1.610720   -6.728080    2.569030
  C     -1.612860   -8.103200    2.220000
  C     -1.343900   -9.154750    3.163420
  N     -1.503960  -10.431940    2.787420
  C     -1.814100  -10.710790    1.549710
  C     -1.981120   -9.666880    0.579320
  N     -1.896190   -8.414750    0.950700
  C     -2.254040   -9.983880   -0.774100
  N     -2.474840  -10.288240   -1.855610
  C     -1.961610  -12.073720    1.184350
  N     -2.052570  -13.173180    0.878480
  C     -1.005510   -8.875650    4.504070
  C     -1.110240   -7.521450    4.879260
  C     -1.411830   -6.460710    3.941720
  N     -1.523530   -5.287280    4.566100
  S     -1.253270   -5.482340    6.128380
  N     -0.986370   -7.062500    6.125180
  C     -0.717290   -9.881240    5.476810
  C     -0.126620  -11.130350    5.326340
  C     -0.145290  -11.893190    6.510170
  O      0.375140  -13.119840    6.702760
  C      1.187980  -13.672850    5.680600
  C      0.612980  -13.465420    4.293210
  S      0.680270  -11.695070    3.876700
  C     -0.761310  -11.228580    7.578860
  S     -1.191140   -9.603610    7.120520
  C     -0.984410  -11.638510    8.903150
  C     -1.021870  -12.883980    9.468480
  C     -0.875140  -12.987650   10.945290
  O     -0.907170  -12.084140   11.746780
  C     -0.635320  -14.424280   11.208810
  C     -0.729410  -15.141730   10.002320
  C     -1.095670  -14.215880    8.929370
  C     -1.613760  -14.586910    7.713770
  C     -2.251500  -13.692470    6.834210
  N     -2.782970  -12.991400    6.096670
  C     -1.612660  -15.908060    7.224750
  N     -1.586900  -16.955230    6.755320
  C     -0.520710  -16.509710    9.998340
  C     -0.222690  -17.140760   11.201640
  C     -0.143620  -16.423140   12.396120
  C     -0.351450  -15.049190   12.404600
  Br     0.250360  -17.309540   14.018330
  Br     0.075560  -19.007680   11.196310
  H     -6.212530   -1.517110   -5.386040
  H     -6.211000    0.124980   -0.688330
  H     -3.362470   -5.194720   -2.353910
  H     -0.127640   -2.206430    3.412780
  H     -1.860600   -2.048970    3.013490
  H      0.348070   -2.230720    0.894610
  H     -0.405000   -0.706520    1.434050
  H      1.248620  -14.738590    5.919800
  H      2.192760  -13.234490    5.738870
  H     -0.426880  -13.789040    4.237310
  H      1.205270  -13.984200    3.543700
  H     -1.105140  -10.827200    9.616090
  H     -0.575050  -17.096300    9.095320
  H     -0.293180  -14.484660   13.322240

 Total Charge           Charge          ....    0
 Multiplicity           Mult            ....    1
 Number of Electrons    NEL             ....  624
 Basis Dimension        Dim             .... 1156

ORBITAL ENERGIES
----------------

  NO   OCC          E(Eh)            E(eV)
   0   2.0000    -482.878431    -13139.7901
   1   2.0000    -482.876020    -13139.7245
   2   2.0000    -482.874748    -13139.6899
   3   2.0000    -482.874285    -13139.6773
   4   2.0000     -89.058791     -2423.4129
   5   2.0000     -88.973099     -2421.0811
   6   2.0000     -88.972727     -2421.0710
   7   2.0000     -88.954086     -2420.5637
   8   2.0000     -88.945769     -2420.3374
   9   2.0000     -62.556042     -1702.2365
  10   2.0000     -62.553622     -1702.1706
  11   2.0000     -62.552359     -1702.1362
  12   2.0000     -62.551881     -1702.1232
  13   2.0000     -56.389986     -1534.4495
  14   2.0000     -56.387585     -1534.3842
  15   2.0000     -56.387341     -1534.3776
  16   2.0000     -56.387250     -1534.3751
  17   2.0000     -56.386300     -1534.3492
  18   2.0000     -56.385837     -1534.3366
  19   2.0000     -56.384914     -1534.3115
  20   2.0000     -56.384818     -1534.3089
  21   2.0000     -56.383653     -1534.2772
  22   2.0000     -56.383574     -1534.2750
  23   2.0000     -56.383179     -1534.2643
  24   2.0000     -56.383084     -1534.2617
  25   2.0000     -19.284743      -524.7645
  26   2.0000     -19.275146      -524.5034
  27   2.0000     -19.225852      -523.1620
  28   2.0000     -19.220176      -523.0076
  29   2.0000     -14.476370      -393.9220
  30   2.0000     -14.467504      -393.6808
  31   2.0000     -14.464731      -393.6053
  32   2.0000     -14.464266      -393.5927
  33   2.0000     -14.437446      -392.8629
  34   2.0000     -14.435201      -392.8018
  35   2.0000     -14.420941      -392.4138
  36   2.0000     -14.420681      -392.4067
  37   2.0000     -14.419382      -392.3713
  38   2.0000     -14.416829      -392.3019
  39   2.0000     -10.393877      -282.8318
  40   2.0000     -10.390075      -282.7283
  41   2.0000     -10.371989      -282.2362
  42   2.0000     -10.370776      -282.2032
  43   2.0000     -10.370112      -282.1851
  44   2.0000     -10.369224      -282.1609
  45   2.0000     -10.360675      -281.9283
  46   2.0000     -10.359845      -281.9057
  47   2.0000     -10.358235      -281.8619
  48   2.0000     -10.357032      -281.8292
  49   2.0000     -10.354838      -281.7695
  50   2.0000     -10.354200      -281.7521
  51   2.0000     -10.354092      -281.7492
  52   2.0000     -10.353196      -281.7248
  53   2.0000     -10.351822      -281.6874
  54   2.0000     -10.351792      -281.6866
  55   2.0000     -10.350284      -281.6455
  56   2.0000     -10.348005      -281.5835
  57   2.0000     -10.344115      -281.4777
  58   2.0000     -10.341015      -281.3933
  59   2.0000     -10.339590      -281.3546
  60   2.0000     -10.335684      -281.2483
  61   2.0000     -10.332425      -281.1596
  62   2.0000     -10.331421      -281.1323
  63   2.0000     -10.330548      -281.1085
  64   2.0000     -10.330144      -281.0975
  65   2.0000     -10.328567      -281.0546
  66   2.0000     -10.326780      -281.0060
  67   2.0000     -10.325654      -280.9753
  68   2.0000     -10.323077      -280.9052
  69   2.0000     -10.322861      -280.8993
  70   2.0000     -10.322379      -280.8862
  71   2.0000     -10.322334      -280.8850
  72   2.0000     -10.321862      -280.8721
  73   2.0000     -10.320841      -280.8444
  74   2.0000     -10.318720      -280.7866
  75   2.0000     -10.318361      -280.7769
  76   2.0000     -10.318347      -280.7765
  77   2.0000     -10.318342      -280.7764
  78   2.0000     -10.315153      -280.6896
  79   2.0000     -10.312495      -280.6173
  80   2.0000     -10.312341      -280.6131
  81   2.0000     -10.309695      -280.5411
  82   2.0000     -10.308402      -280.5059
  83   2.0000     -10.306850      -280.4636
  84   2.0000     -10.304747      -280.4064
  85   2.0000     -10.300239      -280.2838
  86   2.0000     -10.298672      -280.2411
  87   2.0000      -8.785361      -239.0618
  88   2.0000      -8.782931      -238.9957
  89   2.0000      -8.781679      -238.9616
  90   2.0000      -8.781182      -238.9481
  91   2.0000      -8.150053      -221.7742
  92   2.0000      -8.067470      -219.5270
  93   2.0000      -8.066727      -219.5068
  94   2.0000      -8.048701      -219.0163
  95   2.0000      -8.041200      -218.8122
  96   2.0000      -6.621474      -180.1795
  97   2.0000      -6.619091      -180.1146
  98   2.0000      -6.617778      -180.0789
  99   2.0000      -6.617313      -180.0662
 100   2.0000      -6.607492      -179.7990
 101   2.0000      -6.606713      -179.7778
 102   2.0000      -6.605034      -179.7321
 103   2.0000      -6.604258      -179.7110
 104   2.0000      -6.603798      -179.6985
 105   2.0000      -6.603294      -179.6848
 106   2.0000      -6.603061      -179.6784
 107   2.0000      -6.602538      -179.6642
 108   2.0000      -6.121019      -166.5614
 109   2.0000      -6.113216      -166.3491
 110   2.0000      -6.113094      -166.3457
 111   2.0000      -6.036950      -164.2738
 112   2.0000      -6.036525      -164.2622
 113   2.0000      -6.032859      -164.1624
 114   2.0000      -6.032050      -164.1404
 115   2.0000      -6.029062      -164.0591
 116   2.0000      -6.028115      -164.0334
 117   2.0000      -6.018941      -163.7837
 118   2.0000      -6.014819      -163.6715
 119   2.0000      -6.011655      -163.5855
 120   2.0000      -6.008647      -163.5036
 121   2.0000      -6.007732      -163.4787
 122   2.0000      -6.000526      -163.2826
 123   2.0000      -2.737369       -74.4876
 124   2.0000      -2.734999       -74.4231
 125   2.0000      -2.733683       -74.3873
 126   2.0000      -2.733618       -74.3855
 127   2.0000      -2.733206       -74.3743
 128   2.0000      -2.733038       -74.3697
 129   2.0000      -2.731182       -74.3192
 130   2.0000      -2.730633       -74.3043
 131   2.0000      -2.729909       -74.2846
 132   2.0000      -2.729433       -74.2717
 133   2.0000      -2.729369       -74.2699
 134   2.0000      -2.728884       -74.2567
 135   2.0000      -2.721908       -74.0669
 136   2.0000      -2.721896       -74.0666
 137   2.0000      -2.719423       -73.9993
 138   2.0000      -2.719412       -73.9990
 139   2.0000      -2.718230       -73.9668
 140   2.0000      -2.718218       -73.9665
 141   2.0000      -2.717704       -73.9525
 142   2.0000      -2.717694       -73.9522
 143   2.0000      -1.192187       -32.4411
 144   2.0000      -1.189208       -32.3600
 145   2.0000      -1.156290       -31.4642
 146   2.0000      -1.140011       -31.0213
 147   2.0000      -1.135634       -30.9022
 148   2.0000      -1.134312       -30.8662
 149   2.0000      -1.061493       -28.8847
 150   2.0000      -1.027366       -27.9560
 151   2.0000      -1.024341       -27.8737
 152   2.0000      -1.022904       -27.8346
 153   2.0000      -1.018392       -27.7119
 154   2.0000      -1.011683       -27.5293
 155   2.0000      -1.010760       -27.5042
 156   2.0000      -1.009388       -27.4669
 157   2.0000      -1.007676       -27.4203
 158   2.0000      -1.002129       -27.2693
 159   2.0000      -0.999160       -27.1885
 160   2.0000      -0.996851       -27.1257
 161   2.0000      -0.985616       -26.8200
 162   2.0000      -0.978638       -26.6301
 163   2.0000      -0.974508       -26.5177
 164   2.0000      -0.941633       -25.6231
 165   2.0000      -0.937735       -25.5171
 166   2.0000      -0.923346       -25.1255
 167   2.0000      -0.921117       -25.0649
 168   2.0000      -0.917906       -24.9775
 169   2.0000      -0.917483       -24.9660
 170   2.0000      -0.913057       -24.8456
 171   2.0000      -0.910519       -24.7765
 172   2.0000      -0.906185       -24.6585
 173   2.0000      -0.898331       -24.4448
 174   2.0000      -0.879971       -23.9452
 175   2.0000      -0.877783       -23.8857
 176   2.0000      -0.873416       -23.7669
 177   2.0000      -0.861807       -23.4510
 178   2.0000      -0.854297       -23.2466
 179   2.0000      -0.850831       -23.1523
 180   2.0000      -0.847669       -23.0662
 181   2.0000      -0.829446       -22.5704
 182   2.0000      -0.824071       -22.4241
 183   2.0000      -0.806208       -21.9380
 184   2.0000      -0.791503       -21.5379
 185   2.0000      -0.784011       -21.3340
 186   2.0000      -0.778491       -21.1838
 187   2.0000      -0.778345       -21.1798
 188   2.0000      -0.768448       -20.9105
 189   2.0000      -0.765729       -20.8365
 190   2.0000      -0.762538       -20.7497
 191   2.0000      -0.746148       -20.3037
 192   2.0000      -0.738613       -20.0987
 193   2.0000      -0.729057       -19.8387
 194   2.0000      -0.719476       -19.5780
 195   2.0000      -0.709250       -19.2997
 196   2.0000      -0.706186       -19.2163
 197   2.0000      -0.699607       -19.0373
 198   2.0000      -0.698303       -19.0018
 199   2.0000      -0.693540       -18.8722
 200   2.0000      -0.681462       -18.5435
 201   2.0000      -0.676786       -18.4163
 202   2.0000      -0.668088       -18.1796
 203   2.0000      -0.667565       -18.1654
 204   2.0000      -0.660478       -17.9725
 205   2.0000      -0.651940       -17.7402
 206   2.0000      -0.646639       -17.5959
 207   2.0000      -0.641964       -17.4687
 208   2.0000      -0.633587       -17.2408
 209   2.0000      -0.630790       -17.1647
 210   2.0000      -0.625542       -17.0219
 211   2.0000      -0.619823       -16.8663
 212   2.0000      -0.617351       -16.7990
 213   2.0000      -0.600023       -16.3274
 214   2.0000      -0.595991       -16.2177
 215   2.0000      -0.594827       -16.1861
 216   2.0000      -0.592386       -16.1196
 217   2.0000      -0.589568       -16.0430
 218   2.0000      -0.586993       -15.9729
 219   2.0000      -0.583591       -15.8803
 220   2.0000      -0.575443       -15.6586
 221   2.0000      -0.574033       -15.6202
 222   2.0000      -0.569685       -15.5019
 223   2.0000      -0.564640       -15.3646
 224   2.0000      -0.561487       -15.2788
 225   2.0000      -0.553865       -15.0714
 226   2.0000      -0.549925       -14.9642
 227   2.0000      -0.548855       -14.9351
 228   2.0000      -0.547812       -14.9067
 229   2.0000      -0.547290       -14.8925
 230   2.0000      -0.541360       -14.7311
 231   2.0000      -0.538920       -14.6648
 232   2.0000      -0.536110       -14.5883
 233   2.0000      -0.534841       -14.5538
 234   2.0000      -0.528475       -14.3805
 235   2.0000      -0.527296       -14.3484
 236   2.0000      -0.520189       -14.1551
 237   2.0000      -0.517260       -14.0754
 238   2.0000      -0.517055       -14.0698
 239   2.0000      -0.513036       -13.9604
 240   2.0000      -0.510854       -13.9011
 241   2.0000      -0.503269       -13.6946
 242   2.0000      -0.502648       -13.6777
 243   2.0000      -0.501728       -13.6527
 244   2.0000      -0.501199       -13.6383
 245   2.0000      -0.498321       -13.5600
 246   2.0000      -0.497322       -13.5328
 247   2.0000      -0.495712       -13.4890
 248   2.0000      -0.493488       -13.4285
 249   2.0000      -0.489732       -13.3263
 250   2.0000      -0.486575       -13.2404
 251   2.0000      -0.478915       -13.0319
 252   2.0000      -0.472657       -12.8617
 253   2.0000      -0.471649       -12.8342
 254   2.0000      -0.465899       -12.6778
 255   2.0000      -0.464432       -12.6378
 256   2.0000      -0.463665       -12.6170
 257   2.0000      -0.462612       -12.5883
 258   2.0000      -0.461500       -12.5581
 259   2.0000      -0.460613       -12.5339
 260   2.0000      -0.459420       -12.5015
 261   2.0000      -0.457100       -12.4383
 262   2.0000      -0.456166       -12.4129
 263   2.0000      -0.452719       -12.3191
 264   2.0000      -0.451791       -12.2939
 265   2.0000      -0.450302       -12.2533
 266   2.0000      -0.448950       -12.2166
 267   2.0000      -0.447611       -12.1801
 268   2.0000      -0.444732       -12.1018
 269   2.0000      -0.441237       -12.0067
 270   2.0000      -0.437162       -11.8958
 271   2.0000      -0.435485       -11.8502
 272   2.0000      -0.433765       -11.8033
 273   2.0000      -0.432812       -11.7774
 274   2.0000      -0.431051       -11.7295
 275   2.0000      -0.429281       -11.6813
 276   2.0000      -0.427236       -11.6257
 277   2.0000      -0.425599       -11.5811
 278   2.0000      -0.423426       -11.5220
 279   2.0000      -0.418811       -11.3964
 280   2.0000      -0.417543       -11.3619
 281   2.0000      -0.415752       -11.3132
 282   2.0000      -0.412936       -11.2366
 283   2.0000      -0.409730       -11.1493
 284   2.0000      -0.405919       -11.0456
 285   2.0000      -0.404297       -11.0015
 286   2.0000      -0.399239       -10.8638
 287   2.0000      -0.397668       -10.8211
 288   2.0000      -0.394631       -10.7385
 289   2.0000      -0.391284       -10.6474
 290   2.0000      -0.389602       -10.6016
 291   2.0000      -0.388472       -10.5709
 292   2.0000      -0.384528       -10.4635
 293   2.0000      -0.376408       -10.2426
 294   2.0000      -0.368937       -10.0393
 295   2.0000      -0.362014        -9.8509
 296   2.0000      -0.359013        -9.7692
 297   2.0000      -0.356913        -9.7121
 298   2.0000      -0.348628        -9.4867
 299   2.0000      -0.347715        -9.4618
 300   2.0000      -0.343095        -9.3361
 301   2.0000      -0.339648        -9.2423
 302   2.0000      -0.338858        -9.2208
 303   2.0000      -0.337831        -9.1928
 304   2.0000      -0.331364        -9.0169
 305   2.0000      -0.326344        -8.8803
 306   2.0000      -0.313186        -8.5222
 307   2.0000      -0.307860        -8.3773
 308   2.0000      -0.295536        -8.0419
 309   2.0000      -0.287422        -7.8212
 310   2.0000      -0.284887        -7.7522
 311   2.0000      -0.258620        -7.0374
 312   0.0000      -0.140384        -3.8200
 313   0.0000      -0.092465        -2.5161
 314   0.0000      -0.084258        -2.2928
 315   0.0000      -0.070148        -1.9088
 316   0.0000      -0.066851        -1.8191

MULLIKEN ATOMIC CHARGES
-----------------------
   0 C :    0.133170
   1 O :   -0.154985
   2 C :   -0.011157
   3 C :    0.033888
   4 C :   -0.009763
   5 C :   -0.025961
   6 C :   -0.015328
   7 C :   -0.022637
   8 Br:    0.012093
   9 Br:    0.021054
  10 C :    0.289516
  11 C :   -0.325891
  12 C :   -0.187920
  13 N :    0.163831
  14 C :   -0.206265
  15 N :    0.174096
  16 C :   -0.082502
  17 C :    0.007199
  18 C :   -0.115821
  19 C :   -0.025485
  20 C :    0.191190
  21 O :   -0.274374
  22 C :    0.227459
  23 C :   -0.109498
  24 S :    0.076028
  25 C :   -0.236758
  26 S :    0.190567
  27 C :    0.192364
  28 C :   -0.033197
  29 C :   -0.084979
  30 N :    0.073725
  31 C :   -0.141211
  32 C :   -0.082886
  33 N :   -0.007539
  34 C :   -0.234035
  35 N :    0.252886
  36 C :   -0.209935
  37 N :    0.246006
  38 C :    0.133324
  39 C :   -0.014369
  40 C :   -0.023523
  41 N :   -0.251317
  42 S :    0.553953
  43 N :   -0.302572
  44 C :   -0.227783
  45 C :    0.007082
  46 C :    0.175260
  47 O :   -0.295169
  48 C :    0.228496
  49 C :   -0.109825
  50 S :    0.032763
  51 C :   -0.134598
  52 S :    0.199936
  53 C :    0.079443
  54 C :   -0.133033
  55 C :    0.132039
  56 O :   -0.137189
  57 C :   -0.001966
  58 C :    0.029819
  59 C :    0.293452
  60 C :   -0.326314
  61 C :   -0.203067
  62 N :    0.164718
  63 C :   -0.188458
  64 N :    0.149928
  65 C :   -0.020840
  66 C :   -0.022461
  67 C :   -0.017988
  68 C :   -0.021837
  69 Br:    0.008957
  70 Br:    0.017240
  71 H :    0.007840
  72 H :    0.002386
  73 H :    0.033396
  74 H :    0.031914
  75 H :    0.042444
  76 H :    0.072499
  77 H :    0.066291
  78 H :    0.046256
  79 H :    0.039194
  80 H :    0.092874
  81 H :    0.072168
  82 H :    0.020966
  83 H :    0.005480
  84 H :    0.005246
Sum of atomic charges:   -0.0000000

LOEWDIN ATOMIC CHARGES
----------------------
   0 C :    0.062533
   1 O :   -0.151187
   2 C :   -0.038272
   3 C :   -0.012997
   4 C :   -0.006330
   5 C :   -0.120685
   6 C :   -0.122889
   7 C :    0.003027
   8 Br:    0.136016
   9 Br:    0.140333
  10 C :    0.072673
  11 C :   -0.126760
  12 C :   -0.019531
  13 N :   -0.041546
  14 C :   -0.025569
  15 N :   -0.037635
  16 C :   -0.096485
  17 C :    0.040074
  18 C :   -0.189521
  19 C :   -0.193179
  20 C :    0.022118
  21 O :   -0.067434
  22 C :    0.073788
  23 C :   -0.147554
  24 S :    0.377896
  25 C :   -0.185577
  26 S :    0.489551
  27 C :   -0.019531
  28 C :   -0.010746
  29 C :   -0.008961
  30 N :    0.007736
  31 C :   -0.021348
  32 C :   -0.018540
  33 N :   -0.018305
  34 C :   -0.040393
  35 N :    0.007603
  36 C :   -0.034948
  37 N :   -0.002044
  38 C :   -0.047395
  39 C :   -0.041445
  40 C :   -0.043347
  41 N :   -0.261763
  42 S :    0.687520
  43 N :   -0.301044
  44 C :   -0.164301
  45 C :   -0.200066
  46 C :    0.028370
  47 O :   -0.062178
  48 C :    0.074466
  49 C :   -0.134551
  50 S :    0.324422
  51 C :   -0.204598
  52 S :    0.493671
  53 C :    0.046866
  54 C :   -0.095931
  55 C :    0.083885
  56 O :   -0.137676
  57 C :   -0.046866
  58 C :   -0.005917
  59 C :    0.062921
  60 C :   -0.134891
  61 C :   -0.019206
  62 N :   -0.053137
  63 C :   -0.023530
  64 N :   -0.053299
  65 C :   -0.014726
  66 C :   -0.118427
  67 C :   -0.127500
  68 C :    0.006963
  69 Br:    0.133111
  70 Br:    0.138230
  71 H :    0.044691
  72 H :    0.044793
  73 H :    0.047004
  74 H :    0.030702
  75 H :    0.024581
  76 H :    0.031009
  77 H :    0.038033
  78 H :    0.034252
  79 H :    0.023449
  80 H :    0.039595
  81 H :    0.042991
  82 H :    0.046076
  83 H :    0.043054
  84 H :    0.045758

  Mayer bond orders larger than 0.100000
B(  0-C ,  1-O ) :   2.1713 B(  0-C ,  2-C ) :   0.9386 B(  0-C , 16-C ) :   0.9839
B(  2-C ,  3-C ) :   1.3268 B(  2-C ,  7-C ) :   1.3747 B(  3-C ,  4-C ) :   1.3681
B(  3-C , 10-C ) :   0.9944 B(  4-C ,  5-C ) :   1.3652 B(  4-C , 71-H ) :   0.9807
B(  5-C ,  6-C ) :   1.4265 B(  5-C ,  9-Br) :   1.0564 B(  6-C ,  7-C ) :   1.3468
B(  6-C ,  8-Br) :   1.0321 B(  7-C , 72-H ) :   1.0088 B( 10-C , 11-C ) :   1.6597
B( 10-C , 16-C ) :   1.0678 B( 11-C , 12-C ) :   1.1384 B( 11-C , 14-C ) :   1.1386
B( 12-C , 13-N ) :   2.9755 B( 14-C , 15-N ) :   2.9986 B( 16-C , 17-C ) :   1.5557
B( 17-C , 18-C ) :   1.2354 B( 17-C , 73-H ) :   0.9270 B( 18-C , 19-C ) :   1.4438
B( 18-C , 25-C ) :   0.1019 B( 18-C , 26-S ) :   1.0498 B( 19-C , 20-C ) :   1.2490
B( 19-C , 24-S ) :   1.0513 B( 20-C , 21-O ) :   1.2131 B( 20-C , 25-C ) :   1.4284
B( 21-O , 22-C ) :   0.9408 B( 22-C , 23-C ) :   1.0432 B( 22-C , 74-H ) :   0.9517
B( 22-C , 75-H ) :   0.9519 B( 23-C , 24-S ) :   0.9949 B( 23-C , 76-H ) :   0.9415
B( 23-C , 77-H ) :   0.9489 B( 25-C , 26-S ) :   1.1266 B( 25-C , 27-C ) :   1.1608
B( 27-C , 28-C ) :   1.2501 B( 27-C , 38-C ) :   0.1207 B( 27-C , 40-C ) :   1.2070
B( 28-C , 29-C ) :   1.1117 B( 28-C , 33-N ) :   1.3865 B( 29-C , 30-N ) :   1.4318
B( 29-C , 38-C ) :   1.2964 B( 30-N , 31-C ) :   1.7237 B( 31-C , 32-C ) :   1.2013
B( 31-C , 36-C ) :   1.1653 B( 32-C , 33-N ) :   1.6963 B( 32-C , 34-C ) :   1.1584
B( 34-C , 35-N ) :   3.0371 B( 36-C , 37-N ) :   3.0441 B( 38-C , 39-C ) :   1.2213
B( 38-C , 44-C ) :   1.1065 B( 39-C , 40-C ) :   1.0997 B( 39-C , 43-N ) :   1.4948
B( 40-C , 41-N ) :   1.5181 B( 41-N , 42-S ) :   1.3105 B( 41-N , 43-N ) :   0.1527
B( 42-S , 43-N ) :   1.2738 B( 44-C , 45-C ) :   1.5115 B( 44-C , 51-C ) :   0.1116
B( 44-C , 52-S ) :   1.1559 B( 45-C , 46-C ) :   1.2630 B( 45-C , 50-S ) :   1.0020
B( 46-C , 47-O ) :   1.1819 B( 46-C , 51-C ) :   1.4125 B( 47-O , 48-C ) :   0.9214
B( 48-C , 49-C ) :   1.0432 B( 48-C , 78-H ) :   0.9484 B( 48-C , 79-H ) :   0.9527
B( 49-C , 50-S ) :   1.0156 B( 49-C , 80-H ) :   0.9389 B( 49-C , 81-H ) :   0.9463
B( 51-C , 52-S ) :   1.0773 B( 51-C , 53-C ) :   1.1816 B( 53-C , 54-C ) :   1.6108
B( 53-C , 82-H ) :   0.9213 B( 54-C , 55-C ) :   0.9496 B( 54-C , 59-C ) :   1.0821
B( 55-C , 56-O ) :   2.2678 B( 55-C , 57-C ) :   0.9204 B( 57-C , 58-C ) :   1.3296
B( 57-C , 68-C ) :   1.3768 B( 58-C , 59-C ) :   1.0036 B( 58-C , 65-C ) :   1.3706
B( 59-C , 60-C ) :   1.6161 B( 60-C , 61-C ) :   1.1824 B( 60-C , 63-C ) :   1.1388
B( 61-C , 62-N ) :   2.9663 B( 63-C , 64-N ) :   2.9720 B( 65-C , 66-C ) :   1.3630
B( 65-C , 83-H ) :   0.9827 B( 66-C , 67-C ) :   1.4303 B( 66-C , 70-Br) :   1.0523
B( 67-C , 68-C ) :   1.3500 B( 67-C , 69-Br) :   1.0296 B( 68-C , 84-H ) :   1.0090

-----------------------------------------------------------------------------
         ABSORPTION SPECTRUM VIA TRANSITION ELECTRIC DIPOLE MOMENTS
-----------------------------------------------------------------------------
State   Energy  Wavelength   fosc         T2         TX        TY        TZ
        (cm-1)    (nm)                  (au**2)     (au)      (au)      (au)
-----------------------------------------------------------------------------
   0    9394.5   1064.4   0.526334886  18.44432  -0.87551   3.14428  -2.79129
   1   13775.1    725.9   0.220490549   5.26951   0.30396  -1.51982   1.69330
   2   15352.9    651.3   0.040459338   0.86757  -0.48643  -0.07244  -0.79102
   3   18424.6    542.8   0.017358760   0.31017   0.55606  -0.01266  -0.02827
   4   21333.3    468.8   0.687710031  10.61264  -0.89228   2.08657  -2.33724
   5   21982.4    454.9   0.196261214   2.93924   0.32868   1.34409  -1.01225
   6   22390.1    446.6   0.009969563   0.14659   0.04131   0.28620   0.25094
   7   24005.4    416.6   0.018401091   0.25235  -0.31665  -0.34306  -0.18547
   8   24486.4    408.4   0.031669197   0.42578   0.13558   0.41480  -0.48512
   9   24875.6    402.0   0.046349075   0.61340  -0.26393  -0.37444   0.63524
  10   25357.7    394.4   0.035230185   0.45738   0.07371  -0.25695  -0.62123
  11   25444.7    393.0   0.042368966   0.54818  -0.16188  -0.69863  -0.18412
  12   26192.9    381.8   0.130291187   1.63760   0.72833  -0.44994   0.95115
  13   26441.4    378.2   0.074938941   0.93304   0.47720  -0.76112   0.35499
  14   26874.7    372.1   0.031875484   0.39047   0.17948  -0.51720  -0.30126
  15   27350.2    365.6   0.085511399   1.02929   0.42316  -0.83197   0.39756
  16   27442.6    364.4   0.061303535   0.73542  -0.39903  -0.26922   0.70973
  17   27887.1    358.6   0.089210664   1.05315  -0.09284  -0.17084   1.00764
  18   28653.0    349.0   0.089814524   1.03194  -0.75195  -0.09451  -0.67644
  19   28839.4    346.7   0.110181524   1.25776  -0.36497  -0.13999  -1.05117
  20   29547.1    338.4   0.008246541   0.09188  -0.02499  -0.25875  -0.15591
  21   29606.2    337.8   0.002375363   0.02641   0.13292  -0.08632  -0.03598
  22   30278.0    330.3   0.056021496   0.60912   0.45040  -0.53524   0.34610
  23   30655.9    326.2   0.009161672   0.09839   0.12331   0.23969  -0.16040
  24   30965.2    322.9   0.005323583   0.05660  -0.23370  -0.03090   0.03205
  25   31365.3    318.8   0.069042415   0.72467   0.55297   0.28835   0.57944
  26   31521.6    317.2   0.092888343   0.97013   0.02251   0.42067   0.89031
  27   31633.6    316.1   0.404825258   4.21304  -0.16536  -1.88948  -0.78459
  28   31948.1    313.0   0.199531981   2.05609   0.79637   0.19496   1.17638
  29   32164.5    310.9   0.038864779   0.39779  -0.06618   0.57167   0.25808
  30   32375.6    308.9   0.105454815   1.07232  -0.81468   0.38356  -0.51137
  31   32461.0    308.1   0.038080084   0.38620  -0.48468   0.17769  -0.34599
  32   32826.2    304.6   0.031714115   0.31806  -0.43011   0.35282  -0.09266
  33   32978.2    303.2   0.195370125   1.95032  -0.05237  -0.57369  -1.27219
  34   33062.0    302.5   0.080928062   0.80583   0.18665   0.13655   0.86738
  35   33623.2    297.4   0.009100544   0.08911  -0.16092  -0.08216  -0.23762
  36   33714.6    296.6   0.256078257   2.50052   0.25998  -0.51500  -1.47231
  37   34452.5    290.3   0.346736345   3.31325   0.84177  -1.54229  -0.47540
  38   34921.8    286.4   0.140088850   1.32063   0.50718  -0.20155  -1.01132
  39   34998.1    285.7   0.391411838   3.68184  -0.50023   0.19242  -1.84244
  40   35304.9    283.2   0.036800207   0.34316   0.10955  -0.53465  -0.21284
  41   35410.8    282.4   0.021454957   0.19947   0.13356  -0.38590  -0.18085
  42   35525.2    281.5   0.069524795   0.64429   0.21276   0.29928   0.71376
  43   35656.7    280.5   0.025312960   0.23371   0.24254   0.01556   0.41790
  44   35742.2    279.8   0.035416543   0.32621   0.20268   0.19611   0.49666
  45   36141.6    276.7   0.013756108   0.12530   0.11093  -0.21375  -0.25943
  46   36184.1    276.4   0.000773103   0.00703   0.07256  -0.00278  -0.04197
  47   36361.3    275.0   0.000596910   0.00540  -0.03597  -0.00248   0.06406
  48   36461.8    274.3   0.021040559   0.18997  -0.02171  -0.21895  -0.37625
  49   36693.9    272.5   0.012198422   0.10944   0.07952   0.32111   0.00271
  50   36886.4    271.1   0.056333711   0.50278  -0.09118  -0.10384  -0.69547
  51   37087.1    269.6   0.001461902   0.01298   0.10047   0.04411   0.03060
  52   37319.5    268.0   0.035841691   0.31618  -0.25973   0.45288  -0.20885
  53   37800.8    264.5   0.030768702   0.26797  -0.16288   0.19514  -0.45095
  54   37894.3    263.9   0.077523840   0.67350  -0.29498   0.52468  -0.55786
  55   38121.5    262.3   0.114914470   0.99239  -0.03218  -0.83411   0.54370
  56   38431.4    260.2   0.193239569   1.65533   0.59493  -0.63511   0.94764
  57   38591.8    259.1   0.070498439   0.60139  -0.00735   0.43424   0.64247
  58   38708.0    258.3   0.021696099   0.18453  -0.03800   0.15963  -0.39699
  59   39403.2    253.8   0.137762091   1.15100  -0.13672  -0.93505  -0.50792
  60   39586.3    252.6   0.017784724   0.14790   0.18307  -0.02539   0.33726
  61   39914.7    250.5   0.004506668   0.03717   0.18941   0.03467  -0.00959
  62   39999.8    250.0   0.001464099   0.01205   0.06720  -0.00621   0.08658
  63   40204.9    248.7   0.009133194   0.07479   0.01094  -0.27084  -0.03621

FINAL SINGLE POINT ENERGY    -14968.612255330572

DIPOLE MOMENT
-------------
                                X             Y             Z
Electronic contribution:    -69.55211      -4.57070      36.11447
Nuclear contribution   :     71.71014       7.93206     -32.91847
                        -----------------------------------------
Total Dipole Moment    :      2.15803       3.36137       3.19601
                        -----------------------------------------
Magnitude (a.u.)       :      5.11570
Magnitude (Debye)      :     13.00307

Rotational constants in cm-1:     0.001937     0.000167     0.000162
Rotational constants in MHz :    58.063488     5.015334     4.843524

                             ****ORCA TERMINATED NORMALLY****
TOTAL RUN TIME: 0 days 0 hours 10 minutes 52 seconds 928 msec
