                         Program Version 4.2.0 -  RELEASE  -
|  1> # ORCA input file
|  2> # SCF done       -204.029989099767          0.000914522553
|  3> ! CAM-B3LYP def2-SVP def2/J RIJCOSX Grid4 TightSCF
|  4> %maxcore 5000
|  5> %tddft
|  6>     Mode sTDDFT
|  7>     Ethresh 5.0
|  8>     maxcore 5000
|  9> end
| 10>
| 11> %pal
| 12>   nprocs 6
| 13>   end
| 14> * xyz 0 1
| 15>    C        3.63468        -2.22064         2.86099
| 16>    O        2.88431        -3.06859         3.30993
| 17>    C        4.34094        -1.18374         3.63551
| 18>    C        5.09745        -0.38343         2.76088
| 19>    C        5.85422         0.65767         3.27195
| 20>    C        5.84179         0.88014         4.64495
| 21>    C        5.08506         0.07977         5.50375
| 22>    C        4.32361        -0.96550         4.99716
| 23>   Br        5.08697         0.40577         7.36476
| 24>   Br        6.87864         2.29859         5.34154
| 25>    C        4.90538        -0.86595         1.39305
| 26>    C        5.44483        -0.29239         0.27306
| 27>    C        6.28474         0.84283         0.29508
| 28>    N        6.96929         1.76226         0.24951
| 29>    C        5.23796        -0.72450        -1.05514
| 30>    N        5.11460        -1.00766        -2.16069
| 31>    C        4.02866        -2.02144         1.46370
| 32>    C        3.66749        -2.82605         0.41172
| 33>    C        2.83821        -3.95598         0.37512
| 34>    C        2.63434        -4.68028        -0.80810
| 35>    C        1.78407        -5.75290        -0.63171
| 36>    C        1.31412        -5.84977         0.70191
| 37>    S        1.93503        -4.64229         1.72663
| 38>    C        0.45513        -6.97234         0.78252
| 39>    C        0.38473        -7.58553        -0.48457
| 40>    C        1.21411        -6.83935        -1.41524
| 41>    C        1.41476        -7.10658        -2.73697
| 42>    C        0.79931        -8.20070        -3.38252
| 43>    N        0.30157        -9.08782        -3.91111
| 44>    C        2.25241        -6.30920        -3.54631
| 45>    N        2.93665        -5.66610        -4.20345
| 46>    C       -0.43463        -8.70910        -0.49735
| 47>    C       -0.99633        -8.95571         0.74567
| 48>    S       -0.49820        -7.77169         1.94496
| 49>    C       -1.87939       -10.03191         1.07824
| 50>    C       -2.49273       -10.16693         2.31842
| 51>    F       -2.26142        -9.25321         3.27728
| 52>    C       -3.36182       -11.21183         2.64631
| 53>    F       -3.88240       -11.19694         3.88616
| 54>    C       -3.69498       -12.24240         1.77530
| 55>    C       -3.08235       -12.14829         0.49283
| 56>    C       -2.20060       -11.06343         0.14955
| 57>    N       -1.75161       -11.17621        -1.09859
| 58>    S       -2.36705       -12.49259        -1.77473
| 59>    N       -3.23442       -12.99435        -0.52365
| 60>    C       -4.57811       -13.31453         2.12013
| 61>    C       -4.84978       -14.43427         1.34908
| 62>    C       -5.75928       -15.28453         1.96766
| 63>    C       -6.19338       -14.80428         3.21872
| 64>    S       -5.46640       -13.32155         3.63518
| 65>    C       -7.12815       -15.72459         3.74975
| 66>    C       -7.27305       -16.79744         2.84494
| 67>    C       -6.41430       -16.55463         1.69692
| 68>    C       -6.24947       -17.34929         0.60174
| 69>    C       -6.92938       -18.57800         0.45802
| 70>    N       -7.46989       -19.58166         0.34034
| 71>    C       -5.37898       -17.00137        -0.45394
| 72>    N       -4.67038       -16.72669        -1.31202
| 73>    C       -8.17091       -17.75913         3.29070
| 74>    C       -8.75357       -17.41478         4.50267
| 75>    S       -8.11448       -15.89250         5.12457
| 76>    C       -9.67718       -18.20401         5.22270
| 77>    C      -10.52873       -17.85050         6.22516
| 78>    C      -11.05409       -18.90026         7.14027
| 79>    O      -10.99079       -20.09611         6.98930
| 80>    C      -11.60808       -18.15564         8.29358
| 81>    C      -11.54570       -16.77334         8.03599
| 82>    C      -11.02013       -16.56993         6.68737
| 83>    C      -11.23832       -15.45762         5.91843
| 84>    C      -10.98960       -15.41499         4.53057
| 85>    N      -10.84039       -15.36367         3.39385
| 86>    C      -11.82609       -14.27135         6.40460
| 87>    N      -12.28384       -13.28208         6.76208
| 88>    C      -11.98331       -15.87191         8.99045
| 89>    C      -12.48537       -16.36636        10.18919
| 90>    C      -12.55900       -17.74030        10.43188
| 91>    C      -12.11534       -18.64791         9.47804
| 92>   Br      -13.26064       -18.38415        12.06376
| 93>   Br      -13.07035       -15.13944        11.50179
| 94>    H        6.45276         1.29673         2.64355
| 95>    H        3.73489        -1.59192         5.64916
| 96>    H        4.08582        -2.58018        -0.55691
| 97>    H        3.10545        -4.40547        -1.73538
| 98>    H       -0.63121        -9.33508        -1.34762
| 99>    H       -4.39433       -14.59022         0.38902
|100>    H       -8.43161       -18.65757         2.76088
|101>    H       -9.65469       -19.26596         4.99418
|102>    H      -11.93621       -14.80584         8.83549
|103>    H      -12.16722       -19.71068         9.65677
|104> *
|105>
|106>                          ****END OF INPUT****

CARTESIAN COORDINATES (ANGSTROEM)
---------------------------------
  C      3.634680   -2.220640    2.860990
  O      2.884310   -3.068590    3.309930
  C      4.340940   -1.183740    3.635510
  C      5.097450   -0.383430    2.760880
  C      5.854220    0.657670    3.271950
  C      5.841790    0.880140    4.644950
  C      5.085060    0.079770    5.503750
  C      4.323610   -0.965500    4.997160
  Br     5.086970    0.405770    7.364760
  Br     6.878640    2.298590    5.341540
  C      4.905380   -0.865950    1.393050
  C      5.444830   -0.292390    0.273060
  C      6.284740    0.842830    0.295080
  N      6.969290    1.762260    0.249510
  C      5.237960   -0.724500   -1.055140
  N      5.114600   -1.007660   -2.160690
  C      4.028660   -2.021440    1.463700
  C      3.667490   -2.826050    0.411720
  C      2.838210   -3.955980    0.375120
  C      2.634340   -4.680280   -0.808100
  C      1.784070   -5.752900   -0.631710
  C      1.314120   -5.849770    0.701910
  S      1.935030   -4.642290    1.726630
  C      0.455130   -6.972340    0.782520
  C      0.384730   -7.585530   -0.484570
  C      1.214110   -6.839350   -1.415240
  C      1.414760   -7.106580   -2.736970
  C      0.799310   -8.200700   -3.382520
  N      0.301570   -9.087820   -3.911110
  C      2.252410   -6.309200   -3.546310
  N      2.936650   -5.666100   -4.203450
  C     -0.434630   -8.709100   -0.497350
  C     -0.996330   -8.955710    0.745670
  S     -0.498200   -7.771690    1.944960
  C     -1.879390  -10.031910    1.078240
  C     -2.492730  -10.166930    2.318420
  F     -2.261420   -9.253210    3.277280
  C     -3.361820  -11.211830    2.646310
  F     -3.882400  -11.196940    3.886160
  C     -3.694980  -12.242400    1.775300
  C     -3.082350  -12.148290    0.492830
  C     -2.200600  -11.063430    0.149550
  N     -1.751610  -11.176210   -1.098590
  S     -2.367050  -12.492590   -1.774730
  N     -3.234420  -12.994350   -0.523650
  C     -4.578110  -13.314530    2.120130
  C     -4.849780  -14.434270    1.349080
  C     -5.759280  -15.284530    1.967660
  C     -6.193380  -14.804280    3.218720
  S     -5.466400  -13.321550    3.635180
  C     -7.128150  -15.724590    3.749750
  C     -7.273050  -16.797440    2.844940
  C     -6.414300  -16.554630    1.696920
  C     -6.249470  -17.349290    0.601740
  C     -6.929380  -18.578000    0.458020
  N     -7.469890  -19.581660    0.340340
  C     -5.378980  -17.001370   -0.453940
  N     -4.670380  -16.726690   -1.312020
  C     -8.170910  -17.759130    3.290700
  C     -8.753570  -17.414780    4.502670
  S     -8.114480  -15.892500    5.124570
  C     -9.677180  -18.204010    5.222700
  C    -10.528730  -17.850500    6.225160
  C    -11.054090  -18.900260    7.140270
  O    -10.990790  -20.096110    6.989300
  C    -11.608080  -18.155640    8.293580
  C    -11.545700  -16.773340    8.035990
  C    -11.020130  -16.569930    6.687370
  C    -11.238320  -15.457620    5.918430
  C    -10.989600  -15.414990    4.530570
  N    -10.840390  -15.363670    3.393850
  C    -11.826090  -14.271350    6.404600
  N    -12.283840  -13.282080    6.762080
  C    -11.983310  -15.871910    8.990450
  C    -12.485370  -16.366360   10.189190
  C    -12.559000  -17.740300   10.431880
  C    -12.115340  -18.647910    9.478040
  Br   -13.260640  -18.384150   12.063760
  Br   -13.070350  -15.139440   11.501790
  H      6.452760    1.296730    2.643550
  H      3.734890   -1.591920    5.649160
  H      4.085820   -2.580180   -0.556910
  H      3.105450   -4.405470   -1.735380
  H     -0.631210   -9.335080   -1.347620
  H     -4.394330  -14.590220    0.389020
  H     -8.431610  -18.657570    2.760880
  H     -9.654690  -19.265960    4.994180
  H    -11.936210  -14.805840    8.835490
  H    -12.167220  -19.710680    9.656770

 Total Charge           Charge          ....    0
 Multiplicity           Mult            ....    1
 Number of Electrons    NEL             ....  670
 Basis Dimension        Dim             .... 1248

ORBITAL ENERGIES
----------------

  NO   OCC          E(Eh)            E(eV)
   0   2.0000    -482.882517    -13139.9013
   1   2.0000    -482.882479    -13139.9003
   2   2.0000    -482.881667    -13139.8782
   3   2.0000    -482.880364    -13139.8427
   4   2.0000     -89.051099     -2423.2036
   5   2.0000     -89.005620     -2421.9661
   6   2.0000     -89.003308     -2421.9031
   7   2.0000     -89.001900     -2421.8648
   8   2.0000     -88.999157     -2421.7902
   9   2.0000     -62.560096     -1702.3468
  10   2.0000     -62.560071     -1702.3461
  11   2.0000     -62.559310     -1702.3254
  12   2.0000     -62.557957     -1702.2886
  13   2.0000     -56.394051     -1534.5601
  14   2.0000     -56.394025     -1534.5594
  15   2.0000     -56.393276     -1534.5390
  16   2.0000     -56.391926     -1534.5023
  17   2.0000     -56.391397     -1534.4879
  18   2.0000     -56.391365     -1534.4871
  19   2.0000     -56.391293     -1534.4851
  20   2.0000     -56.391270     -1534.4845
  21   2.0000     -56.390594     -1534.4661
  22   2.0000     -56.390504     -1534.4636
  23   2.0000     -56.389248     -1534.4294
  24   2.0000     -56.389149     -1534.4268
  25   2.0000     -24.832610      -675.7297
  26   2.0000     -24.832434      -675.7249
  27   2.0000     -19.237979      -523.4920
  28   2.0000     -19.229166      -523.2522
  29   2.0000     -14.465218      -393.6186
  30   2.0000     -14.465092      -393.6152
  31   2.0000     -14.439111      -392.9082
  32   2.0000     -14.438604      -392.8944
  33   2.0000     -14.436896      -392.8479
  34   2.0000     -14.436395      -392.8343
  35   2.0000     -14.428108      -392.6088
  36   2.0000     -14.427724      -392.5983
  37   2.0000     -14.427468      -392.5914
  38   2.0000     -14.423849      -392.4929
  39   2.0000     -10.408795      -283.2377
  40   2.0000     -10.408395      -283.2268
  41   2.0000     -10.385986      -282.6170
  42   2.0000     -10.381052      -282.4828
  43   2.0000     -10.375517      -282.3322
  44   2.0000     -10.373021      -282.2642
  45   2.0000     -10.362403      -281.9753
  46   2.0000     -10.360900      -281.9344
  47   2.0000     -10.360802      -281.9318
  48   2.0000     -10.360128      -281.9134
  49   2.0000     -10.359689      -281.9015
  50   2.0000     -10.359415      -281.8940
  51   2.0000     -10.359328      -281.8917
  52   2.0000     -10.359141      -281.8866
  53   2.0000     -10.358994      -281.8825
  54   2.0000     -10.357422      -281.8398
  55   2.0000     -10.355408      -281.7850
  56   2.0000     -10.354291      -281.7546
  57   2.0000     -10.354115      -281.7498
  58   2.0000     -10.344574      -281.4902
  59   2.0000     -10.344396      -281.4853
  60   2.0000     -10.344031      -281.4754
  61   2.0000     -10.343442      -281.4594
  62   2.0000     -10.342960      -281.4462
  63   2.0000     -10.342752      -281.4406
  64   2.0000     -10.341641      -281.4104
  65   2.0000     -10.338878      -281.3352
  66   2.0000     -10.338547      -281.3262
  67   2.0000     -10.338489      -281.3246
  68   2.0000     -10.338007      -281.3115
  69   2.0000     -10.336911      -281.2816
  70   2.0000     -10.336746      -281.2772
  71   2.0000     -10.336452      -281.2691
  72   2.0000     -10.336014      -281.2572
  73   2.0000     -10.329940      -281.0920
  74   2.0000     -10.329328      -281.0753
  75   2.0000     -10.329276      -281.0739
  76   2.0000     -10.326360      -280.9945
  77   2.0000     -10.326174      -280.9895
  78   2.0000     -10.324490      -280.9437
  79   2.0000     -10.323465      -280.9158
  80   2.0000     -10.322522      -280.8901
  81   2.0000     -10.319117      -280.7975
  82   2.0000     -10.318820      -280.7894
  83   2.0000     -10.318772      -280.7881
  84   2.0000     -10.317923      -280.7650
  85   2.0000     -10.317211      -280.7456
  86   2.0000     -10.317173      -280.7446
  87   2.0000     -10.316653      -280.7304
  88   2.0000     -10.314932      -280.6836
  89   2.0000     -10.311616      -280.5933
  90   2.0000     -10.311437      -280.5885
  91   2.0000     -10.310644      -280.5669
  92   2.0000     -10.310586      -280.5653
  93   2.0000     -10.309077      -280.5242
  94   2.0000     -10.308261      -280.5021
  95   2.0000      -8.789398      -239.1717
  96   2.0000      -8.789385      -239.1713
  97   2.0000      -8.788650      -239.1513
  98   2.0000      -8.787266      -239.1137
  99   2.0000      -8.142486      -221.5683
 100   2.0000      -8.099870      -220.4087
 101   2.0000      -8.097424      -220.3421
 102   2.0000      -8.096012      -220.3037
 103   2.0000      -8.091575      -220.1830
 104   2.0000      -6.625538      -180.2901
 105   2.0000      -6.625510      -180.2893
 106   2.0000      -6.624850      -180.2713
 107   2.0000      -6.623462      -180.2336
 108   2.0000      -6.611517      -179.9085
 109   2.0000      -6.611509      -179.9083
 110   2.0000      -6.610730      -179.8871
 111   2.0000      -6.610727      -179.8870
 112   2.0000      -6.610724      -179.8869
 113   2.0000      -6.609965      -179.8663
 114   2.0000      -6.609352      -179.8496
 115   2.0000      -6.608566      -179.8282
 116   2.0000      -6.113772      -166.3642
 117   2.0000      -6.105811      -166.1476
 118   2.0000      -6.104912      -166.1231
 119   2.0000      -6.069115      -165.1490
 120   2.0000      -6.066719      -165.0838
 121   2.0000      -6.065314      -165.0456
 122   2.0000      -6.064892      -165.0341
 123   2.0000      -6.062320      -164.9641
 124   2.0000      -6.062282      -164.9631
 125   2.0000      -6.060981      -164.9277
 126   2.0000      -6.060861      -164.9244
 127   2.0000      -6.059862      -164.8972
 128   2.0000      -6.058490      -164.8599
 129   2.0000      -6.056231      -164.7984
 130   2.0000      -6.054127      -164.7412
 131   2.0000      -2.741458       -74.5989
 132   2.0000      -2.741431       -74.5981
 133   2.0000      -2.740699       -74.5782
 134   2.0000      -2.739322       -74.5408
 135   2.0000      -2.737685       -74.4962
 136   2.0000      -2.737638       -74.4949
 137   2.0000      -2.737068       -74.4794
 138   2.0000      -2.737026       -74.4783
 139   2.0000      -2.736991       -74.4773
 140   2.0000      -2.736333       -74.4594
 141   2.0000      -2.735575       -74.4388
 142   2.0000      -2.734971       -74.4223
 143   2.0000      -2.725909       -74.1758
 144   2.0000      -2.725904       -74.1756
 145   2.0000      -2.725899       -74.1755
 146   2.0000      -2.725879       -74.1749
 147   2.0000      -2.725136       -74.1547
 148   2.0000      -2.725105       -74.1539
 149   2.0000      -2.723738       -74.1167
 150   2.0000      -2.723721       -74.1162
 151   2.0000      -1.355796       -36.8931
 152   2.0000      -1.338072       -36.4108
 153   2.0000      -1.154397       -31.4127
 154   2.0000      -1.153907       -31.3994
 155   2.0000      -1.145347       -31.1665
 156   2.0000      -1.058909       -28.8144
 157   2.0000      -1.055617       -28.7248
 158   2.0000      -1.035376       -28.1740
 159   2.0000      -1.032809       -28.1042
 160   2.0000      -1.031240       -28.0615
 161   2.0000      -1.029158       -28.0048
 162   2.0000      -1.019606       -27.7449
 163   2.0000      -1.017384       -27.6844
 164   2.0000      -1.016965       -27.6730
 165   2.0000      -1.016535       -27.6613
 166   2.0000      -1.015842       -27.6425
 167   2.0000      -1.013760       -27.5858
 168   2.0000      -1.006931       -27.4000
 169   2.0000      -1.004100       -27.3230
 170   2.0000      -1.003196       -27.2984
 171   2.0000      -0.997862       -27.1532
 172   2.0000      -0.985923       -26.8283
 173   2.0000      -0.984765       -26.7968
 174   2.0000      -0.970887       -26.4192
 175   2.0000      -0.967098       -26.3161
 176   2.0000      -0.936366       -25.4798
 177   2.0000      -0.932601       -25.3774
 178   2.0000      -0.928482       -25.2653
 179   2.0000      -0.926695       -25.2167
 180   2.0000      -0.919793       -25.0288
 181   2.0000      -0.918326       -24.9889
 182   2.0000      -0.914144       -24.8751
 183   2.0000      -0.905949       -24.6521
 184   2.0000      -0.896370       -24.3915
 185   2.0000      -0.891813       -24.2675
 186   2.0000      -0.883903       -24.0522
 187   2.0000      -0.882132       -24.0040
 188   2.0000      -0.871369       -23.7111
 189   2.0000      -0.868495       -23.6329
 190   2.0000      -0.866475       -23.5780
 191   2.0000      -0.862334       -23.4653
 192   2.0000      -0.860256       -23.4087
 193   2.0000      -0.859282       -23.3823
 194   2.0000      -0.834175       -22.6991
 195   2.0000      -0.812064       -22.0974
 196   2.0000      -0.802379       -21.8338
 197   2.0000      -0.789757       -21.4904
 198   2.0000      -0.787189       -21.4205
 199   2.0000      -0.781106       -21.2550
 200   2.0000      -0.778082       -21.1727
 201   2.0000      -0.770943       -20.9784
 202   2.0000      -0.769179       -20.9304
 203   2.0000      -0.747216       -20.3328
 204   2.0000      -0.746599       -20.3160
 205   2.0000      -0.733122       -19.9493
 206   2.0000      -0.722602       -19.6630
 207   2.0000      -0.714561       -19.4442
 208   2.0000      -0.713890       -19.4259
 209   2.0000      -0.706520       -19.2254
 210   2.0000      -0.703629       -19.1467
 211   2.0000      -0.699754       -19.0413
 212   2.0000      -0.698314       -19.0021
 213   2.0000      -0.693320       -18.8662
 214   2.0000      -0.691438       -18.8150
 215   2.0000      -0.681451       -18.5432
 216   2.0000      -0.679275       -18.4840
 217   2.0000      -0.668462       -18.1898
 218   2.0000      -0.666786       -18.1442
 219   2.0000      -0.661530       -18.0012
 220   2.0000      -0.654285       -17.8040
 221   2.0000      -0.645101       -17.5541
 222   2.0000      -0.641009       -17.4427
 223   2.0000      -0.633595       -17.2410
 224   2.0000      -0.633282       -17.2325
 225   2.0000      -0.631674       -17.1887
 226   2.0000      -0.628449       -17.1010
 227   2.0000      -0.625878       -17.0310
 228   2.0000      -0.622889       -16.9497
 229   2.0000      -0.620543       -16.8858
 230   2.0000      -0.616928       -16.7875
 231   2.0000      -0.602425       -16.3928
 232   2.0000      -0.598314       -16.2810
 233   2.0000      -0.592905       -16.1338
 234   2.0000      -0.581413       -15.8210
 235   2.0000      -0.580387       -15.7931
 236   2.0000      -0.579419       -15.7668
 237   2.0000      -0.577099       -15.7037
 238   2.0000      -0.575285       -15.6543
 239   2.0000      -0.573146       -15.5961
 240   2.0000      -0.561887       -15.2897
 241   2.0000      -0.560472       -15.2512
 242   2.0000      -0.559462       -15.2237
 243   2.0000      -0.559177       -15.2160
 244   2.0000      -0.554713       -15.0945
 245   2.0000      -0.553800       -15.0697
 246   2.0000      -0.552713       -15.0401
 247   2.0000      -0.549658       -14.9569
 248   2.0000      -0.546718       -14.8770
 249   2.0000      -0.543542       -14.7905
 250   2.0000      -0.540403       -14.7051
 251   2.0000      -0.535047       -14.5594
 252   2.0000      -0.533331       -14.5127
 253   2.0000      -0.528337       -14.3768
 254   2.0000      -0.522356       -14.2140
 255   2.0000      -0.520587       -14.1659
 256   2.0000      -0.518806       -14.1174
 257   2.0000      -0.513749       -13.9798
 258   2.0000      -0.513620       -13.9763
 259   2.0000      -0.512396       -13.9430
 260   2.0000      -0.510717       -13.8973
 261   2.0000      -0.509628       -13.8677
 262   2.0000      -0.506896       -13.7934
 263   2.0000      -0.506394       -13.7797
 264   2.0000      -0.504814       -13.7367
 265   2.0000      -0.503465       -13.7000
 266   2.0000      -0.501008       -13.6331
 267   2.0000      -0.497628       -13.5412
 268   2.0000      -0.496542       -13.5116
 269   2.0000      -0.494715       -13.4619
 270   2.0000      -0.492378       -13.3983
 271   2.0000      -0.486374       -13.2349
 272   2.0000      -0.484613       -13.1870
 273   2.0000      -0.470902       -12.8139
 274   2.0000      -0.470676       -12.8077
 275   2.0000      -0.470005       -12.7895
 276   2.0000      -0.469208       -12.7678
 277   2.0000      -0.469145       -12.7661
 278   2.0000      -0.467115       -12.7108
 279   2.0000      -0.466050       -12.6819
 280   2.0000      -0.465192       -12.6585
 281   2.0000      -0.462798       -12.5934
 282   2.0000      -0.460808       -12.5392
 283   2.0000      -0.459514       -12.5040
 284   2.0000      -0.458670       -12.4810
 285   2.0000      -0.458032       -12.4637
 286   2.0000      -0.453378       -12.3370
 287   2.0000      -0.452832       -12.3222
 288   2.0000      -0.451632       -12.2895
 289   2.0000      -0.449364       -12.2278
 290   2.0000      -0.448699       -12.2097
 291   2.0000      -0.447742       -12.1837
 292   2.0000      -0.446588       -12.1523
 293   2.0000      -0.445757       -12.1297
 294   2.0000      -0.443863       -12.0781
 295   2.0000      -0.441078       -12.0023
 296   2.0000      -0.440819       -11.9953
 297   2.0000      -0.438399       -11.9294
 298   2.0000      -0.436991       -11.8911
 299   2.0000      -0.436319       -11.8728
 300   2.0000      -0.435220       -11.8429
 301   2.0000      -0.434483       -11.8229
 302   2.0000      -0.428641       -11.6639
 303   2.0000      -0.427446       -11.6314
 304   2.0000      -0.425649       -11.5825
 305   2.0000      -0.423893       -11.5347
 306   2.0000      -0.417329       -11.3561
 307   2.0000      -0.416991       -11.3469
 308   2.0000      -0.408534       -11.1168
 309   2.0000      -0.407322       -11.0838
 310   2.0000      -0.405774       -11.0417
 311   2.0000      -0.404791       -11.0149
 312   2.0000      -0.395908       -10.7732
 313   2.0000      -0.395125       -10.7519
 314   2.0000      -0.390836       -10.6352
 315   2.0000      -0.389252       -10.5921
 316   2.0000      -0.382974       -10.4213
 317   2.0000      -0.368567       -10.0292
 318   2.0000      -0.360271        -9.8035
 319   2.0000      -0.359415        -9.7802
 320   2.0000      -0.357121        -9.7178
 321   2.0000      -0.355714        -9.6795
 322   2.0000      -0.355220        -9.6660
 323   2.0000      -0.352126        -9.5818
 324   2.0000      -0.350401        -9.5349
 325   2.0000      -0.348251        -9.4764
 326   2.0000      -0.343434        -9.3453
 327   2.0000      -0.338844        -9.2204
 328   2.0000      -0.333696        -9.0803
 329   2.0000      -0.330791        -9.0013
 330   2.0000      -0.321559        -8.7501
 331   2.0000      -0.318904        -8.6778
 332   2.0000      -0.315904        -8.5962
 333   2.0000      -0.286424        -7.7940
 334   2.0000      -0.262894        -7.1537
 335   0.0000      -0.128341        -3.4923
 336   0.0000      -0.117561        -3.1990
 337   0.0000      -0.098914        -2.6916
 338   0.0000      -0.096752        -2.6328
 339   0.0000      -0.090561        -2.4643

MULLIKEN ATOMIC CHARGES
-----------------------
   0 C :    0.167911
   1 O :   -0.183106
   2 C :   -0.014588
   3 C :    0.032952
   4 C :   -0.007593
   5 C :   -0.026732
   6 C :   -0.015217
   7 C :   -0.019503
   8 Br:    0.016704
   9 Br:    0.025891
  10 C :    0.319790
  11 C :   -0.341153
  12 C :   -0.186977
  13 N :    0.161765
  14 C :   -0.192442
  15 N :    0.158771
  16 C :   -0.094369
  17 C :   -0.025266
  18 C :   -0.055116
  19 C :   -0.057020
  20 C :    0.048098
  21 C :   -0.073146
  22 S :    0.246126
  23 C :   -0.094909
  24 C :    0.038189
  25 C :    0.306843
  26 C :   -0.297014
  27 C :   -0.186300
  28 N :    0.177429
  29 C :   -0.195654
  30 N :    0.186048
  31 C :   -0.058388
  32 C :   -0.133637
  33 S :    0.217065
  34 C :    0.111195
  35 C :    0.123278
  36 F :   -0.171260
  37 C :    0.123510
  38 F :   -0.171168
  39 C :    0.113786
  40 C :    0.001176
  41 C :    0.006024
  42 N :   -0.287771
  43 S :    0.569406
  44 N :   -0.287018
  45 C :   -0.137076
  46 C :   -0.053869
  47 C :    0.034571
  48 C :   -0.089410
  49 S :    0.217184
  50 C :   -0.084567
  51 C :    0.024270
  52 C :    0.307608
  53 C :   -0.293034
  54 C :   -0.191873
  55 N :    0.182265
  56 C :   -0.184082
  57 N :    0.174838
  58 C :    0.009736
  59 C :   -0.095956
  60 S :    0.210140
  61 C :    0.047940
  62 C :   -0.138451
  63 C :    0.142724
  64 O :   -0.130996
  65 C :    0.003188
  66 C :    0.021986
  67 C :    0.242626
  68 C :   -0.320595
  69 C :   -0.208791
  70 N :    0.177774
  71 C :   -0.174942
  72 N :    0.166568
  73 C :   -0.014239
  74 C :   -0.020298
  75 C :   -0.015211
  76 C :   -0.025082
  77 Br:    0.018343
  78 Br:    0.023555
  79 H :    0.008891
  80 H :    0.005864
  81 H :    0.017834
  82 H :    0.029162
  83 H :    0.027035
  84 H :    0.026562
  85 H :    0.019931
  86 H :    0.038039
  87 H :    0.012555
  88 H :    0.010673
Sum of atomic charges:   -0.0000000

LOEWDIN ATOMIC CHARGES
----------------------
   0 C :    0.085750
   1 O :   -0.168502
   2 C :   -0.042892
   3 C :   -0.010307
   4 C :   -0.005844
   5 C :   -0.118065
   6 C :   -0.123125
   7 C :    0.006582
   8 Br:    0.139596
   9 Br:    0.144555
  10 C :    0.074192
  11 C :   -0.132108
  12 C :   -0.019743
  13 N :   -0.042306
  14 C :   -0.023190
  15 N :   -0.040253
  16 C :   -0.113627
  17 C :    0.059019
  18 C :   -0.183881
  19 C :    0.014894
  20 C :   -0.075054
  21 C :   -0.164643
  22 S :    0.549229
  23 C :   -0.188070
  24 C :   -0.057598
  25 C :    0.076529
  26 C :   -0.097609
  27 C :   -0.016860
  28 N :   -0.028291
  29 C :   -0.020127
  30 N :   -0.022832
  31 C :   -0.015525
  32 C :   -0.159714
  33 S :    0.499472
  34 C :   -0.064448
  35 C :    0.062917
  36 F :   -0.045828
  37 C :    0.062234
  38 F :   -0.046362
  39 C :   -0.063728
  40 C :   -0.038287
  41 C :   -0.038042
  42 N :   -0.270723
  43 S :    0.684769
  44 N :   -0.270769
  45 C :   -0.160982
  46 C :   -0.013434
  47 C :   -0.057823
  48 C :   -0.187627
  49 S :    0.499966
  50 C :   -0.150354
  51 C :   -0.069252
  52 C :    0.078809
  53 C :   -0.094037
  54 C :   -0.017714
  55 N :   -0.025242
  56 C :   -0.016365
  57 N :   -0.026395
  58 C :    0.017159
  59 C :   -0.179358
  60 S :    0.510665
  61 C :    0.054689
  62 C :   -0.103585
  63 C :    0.083732
  64 O :   -0.132219
  65 C :   -0.043610
  66 C :   -0.009879
  67 C :    0.059110
  68 C :   -0.137960
  69 C :   -0.036553
  70 N :   -0.042610
  71 C :   -0.022656
  72 N :   -0.040579
  73 C :   -0.009417
  74 C :   -0.117916
  75 C :   -0.122991
  76 C :    0.007962
  77 Br:    0.140650
  78 Br:    0.143867
  79 H :    0.045199
  80 H :    0.046009
  81 H :    0.054292
  82 H :    0.048750
  83 H :    0.039352
  84 H :    0.039521
  85 H :    0.048070
  86 H :    0.056735
  87 H :    0.044941
  88 H :    0.047698

  Mayer bond orders larger than 0.100000
B(  0-C ,  1-O ) :   2.1199 B(  0-C ,  2-C ) :   0.9639 B(  0-C , 16-C ) :   0.9862
B(  2-C ,  3-C ) :   1.3279 B(  2-C ,  7-C ) :   1.3706 B(  3-C ,  4-C ) :   1.3697
B(  3-C , 10-C ) :   0.9885 B(  4-C ,  5-C ) :   1.3671 B(  4-C , 79-H ) :   0.9791
B(  5-C ,  6-C ) :   1.4224 B(  5-C ,  9-Br) :   1.0600 B(  6-C ,  7-C ) :   1.3501
B(  6-C ,  8-Br) :   1.0338 B(  7-C , 80-H ) :   1.0087 B( 10-C , 11-C ) :   1.6392
B( 10-C , 16-C ) :   1.0806 B( 11-C , 12-C ) :   1.1426 B( 11-C , 14-C ) :   1.1421
B( 12-C , 13-N ) :   2.9696 B( 14-C , 15-N ) :   2.9642 B( 16-C , 17-C ) :   1.4852
B( 17-C , 18-C ) :   1.2750 B( 17-C , 81-H ) :   0.9402 B( 18-C , 19-C ) :   1.3220
B( 18-C , 22-S ) :   1.0690 B( 19-C , 20-C ) :   1.3366 B( 19-C , 82-H ) :   1.0084
B( 20-C , 21-C ) :   1.3538 B( 20-C , 25-C ) :   0.9817 B( 21-C , 22-S ) :   1.1314
B( 21-C , 23-C ) :   1.2049 B( 23-C , 24-C ) :   1.4149 B( 23-C , 33-S ) :   1.1089
B( 24-C , 25-C ) :   1.0000 B( 24-C , 31-C ) :   1.2643 B( 25-C , 26-C ) :   1.7176
B( 26-C , 27-C ) :   1.1377 B( 26-C , 29-C ) :   1.1341 B( 27-C , 28-N ) :   2.9854
B( 29-C , 30-N ) :   2.9952 B( 31-C , 32-C ) :   1.4603 B( 31-C , 83-H ) :   0.9794
B( 32-C , 33-S ) :   1.1016 B( 32-C , 34-C ) :   1.1477 B( 34-C , 35-C ) :   1.3715
B( 34-C , 39-C ) :   0.1277 B( 34-C , 41-C ) :   1.1735 B( 35-C , 36-F ) :   1.1363
B( 35-C , 37-C ) :   1.1831 B( 37-C , 38-F ) :   1.1370 B( 37-C , 39-C ) :   1.3705
B( 39-C , 40-C ) :   1.1740 B( 39-C , 45-C ) :   1.1474 B( 40-C , 41-C ) :   1.1410
B( 40-C , 44-N ) :   1.5384 B( 41-C , 42-N ) :   1.5367 B( 42-N , 43-S ) :   1.2674
B( 42-N , 44-N ) :   0.1401 B( 43-S , 44-N ) :   1.2669 B( 45-C , 46-C ) :   1.4575
B( 45-C , 49-S ) :   1.1034 B( 46-C , 47-C ) :   1.2693 B( 46-C , 84-H ) :   0.9798
B( 47-C , 48-C ) :   1.4164 B( 47-C , 52-C ) :   0.9996 B( 48-C , 49-S ) :   1.1082
B( 48-C , 50-C ) :   1.2094 B( 50-C , 51-C ) :   1.3989 B( 50-C , 60-S ) :   1.1587
B( 51-C , 52-C ) :   0.9874 B( 51-C , 58-C ) :   1.3109 B( 52-C , 53-C ) :   1.7188
B( 53-C , 54-C ) :   1.1326 B( 53-C , 56-C ) :   1.1382 B( 54-C , 55-N ) :   2.9941
B( 56-C , 57-N ) :   2.9832 B( 58-C , 59-C ) :   1.3902 B( 58-C , 85-H ) :   1.0011
B( 59-C , 60-S ) :   1.0849 B( 59-C , 61-C ) :   1.1492 B( 61-C , 62-C ) :   1.6320
B( 61-C , 86-H ) :   0.9455 B( 62-C , 63-C ) :   0.9430 B( 62-C , 67-C ) :   1.0401
B( 63-C , 64-O ) :   2.2784 B( 63-C , 65-C ) :   0.9211 B( 65-C , 66-C ) :   1.3297
B( 65-C , 76-C ) :   1.3729 B( 66-C , 67-C ) :   1.0067 B( 66-C , 73-C ) :   1.3676
B( 67-C , 68-C ) :   1.6607 B( 68-C , 69-C ) :   1.1553 B( 68-C , 71-C ) :   1.1304
B( 69-C , 70-N ) :   3.0209 B( 71-C , 72-N ) :   2.9945 B( 73-C , 74-C ) :   1.3659
B( 73-C , 87-H ) :   0.9849 B( 74-C , 75-C ) :   1.4213 B( 74-C , 78-Br) :   1.0526
B( 75-C , 76-C ) :   1.3535 B( 75-C , 77-Br) :   1.0370 B( 76-C , 88-H ) :   1.0092

-----------------------------------------------------------------------------
         ABSORPTION SPECTRUM VIA TRANSITION ELECTRIC DIPOLE MOMENTS
-----------------------------------------------------------------------------
State   Energy  Wavelength   fosc         T2         TX        TY        TZ
        (cm-1)    (nm)                  (au**2)     (au)      (au)      (au)
-----------------------------------------------------------------------------
   0   13489.3    741.3   0.951237870  23.21534  -3.34867  -3.23747   1.23312
   1   15035.3    665.1   0.165249634   3.61830  -0.86678  -1.63563  -0.43783
   2   18988.4    526.6   1.213689250  21.04234  -3.23173  -3.05869   1.11474
   3   21079.9    474.4   0.453432201   7.08140   0.15107  -2.18154  -1.51639
   4   22139.3    451.7   0.002587265   0.03847   0.00908  -0.17297  -0.09205
   5   23044.9    433.9   0.143799956   2.05428   0.92354   0.92117   0.59396
   6   24376.2    410.2   0.006767184   0.09139   0.19175  -0.04887   0.22856
   7   25723.5    388.7   0.103683574   1.32695  -0.35573  -0.59515  -0.91989
   8   26785.9    373.3   0.031099654   0.38223   0.58830   0.18942   0.01597
   9   27633.6    361.9   0.208220779   2.48063  -0.76920  -1.00798   0.93431
  10   28241.6    354.1   0.062239874   0.72553   0.35790   0.18836  -0.74964
  11   28722.2    348.2   0.156105389   1.78927  -0.29031  -0.13368   1.29889
  12   29121.6    343.4   0.013167654   0.14886  -0.02909  -0.13566   0.36001
  13   29189.7    342.6   0.075630938   0.85299  -0.15025   0.35977   0.83725
  14   29472.7    339.3   0.056913152   0.63572  -0.58781  -0.34511   0.41365
  15   29850.0    335.0   0.220400394   2.43077  -0.17283   0.33609   1.51259
  16   30003.8    333.3   0.150237983   1.64846  -0.26282   0.51495   1.14639
  17   30522.9    327.6   0.131691986   1.42040   0.48696  -0.87060  -0.65217
  18   30732.3    325.4   0.043979106   0.47111   0.02551  -0.11563  -0.67609
  19   31163.3    320.9   0.277659817   2.93322   0.04373  -0.92036  -1.44369
  20   31991.2    312.6   0.281853193   2.90047  -1.04041  -1.18314   0.64668
  21   32523.6    307.5   0.044981969   0.45532  -0.34981  -0.49958   0.28873
  22   32543.0    307.3   0.067138989   0.67919   0.10046   0.26968  -0.77225
  23   32819.8    304.7   0.179667522   1.80223  -0.56927  -1.13835  -0.42700
  24   32962.0    303.4   0.119158371   1.19011   0.77387   0.31269  -0.70247
  25   33432.2    299.1   0.112983071   1.11256  -0.05723   0.09340  -1.04908
  26   33619.9    297.4   0.200515103   1.96348  -0.67636  -1.20329   0.24107
  27   33878.3    295.2   0.071301708   0.69287  -0.16457   0.16975  -0.79811
  28   34071.9    293.5   0.002840550   0.02745   0.04753  -0.03825   0.15403
  29   34294.0    291.6   0.554698584   5.32493  -0.25267   0.98478   2.07155
  30   34461.9    290.2   0.016954784   0.16197   0.04128  -0.00417  -0.40031
  31   34743.3    287.8   0.408902392   3.87457   0.59444   0.74434  -1.72255
  32   34921.1    286.4   0.198118106   1.86772   0.35798  -0.08856  -1.31595
  33   34969.0    286.0   0.120394679   1.13344  -0.74089  -0.64249   0.41440
  34   35085.6    285.0   0.441743459   4.14493   0.32108   1.08716   1.69113
  35   35530.8    281.4   0.028032798   0.25974  -0.20982  -0.13599   0.44410
  36   35603.4    280.9   0.252772962   2.33730   0.82749   0.70215  -1.07682
  37   35774.8    279.5   0.172568624   1.58804   0.06791   0.94300  -0.83318
  38   35989.5    277.9   0.289517520   2.64834  -0.53813  -0.86051   1.27212
  39   36227.0    276.0   0.052786270   0.47969  -0.20723   0.59625  -0.28501
  40   36720.6    272.3   0.004343702   0.03894  -0.13194  -0.14672   0.00290
  41   36784.0    271.9   0.014812739   0.13257  -0.18921  -0.05053   0.30695
  42   36957.7    270.6   0.053505645   0.47662   0.35065   0.57946  -0.13373
  43   37061.0    269.8   0.003185271   0.02829   0.09014   0.03561   0.13748
  44   37199.0    268.8   0.012847580   0.11370   0.10712   0.22223   0.22987
  45   37358.1    267.7   0.002279710   0.02009  -0.02699  -0.01421   0.13842
  46   37418.1    267.3   0.011036806   0.09710   0.23319   0.17107   0.11602
  47   37660.7    265.5   0.061439328   0.53707  -0.32711  -0.62720   0.19154
  48   37978.6    263.3   0.042532980   0.36869  -0.19728  -0.45831  -0.34601
  49   38147.8    262.1   0.057450942   0.49580  -0.61883  -0.33579   0.00922
  50   38570.9    259.3   0.006560084   0.05599  -0.02477   0.04171   0.23160
  51   38934.7    256.8   0.146203385   1.23622   0.48298   0.91506   0.40695
  52   39124.1    255.6   0.103832790   0.87371  -0.03174   0.70471   0.61325
  53   39320.6    254.3   0.088746649   0.74303  -0.27730   0.62214   0.52828
  54   39480.9    253.3   0.008737485   0.07286   0.04899  -0.14287   0.22371
  55   39598.9    252.5   0.009617847   0.07996   0.27693  -0.02155  -0.05299
  56   39705.3    251.9   0.113558474   0.94156   0.36226   0.88761  -0.14994
  57   39937.1    250.4   0.110039588   0.90709  -0.13748   0.14221   0.93165
  58   40012.5    249.9   0.001501911   0.01236  -0.01156  -0.05189  -0.09763
  59   40075.7    249.5   0.001927983   0.01584  -0.04597   0.10689   0.04795
  60   40294.0    248.2   0.053690733   0.43867   0.00821   0.44037   0.49464

FINAL SINGLE POINT ENERGY    -15319.825798095642

DIPOLE MOMENT
-------------
                                X             Y             Z
Electronic contribution:    -19.94197      79.65019     201.99373
Nuclear contribution   :     19.85650     -80.62349    -198.58431
                        -----------------------------------------
Total Dipole Moment    :     -0.08547      -0.97330       3.40942
                        -----------------------------------------
Magnitude (a.u.)       :      3.54665
Magnitude (Debye)      :      9.01487

Rotational constants in cm-1:     0.000720     0.000123     0.000107
Rotational constants in MHz :    21.577188     3.690521     3.196384

                             ****ORCA TERMINATED NORMALLY****
TOTAL RUN TIME: 0 days 0 hours 11 minutes 37 seconds 514 msec
