                         Program Version 4.2.0 -  RELEASE  -
|  1> # ORCA input file
|  2> # SCF done       -172.426900738648          0.000169248253
|  3> ! CAM-B3LYP def2-SVP def2/J RIJCOSX Grid4 TightSCF
|  4> %maxcore 5000
|  5> %tddft
|  6>     Mode sTDDFT
|  7>     Ethresh 5.0
|  8>     maxcore 5000
|  9> end
| 10>
| 11> %pal
| 12>   nprocs 6
| 13>   end
| 14> * xyz 0 1
| 15>    C       -7.13962       -11.93762         8.36654
| 16>    S       -6.37895       -13.42109         7.91416
| 17>    C       -5.03654       -12.62200         7.13528
| 18>    C       -5.20138       -11.25058         7.23994
| 19>    C       -6.39890       -10.88282         7.94088
| 20>    S       -6.51867        -9.15078         8.01926
| 21>    C       -4.99399        -9.08673         7.12908
| 22>    N       -4.45664       -10.19570         6.81013
| 23>    C       -4.00345       -13.37494         6.52217
| 24>    C       -2.94456       -12.79376         5.90670
| 25>    C       -1.88928       -13.47584         5.25246
| 26>    S       -0.59775       -12.55520         4.53953
| 27>    C        0.20586       -13.98261         3.94687
| 28>    C       -0.50295       -15.11863         4.32050
| 29>    C       -1.68228       -14.83631         5.03862
| 30>    O       -2.57984       -15.74587         5.51108
| 31>    C       -2.47209       -17.05548         5.00112
| 32>    C       -1.06843       -17.61385         5.15573
| 33>    S        0.04846       -16.75888         3.99665
| 34>    C        1.38763       -13.80460         3.18886
| 35>    C        2.04307       -14.75977         2.48222
| 36>    C        3.19637       -14.52589         1.69349
| 37>    S        3.79916       -15.80098         0.66630
| 38>    C        5.04415       -14.77865         0.00436
| 39>    C        4.99004       -13.52031         0.58992
| 40>    C        3.96611       -13.37489         1.54186
| 41>    O        3.69920       -12.25126         2.26548
| 42>    C        4.71542       -11.27352         2.28696
| 43>    C        5.15588       -10.86461         0.89094
| 44>    S        6.09006       -12.22889         0.12510
| 45>    C        5.91976       -15.17941        -1.02649
| 46>    C        5.94052       -16.41114        -1.59670
| 47>    C        6.72751       -16.71607        -2.74339
| 48>    C        6.84825       -17.96989        -3.28505
| 49>    O        7.40722       -18.19067        -4.53562
| 50>    C        7.91803       -17.09164        -5.15301
| 51>    C        7.87530       -15.80170        -4.54690
| 52>    C        8.45410       -14.84325        -5.31064
| 53>    S        9.06144       -15.50026        -6.78661
| 54>    C        8.52660       -17.08522        -6.36430
| 55>    O        7.28865       -15.59255        -3.33866
| 56>    C        6.42940       -19.20436        -2.69066
| 57>    C        6.38727       -19.48917        -1.37207
| 58>    C        6.02683       -20.76666        -0.81129
| 59>    C        6.42138       -21.06709         0.47306
| 60>    C        6.14799       -22.33177         1.03434
| 61>    C        6.46588       -22.89115         2.26279
| 62>    C        7.21965       -22.28939         3.40406
| 63>    C        8.63094       -21.83556         2.98863
| 64>    N        9.53302       -21.93931         4.12369
| 65>    C        6.41692       -21.14018         4.03730
| 66>    N        5.21166       -21.67729         4.64750
| 67>    C        5.92376       -24.22946         2.26377
| 68>    C        5.96018       -25.19930         3.19616
| 69>    C        5.32687       -26.52419         2.97179
| 70>    C        4.64335       -26.67284         1.64581
| 71>    C        4.62851       -25.69879         0.71905
| 72>    C        5.25541       -24.45506         0.97609
| 73>    C        5.40150       -23.30136         0.23640
| 74>    C        4.97432       -22.95112        -1.06668
| 75>    C        5.28339       -21.73220        -1.57074
| 76>    C        6.31116       -27.66550         3.12807
| 77>    C        7.62154       -27.54497         3.04035
| 78>    H       -8.06420       -11.95010         8.90523
| 79>    H       -4.57195        -8.13122         6.88684
| 80>    H       -4.09529       -14.44894         6.56148
| 81>    H       -2.88336       -11.71392         5.89582
| 82>    H       -2.76469       -17.07697         3.94194
| 83>    H       -3.18851       -17.64302         5.58180
| 84>    H       -0.70306       -17.46481         6.17242
| 85>    H       -1.03057       -18.66900         4.89516
| 86>    H        1.75641       -12.79055         3.15664
| 87>    H        1.66816       -15.77289         2.45793
| 88>    H        5.58186       -11.63937         2.85554
| 89>    H        4.27448       -10.42358         2.81468
| 90>    H        4.29243       -10.63672         0.26499
| 91>    H        5.82837       -10.01062         0.92504
| 92>    H        6.59912       -14.41604        -1.38195
| 93>    H        5.28730       -17.18611        -1.22590
| 94>    H        8.55759       -13.80071        -5.09515
| 95>    H        8.69021       -17.90978        -7.02571
| 96>    H        6.25971       -19.98764        -3.41678
| 97>    H        6.71860       -18.74300        -0.66200
| 98>    H        6.97321       -20.33310         1.04197
| 99>    H        7.34972       -23.05273         4.17562
|100>    H        8.58539       -20.82066         2.56138
|101>    H        9.00718       -22.50740         2.21171
|102>    H        9.23666       -21.31684         4.86804
|103>    H       10.47400       -21.67371         3.85455
|104>    H        6.21050       -20.37570         3.27038
|105>    H        7.00497       -20.67338         4.83368
|106>    H        4.65077       -22.13927         3.93789
|107>    H        4.65423       -20.92921         5.04560
|108>    H        6.45096       -25.05802         4.14931
|109>    H        4.56954       -26.65810         3.76221
|110>    H        4.17202       -27.62677         1.46182
|111>    H        4.13369       -25.85006        -0.22987
|112>    H        4.40504       -23.66369        -1.64617
|113>    H        4.94684       -21.45656        -2.55803
|114>    H        5.85541       -28.63537         3.27738
|115>    H        8.10047       -26.59472         2.87416
|116>    H        8.26972       -28.40030         3.13046
|117> *
|118>
|119>                          ****END OF INPUT****

CARTESIAN COORDINATES (ANGSTROEM)
---------------------------------
  C     -7.139620  -11.937620    8.366540
  S     -6.378950  -13.421090    7.914160
  C     -5.036540  -12.622000    7.135280
  C     -5.201380  -11.250580    7.239940
  C     -6.398900  -10.882820    7.940880
  S     -6.518670   -9.150780    8.019260
  C     -4.993990   -9.086730    7.129080
  N     -4.456640  -10.195700    6.810130
  C     -4.003450  -13.374940    6.522170
  C     -2.944560  -12.793760    5.906700
  C     -1.889280  -13.475840    5.252460
  S     -0.597750  -12.555200    4.539530
  C      0.205860  -13.982610    3.946870
  C     -0.502950  -15.118630    4.320500
  C     -1.682280  -14.836310    5.038620
  O     -2.579840  -15.745870    5.511080
  C     -2.472090  -17.055480    5.001120
  C     -1.068430  -17.613850    5.155730
  S      0.048460  -16.758880    3.996650
  C      1.387630  -13.804600    3.188860
  C      2.043070  -14.759770    2.482220
  C      3.196370  -14.525890    1.693490
  S      3.799160  -15.800980    0.666300
  C      5.044150  -14.778650    0.004360
  C      4.990040  -13.520310    0.589920
  C      3.966110  -13.374890    1.541860
  O      3.699200  -12.251260    2.265480
  C      4.715420  -11.273520    2.286960
  C      5.155880  -10.864610    0.890940
  S      6.090060  -12.228890    0.125100
  C      5.919760  -15.179410   -1.026490
  C      5.940520  -16.411140   -1.596700
  C      6.727510  -16.716070   -2.743390
  C      6.848250  -17.969890   -3.285050
  O      7.407220  -18.190670   -4.535620
  C      7.918030  -17.091640   -5.153010
  C      7.875300  -15.801700   -4.546900
  C      8.454100  -14.843250   -5.310640
  S      9.061440  -15.500260   -6.786610
  C      8.526600  -17.085220   -6.364300
  O      7.288650  -15.592550   -3.338660
  C      6.429400  -19.204360   -2.690660
  C      6.387270  -19.489170   -1.372070
  C      6.026830  -20.766660   -0.811290
  C      6.421380  -21.067090    0.473060
  C      6.147990  -22.331770    1.034340
  C      6.465880  -22.891150    2.262790
  C      7.219650  -22.289390    3.404060
  C      8.630940  -21.835560    2.988630
  N      9.533020  -21.939310    4.123690
  C      6.416920  -21.140180    4.037300
  N      5.211660  -21.677290    4.647500
  C      5.923760  -24.229460    2.263770
  C      5.960180  -25.199300    3.196160
  C      5.326870  -26.524190    2.971790
  C      4.643350  -26.672840    1.645810
  C      4.628510  -25.698790    0.719050
  C      5.255410  -24.455060    0.976090
  C      5.401500  -23.301360    0.236400
  C      4.974320  -22.951120   -1.066680
  C      5.283390  -21.732200   -1.570740
  C      6.311160  -27.665500    3.128070
  C      7.621540  -27.544970    3.040350
  H     -8.064200  -11.950100    8.905230
  H     -4.571950   -8.131220    6.886840
  H     -4.095290  -14.448940    6.561480
  H     -2.883360  -11.713920    5.895820
  H     -2.764690  -17.076970    3.941940
  H     -3.188510  -17.643020    5.581800
  H     -0.703060  -17.464810    6.172420
  H     -1.030570  -18.669000    4.895160
  H      1.756410  -12.790550    3.156640
  H      1.668160  -15.772890    2.457930
  H      5.581860  -11.639370    2.855540
  H      4.274480  -10.423580    2.814680
  H      4.292430  -10.636720    0.264990
  H      5.828370  -10.010620    0.925040
  H      6.599120  -14.416040   -1.381950
  H      5.287300  -17.186110   -1.225900
  H      8.557590  -13.800710   -5.095150
  H      8.690210  -17.909780   -7.025710
  H      6.259710  -19.987640   -3.416780
  H      6.718600  -18.743000   -0.662000
  H      6.973210  -20.333100    1.041970
  H      7.349720  -23.052730    4.175620
  H      8.585390  -20.820660    2.561380
  H      9.007180  -22.507400    2.211710
  H      9.236660  -21.316840    4.868040
  H     10.474000  -21.673710    3.854550
  H      6.210500  -20.375700    3.270380
  H      7.004970  -20.673380    4.833680
  H      4.650770  -22.139270    3.937890
  H      4.654230  -20.929210    5.045600
  H      6.450960  -25.058020    4.149310
  H      4.569540  -26.658100    3.762210
  H      4.172020  -27.626770    1.461820
  H      4.133690  -25.850060   -0.229870
  H      4.405040  -23.663690   -1.646170
  H      4.946840  -21.456560   -2.558030
  H      5.855410  -28.635370    3.277380
  H      8.100470  -26.594720    2.874160
  H      8.269720  -28.400300    3.130460

 Total Charge           Charge          ....    0
 Multiplicity           Mult            ....    1
 Number of Electrons    NEL             ....  498
 Basis Dimension        Dim             .... 1105

ORBITAL ENERGIES
----------------

  NO   OCC          E(Eh)            E(eV)
   0   2.0000     -88.950527     -2420.4669
   1   2.0000     -88.947394     -2420.3817
   2   2.0000     -88.946261     -2420.3508
   3   2.0000     -88.943099     -2420.2648
   4   2.0000     -88.940035     -2420.1814
   5   2.0000     -88.928829     -2419.8765
   6   2.0000     -88.927223     -2419.8327
   7   2.0000     -19.260104      -524.0941
   8   2.0000     -19.259538      -524.0787
   9   2.0000     -19.250680      -523.8376
  10   2.0000     -19.249573      -523.8075
  11   2.0000     -14.406876      -392.0310
  12   2.0000     -14.370322      -391.0364
  13   2.0000     -14.367515      -390.9600
  14   2.0000     -10.333501      -281.1889
  15   2.0000     -10.333095      -281.1778
  16   2.0000     -10.331098      -281.1235
  17   2.0000     -10.329846      -281.0894
  18   2.0000     -10.328554      -281.0542
  19   2.0000     -10.328444      -281.0512
  20   2.0000     -10.328190      -281.0443
  21   2.0000     -10.328097      -281.0418
  22   2.0000     -10.327834      -281.0347
  23   2.0000     -10.303949      -280.3847
  24   2.0000     -10.303304      -280.3671
  25   2.0000     -10.294500      -280.1276
  26   2.0000     -10.293124      -280.0901
  27   2.0000     -10.292949      -280.0854
  28   2.0000     -10.292201      -280.0650
  29   2.0000     -10.292158      -280.0638
  30   2.0000     -10.292014      -280.0599
  31   2.0000     -10.290608      -280.0217
  32   2.0000     -10.290243      -280.0117
  33   2.0000     -10.288917      -279.9757
  34   2.0000     -10.287741      -279.9437
  35   2.0000     -10.286144      -279.9002
  36   2.0000     -10.283486      -279.8279
  37   2.0000     -10.282620      -279.8043
  38   2.0000     -10.282063      -279.7892
  39   2.0000     -10.275250      -279.6038
  40   2.0000     -10.274381      -279.5801
  41   2.0000     -10.272971      -279.5418
  42   2.0000     -10.271132      -279.4917
  43   2.0000     -10.270118      -279.4641
  44   2.0000     -10.269967      -279.4600
  45   2.0000     -10.269331      -279.4427
  46   2.0000     -10.269228      -279.4399
  47   2.0000     -10.268524      -279.4207
  48   2.0000     -10.264577      -279.3133
  49   2.0000     -10.264475      -279.3106
  50   2.0000     -10.263659      -279.2884
  51   2.0000     -10.263544      -279.2852
  52   2.0000     -10.263368      -279.2804
  53   2.0000     -10.262000      -279.2432
  54   2.0000     -10.260662      -279.2068
  55   2.0000     -10.260354      -279.1984
  56   2.0000     -10.258184      -279.1394
  57   2.0000     -10.258156      -279.1386
  58   2.0000     -10.255974      -279.0792
  59   2.0000     -10.254125      -279.0289
  60   2.0000     -10.253249      -279.0051
  61   2.0000     -10.253023      -278.9989
  62   2.0000     -10.250290      -278.9246
  63   2.0000      -8.045814      -218.9377
  64   2.0000      -8.043903      -218.8857
  65   2.0000      -8.041938      -218.8323
  66   2.0000      -8.038505      -218.7389
  67   2.0000      -8.035766      -218.6643
  68   2.0000      -8.023820      -218.3392
  69   2.0000      -8.022787      -218.3111
  70   2.0000      -6.015155      -163.6807
  71   2.0000      -6.013438      -163.6340
  72   2.0000      -6.011449      -163.5799
  73   2.0000      -6.010911      -163.5652
  74   2.0000      -6.009512      -163.5271
  75   2.0000      -6.008046      -163.4873
  76   2.0000      -6.007801      -163.4806
  77   2.0000      -6.007338      -163.4680
  78   2.0000      -6.005089      -163.4068
  79   2.0000      -6.004996      -163.4043
  80   2.0000      -6.004104      -163.3800
  81   2.0000      -6.003627      -163.3670
  82   2.0000      -6.001287      -163.3033
  83   2.0000      -6.000186      -163.2734
  84   2.0000      -5.997532      -163.2012
  85   2.0000      -5.994251      -163.1119
  86   2.0000      -5.993183      -163.0828
  87   2.0000      -5.990246      -163.0029
  88   2.0000      -5.989331      -162.9780
  89   2.0000      -5.983465      -162.8183
  90   2.0000      -5.982234      -162.7849
  91   2.0000      -1.185592       -32.2616
  92   2.0000      -1.157434       -31.4954
  93   2.0000      -1.156646       -31.4739
  94   2.0000      -1.148626       -31.2557
  95   2.0000      -1.057069       -28.7643
  96   2.0000      -0.978500       -26.6263
  97   2.0000      -0.975285       -26.5389
  98   2.0000      -0.974700       -26.5229
  99   2.0000      -0.973492       -26.4901
 100   2.0000      -0.962258       -26.1844
 101   2.0000      -0.956722       -26.0337
 102   2.0000      -0.942287       -25.6409
 103   2.0000      -0.937044       -25.4983
 104   2.0000      -0.918312       -24.9885
 105   2.0000      -0.915006       -24.8986
 106   2.0000      -0.913846       -24.8670
 107   2.0000      -0.900825       -24.5127
 108   2.0000      -0.893433       -24.3115
 109   2.0000      -0.883499       -24.0412
 110   2.0000      -0.873688       -23.7743
 111   2.0000      -0.865671       -23.5561
 112   2.0000      -0.861345       -23.4384
 113   2.0000      -0.850205       -23.1352
 114   2.0000      -0.849043       -23.1036
 115   2.0000      -0.843560       -22.9544
 116   2.0000      -0.832585       -22.6558
 117   2.0000      -0.828099       -22.5337
 118   2.0000      -0.822643       -22.3853
 119   2.0000      -0.814787       -22.1715
 120   2.0000      -0.813028       -22.1236
 121   2.0000      -0.809473       -22.0269
 122   2.0000      -0.798448       -21.7269
 123   2.0000      -0.788336       -21.4517
 124   2.0000      -0.776384       -21.1265
 125   2.0000      -0.763446       -20.7744
 126   2.0000      -0.756287       -20.5796
 127   2.0000      -0.755182       -20.5496
 128   2.0000      -0.748859       -20.3775
 129   2.0000      -0.741890       -20.1878
 130   2.0000      -0.733245       -19.9526
 131   2.0000      -0.719507       -19.5788
 132   2.0000      -0.713610       -19.4183
 133   2.0000      -0.712907       -19.3992
 134   2.0000      -0.700845       -19.0710
 135   2.0000      -0.687675       -18.7126
 136   2.0000      -0.681792       -18.5525
 137   2.0000      -0.672834       -18.3087
 138   2.0000      -0.671500       -18.2725
 139   2.0000      -0.665421       -18.1070
 140   2.0000      -0.661612       -18.0034
 141   2.0000      -0.654592       -17.8124
 142   2.0000      -0.649327       -17.6691
 143   2.0000      -0.648968       -17.6593
 144   2.0000      -0.641390       -17.4531
 145   2.0000      -0.635049       -17.2806
 146   2.0000      -0.630158       -17.1475
 147   2.0000      -0.629219       -17.1219
 148   2.0000      -0.621731       -16.9182
 149   2.0000      -0.608090       -16.5470
 150   2.0000      -0.604800       -16.4575
 151   2.0000      -0.600023       -16.3275
 152   2.0000      -0.586513       -15.9598
 153   2.0000      -0.584222       -15.8975
 154   2.0000      -0.583184       -15.8693
 155   2.0000      -0.574516       -15.6334
 156   2.0000      -0.567208       -15.4345
 157   2.0000      -0.566289       -15.4095
 158   2.0000      -0.564026       -15.3479
 159   2.0000      -0.561381       -15.2760
 160   2.0000      -0.558566       -15.1994
 161   2.0000      -0.555143       -15.1062
 162   2.0000      -0.554717       -15.0946
 163   2.0000      -0.553174       -15.0526
 164   2.0000      -0.549998       -14.9662
 165   2.0000      -0.545142       -14.8341
 166   2.0000      -0.543612       -14.7924
 167   2.0000      -0.540729       -14.7140
 168   2.0000      -0.537068       -14.6144
 169   2.0000      -0.532432       -14.4882
 170   2.0000      -0.528068       -14.3695
 171   2.0000      -0.518971       -14.1219
 172   2.0000      -0.516345       -14.0505
 173   2.0000      -0.514022       -13.9873
 174   2.0000      -0.511628       -13.9221
 175   2.0000      -0.509396       -13.8614
 176   2.0000      -0.509087       -13.8530
 177   2.0000      -0.508136       -13.8271
 178   2.0000      -0.505683       -13.7603
 179   2.0000      -0.502871       -13.6838
 180   2.0000      -0.500871       -13.6294
 181   2.0000      -0.500105       -13.6085
 182   2.0000      -0.495673       -13.4879
 183   2.0000      -0.492128       -13.3915
 184   2.0000      -0.490258       -13.3406
 185   2.0000      -0.488502       -13.2928
 186   2.0000      -0.486682       -13.2433
 187   2.0000      -0.486114       -13.2278
 188   2.0000      -0.483680       -13.1616
 189   2.0000      -0.481559       -13.1039
 190   2.0000      -0.480755       -13.0820
 191   2.0000      -0.479315       -13.0428
 192   2.0000      -0.470054       -12.7908
 193   2.0000      -0.468497       -12.7485
 194   2.0000      -0.466901       -12.7050
 195   2.0000      -0.464585       -12.6420
 196   2.0000      -0.456993       -12.4354
 197   2.0000      -0.455773       -12.4022
 198   2.0000      -0.454241       -12.3605
 199   2.0000      -0.453308       -12.3351
 200   2.0000      -0.448248       -12.1975
 201   2.0000      -0.444146       -12.0858
 202   2.0000      -0.440812       -11.9951
 203   2.0000      -0.439279       -11.9534
 204   2.0000      -0.433693       -11.8014
 205   2.0000      -0.431580       -11.7439
 206   2.0000      -0.430601       -11.7172
 207   2.0000      -0.426460       -11.6046
 208   2.0000      -0.426235       -11.5984
 209   2.0000      -0.420997       -11.4559
 210   2.0000      -0.418238       -11.3808
 211   2.0000      -0.417065       -11.3489
 212   2.0000      -0.413889       -11.2625
 213   2.0000      -0.412226       -11.2172
 214   2.0000      -0.408626       -11.1193
 215   2.0000      -0.406521       -11.0620
 216   2.0000      -0.405515       -11.0346
 217   2.0000      -0.404118       -10.9966
 218   2.0000      -0.403224       -10.9723
 219   2.0000      -0.399234       -10.8637
 220   2.0000      -0.398447       -10.8423
 221   2.0000      -0.394838       -10.7441
 222   2.0000      -0.386133       -10.5072
 223   2.0000      -0.382425       -10.4063
 224   2.0000      -0.380632       -10.3575
 225   2.0000      -0.379336       -10.3223
 226   2.0000      -0.372993       -10.1497
 227   2.0000      -0.369811       -10.0631
 228   2.0000      -0.363482        -9.8909
 229   2.0000      -0.359956        -9.7949
 230   2.0000      -0.353635        -9.6229
 231   2.0000      -0.340140        -9.2557
 232   2.0000      -0.336946        -9.1688
 233   2.0000      -0.336101        -9.1458
 234   2.0000      -0.332966        -9.0605
 235   2.0000      -0.322236        -8.7685
 236   2.0000      -0.313140        -8.5210
 237   2.0000      -0.299731        -8.1561
 238   2.0000      -0.297765        -8.1026
 239   2.0000      -0.297155        -8.0860
 240   2.0000      -0.290806        -7.9132
 241   2.0000      -0.287611        -7.8263
 242   2.0000      -0.279822        -7.6143
 243   2.0000      -0.269951        -7.3457
 244   2.0000      -0.267456        -7.2779
 245   2.0000      -0.258294        -7.0285
 246   2.0000      -0.232893        -6.3373
 247   2.0000      -0.215337        -5.8596
 248   2.0000      -0.201126        -5.4729
 249   0.0000      -0.064216        -1.7474
 250   0.0000      -0.048660        -1.3241
 251   0.0000      -0.024095        -0.6557
 252   0.0000       0.002982         0.0812
 253   0.0000       0.027781         0.7560

MULLIKEN ATOMIC CHARGES
-----------------------
   0 C :   -0.195903
   1 S :    0.122933
   2 C :   -0.146382
   3 C :    0.052686
   4 C :    0.034262
   5 S :    0.068631
   6 C :    0.011800
   7 N :   -0.046860
   8 C :    0.010816
   9 C :    0.043515
  10 C :   -0.138982
  11 S :    0.131517
  12 C :   -0.142977
  13 C :   -0.050789
  14 C :    0.175434
  15 O :   -0.313308
  16 C :    0.226841
  17 C :   -0.085312
  18 S :   -0.004344
  19 C :    0.036011
  20 C :    0.025692
  21 C :   -0.143484
  22 S :    0.116173
  23 C :   -0.111037
  24 C :   -0.039906
  25 C :    0.182339
  26 O :   -0.313688
  27 C :    0.227558
  28 C :   -0.100600
  29 S :    0.006128
  30 C :    0.001042
  31 C :   -0.087493
  32 C :    0.152845
  33 C :    0.153216
  34 O :   -0.251796
  35 C :    0.218514
  36 C :    0.222561
  37 C :   -0.179056
  38 S :    0.099328
  39 C :   -0.178195
  40 O :   -0.262896
  41 C :   -0.005865
  42 C :   -0.021556
  43 C :    0.111916
  44 C :   -0.101747
  45 C :    0.057493
  46 C :   -0.087977
  47 C :   -0.029923
  48 C :    0.136892
  49 N :   -0.213754
  50 C :    0.155519
  51 N :   -0.228127
  52 C :    0.103194
  53 C :   -0.161746
  54 C :    0.162061
  55 C :   -0.034471
  56 C :    0.017041
  57 C :    0.017426
  58 C :    0.024024
  59 C :   -0.001663
  60 C :   -0.011124
  61 C :   -0.080900
  62 C :   -0.002185
  63 H :    0.021326
  64 H :    0.038293
  65 H :   -0.020141
  66 H :   -0.012648
  67 H :    0.032184
  68 H :    0.028349
  69 H :    0.071475
  70 H :    0.057569
  71 H :   -0.007699
  72 H :   -0.017127
  73 H :    0.030765
  74 H :    0.030301
  75 H :    0.073449
  76 H :    0.058937
  77 H :    0.007799
  78 H :    0.010910
  79 H :    0.021887
  80 H :    0.021843
  81 H :    0.005780
  82 H :   -0.001911
  83 H :   -0.045344
  84 H :   -0.019482
  85 H :   -0.017862
  86 H :    0.002621
  87 H :    0.084201
  88 H :    0.089092
  89 H :   -0.018435
  90 H :   -0.020875
  91 H :    0.095337
  92 H :    0.088797
  93 H :    0.006936
  94 H :    0.038231
  95 H :   -0.016303
  96 H :   -0.040176
  97 H :   -0.038774
  98 H :   -0.028499
  99 H :    0.004231
 100 H :    0.031791
 101 H :    0.021808
Sum of atomic charges:   -0.0000000

LOEWDIN ATOMIC CHARGES
----------------------
   0 C :   -0.224380
   1 S :    0.445811
   2 C :   -0.170762
   3 C :   -0.077668
   4 C :   -0.205694
   5 S :    0.351624
   6 C :   -0.098079
   7 N :   -0.082753
   8 C :   -0.055490
   9 C :   -0.028035
  10 C :   -0.201989
  11 S :    0.439347
  12 C :   -0.186248
  13 C :   -0.223015
  14 C :    0.001209
  15 O :   -0.094239
  16 C :    0.069346
  17 C :   -0.143730
  18 S :    0.302563
  19 C :   -0.050116
  20 C :   -0.051944
  21 C :   -0.191408
  22 S :    0.428234
  23 C :   -0.193970
  24 C :   -0.215731
  25 C :   -0.003329
  26 O :   -0.095212
  27 C :    0.069975
  28 C :   -0.142642
  29 S :    0.291282
  30 C :   -0.041579
  31 C :   -0.048784
  32 C :    0.023180
  33 C :    0.020550
  34 O :   -0.059208
  35 C :   -0.008316
  36 C :   -0.006626
  37 C :   -0.214486
  38 S :    0.426018
  39 C :   -0.213861
  40 O :   -0.058987
  41 C :   -0.039637
  42 C :   -0.005333
  43 C :   -0.028825
  44 C :   -0.016667
  45 C :   -0.022734
  46 C :   -0.043175
  47 C :   -0.039649
  48 C :    0.027910
  49 N :   -0.119791
  50 C :    0.027805
  51 N :   -0.123150
  52 C :   -0.022084
  53 C :    0.071322
  54 C :   -0.034531
  55 C :   -0.026118
  56 C :   -0.021726
  57 C :   -0.035077
  58 C :   -0.032802
  59 C :   -0.007352
  60 C :   -0.029354
  61 C :   -0.009240
  62 C :   -0.048554
  63 H :    0.023297
  64 H :    0.017875
  65 H :    0.023983
  66 H :    0.029552
  67 H :    0.019357
  68 H :    0.028652
  69 H :    0.031144
  70 H :    0.035150
  71 H :    0.026854
  72 H :    0.012801
  73 H :    0.019139
  74 H :    0.029644
  75 H :    0.031015
  76 H :    0.035411
  77 H :    0.029886
  78 H :    0.029549
  79 H :    0.027585
  80 H :    0.027665
  81 H :    0.034122
  82 H :    0.030919
  83 H :    0.019125
  84 H :    0.027124
  85 H :   -0.002337
  86 H :    0.020782
  87 H :    0.047785
  88 H :    0.053965
  89 H :   -0.000762
  90 H :    0.008986
  91 H :    0.051609
  92 H :    0.053423
  93 H :    0.034565
  94 H :    0.060756
  95 H :    0.022732
  96 H :    0.028217
  97 H :    0.026500
  98 H :    0.024378
  99 H :    0.025216
 100 H :    0.025801
 101 H :    0.026439

  Mayer bond orders larger than 0.100000
B(  0-C ,  1-S ) :   1.1471 B(  0-C ,  4-C ) :   1.5430 B(  0-C , 63-H ) :   0.9798
B(  1-S ,  2-C ) :   1.1462 B(  2-C ,  3-C ) :   1.4320 B(  2-C ,  8-C ) :   1.1327
B(  3-C ,  4-C ) :   1.2327 B(  3-C ,  7-N ) :   1.2777 B(  4-C ,  5-S ) :   1.0253
B(  5-S ,  6-C ) :   1.0766 B(  5-S ,  7-N ) :   0.1077 B(  6-C ,  7-N ) :   1.7900
B(  6-C , 64-H ) :   0.9633 B(  8-C ,  9-C ) :   1.6774 B(  8-C , 65-H ) :   0.9585
B(  9-C , 10-C ) :   1.1405 B(  9-C , 66-H ) :   0.9409 B( 10-C , 11-S ) :   1.1053
B( 10-C , 12-C ) :   0.1084 B( 10-C , 14-C ) :   1.4721 B( 11-S , 12-C ) :   1.1236
B( 12-C , 13-C ) :   1.4972 B( 12-C , 19-C ) :   1.1548 B( 13-C , 14-C ) :   1.2577
B( 13-C , 18-S ) :   0.9905 B( 14-C , 15-O ) :   1.1234 B( 15-O , 16-C ) :   0.9643
B( 16-C , 17-C ) :   1.0397 B( 16-C , 67-H ) :   0.9515 B( 16-C , 68-H ) :   0.9516
B( 17-C , 18-S ) :   1.0057 B( 17-C , 69-H ) :   0.9433 B( 17-C , 70-H ) :   0.9489
B( 19-C , 20-C ) :   1.6525 B( 19-C , 71-H ) :   0.9468 B( 20-C , 21-C ) :   1.1719
B( 20-C , 72-H ) :   0.9364 B( 21-C , 22-S ) :   1.1010 B( 21-C , 23-C ) :   0.1083
B( 21-C , 25-C ) :   1.4756 B( 22-S , 23-C ) :   1.0986 B( 23-C , 24-C ) :   1.5056
B( 23-C , 30-C ) :   1.1622 B( 24-C , 25-C ) :   1.2572 B( 24-C , 29-S ) :   0.9904
B( 25-C , 26-O ) :   1.1178 B( 26-O , 27-C ) :   0.9625 B( 27-C , 28-C ) :   1.0391
B( 27-C , 73-H ) :   0.9511 B( 27-C , 74-H ) :   0.9520 B( 28-C , 29-S ) :   1.0100
B( 28-C , 75-H ) :   0.9432 B( 28-C , 76-H ) :   0.9487 B( 30-C , 31-C ) :   1.6366
B( 30-C , 77-H ) :   0.9672 B( 31-C , 32-C ) :   1.1780 B( 31-C , 78-H ) :   0.9608
B( 32-C , 33-C ) :   1.5001 B( 32-C , 40-O ) :   1.0517 B( 33-C , 34-O ) :   1.0426
B( 33-C , 41-C ) :   1.1120 B( 34-O , 35-C ) :   1.0652 B( 35-C , 36-C ) :   1.1975
B( 35-C , 39-C ) :   1.5744 B( 36-C , 37-C ) :   1.5736 B( 36-C , 40-O ) :   1.0597
B( 37-C , 38-S ) :   1.1359 B( 37-C , 79-H ) :   0.9719 B( 38-S , 39-C ) :   1.1380
B( 39-C , 80-H ) :   0.9712 B( 41-C , 42-C ) :   1.6803 B( 41-C , 81-H ) :   0.9452
B( 42-C , 43-C ) :   1.0813 B( 42-C , 82-H ) :   0.9815 B( 43-C , 44-C ) :   1.5130
B( 43-C , 60-C ) :   1.1212 B( 44-C , 45-C ) :   1.1178 B( 44-C , 83-H ) :   0.9960
B( 45-C , 46-C ) :   1.4642 B( 45-C , 58-C ) :   1.1217 B( 46-C , 47-C ) :   1.0408
B( 46-C , 52-C ) :   1.1171 B( 47-C , 48-C ) :   1.0366 B( 47-C , 50-C ) :   1.0383
B( 47-C , 84-H ) :   0.8742 B( 48-C , 49-N ) :   1.0985 B( 48-C , 85-H ) :   0.9278
B( 48-C , 86-H ) :   0.9456 B( 49-N , 87-H ) :   0.9708 B( 49-N , 88-H ) :   0.9676
B( 50-C , 51-N ) :   1.0846 B( 50-C , 89-H ) :   0.9339 B( 50-C , 90-H ) :   0.9335
B( 51-N , 91-H ) :   0.9714 B( 51-N , 92-H ) :   0.9665 B( 52-C , 53-C ) :   1.6362
B( 52-C , 57-C ) :   1.0569 B( 53-C , 54-C ) :   0.9689 B( 53-C , 93-H ) :   0.9756
B( 54-C , 55-C ) :   0.9891 B( 54-C , 61-C ) :   0.9581 B( 54-C , 94-H ) :   0.8554
B( 55-C , 56-C ) :   1.7425 B( 55-C , 95-H ) :   0.9657 B( 56-C , 57-C ) :   1.1263
B( 56-C , 96-H ) :   0.9867 B( 57-C , 58-C ) :   1.4418 B( 58-C , 59-C ) :   1.1387
B( 59-C , 60-C ) :   1.6149 B( 59-C , 97-H ) :   0.9898 B( 60-C , 98-H ) :   0.9807
B( 61-C , 62-C ) :   2.0411 B( 61-C , 99-H ) :   0.9647 B( 62-C ,100-H ) :   0.9386
B( 62-C ,101-H ) :   0.9557

-----------------------------------------------------------------------------
         ABSORPTION SPECTRUM VIA TRANSITION ELECTRIC DIPOLE MOMENTS
-----------------------------------------------------------------------------
State   Energy  Wavelength   fosc         T2         TX        TY        TZ
        (cm-1)    (nm)                  (au**2)     (au)      (au)      (au)
-----------------------------------------------------------------------------
   0   14881.8    672.0   0.080675079   1.78468   1.20872  -0.42785   0.37498
   1   17329.4    577.1   1.332796706  25.31957  -3.08917   3.21134   2.33750
   2   20106.2    497.4   0.554072152   9.07217  -2.22548   0.61183   1.93522
   3   22938.1    436.0   0.780566642  11.20285   2.40149   1.31032  -1.92840
   4   24344.1    410.8   0.016314303   0.22062  -0.22166   0.40479  -0.08739
   5   25720.6    388.8   0.013496890   0.17275  -0.19882  -0.18992  -0.31170
   6   27592.7    362.4   0.177129682   2.11335   0.27490  -1.06810   0.94707
   7   28394.1    352.2   0.075756431   0.87835   0.25061   0.89240  -0.13841
   8   29104.5    343.6   0.053545442   0.60567  -0.03370   0.74116   0.23499
   9   29758.4    336.0   0.094440503   1.04478  -0.15056  -0.57592   0.83092
  10   29962.4    333.8   0.206177514   2.26537  -0.14569  -1.49684  -0.06014
  11   31051.6    322.0   0.032940003   0.34923  -0.04704  -0.51834  -0.27990
  12   31370.1    318.8   0.384353668   4.03359  -0.33801  -1.78308   0.86021
  13   31416.7    318.3   0.140019607   1.46725  -0.22555   0.94203  -0.72730
  14   32412.8    308.5   0.019479772   0.19785  -0.26330  -0.35659   0.03705
  15   33011.3    302.9   0.140812045   1.40428  -0.41732  -0.15352   1.09843
  16   34340.7    291.2   0.313036831   3.00097  -0.23866  -1.13997   1.28238
  17   34542.4    289.5   0.139712648   1.33155   0.59661   0.20466  -0.96629
  18   34691.9    288.3   0.043315377   0.41105  -0.12806   0.24837  -0.57702
  19   35283.8    283.4   0.033962610   0.31689  -0.21698  -0.03494  -0.51825
  20   35699.4    280.1   0.101227754   0.93350  -0.25001  -0.91222   0.19710
  21   36073.9    277.2   0.063218005   0.57693   0.07193   0.57081  -0.49592
  22   36212.9    276.1   0.067676283   0.61525  -0.27327  -0.71295   0.17964
  23   36572.3    273.4   0.046762332   0.42094   0.08966   0.34505  -0.54207
  24   36790.8    271.8   0.072240730   0.64643  -0.41404  -0.07604   0.68499
  25   37832.3    264.3   0.076098743   0.66220   0.20186   0.67406  -0.40878
  26   38052.4    262.8   0.038724674   0.33503  -0.18077   0.04951   0.54763
  27   38365.1    260.7   0.004596390   0.03944  -0.15174   0.11106   0.06389
  28   38860.3    257.3   0.134828537   1.14222   0.01209  -0.93778   0.51250
  29   39076.5    255.9   0.024633630   0.20753   0.14099   0.02965   0.43218
  30   39734.3    251.7   0.023587079   0.19543  -0.29218  -0.22578  -0.24307
  31   39754.0    251.5   0.128343075   1.06284  -0.23511   1.00326  -0.03208
  32   40006.3    250.0   0.048405379   0.39833   0.47037   0.03726  -0.41915
  33   40321.4    248.0   0.002382620   0.01945   0.03345  -0.11007   0.07885

FINAL SINGLE POINT ENERGY     -5139.178812113303

DIPOLE MOMENT
-------------
                                X             Y             Z
Electronic contribution:    -49.09331      78.02065     -11.76160
Nuclear contribution   :     48.86837     -78.27940      12.51032
                        -----------------------------------------
Total Dipole Moment    :     -0.22494      -0.25875       0.74872
                        -----------------------------------------
Magnitude (a.u.)       :      0.82349
Magnitude (Debye)      :      2.09314

Rotational constants in cm-1:     0.000988     0.000372     0.000288
Rotational constants in MHz :    29.616693    11.138783     8.648496

                             ****ORCA TERMINATED NORMALLY****
TOTAL RUN TIME: 0 days 0 hours 10 minutes 44 seconds 310 msec
