                         Program Version 4.2.0 -  RELEASE  -
|  1> # ORCA input file
|  2> # SCF done       -120.078908613734          0.000828721404
|  3> ! CAM-B3LYP def2-SVP def2/J RIJCOSX Grid4 TightSCF
|  4> %maxcore 5000
|  5> %tddft
|  6>     Mode sTDDFT
|  7>     Ethresh 5.0
|  8>     maxcore 5000
|  9> end
| 10>
| 11> %pal
| 12>   nprocs 6
| 13>   end
| 14> * xyz 0 1
| 15>    C        1.39395        -3.87100        -0.63603
| 16>    S        1.83302        -2.60266        -1.69370
| 17>    C        3.14266        -2.10293        -0.65221
| 18>    C        3.20213        -2.91116         0.47463
| 19>    C        2.19442        -3.92429         0.47275
| 20>    C        2.03714        -4.87422         1.50188
| 21>    N        1.90114        -5.65221         2.33094
| 22>    C        4.09451        -2.77224         1.55034
| 23>    N        4.78462        -2.69207         2.46282
| 24>    C        3.94332        -0.99957        -1.05304
| 25>    C        5.08587        -0.58612        -0.44780
| 26>    C        5.86224         0.51824        -0.86890
| 27>    C        7.08944         0.94314        -0.38503
| 28>    C        7.48782         2.09989        -1.11272
| 29>    C        6.46279         2.39339        -2.07426
| 30>    O        6.38094         3.29417        -2.90486
| 31>    N        5.51946         1.40473        -1.88100
| 32>    C        8.72208         2.50171        -0.62425
| 33>    O        9.10573         1.64430         0.36683
| 34>    C        8.14023         0.64776         0.56600
| 35>    O        8.28782        -0.21315         1.38247
| 36>    C        9.59613         3.54802        -0.92777
| 37>    S       11.07531         3.61822         0.00106
| 38>    C       11.58277         5.03964        -0.84785
| 39>    C       10.64305         5.43350        -1.80608
| 40>    C        9.50685         4.59406        -1.86601
| 41>    O        8.52450         4.83389        -2.72578
| 42>    O       10.93553         6.53432        -2.53032
| 43>    C       10.03617         7.00262        -3.51744
| 44>    C       12.79173         5.70719        -0.59013
| 45>    S       13.21522         7.14787        -1.47416
| 46>    C       14.72673         7.33705        -0.61176
| 47>    C       14.86403         6.30884         0.30719
| 48>    C       13.78889         5.38633         0.33266
| 49>    C       13.98493         4.35474         1.28854
| 50>    C       15.15305         4.47799         1.96336
| 51>    C       15.69678         3.59481         3.02326
| 52>    S       16.08368         5.88001         1.46012
| 53>    C       15.59002         8.42066        -0.90042
| 54>    C       16.88278         8.66598        -0.20771
| 55>    C       17.44918         9.76177        -0.70605
| 56>    C       16.55389        10.31795        -1.77494
| 57>    O       16.74953        11.30661        -2.44422
| 58>    C       15.40597         9.40057        -1.82369
| 59>    H        0.57170        -4.51724        -0.87312
| 60>    H        3.58766        -0.49051        -1.93989
| 61>    H        5.47715        -1.11482         0.40923
| 62>    H        4.66509         1.36591        -2.41336
| 63>    H        7.74723         4.20458        -2.73150
| 64>    H       10.51357         7.88748        -3.93496
| 65>    H        9.07250         7.27129        -3.08201
| 66>    H        9.88322         6.25879        -4.30092
| 67>    H       13.28472         3.55850         1.46109
| 68>    H       15.87821         4.16035         3.93686
| 69>    H       16.64634         3.16164         2.70901
| 70>    H       14.99580         2.79202         3.23654
| 71>    H       17.25870         8.02791         0.57109
| 72>    H       18.38137        10.21622        -0.43041
| 73>    H       14.57409         9.51508        -2.49178
| 74> *
| 75>
| 76>                          ****END OF INPUT****

CARTESIAN COORDINATES (ANGSTROEM)
---------------------------------
  C      1.393950   -3.871000   -0.636030
  S      1.833020   -2.602660   -1.693700
  C      3.142660   -2.102930   -0.652210
  C      3.202130   -2.911160    0.474630
  C      2.194420   -3.924290    0.472750
  C      2.037140   -4.874220    1.501880
  N      1.901140   -5.652210    2.330940
  C      4.094510   -2.772240    1.550340
  N      4.784620   -2.692070    2.462820
  C      3.943320   -0.999570   -1.053040
  C      5.085870   -0.586120   -0.447800
  C      5.862240    0.518240   -0.868900
  C      7.089440    0.943140   -0.385030
  C      7.487820    2.099890   -1.112720
  C      6.462790    2.393390   -2.074260
  O      6.380940    3.294170   -2.904860
  N      5.519460    1.404730   -1.881000
  C      8.722080    2.501710   -0.624250
  O      9.105730    1.644300    0.366830
  C      8.140230    0.647760    0.566000
  O      8.287820   -0.213150    1.382470
  C      9.596130    3.548020   -0.927770
  S     11.075310    3.618220    0.001060
  C     11.582770    5.039640   -0.847850
  C     10.643050    5.433500   -1.806080
  C      9.506850    4.594060   -1.866010
  O      8.524500    4.833890   -2.725780
  O     10.935530    6.534320   -2.530320
  C     10.036170    7.002620   -3.517440
  C     12.791730    5.707190   -0.590130
  S     13.215220    7.147870   -1.474160
  C     14.726730    7.337050   -0.611760
  C     14.864030    6.308840    0.307190
  C     13.788890    5.386330    0.332660
  C     13.984930    4.354740    1.288540
  C     15.153050    4.477990    1.963360
  C     15.696780    3.594810    3.023260
  S     16.083680    5.880010    1.460120
  C     15.590020    8.420660   -0.900420
  C     16.882780    8.665980   -0.207710
  C     17.449180    9.761770   -0.706050
  C     16.553890   10.317950   -1.774940
  O     16.749530   11.306610   -2.444220
  C     15.405970    9.400570   -1.823690
  H      0.571700   -4.517240   -0.873120
  H      3.587660   -0.490510   -1.939890
  H      5.477150   -1.114820    0.409230
  H      4.665090    1.365910   -2.413360
  H      7.747230    4.204580   -2.731500
  H     10.513570    7.887480   -3.934960
  H      9.072500    7.271290   -3.082010
  H      9.883220    6.258790   -4.300920
  H     13.284720    3.558500    1.461090
  H     15.878210    4.160350    3.936860
  H     16.646340    3.161640    2.709010
  H     14.995800    2.792020    3.236540
  H     17.258700    8.027910    0.571090
  H     18.381370   10.216220   -0.430410
  H     14.574090    9.515080   -2.491780

 Total Charge           Charge          ....    0
 Multiplicity           Mult            ....    1
 Number of Electrons    NEL             ....  334
 Basis Dimension        Dim             ....  707

ORBITAL ENERGIES
----------------

  NO   OCC          E(Eh)            E(eV)
   0   2.0000     -89.000326     -2421.8220
   1   2.0000     -88.973467     -2421.0911
   2   2.0000     -88.967654     -2420.9329
   3   2.0000     -88.959555     -2420.7126
   4   2.0000     -19.293546      -525.0041
   5   2.0000     -19.266474      -524.2674
   6   2.0000     -19.255569      -523.9707
   7   2.0000     -19.222680      -523.0757
   8   2.0000     -19.212398      -522.7959
   9   2.0000     -19.207522      -522.6633
  10   2.0000     -14.476769      -393.9329
  11   2.0000     -14.419365      -392.3709
  12   2.0000     -14.417204      -392.3121
  13   2.0000     -10.420746      -283.5629
  14   2.0000     -10.399930      -282.9965
  15   2.0000     -10.391815      -282.7757
  16   2.0000     -10.376380      -282.3557
  17   2.0000     -10.352259      -281.6993
  18   2.0000     -10.351587      -281.6810
  19   2.0000     -10.350755      -281.6584
  20   2.0000     -10.348982      -281.6101
  21   2.0000     -10.341741      -281.4131
  22   2.0000     -10.340537      -281.3803
  23   2.0000     -10.338803      -281.3331
  24   2.0000     -10.330819      -281.1159
  25   2.0000     -10.326024      -280.9854
  26   2.0000     -10.323001      -280.9031
  27   2.0000     -10.321388      -280.8593
  28   2.0000     -10.319667      -280.8124
  29   2.0000     -10.318445      -280.7792
  30   2.0000     -10.316822      -280.7350
  31   2.0000     -10.316689      -280.7314
  32   2.0000     -10.314461      -280.6708
  33   2.0000     -10.313542      -280.6457
  34   2.0000     -10.312518      -280.6179
  35   2.0000     -10.303013      -280.3592
  36   2.0000     -10.295159      -280.1455
  37   2.0000     -10.294808      -280.1360
  38   2.0000     -10.288921      -279.9758
  39   2.0000     -10.284919      -279.8669
  40   2.0000     -10.284598      -279.8581
  41   2.0000     -10.281772      -279.7813
  42   2.0000     -10.270158      -279.4652
  43   2.0000     -10.261846      -279.2390
  44   2.0000      -8.096316      -220.3120
  45   2.0000      -8.068094      -219.5440
  46   2.0000      -8.061245      -219.3576
  47   2.0000      -8.055376      -219.1979
  48   2.0000      -6.065492      -165.0504
  49   2.0000      -6.061169      -164.9328
  50   2.0000      -6.058709      -164.8659
  51   2.0000      -6.037867      -164.2987
  52   2.0000      -6.033790      -164.1878
  53   2.0000      -6.030813      -164.1068
  54   2.0000      -6.029144      -164.0614
  55   2.0000      -6.026312      -163.9843
  56   2.0000      -6.025160      -163.9529
  57   2.0000      -6.023277      -163.9017
  58   2.0000      -6.020858      -163.8359
  59   2.0000      -6.016574      -163.7193
  60   2.0000      -1.224087       -33.3091
  61   2.0000      -1.175738       -31.9934
  62   2.0000      -1.155564       -31.4445
  63   2.0000      -1.144435       -31.1417
  64   2.0000      -1.131974       -30.8026
  65   2.0000      -1.116630       -30.3850
  66   2.0000      -1.076016       -29.2799
  67   2.0000      -1.037020       -28.2187
  68   2.0000      -1.018719       -27.7208
  69   2.0000      -0.999393       -27.1949
  70   2.0000      -0.996948       -27.1283
  71   2.0000      -0.996894       -27.1269
  72   2.0000      -0.965747       -26.2793
  73   2.0000      -0.949162       -25.8280
  74   2.0000      -0.934244       -25.4221
  75   2.0000      -0.926738       -25.2178
  76   2.0000      -0.901971       -24.5439
  77   2.0000      -0.895959       -24.3803
  78   2.0000      -0.877316       -23.8730
  79   2.0000      -0.871946       -23.7269
  80   2.0000      -0.857902       -23.3447
  81   2.0000      -0.846093       -23.0234
  82   2.0000      -0.831303       -22.6209
  83   2.0000      -0.818074       -22.2609
  84   2.0000      -0.811711       -22.0878
  85   2.0000      -0.795131       -21.6366
  86   2.0000      -0.781414       -21.2633
  87   2.0000      -0.775127       -21.0923
  88   2.0000      -0.771847       -21.0030
  89   2.0000      -0.751418       -20.4471
  90   2.0000      -0.741410       -20.1748
  91   2.0000      -0.722929       -19.6719
  92   2.0000      -0.718742       -19.5580
  93   2.0000      -0.709929       -19.3182
  94   2.0000      -0.702205       -19.1080
  95   2.0000      -0.688326       -18.7303
  96   2.0000      -0.660932       -17.9849
  97   2.0000      -0.658515       -17.9191
  98   2.0000      -0.652820       -17.7641
  99   2.0000      -0.645785       -17.5727
 100   2.0000      -0.632127       -17.2010
 101   2.0000      -0.625740       -17.0272
 102   2.0000      -0.619401       -16.8547
 103   2.0000      -0.606695       -16.5090
 104   2.0000      -0.601264       -16.3612
 105   2.0000      -0.591746       -16.1022
 106   2.0000      -0.590466       -16.0674
 107   2.0000      -0.589737       -16.0476
 108   2.0000      -0.578869       -15.7518
 109   2.0000      -0.576230       -15.6800
 110   2.0000      -0.572645       -15.5825
 111   2.0000      -0.571498       -15.5512
 112   2.0000      -0.559631       -15.2283
 113   2.0000      -0.548198       -14.9172
 114   2.0000      -0.544873       -14.8268
 115   2.0000      -0.539543       -14.6817
 116   2.0000      -0.536133       -14.5889
 117   2.0000      -0.535257       -14.5651
 118   2.0000      -0.528673       -14.3859
 119   2.0000      -0.523427       -14.2432
 120   2.0000      -0.519885       -14.1468
 121   2.0000      -0.518427       -14.1071
 122   2.0000      -0.511178       -13.9099
 123   2.0000      -0.506882       -13.7930
 124   2.0000      -0.505552       -13.7568
 125   2.0000      -0.500941       -13.6313
 126   2.0000      -0.499478       -13.5915
 127   2.0000      -0.496432       -13.5086
 128   2.0000      -0.491620       -13.3777
 129   2.0000      -0.489876       -13.3302
 130   2.0000      -0.488216       -13.2850
 131   2.0000      -0.484568       -13.1858
 132   2.0000      -0.479489       -13.0476
 133   2.0000      -0.473919       -12.8960
 134   2.0000      -0.472793       -12.8653
 135   2.0000      -0.470486       -12.8026
 136   2.0000      -0.465167       -12.6578
 137   2.0000      -0.462051       -12.5730
 138   2.0000      -0.458170       -12.4674
 139   2.0000      -0.451268       -12.2796
 140   2.0000      -0.449913       -12.2428
 141   2.0000      -0.444749       -12.1022
 142   2.0000      -0.444109       -12.0848
 143   2.0000      -0.443161       -12.0590
 144   2.0000      -0.437594       -11.9075
 145   2.0000      -0.424403       -11.5486
 146   2.0000      -0.424250       -11.5444
 147   2.0000      -0.422911       -11.5080
 148   2.0000      -0.421597       -11.4722
 149   2.0000      -0.416926       -11.3451
 150   2.0000      -0.414785       -11.2869
 151   2.0000      -0.403220       -10.9722
 152   2.0000      -0.400760       -10.9052
 153   2.0000      -0.392779       -10.6880
 154   2.0000      -0.378028       -10.2867
 155   2.0000      -0.377454       -10.2710
 156   2.0000      -0.362610        -9.8671
 157   2.0000      -0.362545        -9.8653
 158   2.0000      -0.348053        -9.4710
 159   2.0000      -0.336039        -9.1441
 160   2.0000      -0.325882        -8.8677
 161   2.0000      -0.323016        -8.7897
 162   2.0000      -0.314134        -8.5480
 163   2.0000      -0.307102        -8.3567
 164   2.0000      -0.296710        -8.0739
 165   2.0000      -0.269040        -7.3210
 166   2.0000      -0.238347        -6.4857
 167   0.0000      -0.106569        -2.8999
 168   0.0000      -0.074101        -2.0164
 169   0.0000      -0.047100        -1.2817
 170   0.0000      -0.019618        -0.5338
 171   0.0000      -0.010956        -0.2981

MULLIKEN ATOMIC CHARGES
-----------------------
   0 C :   -0.078178
   1 S :    0.170463
   2 C :   -0.124759
   3 C :    0.008719
   4 C :   -0.056372
   5 C :   -0.195935
   6 N :    0.193552
   7 C :   -0.255399
   8 N :    0.210770
   9 C :    0.031593
  10 C :    0.030567
  11 C :    0.022701
  12 C :   -0.053921
  13 C :   -0.108319
  14 C :    0.163695
  15 O :   -0.266758
  16 N :   -0.108946
  17 C :    0.186396
  18 O :   -0.262267
  19 C :    0.224733
  20 O :   -0.105838
  21 C :   -0.208219
  22 S :    0.171680
  23 C :   -0.103951
  24 C :    0.121725
  25 C :    0.149224
  26 O :   -0.187303
  27 O :   -0.333196
  28 C :    0.198281
  29 C :   -0.079808
  30 S :    0.189068
  31 C :   -0.099601
  32 C :   -0.045229
  33 C :    0.083374
  34 C :   -0.010711
  35 C :   -0.192219
  36 C :    0.116354
  37 S :    0.098620
  38 C :    0.050573
  39 C :    0.047535
  40 C :   -0.033282
  41 C :    0.147995
  42 O :   -0.141752
  43 C :   -0.139207
  44 H :    0.047252
  45 H :   -0.030238
  46 H :    0.025214
  47 H :    0.133341
  48 H :    0.208737
  49 H :    0.034504
  50 H :    0.035098
  51 H :    0.035622
  52 H :   -0.004552
  53 H :    0.039544
  54 H :    0.040600
  55 H :    0.030336
  56 H :   -0.005592
  57 H :   -0.006315
  58 H :   -0.010001
Sum of atomic charges:   -0.0000000

LOEWDIN ATOMIC CHARGES
----------------------
   0 C :   -0.143019
   1 S :    0.485710
   2 C :   -0.133349
   3 C :   -0.088358
   4 C :   -0.080155
   5 C :   -0.032669
   6 N :   -0.027937
   7 C :   -0.036224
   8 N :   -0.024889
   9 C :   -0.056216
  10 C :    0.001239
  11 C :    0.038356
  12 C :   -0.097683
  13 C :   -0.159069
  14 C :    0.078147
  15 O :   -0.212976
  16 N :    0.043405
  17 C :    0.108971
  18 O :   -0.063420
  19 C :    0.109938
  20 O :   -0.114277
  21 C :   -0.253042
  22 S :    0.464283
  23 C :   -0.174350
  24 C :   -0.011609
  25 C :    0.044318
  26 O :   -0.029946
  27 O :   -0.102915
  28 C :    0.086323
  29 C :   -0.183766
  30 S :    0.494290
  31 C :   -0.194902
  32 C :   -0.177465
  33 C :   -0.066782
  34 C :   -0.079473
  35 C :   -0.134845
  36 C :   -0.057738
  37 S :    0.393154
  38 C :   -0.014228
  39 C :    0.005003
  40 C :   -0.038746
  41 C :    0.072895
  42 O :   -0.115324
  43 C :   -0.082723
  44 H :    0.040182
  45 H :    0.023305
  46 H :    0.053725
  47 H :    0.089877
  48 H :    0.065544
  49 H :    0.026357
  50 H :    0.021463
  51 H :    0.021569
  52 H :    0.023350
  53 H :    0.041208
  54 H :    0.041696
  55 H :    0.042512
  56 H :    0.017134
  57 H :    0.030721
  58 H :    0.023420

  Mayer bond orders larger than 0.100000
B(  0-C ,  1-S ) :   1.1729 B(  0-C ,  4-C ) :   1.5549 B(  0-C , 44-H ) :   0.9749
B(  1-S ,  2-C ) :   1.1507 B(  2-C ,  3-C ) :   1.4714 B(  2-C ,  9-C ) :   1.1527
B(  3-C ,  4-C ) :   1.3130 B(  3-C ,  7-C ) :   1.1624 B(  4-C ,  5-C ) :   1.1242
B(  5-C ,  6-N ) :   3.0439 B(  7-C ,  8-N ) :   2.9608 B(  9-C , 10-C ) :   1.6059
B(  9-C , 45-H ) :   0.9449 B( 10-C , 11-C ) :   1.2027 B( 10-C , 46-H ) :   0.9436
B( 11-C , 12-C ) :   1.3666 B( 11-C , 16-N ) :   1.1634 B( 12-C , 13-C ) :   1.2048
B( 12-C , 19-C ) :   0.9636 B( 13-C , 14-C ) :   1.0106 B( 13-C , 17-C ) :   1.3166
B( 14-C , 15-O ) :   1.9189 B( 14-C , 16-N ) :   1.1558 B( 15-O , 48-H ) :   0.1973
B( 16-N , 47-H ) :   0.9171 B( 17-C , 18-O ) :   1.1863 B( 17-C , 21-C ) :   1.2683
B( 18-O , 19-C ) :   0.9740 B( 19-C , 20-O ) :   2.2792 B( 21-C , 22-S ) :   1.0415
B( 21-C , 23-C ) :   0.1178 B( 21-C , 25-C ) :   1.3221 B( 22-S , 23-C ) :   1.1058
B( 23-C , 24-C ) :   1.4410 B( 23-C , 29-C ) :   1.2370 B( 24-C , 25-C ) :   1.2402
B( 24-C , 27-O ) :   1.1565 B( 25-C , 26-O ) :   1.3837 B( 26-O , 48-H ) :   0.8330
B( 27-O , 28-C ) :   0.9158 B( 28-C , 49-H ) :   0.9771 B( 28-C , 50-H ) :   0.9768
B( 28-C , 51-H ) :   0.9768 B( 29-C , 30-S ) :   1.1292 B( 29-C , 31-C ) :   0.1027
B( 29-C , 33-C ) :   1.3623 B( 30-S , 31-C ) :   1.1009 B( 31-C , 32-C ) :   1.4720
B( 31-C , 38-C ) :   1.1475 B( 32-C , 33-C ) :   1.2642 B( 32-C , 37-S ) :   1.0527
B( 33-C , 34-C ) :   1.1434 B( 34-C , 35-C ) :   1.6793 B( 34-C , 52-H ) :   0.9839
B( 35-C , 36-C ) :   1.0698 B( 35-C , 37-S ) :   1.0749 B( 36-C , 53-H ) :   0.9475
B( 36-C , 54-H ) :   0.9476 B( 36-C , 55-H ) :   0.9559 B( 38-C , 39-C ) :   1.0058
B( 38-C , 43-C ) :   1.6244 B( 39-C , 40-C ) :   1.7773 B( 39-C , 56-H ) :   0.9905
B( 40-C , 41-C ) :   0.9697 B( 40-C , 57-H ) :   1.0064 B( 41-C , 42-O ) :   2.1673
B( 41-C , 43-C ) :   0.9760 B( 43-C , 58-H ) :   1.0145

-----------------------------------------------------------------------------
         ABSORPTION SPECTRUM VIA TRANSITION ELECTRIC DIPOLE MOMENTS
-----------------------------------------------------------------------------
State   Energy  Wavelength   fosc         T2         TX        TY        TZ
        (cm-1)    (nm)                  (au**2)     (au)      (au)      (au)
-----------------------------------------------------------------------------
   0   14442.6    692.4   1.710352019  38.98662   4.95123   3.80131   0.14818
   1   20586.8    485.7   0.025732066   0.41149  -0.52673  -0.36612  -0.00085
   2   21939.4    455.8   0.031348260   0.47040   0.09526   0.56528  -0.37653
   3   24067.9    415.5   0.000000448   0.00001  -0.00065   0.00191   0.00143
   4   25256.7    395.9   0.059767503   0.77905  -0.57492   0.28680  -0.60520
   5   26072.8    383.5   0.091187273   1.15139   0.44808  -0.57686   0.78603
   6   28474.9    351.2   0.033820893   0.39102   0.07187  -0.45817   0.41944
   7   29645.6    337.3   0.058782319   0.65277  -0.58169  -0.55738   0.06111
   8   29669.5    337.0   0.072489781   0.80435  -0.45485   0.43143  -0.64135
   9   31844.7    314.0   0.004919660   0.05086  -0.19219  -0.07466  -0.09136
  10   32268.9    309.9   0.033899474   0.34585   0.04001   0.45467  -0.37084
  11   33274.1    300.5   0.069723676   0.68984   0.49674   0.64989  -0.14398
  12   33436.3    299.1   0.226314256   2.22828   0.99443   1.06995  -0.30755
  13   33553.4    298.0   0.155566307   1.52635  -0.49550  -0.99721   0.53517
  14   34911.1    286.4   0.010301706   0.09715  -0.26129  -0.16503  -0.04048
  15   35557.0    281.2   0.000095135   0.00088   0.00000   0.02136  -0.02061
  16   36105.9    277.0   0.004452316   0.04060  -0.10128  -0.16418   0.05816
  17   36951.0    270.6   0.044679002   0.39806  -0.12778  -0.51340   0.34373
  18   36978.8    270.4   0.017846968   0.15889   0.03970   0.33808  -0.20739
  19   37922.1    263.7   0.049926196   0.43342  -0.52570  -0.38945  -0.07342
  20   38431.1    260.2   0.043861200   0.37573  -0.38756  -0.47247  -0.04791
  21   38519.4    259.6   0.000076213   0.00065   0.01728  -0.01393  -0.01260
  22   39277.6    254.6   0.006543746   0.05485   0.02422   0.11621  -0.20188
  23   39670.9    252.1   0.089142225   0.73975  -0.25932   0.30394  -0.76166

FINAL SINGLE POINT ENERGY     -3395.919071834742

DIPOLE MOMENT
-------------
                                X             Y             Z
Electronic contribution:    -18.05760     -15.11890       0.94225
Nuclear contribution   :     16.95298      15.12102      -2.67952
                        -----------------------------------------
Total Dipole Moment    :     -1.10462       0.00212      -1.73728
                        -----------------------------------------
Magnitude (a.u.)       :      2.05872
Magnitude (Debye)      :      5.23285

Rotational constants in cm-1:     0.006183     0.000621     0.000565
Rotational constants in MHz :   185.355022    18.615045    16.951192

                             ****ORCA TERMINATED NORMALLY****
TOTAL RUN TIME: 0 days 0 hours 3 minutes 37 seconds 447 msec
