                         Program Version 4.2.0 -  RELEASE  -
|  1> # ORCA input file
|  2> # SCF done       -140.814571163589          0.000378290186
|  3> ! CAM-B3LYP def2-SVP def2/J RIJCOSX Grid4 TightSCF
|  4> %maxcore 5000
|  5> %tddft
|  6>     Mode sTDDFT
|  7>     Ethresh 5.0
|  8>     maxcore 5000
|  9> end
| 10>
| 11> %pal
| 12>   nprocs 6
| 13>   end
| 14> * xyz 0 1
| 15>    C       -0.76343         2.13563         2.98041
| 16>    C       -0.02189         3.10653         2.45104
| 17>    C        0.98143         3.85412         3.15613
| 18>    C        1.44138         3.79880         4.45751
| 19>    C        2.43496         4.78048         4.58476
| 20>    C        3.25126         5.09548         5.78649
| 21>    C        2.52838         5.38876         3.33662
| 22>    C        3.38879         6.43418         2.91229
| 23>    C        3.44357         6.89049         1.63886
| 24>    C        4.27913         7.93351         1.15870
| 25>    S        3.67349         8.88433        -0.16183
| 26>    C        4.99637        10.00761        -0.10113
| 27>    C        5.03528        11.13290        -0.94947
| 28>    C        4.09666        11.42639        -1.88789
| 29>    C        4.14044        12.59308        -2.68663
| 30>    C        3.25048        13.04778        -3.65221
| 31>    C        3.73203        14.27692        -4.10716
| 32>    C        3.11606        15.17950        -5.11468
| 33>    C        4.90722        14.51356        -3.39084
| 34>    C        5.76431        15.63921        -3.43012
| 35>    C        6.87894        15.77457        -2.67026
| 36>    C        7.69968        16.93428        -2.65974
| 37>    S        9.41237        16.74475        -2.46849
| 38>    C        9.73349        18.43051        -2.73110
| 39>    C       11.05778        18.92992        -2.76283
| 40>    C       12.17071        18.17284        -2.61636
| 41>    C       13.49127        18.70196        -2.67499
| 42>    C       14.71092        18.06380        -2.57431
| 43>    C       15.70454        19.05809        -2.71839
| 44>    C       17.17974        18.86548        -2.68805
| 45>    C       15.01824        20.22874        -2.89502
| 46>    O       13.69316        20.02746        -2.87100
| 47>    C        8.53326        19.13102        -2.90982
| 48>    C        8.35596        20.52394        -3.12392
| 49>    C        9.41891        21.44530        -3.24476
| 50>    N       10.20555        22.27254        -3.36525
| 51>    C        7.08074        21.05207        -3.21364
| 52>    C        5.95730        20.24327        -3.04975
| 53>    C        6.08321        18.87986        -2.85311
| 54>    C        4.88554        18.18441        -2.57614
| 55>    N        3.85729        17.73970        -2.32544
| 56>    C        7.37307        18.28254        -2.84223
| 57>    O        5.14372        13.48797        -2.54093
| 58>    C        5.91167         9.62139         0.88929
| 59>    C        7.13048        10.25889         1.23904
| 60>    C        7.59389        11.45086         0.64064
| 61>    N        8.05536        12.41258         0.21595
| 62>    C        7.94750         9.70266         2.20760
| 63>    C        7.61602         8.49109         2.81024
| 64>    C        6.43413         7.83947         2.50371
| 65>    C        6.27712         6.55852         3.07612
| 66>    N        6.28116         5.51800         3.56132
| 67>    C        5.52032         8.42257         1.58379
| 68>    O        1.64636         4.81740         2.48107
| 69>    H       -1.50001         1.61293         2.39694
| 70>    H       -0.65734         1.83464         4.00783
| 71>    H       -0.14622         3.39266         1.41521
| 72>    H        1.10432         3.12979         5.22267
| 73>    H        3.04002         4.38518         6.58107
| 74>    H        3.03101         6.09958         6.14880
| 75>    H        4.31142         5.04926         5.54068
| 76>    H        4.00051         6.86641         3.68783
| 77>    H        2.73174         6.49615         0.92514
| 78>    H        5.86452        11.81289        -0.82931
| 79>    H        3.25256        10.77025        -2.04767
| 80>    H        2.36067        12.54373        -3.97176
| 81>    H        2.19458        14.74647        -5.49380
| 82>    H        3.79514        15.34713        -5.94992
| 83>    H        2.89229        16.14392        -4.65987
| 84>    H        5.47579        16.41110        -4.12744
| 85>    H        7.21796        14.93202        -2.08237
| 86>    H       11.17723        19.99019        -2.92736
| 87>    H       12.09677        17.10659        -2.45313
| 88>    H       14.86776        17.01579        -2.41844
| 89>    H       17.48991        18.19291        -3.48658
| 90>    H       17.48517        18.42399        -1.74063
| 91>    H       17.68851        19.81745        -2.81326
| 92>    H       15.35845        21.23488        -3.04285
| 93>    H        6.95708        22.11187        -3.37871
| 94>    H        4.97327        20.68772        -3.05708
| 95>    H        8.87024        10.19738         2.47109
| 96>    H        8.30002         8.03968         3.51335
| 97> *
| 98>
| 99>                          ****END OF INPUT****

CARTESIAN COORDINATES (ANGSTROEM)
---------------------------------
  C     -0.763430    2.135630    2.980410
  C     -0.021890    3.106530    2.451040
  C      0.981430    3.854120    3.156130
  C      1.441380    3.798800    4.457510
  C      2.434960    4.780480    4.584760
  C      3.251260    5.095480    5.786490
  C      2.528380    5.388760    3.336620
  C      3.388790    6.434180    2.912290
  C      3.443570    6.890490    1.638860
  C      4.279130    7.933510    1.158700
  S      3.673490    8.884330   -0.161830
  C      4.996370   10.007610   -0.101130
  C      5.035280   11.132900   -0.949470
  C      4.096660   11.426390   -1.887890
  C      4.140440   12.593080   -2.686630
  C      3.250480   13.047780   -3.652210
  C      3.732030   14.276920   -4.107160
  C      3.116060   15.179500   -5.114680
  C      4.907220   14.513560   -3.390840
  C      5.764310   15.639210   -3.430120
  C      6.878940   15.774570   -2.670260
  C      7.699680   16.934280   -2.659740
  S      9.412370   16.744750   -2.468490
  C      9.733490   18.430510   -2.731100
  C     11.057780   18.929920   -2.762830
  C     12.170710   18.172840   -2.616360
  C     13.491270   18.701960   -2.674990
  C     14.710920   18.063800   -2.574310
  C     15.704540   19.058090   -2.718390
  C     17.179740   18.865480   -2.688050
  C     15.018240   20.228740   -2.895020
  O     13.693160   20.027460   -2.871000
  C      8.533260   19.131020   -2.909820
  C      8.355960   20.523940   -3.123920
  C      9.418910   21.445300   -3.244760
  N     10.205550   22.272540   -3.365250
  C      7.080740   21.052070   -3.213640
  C      5.957300   20.243270   -3.049750
  C      6.083210   18.879860   -2.853110
  C      4.885540   18.184410   -2.576140
  N      3.857290   17.739700   -2.325440
  C      7.373070   18.282540   -2.842230
  O      5.143720   13.487970   -2.540930
  C      5.911670    9.621390    0.889290
  C      7.130480   10.258890    1.239040
  C      7.593890   11.450860    0.640640
  N      8.055360   12.412580    0.215950
  C      7.947500    9.702660    2.207600
  C      7.616020    8.491090    2.810240
  C      6.434130    7.839470    2.503710
  C      6.277120    6.558520    3.076120
  N      6.281160    5.518000    3.561320
  C      5.520320    8.422570    1.583790
  O      1.646360    4.817400    2.481070
  H     -1.500010    1.612930    2.396940
  H     -0.657340    1.834640    4.007830
  H     -0.146220    3.392660    1.415210
  H      1.104320    3.129790    5.222670
  H      3.040020    4.385180    6.581070
  H      3.031010    6.099580    6.148800
  H      4.311420    5.049260    5.540680
  H      4.000510    6.866410    3.687830
  H      2.731740    6.496150    0.925140
  H      5.864520   11.812890   -0.829310
  H      3.252560   10.770250   -2.047670
  H      2.360670   12.543730   -3.971760
  H      2.194580   14.746470   -5.493800
  H      3.795140   15.347130   -5.949920
  H      2.892290   16.143920   -4.659870
  H      5.475790   16.411100   -4.127440
  H      7.217960   14.932020   -2.082370
  H     11.177230   19.990190   -2.927360
  H     12.096770   17.106590   -2.453130
  H     14.867760   17.015790   -2.418440
  H     17.489910   18.192910   -3.486580
  H     17.485170   18.423990   -1.740630
  H     17.688510   19.817450   -2.813260
  H     15.358450   21.234880   -3.042850
  H      6.957080   22.111870   -3.378710
  H      4.973270   20.687720   -3.057080
  H      8.870240   10.197380    2.471090
  H      8.300020    8.039680    3.513350

 Total Charge           Charge          ....    0
 Multiplicity           Mult            ....    1
 Number of Electrons    NEL             ....  382
 Basis Dimension        Dim             ....  904

ORBITAL ENERGIES
----------------

  NO   OCC          E(Eh)            E(eV)
   0   2.0000     -88.971559     -2421.0392
   1   2.0000     -88.967391     -2420.9258
   2   2.0000     -19.281993      -524.6897
   3   2.0000     -19.281353      -524.6723
   4   2.0000     -19.275233      -524.5057
   5   2.0000     -14.415945      -392.2778
   6   2.0000     -14.413012      -392.1980
   7   2.0000     -14.408413      -392.0728
   8   2.0000     -14.407142      -392.0383
   9   2.0000     -10.329982      -281.0931
  10   2.0000     -10.329852      -281.0896
  11   2.0000     -10.325990      -280.9845
  12   2.0000     -10.324843      -280.9533
  13   2.0000     -10.324662      -280.9483
  14   2.0000     -10.324159      -280.9347
  15   2.0000     -10.318227      -280.7732
  16   2.0000     -10.317086      -280.7422
  17   2.0000     -10.315963      -280.7116
  18   2.0000     -10.315693      -280.7043
  19   2.0000     -10.314994      -280.6853
  20   2.0000     -10.313710      -280.6503
  21   2.0000     -10.313692      -280.6498
  22   2.0000     -10.310980      -280.5760
  23   2.0000     -10.309703      -280.5413
  24   2.0000     -10.308303      -280.5032
  25   2.0000     -10.308125      -280.4983
  26   2.0000     -10.307409      -280.4789
  27   2.0000     -10.306834      -280.4632
  28   2.0000     -10.306104      -280.4434
  29   2.0000     -10.305744      -280.4336
  30   2.0000     -10.305527      -280.4277
  31   2.0000     -10.301239      -280.3110
  32   2.0000     -10.301024      -280.3051
  33   2.0000     -10.300698      -280.2962
  34   2.0000     -10.300616      -280.2940
  35   2.0000     -10.284378      -279.8521
  36   2.0000     -10.283313      -279.8232
  37   2.0000     -10.281010      -279.7605
  38   2.0000     -10.280528      -279.7474
  39   2.0000     -10.279925      -279.7310
  40   2.0000     -10.279076      -279.7079
  41   2.0000     -10.278411      -279.6898
  42   2.0000     -10.276831      -279.6468
  43   2.0000     -10.274630      -279.5869
  44   2.0000     -10.273364      -279.5525
  45   2.0000     -10.272979      -279.5420
  46   2.0000     -10.267409      -279.3904
  47   2.0000     -10.265889      -279.3490
  48   2.0000     -10.263997      -279.2976
  49   2.0000     -10.263323      -279.2792
  50   2.0000     -10.262565      -279.2586
  51   2.0000     -10.262319      -279.2519
  52   2.0000     -10.261924      -279.2411
  53   2.0000     -10.258368      -279.1444
  54   2.0000      -8.066944      -219.5127
  55   2.0000      -8.062682      -219.3967
  56   2.0000      -6.035834      -164.2434
  57   2.0000      -6.031815      -164.1340
  58   2.0000      -6.031560      -164.1271
  59   2.0000      -6.029762      -164.0782
  60   2.0000      -6.027509      -164.0169
  61   2.0000      -6.025554      -163.9637
  62   2.0000      -1.200421       -32.6651
  63   2.0000      -1.199700       -32.6455
  64   2.0000      -1.194583       -32.5063
  65   2.0000      -1.019627       -27.7455
  66   2.0000      -1.014639       -27.6097
  67   2.0000      -1.001050       -27.2400
  68   2.0000      -0.994794       -27.0697
  69   2.0000      -0.994263       -27.0553
  70   2.0000      -0.988533       -26.8994
  71   2.0000      -0.957013       -26.0416
  72   2.0000      -0.951820       -25.9003
  73   2.0000      -0.925225       -25.1767
  74   2.0000      -0.919102       -25.0100
  75   2.0000      -0.906901       -24.6780
  76   2.0000      -0.905181       -24.6312
  77   2.0000      -0.901691       -24.5363
  78   2.0000      -0.899994       -24.4901
  79   2.0000      -0.895275       -24.3617
  80   2.0000      -0.890944       -24.2438
  81   2.0000      -0.882353       -24.0100
  82   2.0000      -0.873270       -23.7629
  83   2.0000      -0.851722       -23.1765
  84   2.0000      -0.848028       -23.0760
  85   2.0000      -0.846080       -23.0230
  86   2.0000      -0.831761       -22.6334
  87   2.0000      -0.814163       -22.1545
  88   2.0000      -0.797826       -21.7100
  89   2.0000      -0.794709       -21.6251
  90   2.0000      -0.785410       -21.3721
  91   2.0000      -0.779709       -21.2170
  92   2.0000      -0.775609       -21.1054
  93   2.0000      -0.770211       -20.9585
  94   2.0000      -0.763241       -20.7688
  95   2.0000      -0.740173       -20.1411
  96   2.0000      -0.728966       -19.8362
  97   2.0000      -0.713920       -19.4268
  98   2.0000      -0.703440       -19.1416
  99   2.0000      -0.691542       -18.8178
 100   2.0000      -0.685611       -18.6564
 101   2.0000      -0.682332       -18.5672
 102   2.0000      -0.679347       -18.4860
 103   2.0000      -0.669321       -18.2131
 104   2.0000      -0.664895       -18.0927
 105   2.0000      -0.655712       -17.8428
 106   2.0000      -0.651763       -17.7354
 107   2.0000      -0.636346       -17.3159
 108   2.0000      -0.630329       -17.1521
 109   2.0000      -0.622067       -16.9273
 110   2.0000      -0.614755       -16.7283
 111   2.0000      -0.611401       -16.6371
 112   2.0000      -0.603816       -16.4307
 113   2.0000      -0.600410       -16.3380
 114   2.0000      -0.595964       -16.2170
 115   2.0000      -0.589388       -16.0381
 116   2.0000      -0.585484       -15.9318
 117   2.0000      -0.582521       -15.8512
 118   2.0000      -0.579228       -15.7616
 119   2.0000      -0.565325       -15.3833
 120   2.0000      -0.556450       -15.1418
 121   2.0000      -0.551244       -15.0001
 122   2.0000      -0.550456       -14.9787
 123   2.0000      -0.549181       -14.9440
 124   2.0000      -0.543629       -14.7929
 125   2.0000      -0.541107       -14.7243
 126   2.0000      -0.537981       -14.6392
 127   2.0000      -0.528188       -14.3727
 128   2.0000      -0.522601       -14.2207
 129   2.0000      -0.520892       -14.1742
 130   2.0000      -0.517036       -14.0693
 131   2.0000      -0.513582       -13.9753
 132   2.0000      -0.509711       -13.8699
 133   2.0000      -0.506437       -13.7809
 134   2.0000      -0.499520       -13.5926
 135   2.0000      -0.495952       -13.4955
 136   2.0000      -0.493124       -13.4186
 137   2.0000      -0.490979       -13.3602
 138   2.0000      -0.489727       -13.3261
 139   2.0000      -0.488787       -13.3006
 140   2.0000      -0.487991       -13.2789
 141   2.0000      -0.485839       -13.2204
 142   2.0000      -0.481176       -13.0935
 143   2.0000      -0.477971       -13.0062
 144   2.0000      -0.477123       -12.9832
 145   2.0000      -0.473251       -12.8778
 146   2.0000      -0.470680       -12.8079
 147   2.0000      -0.467814       -12.7299
 148   2.0000      -0.466647       -12.6981
 149   2.0000      -0.466285       -12.6883
 150   2.0000      -0.463856       -12.6222
 151   2.0000      -0.462943       -12.5973
 152   2.0000      -0.461643       -12.5619
 153   2.0000      -0.459591       -12.5061
 154   2.0000      -0.455316       -12.3898
 155   2.0000      -0.450327       -12.2540
 156   2.0000      -0.448888       -12.2149
 157   2.0000      -0.445309       -12.1175
 158   2.0000      -0.444284       -12.0896
 159   2.0000      -0.439406       -11.9568
 160   2.0000      -0.438509       -11.9324
 161   2.0000      -0.438136       -11.9223
 162   2.0000      -0.433977       -11.8091
 163   2.0000      -0.433208       -11.7882
 164   2.0000      -0.428982       -11.6732
 165   2.0000      -0.428416       -11.6578
 166   2.0000      -0.424590       -11.5537
 167   2.0000      -0.424397       -11.5484
 168   2.0000      -0.421392       -11.4667
 169   2.0000      -0.420947       -11.4545
 170   2.0000      -0.412001       -11.2111
 171   2.0000      -0.407123       -11.0784
 172   2.0000      -0.404005       -10.9935
 173   2.0000      -0.403708       -10.9855
 174   2.0000      -0.397905       -10.8275
 175   2.0000      -0.396522       -10.7899
 176   2.0000      -0.389796       -10.6069
 177   2.0000      -0.374390       -10.1877
 178   2.0000      -0.361487        -9.8366
 179   2.0000      -0.350929        -9.5493
 180   2.0000      -0.347494        -9.4558
 181   2.0000      -0.336277        -9.1506
 182   2.0000      -0.334187        -9.0937
 183   2.0000      -0.332725        -9.0539
 184   2.0000      -0.331465        -9.0196
 185   2.0000      -0.329410        -8.9637
 186   2.0000      -0.302855        -8.2411
 187   2.0000      -0.285996        -7.7823
 188   2.0000      -0.259904        -7.0723
 189   2.0000      -0.233038        -6.3413
 190   2.0000      -0.209532        -5.7016
 191   0.0000      -0.087540        -2.3821
 192   0.0000      -0.074414        -2.0249
 193   0.0000      -0.038975        -1.0606
 194   0.0000      -0.025741        -0.7005
 195   0.0000      -0.014173        -0.3857

MULLIKEN ATOMIC CHARGES
-----------------------
   0 C :   -0.019954
   1 C :    0.000969
   2 C :    0.184240
   3 C :   -0.103071
   4 C :   -0.089578
   5 C :    0.115614
   6 C :    0.094450
   7 C :   -0.010678
   8 C :    0.020865
   9 C :   -0.157718
  10 S :    0.160131
  11 C :   -0.128972
  12 C :   -0.008632
  13 C :   -0.034034
  14 C :    0.198091
  15 C :   -0.083999
  16 C :   -0.086791
  17 C :    0.120430
  18 C :    0.116925
  19 C :   -0.024572
  20 C :    0.011691
  21 C :   -0.156239
  22 S :    0.175303
  23 C :   -0.131942
  24 C :   -0.011197
  25 C :   -0.017726
  26 C :    0.165253
  27 C :   -0.080311
  28 C :   -0.081450
  29 C :    0.121684
  30 C :    0.082251
  31 O :   -0.188084
  32 C :    0.155393
  33 C :   -0.091159
  34 C :   -0.177034
  35 N :    0.105174
  36 C :    0.013646
  37 C :    0.009220
  38 C :   -0.096620
  39 C :   -0.196915
  40 N :    0.113039
  41 C :    0.163926
  42 O :   -0.202376
  43 C :    0.158227
  44 C :   -0.094340
  45 C :   -0.177435
  46 N :    0.108399
  47 C :    0.015214
  48 C :    0.009767
  49 C :   -0.101568
  50 C :   -0.189908
  51 N :    0.114448
  52 C :    0.171184
  53 O :   -0.204413
  54 H :    0.029052
  55 H :    0.017539
  56 H :   -0.000507
  57 H :   -0.027461
  58 H :    0.009003
  59 H :    0.025789
  60 H :    0.043742
  61 H :    0.006873
  62 H :   -0.001786
  63 H :    0.016172
  64 H :   -0.006963
  65 H :   -0.027164
  66 H :    0.008191
  67 H :    0.026930
  68 H :    0.041168
  69 H :    0.009082
  70 H :    0.018851
  71 H :    0.015373
  72 H :   -0.005327
  73 H :   -0.027305
  74 H :    0.025280
  75 H :    0.024084
  76 H :    0.007687
  77 H :   -0.000743
  78 H :    0.003343
  79 H :    0.002374
  80 H :    0.002563
  81 H :    0.005338
Sum of atomic charges:   -0.0000000

LOEWDIN ATOMIC CHARGES
----------------------
   0 C :   -0.035608
   1 C :   -0.035260
   2 C :    0.035206
   3 C :   -0.064069
   4 C :   -0.041618
   5 C :   -0.049173
   6 C :    0.010180
   7 C :   -0.008615
   8 C :   -0.068035
   9 C :   -0.160372
  10 S :    0.489484
  11 C :   -0.172065
  12 C :   -0.044926
  13 C :   -0.041713
  14 C :    0.036850
  15 C :   -0.058913
  16 C :   -0.045516
  17 C :   -0.047739
  18 C :    0.024695
  19 C :   -0.016159
  20 C :   -0.055057
  21 C :   -0.165852
  22 S :    0.498112
  23 C :   -0.169621
  24 C :   -0.048630
  25 C :   -0.034045
  26 C :    0.022256
  27 C :   -0.064254
  28 C :   -0.076309
  29 C :   -0.044305
  30 C :    0.027904
  31 O :    0.018775
  32 C :   -0.035529
  33 C :   -0.044494
  34 C :   -0.025038
  35 N :   -0.050973
  36 C :    0.006736
  37 C :    0.006211
  38 C :   -0.048512
  39 C :   -0.023378
  40 N :   -0.058459
  41 C :   -0.040934
  42 O :    0.016140
  43 C :   -0.032567
  44 C :   -0.045260
  45 C :   -0.019861
  46 N :   -0.056006
  47 C :    0.008264
  48 C :    0.007298
  49 C :   -0.047559
  50 C :   -0.021862
  51 N :   -0.056023
  52 C :   -0.042617
  53 O :    0.012957
  54 H :    0.027908
  55 H :    0.022694
  56 H :    0.036478
  57 H :    0.027063
  58 H :    0.033910
  59 H :    0.036595
  60 H :    0.042436
  61 H :    0.037212
  62 H :    0.031051
  63 H :    0.040816
  64 H :    0.028296
  65 H :    0.028167
  66 H :    0.033906
  67 H :    0.036471
  68 H :    0.042628
  69 H :    0.037004
  70 H :    0.038215
  71 H :    0.041373
  72 H :    0.028500
  73 H :    0.026346
  74 H :    0.035344
  75 H :    0.034992
  76 H :    0.031894
  77 H :    0.021031
  78 H :    0.043851
  79 H :    0.043393
  80 H :    0.043958
  81 H :    0.044325

  Mayer bond orders larger than 0.100000
B(  0-C ,  1-C ) :   1.9288 B(  0-C , 54-H ) :   0.9506 B(  0-C , 55-H ) :   0.9549
B(  1-C ,  2-C ) :   1.1057 B(  1-C , 56-H ) :   0.9534 B(  2-C ,  3-C ) :   1.4566
B(  2-C , 53-O ) :   1.1345 B(  3-C ,  4-C ) :   1.2650 B(  3-C , 57-H ) :   1.0097
B(  4-C ,  5-C ) :   1.0970 B(  4-C ,  6-C ) :   1.4286 B(  5-C , 58-H ) :   0.9472
B(  5-C , 59-H ) :   0.9425 B(  5-C , 60-H ) :   0.9394 B(  6-C ,  7-C ) :   1.2281
B(  6-C , 53-O ) :   1.1342 B(  7-C ,  8-C ) :   1.6424 B(  7-C , 61-H ) :   0.9358
B(  8-C ,  9-C ) :   1.1086 B(  8-C , 62-H ) :   0.9517 B(  9-C , 10-S ) :   1.1531
B(  9-C , 52-C ) :   1.3601 B( 10-S , 11-C ) :   1.1294 B( 11-C , 12-C ) :   1.1756
B( 11-C , 43-C ) :   1.3475 B( 12-C , 13-C ) :   1.5968 B( 12-C , 63-H ) :   0.9623
B( 13-C , 14-C ) :   1.1738 B( 13-C , 64-H ) :   0.9650 B( 14-C , 15-C ) :   1.3793
B( 14-C , 42-O ) :   1.1456 B( 15-C , 16-C ) :   1.2720 B( 15-C , 65-H ) :   1.0170
B( 16-C , 17-C ) :   1.0994 B( 16-C , 18-C ) :   1.4117 B( 17-C , 66-H ) :   0.9477
B( 17-C , 67-H ) :   0.9433 B( 17-C , 68-H ) :   0.9398 B( 18-C , 19-C ) :   1.2330
B( 18-C , 42-O ) :   1.1397 B( 19-C , 20-C ) :   1.6330 B( 19-C , 69-H ) :   0.9344
B( 20-C , 21-C ) :   1.1024 B( 20-C , 70-H ) :   0.9571 B( 21-C , 22-S ) :   1.1537
B( 21-C , 41-C ) :   1.3696 B( 22-S , 23-C ) :   1.1378 B( 23-C , 24-C ) :   1.1575
B( 23-C , 32-C ) :   1.3560 B( 24-C , 25-C ) :   1.6362 B( 24-C , 71-H ) :   0.9611
B( 25-C , 26-C ) :   1.1452 B( 25-C , 72-H ) :   0.9659 B( 26-C , 27-C ) :   1.4583
B( 26-C , 31-O ) :   1.1514 B( 27-C , 28-C ) :   1.2370 B( 27-C , 73-H ) :   1.0184
B( 28-C , 29-C ) :   1.0744 B( 28-C , 30-C ) :   1.5449 B( 29-C , 74-H ) :   0.9538
B( 29-C , 75-H ) :   0.9540 B( 29-C , 76-H ) :   0.9555 B( 30-C , 31-O ) :   1.1418
B( 30-C , 77-H ) :   1.0096 B( 32-C , 33-C ) :   1.2043 B( 32-C , 41-C ) :   1.1660
B( 33-C , 34-C ) :   1.0870 B( 33-C , 36-C ) :   1.5355 B( 34-C , 35-N ) :   2.9697
B( 36-C , 37-C ) :   1.1991 B( 36-C , 78-H ) :   0.9937 B( 37-C , 38-C ) :   1.5320
B( 37-C , 79-H ) :   0.9954 B( 38-C , 39-C ) :   1.0890 B( 38-C , 41-C ) :   1.2011
B( 39-C , 40-N ) :   2.9917 B( 43-C , 44-C ) :   1.2111 B( 43-C , 52-C ) :   1.1674
B( 44-C , 45-C ) :   1.0850 B( 44-C , 47-C ) :   1.5299 B( 45-C , 46-N ) :   2.9856
B( 47-C , 48-C ) :   1.2031 B( 47-C , 80-H ) :   0.9943 B( 48-C , 49-C ) :   1.5300
B( 48-C , 81-H ) :   0.9939 B( 49-C , 50-C ) :   1.0927 B( 49-C , 52-C ) :   1.2007
B( 50-C , 51-N ) :   2.9850

-----------------------------------------------------------------------------
         ABSORPTION SPECTRUM VIA TRANSITION ELECTRIC DIPOLE MOMENTS
-----------------------------------------------------------------------------
State   Energy  Wavelength   fosc         T2         TX        TY        TZ
        (cm-1)    (nm)                  (au**2)     (au)      (au)      (au)
-----------------------------------------------------------------------------
   0   11845.7    844.2   0.936194352  26.01842  -2.36587  -4.07828   1.94647
   1   14343.5    697.2   0.140214258   3.21821   1.64545   0.38045   0.60496
   2   18737.8    533.7   0.006703233   0.11777  -0.13032   0.15342  -0.27794
   3   20444.7    489.1   0.357412791   5.75527   0.14637   2.14450  -1.06535
   4   22068.6    453.1   0.553995969   8.26434  -2.05223  -1.81787   0.86489
   5   24719.4    404.5   0.094402584   1.25725   0.05056   0.85958  -0.71820
   6   25518.2    391.9   0.205669902   2.65336   1.06514  -0.64305   1.05134
   7   27204.6    367.6   0.046563093   0.56347  -0.44700  -0.27544  -0.53647
   8   28626.5    349.3   0.680497576   7.82589   2.75416  -0.02710   0.48967
   9   29008.4    344.7   0.038023166   0.43152   0.58925  -0.10578  -0.27039
  10   30146.1    331.7   0.033512707   0.36598   0.25599  -0.49089   0.24388
  11   31921.3    313.3   0.024764293   0.25540   0.39747   0.30778  -0.05183
  12   32509.8    307.6   0.218946944   2.21717  -1.36382  -0.59744  -0.01524
  13   32809.6    304.8   0.094685540   0.95008   0.17931   0.71099   0.64220
  14   34750.8    287.8   0.012303834   0.11656   0.25911   0.06893  -0.21136
  15   35453.9    282.1   0.060685921   0.56351  -0.01252   0.74311  -0.10554
  16   35828.2    279.1   0.030707997   0.28216   0.30376  -0.28114   0.33295
  17   36174.5    276.4   0.131344469   1.19532  -0.84735  -0.22412  -0.65352
  18   36712.8    272.4   0.016549088   0.14840  -0.30029  -0.23059  -0.07111
  19   37436.4    267.1   0.208518364   1.83369   0.72092  -1.14600   0.02573
  20   37859.5    264.1   0.040849791   0.35521  -0.58905  -0.08690  -0.02620
  21   38159.9    262.1   0.196737310   1.69729  -0.70571  -0.87456  -0.65909
  22   39335.7    254.2   0.111854278   0.93614  -0.96630   0.04184  -0.02570
  23   39423.9    253.7   0.018429460   0.15390   0.08789   0.37413   0.07874
  24   39622.0    252.4   0.074082934   0.61554  -0.65676  -0.25578   0.34466
  25   40021.5    249.9   0.108308135   0.89093  -0.92062   0.18484  -0.09607

FINAL SINGLE POINT ENERGY     -2969.552363387407

DIPOLE MOMENT
-------------
                                X             Y             Z
Electronic contribution:      0.80921      16.70726      -6.56990
Nuclear contribution   :     -1.21664     -17.88582       6.61462
                        -----------------------------------------
Total Dipole Moment    :     -0.40743      -1.17856       0.04472
                        -----------------------------------------
Magnitude (a.u.)       :      1.24780
Magnitude (Debye)      :      3.17166

Rotational constants in cm-1:     0.002770     0.000458     0.000406
Rotational constants in MHz :    83.046721    13.725899    12.170792

                             ****ORCA TERMINATED NORMALLY****
TOTAL RUN TIME: 0 days 0 hours 10 minutes 8 seconds 510 msec
