                         Program Version 4.2.0 -  RELEASE  -
|  1> # ORCA input file
|  2> # SCF done       -134.617852639130          0.000854683428
|  3> ! CAM-B3LYP def2-SVP def2/J RIJCOSX Grid4 TightSCF
|  4> %maxcore 5000
|  5> %tddft
|  6>     Mode sTDDFT
|  7>     Ethresh 5.0
|  8>     maxcore 5000
|  9> end
| 10>
| 11> %pal
| 12>   nprocs 6
| 13>   end
| 14> * xyz 0 1
| 15>    C        0.71220        -4.49441         5.78239
| 16>    S        0.49244        -3.91883         4.17947
| 17>    C       -0.68019        -5.14783         3.79059
| 18>    C       -0.85682        -5.95328         4.90039
| 19>    C       -0.07482        -5.58104         6.01497
| 20>    O       -0.12795        -6.27209         7.19351
| 21>    C       -0.94750        -7.34100         7.29086
| 22>    O       -1.00000        -7.96277         8.31070
| 23>    C       -1.80812        -7.74019         6.07732
| 24>    O       -2.55442        -8.67344         6.13550
| 25>    O       -1.71063        -7.01977         4.94197
| 26>    C       -1.34134        -5.28590         2.53995
| 27>    C       -1.24958        -4.52182         1.38361
| 28>    C       -0.34041        -3.35216         1.18204
| 29>    C        1.06098        -3.81161         0.77565
| 30>    C       -2.09190        -4.99257         0.37258
| 31>    C       -2.83798        -6.10165         0.71875
| 32>    S       -2.48659        -6.58809         2.34849
| 33>    C       -3.79899        -6.82538        -0.03748
| 34>    C       -4.17786        -6.51931        -1.30072
| 35>    C       -5.16214        -7.22374        -2.04004
| 36>    C       -5.64252        -6.91493        -3.30949
| 37>    C       -5.19268        -5.73918        -4.11983
| 38>    C       -5.91650        -4.46464        -3.67914
| 39>    C       -6.64068        -7.79304        -3.73256
| 40>    C       -6.94250        -8.78900        -2.82275
| 41>    S       -5.95730        -8.63302        -1.39941
| 42>    C       -7.88736        -9.84534        -2.90625
| 43>    C       -8.80182        -9.97938        -3.89654
| 44>    C       -9.76759       -11.03442        -3.99419
| 45>    S      -11.27078       -10.44087        -4.72351
| 46>    C      -11.96022       -11.89817        -5.42254
| 47>    C      -12.73378       -11.90695        -6.54030
| 48>    S      -13.29721       -13.48755        -6.91671
| 49>    C      -12.46054       -14.14733        -5.56615
| 50>    C      -11.80257       -13.19073        -4.85892
| 51>    S      -10.88567       -13.51257        -3.39555
| 52>    C       -9.56921       -12.31069        -3.54689
| 53>    C       -8.27506       -12.79067        -3.18748
| 54>    C       -8.01471       -13.92986        -2.50971
| 55>    C       -6.67263       -14.33870        -2.21387
| 56>    N       -5.65708       -13.56260        -2.55733
| 57>    N       -4.40900       -13.87625        -2.31748
| 58>    C       -4.06155       -14.97857        -1.71091
| 59>    C       -5.03895       -15.89964        -1.27916
| 60>    C       -6.40798       -15.56818        -1.54229
| 61>    N       -7.24677       -16.50020        -1.10172
| 62>    S       -6.38641       -17.67752        -0.41985
| 63>    N       -4.91671       -17.06816        -0.65025
| 64>    H        1.38944        -4.01038         6.45327
| 65>    H       -0.28005        -2.75560         2.09395
| 66>    H       -0.75288        -2.72230         0.39179
| 67>    H        1.50148        -4.43151         1.55199
| 68>    H        1.70448        -2.95121         0.61437
| 69>    H        1.01492        -4.39074        -0.14399
| 70>    H       -2.15077        -4.52296        -0.59295
| 71>    H       -4.25792        -7.67088         0.45789
| 72>    H       -3.72656        -5.67452        -1.80059
| 73>    H       -5.41092        -5.93101        -5.17184
| 74>    H       -4.11418        -5.60259        -4.02036
| 75>    H       -6.99117        -4.58133        -3.79803
| 76>    H       -5.59132        -3.61863        -4.27983
| 77>    H       -5.71119        -4.24992        -2.63281
| 78>    H       -7.12592        -7.70936        -4.68855
| 79>    H       -7.87453       -10.55288        -2.08914
| 80>    H       -8.90054        -9.19474        -4.63407
| 81>    H      -13.01502       -11.07182        -7.14854
| 82>    H      -12.51413       -15.19549        -5.35466
| 83>    H       -7.42623       -12.20364        -3.51111
| 84>    H       -8.80058       -14.57597        -2.14616
| 85>    H       -3.00683       -15.14649        -1.55860
| 86> *
| 87>
| 88>                          ****END OF INPUT****

CARTESIAN COORDINATES (ANGSTROEM)
---------------------------------
  C      0.712200   -4.494410    5.782390
  S      0.492440   -3.918830    4.179470
  C     -0.680190   -5.147830    3.790590
  C     -0.856820   -5.953280    4.900390
  C     -0.074820   -5.581040    6.014970
  O     -0.127950   -6.272090    7.193510
  C     -0.947500   -7.341000    7.290860
  O     -1.000000   -7.962770    8.310700
  C     -1.808120   -7.740190    6.077320
  O     -2.554420   -8.673440    6.135500
  O     -1.710630   -7.019770    4.941970
  C     -1.341340   -5.285900    2.539950
  C     -1.249580   -4.521820    1.383610
  C     -0.340410   -3.352160    1.182040
  C      1.060980   -3.811610    0.775650
  C     -2.091900   -4.992570    0.372580
  C     -2.837980   -6.101650    0.718750
  S     -2.486590   -6.588090    2.348490
  C     -3.798990   -6.825380   -0.037480
  C     -4.177860   -6.519310   -1.300720
  C     -5.162140   -7.223740   -2.040040
  C     -5.642520   -6.914930   -3.309490
  C     -5.192680   -5.739180   -4.119830
  C     -5.916500   -4.464640   -3.679140
  C     -6.640680   -7.793040   -3.732560
  C     -6.942500   -8.789000   -2.822750
  S     -5.957300   -8.633020   -1.399410
  C     -7.887360   -9.845340   -2.906250
  C     -8.801820   -9.979380   -3.896540
  C     -9.767590  -11.034420   -3.994190
  S    -11.270780  -10.440870   -4.723510
  C    -11.960220  -11.898170   -5.422540
  C    -12.733780  -11.906950   -6.540300
  S    -13.297210  -13.487550   -6.916710
  C    -12.460540  -14.147330   -5.566150
  C    -11.802570  -13.190730   -4.858920
  S    -10.885670  -13.512570   -3.395550
  C     -9.569210  -12.310690   -3.546890
  C     -8.275060  -12.790670   -3.187480
  C     -8.014710  -13.929860   -2.509710
  C     -6.672630  -14.338700   -2.213870
  N     -5.657080  -13.562600   -2.557330
  N     -4.409000  -13.876250   -2.317480
  C     -4.061550  -14.978570   -1.710910
  C     -5.038950  -15.899640   -1.279160
  C     -6.407980  -15.568180   -1.542290
  N     -7.246770  -16.500200   -1.101720
  S     -6.386410  -17.677520   -0.419850
  N     -4.916710  -17.068160   -0.650250
  H      1.389440   -4.010380    6.453270
  H     -0.280050   -2.755600    2.093950
  H     -0.752880   -2.722300    0.391790
  H      1.501480   -4.431510    1.551990
  H      1.704480   -2.951210    0.614370
  H      1.014920   -4.390740   -0.143990
  H     -2.150770   -4.522960   -0.592950
  H     -4.257920   -7.670880    0.457890
  H     -3.726560   -5.674520   -1.800590
  H     -5.410920   -5.931010   -5.171840
  H     -4.114180   -5.602590   -4.020360
  H     -6.991170   -4.581330   -3.798030
  H     -5.591320   -3.618630   -4.279830
  H     -5.711190   -4.249920   -2.632810
  H     -7.125920   -7.709360   -4.688550
  H     -7.874530  -10.552880   -2.089140
  H     -8.900540   -9.194740   -4.634070
  H    -13.015020  -11.071820   -7.148540
  H    -12.514130  -15.195490   -5.354660
  H     -7.426230  -12.203640   -3.511110
  H     -8.800580  -14.575970   -2.146160
  H     -3.006830  -15.146490   -1.558600

 Total Charge           Charge          ....    0
 Multiplicity           Mult            ....    1
 Number of Electrons    NEL             ....  398
 Basis Dimension        Dim             ....  824

ORBITAL ENERGIES
----------------

  NO   OCC          E(Eh)            E(eV)
   0   2.0000     -89.032153     -2422.6880
   1   2.0000     -88.979822     -2421.2641
   2   2.0000     -88.958256     -2420.6772
   3   2.0000     -88.953435     -2420.5460
   4   2.0000     -88.950539     -2420.4672
   5   2.0000     -88.942135     -2420.2385
   6   2.0000     -88.932572     -2419.9783
   7   2.0000     -19.311073      -525.4810
   8   2.0000     -19.306963      -525.3692
   9   2.0000     -19.236041      -523.4393
  10   2.0000     -19.235261      -523.4181
  11   2.0000     -14.447817      -393.1451
  12   2.0000     -14.445303      -393.0767
  13   2.0000     -14.429443      -392.6451
  14   2.0000     -14.422703      -392.4617
  15   2.0000     -10.438751      -284.0529
  16   2.0000     -10.437631      -284.0224
  17   2.0000     -10.363537      -282.0062
  18   2.0000     -10.358558      -281.8707
  19   2.0000     -10.329592      -281.0825
  20   2.0000     -10.326794      -281.0064
  21   2.0000     -10.326404      -280.9957
  22   2.0000     -10.321969      -280.8751
  23   2.0000     -10.315602      -280.7018
  24   2.0000     -10.311057      -280.5781
  25   2.0000     -10.308247      -280.5017
  26   2.0000     -10.307679      -280.4862
  27   2.0000     -10.304269      -280.3934
  28   2.0000     -10.302415      -280.3430
  29   2.0000     -10.301622      -280.3214
  30   2.0000     -10.300259      -280.2843
  31   2.0000     -10.299500      -280.2636
  32   2.0000     -10.297350      -280.2051
  33   2.0000     -10.297142      -280.1995
  34   2.0000     -10.294935      -280.1394
  35   2.0000     -10.291140      -280.0362
  36   2.0000     -10.283988      -279.8415
  37   2.0000     -10.283510      -279.8285
  38   2.0000     -10.282397      -279.7982
  39   2.0000     -10.281684      -279.7789
  40   2.0000     -10.279788      -279.7273
  41   2.0000     -10.277260      -279.6585
  42   2.0000     -10.276637      -279.6415
  43   2.0000     -10.273268      -279.5498
  44   2.0000     -10.271479      -279.5012
  45   2.0000     -10.269782      -279.4550
  46   2.0000     -10.266418      -279.3634
  47   2.0000     -10.261381      -279.2264
  48   2.0000     -10.260046      -279.1901
  49   2.0000      -8.124059      -221.0669
  50   2.0000      -8.074384      -219.7152
  51   2.0000      -8.054271      -219.1679
  52   2.0000      -8.048628      -219.0143
  53   2.0000      -8.046289      -218.9507
  54   2.0000      -8.037626      -218.7149
  55   2.0000      -8.027897      -218.4502
  56   2.0000      -6.095146      -165.8573
  57   2.0000      -6.087371      -165.6458
  58   2.0000      -6.086679      -165.6270
  59   2.0000      -6.043948      -164.4642
  60   2.0000      -6.039634      -164.3468
  61   2.0000      -6.036195      -164.2532
  62   2.0000      -6.023632      -163.9114
  63   2.0000      -6.019297      -163.7934
  64   2.0000      -6.017973      -163.7574
  65   2.0000      -6.016408      -163.7148
  66   2.0000      -6.015404      -163.6875
  67   2.0000      -6.013719      -163.6416
  68   2.0000      -6.011498      -163.5812
  69   2.0000      -6.010686      -163.5591
  70   2.0000      -6.008481      -163.4991
  71   2.0000      -6.007922      -163.4839
  72   2.0000      -6.003727      -163.3697
  73   2.0000      -5.998316      -163.2225
  74   2.0000      -5.997635      -163.2039
  75   2.0000      -5.994445      -163.1172
  76   2.0000      -5.987371      -162.9247
  77   2.0000      -1.252669       -34.0868
  78   2.0000      -1.218483       -33.1566
  79   2.0000      -1.155353       -31.4388
  80   2.0000      -1.133780       -30.8517
  81   2.0000      -1.127790       -30.6887
  82   2.0000      -1.101415       -29.9710
  83   2.0000      -1.009746       -27.4766
  84   2.0000      -0.996520       -27.1167
  85   2.0000      -0.985630       -26.8203
  86   2.0000      -0.985395       -26.8140
  87   2.0000      -0.980492       -26.6805
  88   2.0000      -0.955098       -25.9896
  89   2.0000      -0.927469       -25.2377
  90   2.0000      -0.910349       -24.7718
  91   2.0000      -0.901709       -24.5367
  92   2.0000      -0.897377       -24.4189
  93   2.0000      -0.888615       -24.1805
  94   2.0000      -0.882392       -24.0111
  95   2.0000      -0.875493       -23.8234
  96   2.0000      -0.870285       -23.6817
  97   2.0000      -0.860552       -23.4168
  98   2.0000      -0.854003       -23.2386
  99   2.0000      -0.833264       -22.6743
 100   2.0000      -0.817063       -22.2334
 101   2.0000      -0.812371       -22.1058
 102   2.0000      -0.806498       -21.9459
 103   2.0000      -0.800217       -21.7750
 104   2.0000      -0.794311       -21.6143
 105   2.0000      -0.779661       -21.2157
 106   2.0000      -0.771336       -20.9891
 107   2.0000      -0.755762       -20.5653
 108   2.0000      -0.744476       -20.2582
 109   2.0000      -0.735944       -20.0261
 110   2.0000      -0.725860       -19.7517
 111   2.0000      -0.719894       -19.5893
 112   2.0000      -0.716619       -19.5002
 113   2.0000      -0.712627       -19.3916
 114   2.0000      -0.700068       -19.0498
 115   2.0000      -0.690667       -18.7940
 116   2.0000      -0.679338       -18.4857
 117   2.0000      -0.661919       -18.0117
 118   2.0000      -0.657958       -17.9039
 119   2.0000      -0.646716       -17.5980
 120   2.0000      -0.636969       -17.3328
 121   2.0000      -0.627935       -17.0870
 122   2.0000      -0.620844       -16.8940
 123   2.0000      -0.615954       -16.7610
 124   2.0000      -0.612447       -16.6655
 125   2.0000      -0.606425       -16.5017
 126   2.0000      -0.598462       -16.2850
 127   2.0000      -0.592001       -16.1092
 128   2.0000      -0.588748       -16.0207
 129   2.0000      -0.579882       -15.7794
 130   2.0000      -0.571256       -15.5447
 131   2.0000      -0.569782       -15.5046
 132   2.0000      -0.557958       -15.1828
 133   2.0000      -0.555520       -15.1165
 134   2.0000      -0.552297       -15.0288
 135   2.0000      -0.549223       -14.9451
 136   2.0000      -0.546179       -14.8623
 137   2.0000      -0.542815       -14.7708
 138   2.0000      -0.542357       -14.7583
 139   2.0000      -0.540062       -14.6958
 140   2.0000      -0.535876       -14.5819
 141   2.0000      -0.530849       -14.4451
 142   2.0000      -0.528243       -14.3742
 143   2.0000      -0.522078       -14.2065
 144   2.0000      -0.518997       -14.1226
 145   2.0000      -0.513741       -13.9796
 146   2.0000      -0.508240       -13.8299
 147   2.0000      -0.501395       -13.6437
 148   2.0000      -0.494992       -13.4694
 149   2.0000      -0.492501       -13.4016
 150   2.0000      -0.490443       -13.3456
 151   2.0000      -0.487853       -13.2752
 152   2.0000      -0.485909       -13.2223
 153   2.0000      -0.483320       -13.1518
 154   2.0000      -0.481527       -13.1030
 155   2.0000      -0.473688       -12.8897
 156   2.0000      -0.470287       -12.7972
 157   2.0000      -0.466162       -12.6849
 158   2.0000      -0.462673       -12.5900
 159   2.0000      -0.461738       -12.5645
 160   2.0000      -0.455207       -12.3868
 161   2.0000      -0.452082       -12.3018
 162   2.0000      -0.449506       -12.2317
 163   2.0000      -0.445304       -12.1173
 164   2.0000      -0.443456       -12.0670
 165   2.0000      -0.442636       -12.0447
 166   2.0000      -0.437238       -11.8978
 167   2.0000      -0.436568       -11.8796
 168   2.0000      -0.431548       -11.7430
 169   2.0000      -0.427841       -11.6421
 170   2.0000      -0.426355       -11.6017
 171   2.0000      -0.424592       -11.5537
 172   2.0000      -0.422073       -11.4852
 173   2.0000      -0.418255       -11.3813
 174   2.0000      -0.416115       -11.3231
 175   2.0000      -0.412067       -11.2129
 176   2.0000      -0.406382       -11.0582
 177   2.0000      -0.404497       -11.0069
 178   2.0000      -0.399537       -10.8719
 179   2.0000      -0.397477       -10.8159
 180   2.0000      -0.392183       -10.6718
 181   2.0000      -0.380756       -10.3609
 182   2.0000      -0.377181       -10.2636
 183   2.0000      -0.373733       -10.1698
 184   2.0000      -0.368583       -10.0297
 185   2.0000      -0.367607       -10.0031
 186   2.0000      -0.358875        -9.7655
 187   2.0000      -0.355228        -9.6662
 188   2.0000      -0.345862        -9.4114
 189   2.0000      -0.330970        -9.0061
 190   2.0000      -0.318795        -8.6749
 191   2.0000      -0.316172        -8.6035
 192   2.0000      -0.314587        -8.5603
 193   2.0000      -0.302862        -8.2413
 194   2.0000      -0.289373        -7.8742
 195   2.0000      -0.283983        -7.7276
 196   2.0000      -0.278646        -7.5824
 197   2.0000      -0.253227        -6.8907
 198   2.0000      -0.228230        -6.2104
 199   0.0000      -0.079151        -2.1538
 200   0.0000      -0.058851        -1.6014
 201   0.0000      -0.040789        -1.1099
 202   0.0000      -0.026647        -0.7251
 203   0.0000       0.000328         0.0089

MULLIKEN ATOMIC CHARGES
-----------------------
   0 C :   -0.158337
   1 S :    0.141277
   2 C :   -0.134285
   3 C :    0.127487
   4 C :    0.228419
   5 O :   -0.189757
   6 C :    0.139164
   7 O :   -0.102455
   8 C :    0.151568
   9 O :   -0.099401
  10 O :   -0.207891
  11 C :   -0.110431
  12 C :   -0.053880
  13 C :    0.052712
  14 C :    0.028918
  15 C :   -0.038854
  16 C :   -0.052085
  17 S :    0.156822
  18 C :    0.049760
  19 C :    0.001634
  20 C :   -0.090989
  21 C :   -0.032457
  22 C :    0.067271
  23 C :    0.022973
  24 C :   -0.017325
  25 C :   -0.082264
  26 S :    0.131319
  27 C :    0.078149
  28 C :   -0.008902
  29 C :   -0.038238
  30 S :    0.095519
  31 C :   -0.004865
  32 C :   -0.122013
  33 S :    0.120084
  34 C :   -0.121888
  35 C :    0.002334
  36 S :    0.078918
  37 C :   -0.062758
  38 C :    0.008254
  39 C :   -0.061192
  40 C :   -0.011176
  41 N :   -0.088914
  42 N :   -0.035003
  43 C :   -0.040502
  44 C :    0.064256
  45 C :    0.021165
  46 N :   -0.256766
  47 S :    0.518688
  48 N :   -0.259810
  49 H :    0.034451
  50 H :    0.017812
  51 H :    0.003509
  52 H :    0.015338
  53 H :    0.018300
  54 H :    0.013576
  55 H :   -0.033435
  56 H :   -0.007054
  57 H :   -0.016686
  58 H :    0.003354
  59 H :    0.012559
  60 H :    0.014302
  61 H :    0.016337
  62 H :    0.013109
  63 H :   -0.025832
  64 H :    0.017484
  65 H :    0.002302
  66 H :    0.025077
  67 H :    0.026709
  68 H :    0.040325
  69 H :    0.004425
  70 H :   -0.000216
Sum of atomic charges:    0.0000000

LOEWDIN ATOMIC CHARGES
----------------------
   0 C :   -0.210278
   1 S :    0.483809
   2 C :   -0.192164
   3 C :   -0.033491
   4 C :   -0.011649
   5 O :   -0.024475
   6 C :    0.053636
   7 O :   -0.083955
   8 C :    0.054424
   9 O :   -0.083383
  10 O :   -0.027384
  11 C :   -0.203328
  12 C :   -0.043182
  13 C :   -0.037902
  14 C :   -0.050586
  15 C :   -0.063494
  16 C :   -0.164405
  17 S :    0.461272
  18 C :   -0.046619
  19 C :   -0.032082
  20 C :   -0.171419
  21 C :   -0.046192
  22 C :   -0.028721
  23 C :   -0.049020
  24 C :   -0.047699
  25 C :   -0.170030
  26 S :    0.446115
  27 C :   -0.005761
  28 C :   -0.057925
  29 C :   -0.149055
  30 S :    0.361552
  31 C :   -0.216909
  32 C :   -0.203774
  33 S :    0.444867
  34 C :   -0.203927
  35 C :   -0.212498
  36 S :    0.343911
  37 C :   -0.183483
  38 C :    0.009290
  39 C :   -0.064001
  40 C :    0.000923
  41 N :   -0.070603
  42 N :   -0.036473
  43 C :   -0.008501
  44 C :   -0.070156
  45 C :   -0.064546
  46 N :   -0.272878
  47 S :    0.659890
  48 N :   -0.276619
  49 H :    0.035386
  50 H :    0.015223
  51 H :    0.031749
  52 H :    0.016645
  53 H :    0.024963
  54 H :    0.025879
  55 H :    0.024086
  56 H :    0.023746
  57 H :    0.030275
  58 H :    0.030464
  59 H :    0.027582
  60 H :    0.025982
  61 H :    0.023724
  62 H :    0.023056
  63 H :    0.027092
  64 H :    0.037766
  65 H :    0.025329
  66 H :    0.025342
  67 H :    0.026036
  68 H :    0.041580
  69 H :    0.025134
  70 H :    0.031842

  Mayer bond orders larger than 0.100000
B(  0-C ,  1-S ) :   1.1268 B(  0-C ,  2-C ) :   0.1030 B(  0-C ,  4-C ) :   1.5486
B(  0-C , 49-H ) :   0.9778 B(  1-S ,  2-C ) :   1.1436 B(  2-C ,  3-C ) :   1.4812
B(  2-C , 11-C ) :   1.1617 B(  3-C ,  4-C ) :   1.2186 B(  3-C , 10-O ) :   1.0455
B(  4-C ,  5-O ) :   1.0447 B(  5-O ,  6-C ) :   1.0906 B(  6-C ,  7-O ) :   2.2470
B(  6-C ,  8-C ) :   0.8333 B(  8-C ,  9-O ) :   2.2522 B(  8-C , 10-O ) :   1.0756
B( 11-C , 12-C ) :   1.4869 B( 11-C , 16-C ) :   0.1019 B( 11-C , 17-S ) :   1.1211
B( 12-C , 13-C ) :   1.0703 B( 12-C , 15-C ) :   1.2990 B( 13-C , 14-C ) :   1.1005
B( 13-C , 50-H ) :   0.9170 B( 13-C , 51-H ) :   0.9170 B( 14-C , 52-H ) :   0.9685
B( 14-C , 53-H ) :   0.9673 B( 14-C , 54-H ) :   0.9663 B( 15-C , 16-C ) :   1.4735
B( 15-C , 55-H ) :   0.9932 B( 16-C , 17-S ) :   1.1159 B( 16-C , 18-C ) :   1.1192
B( 18-C , 19-C ) :   1.6763 B( 18-C , 56-H ) :   0.9626 B( 19-C , 20-C ) :   1.1697
B( 19-C , 57-H ) :   0.9642 B( 20-C , 21-C ) :   1.4609 B( 20-C , 26-S ) :   1.1147
B( 21-C , 22-C ) :   1.0662 B( 21-C , 24-C ) :   1.3024 B( 22-C , 23-C ) :   1.1009
B( 22-C , 58-H ) :   0.9262 B( 22-C , 59-H ) :   0.9229 B( 23-C , 60-H ) :   0.9676
B( 23-C , 61-H ) :   0.9676 B( 23-C , 62-H ) :   0.9717 B( 24-C , 25-C ) :   1.4699
B( 24-C , 63-H ) :   0.9925 B( 25-C , 26-S ) :   1.1240 B( 25-C , 27-C ) :   1.1392
B( 27-C , 28-C ) :   1.6820 B( 27-C , 64-H ) :   0.9587 B( 28-C , 29-C ) :   1.1276
B( 28-C , 65-H ) :   0.9507 B( 29-C , 30-S ) :   1.0403 B( 29-C , 37-C ) :   1.6131
B( 30-S , 31-C ) :   0.9753 B( 31-C , 32-C ) :   1.5918 B( 31-C , 35-C ) :   1.2634
B( 32-C , 33-S ) :   1.1760 B( 32-C , 66-H ) :   0.9712 B( 33-S , 34-C ) :   1.1712
B( 34-C , 35-C ) :   1.5955 B( 34-C , 67-H ) :   0.9705 B( 35-C , 36-S ) :   0.9905
B( 36-S , 37-C ) :   0.9963 B( 37-C , 38-C ) :   1.1455 B( 38-C , 39-C ) :   1.6382
B( 38-C , 68-H ) :   0.9657 B( 39-C , 40-C ) :   1.1542 B( 39-C , 69-H ) :   0.9714
B( 40-C , 41-N ) :   1.6725 B( 40-C , 43-C ) :   0.1032 B( 40-C , 45-C ) :   1.0758
B( 41-N , 42-N ) :   1.1981 B( 42-N , 43-C ) :   1.7343 B( 43-C , 44-C ) :   1.1213
B( 43-C , 70-H ) :   1.0157 B( 44-C , 45-C ) :   1.2059 B( 44-C , 48-N ) :   1.5049
B( 45-C , 46-N ) :   1.5633 B( 46-N , 47-S ) :   1.2730 B( 46-N , 48-N ) :   0.1492
B( 47-S , 48-N ) :   1.2855

-----------------------------------------------------------------------------
         ABSORPTION SPECTRUM VIA TRANSITION ELECTRIC DIPOLE MOMENTS
-----------------------------------------------------------------------------
State   Energy  Wavelength   fosc         T2         TX        TY        TZ
        (cm-1)    (nm)                  (au**2)     (au)      (au)      (au)
-----------------------------------------------------------------------------
   0   17489.0    571.8   0.609635847  11.47573   0.85682   3.15030   0.90401
   1   20111.8    497.2   0.014541566   0.23803  -0.30670  -0.28451  -0.25104
   2   22496.8    444.5   1.339071077  19.59562   3.14776   0.93629   2.96826
   3   23620.9    423.4   0.086473034   1.20520   0.74757  -0.57296   0.56397
   4   26241.2    381.1   0.068414040   0.85830  -0.71406  -0.54299   0.23146
   5   26620.5    375.7   0.187474640   2.31847   1.13392  -0.78030   0.65103
   6   28423.4    351.8   0.203170360   2.35321   0.74141  -0.02124   1.34279
   7   29419.1    339.9   0.179681412   2.01071  -0.76032   0.52319  -1.07652
   8   30732.3    325.4   0.104290679   1.11719   0.27198   0.78671  -0.65138
   9   31905.0    313.4   0.004748438   0.04900   0.00274   0.10798   0.19321
  10   32832.7    304.6   0.006372717   0.06390  -0.14347  -0.11174  -0.17559
  11   32977.1    303.2   0.002876082   0.02871  -0.10020   0.13298  -0.03144
  12   34762.3    287.7   0.047233514   0.44732   0.03155  -0.00684  -0.66804
  13   35355.1    282.8   0.155016758   1.44345   0.97950  -0.51741   0.46510
  14   35612.8    280.8   0.052422227   0.48460   0.18264   0.25590  -0.62109
  15   36184.8    276.4   0.034651478   0.31526   0.52595  -0.07451   0.18189
  16   37216.0    268.7   0.033507926   0.29641   0.39113   0.33994   0.16694
  17   37694.3    265.3   0.013937013   0.12172   0.17784  -0.09742  -0.28391
  18   38068.7    262.7   0.081670919   0.70628   0.77290   0.11900   0.30780
  19   38412.7    260.3   0.087114352   0.74661  -0.33732  -0.38724  -0.69489
  20   39435.3    253.6   0.027428439   0.22898   0.31618   0.32924   0.14355
  21   39811.7    251.2   0.163060387   1.34838  -0.32176  -0.79563   0.78219

FINAL SINGLE POINT ENERGY     -4612.860861903144

DIPOLE MOMENT
-------------
                                X             Y             Z
Electronic contribution:    -17.14092     -48.80051      26.61737
Nuclear contribution   :     17.42960      50.52209     -28.32520
                        -----------------------------------------
Total Dipole Moment    :      0.28867       1.72158      -1.70783
                        -----------------------------------------
Magnitude (a.u.)       :      2.44210
Magnitude (Debye)      :      6.20731

Rotational constants in cm-1:     0.002057     0.000519     0.000444
Rotational constants in MHz :    61.676342    15.564795    13.307585

                             ****ORCA TERMINATED NORMALLY****
TOTAL RUN TIME: 0 days 0 hours 4 minutes 22 seconds 974 msec
