                         Program Version 4.2.0 -  RELEASE  -
|  1> # ORCA input file
|  2> # SCF done       -145.785032761236          0.004746270486
|  3> ! CAM-B3LYP def2-SVP def2/J RIJCOSX Grid4 TightSCF
|  4> %maxcore 5000
|  5> %tddft
|  6>     Mode sTDDFT
|  7>     Ethresh 5.0
|  8>     maxcore 5000
|  9> end
| 10>
| 11> %pal
| 12>   nprocs 6
| 13>   end
| 14> * xyz 0 1
| 15>    C        2.02424        -7.19909        -1.20755
| 16>    N        3.07295        -7.95092        -1.19571
| 17>    C        4.06710        -7.21693        -0.64653
| 18>    C        3.62210        -5.94408        -0.33849
| 19>    N        2.26027        -5.94769        -0.66743
| 20>    C        1.29803        -4.94360        -0.56000
| 21>    O        1.54046        -3.76279        -0.56687
| 22>    N        0.00479        -5.42240        -0.42634
| 23>    C       -1.12873        -4.70354        -0.76539
| 24>    C       -2.18443        -5.46041        -0.37972
| 25>    N       -1.74518        -6.60835         0.22503
| 26>    C       -0.46004        -6.57469         0.18542
| 27>    C        4.43490        -4.89381         0.17452
| 28>    C        5.76476        -5.00771         0.55427
| 29>    C        6.22657        -3.70776         0.95791
| 30>    C        5.13281        -2.76977         0.79367
| 31>    O        5.04414        -1.57732         0.95181
| 32>    N        4.08080        -3.58251         0.34143
| 33>    C        7.53294        -3.85015         1.33214
| 34>    O        7.93047        -5.14094         1.19277
| 35>    C        6.86318        -5.91920         0.69701
| 36>    O        7.01075        -7.09025         0.47636
| 37>    S        8.66394        -2.69716         1.92324
| 38>    C       10.08997        -3.75437         2.08803
| 39>    C       10.35298        -4.48110         3.20600
| 40>    S       11.83578        -5.33103         3.08256
| 41>    C       12.10949        -4.70725         1.50517
| 42>    C       11.10525        -3.88641         1.09707
| 43>    S       11.06484        -3.04264        -0.46257
| 44>    C        9.58543        -3.75976        -1.07358
| 45>    C        8.61790        -3.02615        -1.64193
| 46>    C        7.40917        -3.57716        -2.15713
| 47>    S        7.28910        -5.27122        -2.51129
| 48>    C        5.64214        -5.14703        -3.02588
| 49>    C        5.17197        -3.84077        -2.86194
| 50>    C        6.19009        -2.93825        -2.39402
| 51>    C        5.85700        -1.57365        -2.16650
| 52>    C        6.80594        -0.61223        -1.75576
| 53>    N        7.53997         0.21687        -1.45756
| 54>    C        4.55755        -1.14354        -2.34442
| 55>    C        3.55267        -2.03568        -2.72153
| 56>    C        3.83616        -3.36407        -2.98099
| 57>    C        2.72332        -4.19186        -3.22942
| 58>    N        1.74107        -4.77797        -3.34417
| 59>    C        4.97272        -6.30325        -3.51534
| 60>    C        4.02993        -6.28504        -4.48611
| 61>    C        3.23691        -7.41066        -4.82844
| 62>    O        3.36224        -8.57149        -4.14732
| 63>    C        2.41920        -9.42141        -4.59928
| 64>    C        1.68156        -8.80744        -5.59454
| 65>    C        2.19868        -7.51394        -5.75066
| 66>    C        1.72011        -6.44998        -6.67307
| 67>    C        2.33726       -10.71760        -3.98584
| 68>    C        1.46264       -11.66435        -4.31669
| 69>    H        1.08331        -7.47664        -1.63724
| 70>    H        5.04915        -7.62021        -0.49385
| 71>    H       -1.05362        -3.76008        -1.26247
| 72>    H       -3.23213        -5.26500        -0.48231
| 73>    H        0.18918        -7.31199         0.61428
| 74>    H        3.16993        -3.21394         0.08597
| 75>    H        9.75741        -4.55663         4.09371
| 76>    H       12.99549        -4.97322         0.96473
| 77>    H        9.51373        -4.83094        -0.95287
| 78>    H        8.73060        -1.95281        -1.68512
| 79>    H        4.31009        -0.11135        -2.15300
| 80>    H        2.53221        -1.69096        -2.79306
| 81>    H        5.27066        -7.25478        -3.09626
| 82>    H        3.81851        -5.38143        -5.03831
| 83>    H        0.86582        -9.23699        -6.13895
| 84>    H        0.90099        -6.82088        -7.28199
| 85>    H        2.52351        -6.11574        -7.32822
| 86>    H        1.37131        -5.59150        -6.09897
| 87>    H        3.05479       -10.87634        -3.19327
| 88>    H        0.73862       -11.52328        -5.09968
| 89>    H        1.44789       -12.61316        -3.81078
| 90> *
| 91>
| 92>                          ****END OF INPUT****

CARTESIAN COORDINATES (ANGSTROEM)
---------------------------------
  C      2.024240   -7.199090   -1.207550
  N      3.072950   -7.950920   -1.195710
  C      4.067100   -7.216930   -0.646530
  C      3.622100   -5.944080   -0.338490
  N      2.260270   -5.947690   -0.667430
  C      1.298030   -4.943600   -0.560000
  O      1.540460   -3.762790   -0.566870
  N      0.004790   -5.422400   -0.426340
  C     -1.128730   -4.703540   -0.765390
  C     -2.184430   -5.460410   -0.379720
  N     -1.745180   -6.608350    0.225030
  C     -0.460040   -6.574690    0.185420
  C      4.434900   -4.893810    0.174520
  C      5.764760   -5.007710    0.554270
  C      6.226570   -3.707760    0.957910
  C      5.132810   -2.769770    0.793670
  O      5.044140   -1.577320    0.951810
  N      4.080800   -3.582510    0.341430
  C      7.532940   -3.850150    1.332140
  O      7.930470   -5.140940    1.192770
  C      6.863180   -5.919200    0.697010
  O      7.010750   -7.090250    0.476360
  S      8.663940   -2.697160    1.923240
  C     10.089970   -3.754370    2.088030
  C     10.352980   -4.481100    3.206000
  S     11.835780   -5.331030    3.082560
  C     12.109490   -4.707250    1.505170
  C     11.105250   -3.886410    1.097070
  S     11.064840   -3.042640   -0.462570
  C      9.585430   -3.759760   -1.073580
  C      8.617900   -3.026150   -1.641930
  C      7.409170   -3.577160   -2.157130
  S      7.289100   -5.271220   -2.511290
  C      5.642140   -5.147030   -3.025880
  C      5.171970   -3.840770   -2.861940
  C      6.190090   -2.938250   -2.394020
  C      5.857000   -1.573650   -2.166500
  C      6.805940   -0.612230   -1.755760
  N      7.539970    0.216870   -1.457560
  C      4.557550   -1.143540   -2.344420
  C      3.552670   -2.035680   -2.721530
  C      3.836160   -3.364070   -2.980990
  C      2.723320   -4.191860   -3.229420
  N      1.741070   -4.777970   -3.344170
  C      4.972720   -6.303250   -3.515340
  C      4.029930   -6.285040   -4.486110
  C      3.236910   -7.410660   -4.828440
  O      3.362240   -8.571490   -4.147320
  C      2.419200   -9.421410   -4.599280
  C      1.681560   -8.807440   -5.594540
  C      2.198680   -7.513940   -5.750660
  C      1.720110   -6.449980   -6.673070
  C      2.337260  -10.717600   -3.985840
  C      1.462640  -11.664350   -4.316690
  H      1.083310   -7.476640   -1.637240
  H      5.049150   -7.620210   -0.493850
  H     -1.053620   -3.760080   -1.262470
  H     -3.232130   -5.265000   -0.482310
  H      0.189180   -7.311990    0.614280
  H      3.169930   -3.213940    0.085970
  H      9.757410   -4.556630    4.093710
  H     12.995490   -4.973220    0.964730
  H      9.513730   -4.830940   -0.952870
  H      8.730600   -1.952810   -1.685120
  H      4.310090   -0.111350   -2.153000
  H      2.532210   -1.690960   -2.793060
  H      5.270660   -7.254780   -3.096260
  H      3.818510   -5.381430   -5.038310
  H      0.865820   -9.236990   -6.138950
  H      0.900990   -6.820880   -7.281990
  H      2.523510   -6.115740   -7.328220
  H      1.371310   -5.591500   -6.098970
  H      3.054790  -10.876340   -3.193270
  H      0.738620  -11.523280   -5.099680
  H      1.447890  -12.613160   -3.810780

 Total Charge           Charge          ....    0
 Multiplicity           Mult            ....    1
 Number of Electrons    NEL             ....  402
 Basis Dimension        Dim             ....  877

ORBITAL ENERGIES
----------------

  NO   OCC          E(Eh)            E(eV)
   0   2.0000     -88.976488     -2421.1733
   1   2.0000     -88.969872     -2420.9933
   2   2.0000     -88.961490     -2420.7652
   3   2.0000     -88.935550     -2420.0593
   4   2.0000     -19.285061      -524.7732
   5   2.0000     -19.280793      -524.6571
   6   2.0000     -19.257152      -524.0137
   7   2.0000     -19.210766      -522.7515
   8   2.0000     -19.187992      -522.1318
   9   2.0000     -14.515945      -394.9989
  10   2.0000     -14.506311      -394.7368
  11   2.0000     -14.452097      -393.2616
  12   2.0000     -14.422359      -392.4524
  13   2.0000     -14.416096      -392.2819
  14   2.0000     -14.409983      -392.1156
  15   2.0000     -14.409434      -392.1006
  16   2.0000     -10.474249      -285.0188
  17   2.0000     -10.407986      -283.2157
  18   2.0000     -10.381198      -282.4868
  19   2.0000     -10.379564      -282.4423
  20   2.0000     -10.358905      -281.8801
  21   2.0000     -10.356955      -281.8271
  22   2.0000     -10.349159      -281.6149
  23   2.0000     -10.340475      -281.3786
  24   2.0000     -10.330873      -281.1173
  25   2.0000     -10.329638      -281.0837
  26   2.0000     -10.326915      -281.0096
  27   2.0000     -10.324075      -280.9324
  28   2.0000     -10.317957      -280.7659
  29   2.0000     -10.317734      -280.7598
  30   2.0000     -10.316213      -280.7184
  31   2.0000     -10.315179      -280.6903
  32   2.0000     -10.311695      -280.5955
  33   2.0000     -10.310963      -280.5756
  34   2.0000     -10.309658      -280.5401
  35   2.0000     -10.308809      -280.5169
  36   2.0000     -10.308524      -280.5092
  37   2.0000     -10.307887      -280.4919
  38   2.0000     -10.307657      -280.4856
  39   2.0000     -10.307648      -280.4854
  40   2.0000     -10.305364      -280.4232
  41   2.0000     -10.304144      -280.3900
  42   2.0000     -10.300529      -280.2916
  43   2.0000     -10.297871      -280.2193
  44   2.0000     -10.287470      -279.9363
  45   2.0000     -10.286236      -279.9027
  46   2.0000     -10.280305      -279.7413
  47   2.0000     -10.275579      -279.6127
  48   2.0000     -10.275498      -279.6105
  49   2.0000     -10.274715      -279.5892
  50   2.0000     -10.271906      -279.5128
  51   2.0000     -10.266946      -279.3778
  52   2.0000     -10.265845      -279.3478
  53   2.0000     -10.262527      -279.2576
  54   2.0000      -8.070846      -219.6189
  55   2.0000      -8.066144      -219.4909
  56   2.0000      -8.056637      -219.2322
  57   2.0000      -8.030695      -218.5263
  58   2.0000      -6.039797      -164.3512
  59   2.0000      -6.035627      -164.2378
  60   2.0000      -6.035323      -164.2295
  61   2.0000      -6.033828      -164.1888
  62   2.0000      -6.030983      -164.1114
  63   2.0000      -6.028550      -164.0452
  64   2.0000      -6.026919      -164.0008
  65   2.0000      -6.022671      -163.8852
  66   2.0000      -6.016661      -163.7217
  67   2.0000      -6.001147      -163.2995
  68   2.0000      -5.997206      -163.1923
  69   2.0000      -5.990250      -163.0030
  70   2.0000      -1.214687       -33.0533
  71   2.0000      -1.212964       -33.0064
  72   2.0000      -1.201080       -32.6831
  73   2.0000      -1.142266       -31.0826
  74   2.0000      -1.135059       -30.8865
  75   2.0000      -1.129123       -30.7250
  76   2.0000      -1.120510       -30.4906
  77   2.0000      -1.059639       -28.8342
  78   2.0000      -1.023554       -27.8523
  79   2.0000      -1.023132       -27.8408
  80   2.0000      -1.007556       -27.4170
  81   2.0000      -1.002187       -27.2709
  82   2.0000      -0.993161       -27.0253
  83   2.0000      -0.992312       -27.0022
  84   2.0000      -0.958932       -26.0939
  85   2.0000      -0.930073       -25.3086
  86   2.0000      -0.921816       -25.0839
  87   2.0000      -0.912495       -24.8303
  88   2.0000      -0.907619       -24.6976
  89   2.0000      -0.905151       -24.6304
  90   2.0000      -0.900852       -24.5134
  91   2.0000      -0.898235       -24.4422
  92   2.0000      -0.878037       -23.8926
  93   2.0000      -0.864024       -23.5113
  94   2.0000      -0.858570       -23.3629
  95   2.0000      -0.851858       -23.1802
  96   2.0000      -0.830647       -22.6031
  97   2.0000      -0.824536       -22.4368
  98   2.0000      -0.804169       -21.8825
  99   2.0000      -0.803399       -21.8616
 100   2.0000      -0.798772       -21.7357
 101   2.0000      -0.790161       -21.5014
 102   2.0000      -0.777525       -21.1575
 103   2.0000      -0.765702       -20.8358
 104   2.0000      -0.762046       -20.7363
 105   2.0000      -0.756695       -20.5907
 106   2.0000      -0.746540       -20.3144
 107   2.0000      -0.732397       -19.9295
 108   2.0000      -0.719991       -19.5920
 109   2.0000      -0.705319       -19.1927
 110   2.0000      -0.703395       -19.1404
 111   2.0000      -0.691620       -18.8199
 112   2.0000      -0.689946       -18.7744
 113   2.0000      -0.674748       -18.3608
 114   2.0000      -0.674048       -18.3418
 115   2.0000      -0.669776       -18.2255
 116   2.0000      -0.667738       -18.1701
 117   2.0000      -0.661297       -17.9948
 118   2.0000      -0.652687       -17.7605
 119   2.0000      -0.636740       -17.3266
 120   2.0000      -0.630042       -17.1443
 121   2.0000      -0.619312       -16.8523
 122   2.0000      -0.610280       -16.6066
 123   2.0000      -0.606709       -16.5094
 124   2.0000      -0.603015       -16.4089
 125   2.0000      -0.598460       -16.2849
 126   2.0000      -0.592353       -16.1188
 127   2.0000      -0.589163       -16.0319
 128   2.0000      -0.586869       -15.9695
 129   2.0000      -0.581215       -15.8157
 130   2.0000      -0.577739       -15.7211
 131   2.0000      -0.573838       -15.6149
 132   2.0000      -0.564015       -15.3476
 133   2.0000      -0.563120       -15.3233
 134   2.0000      -0.557643       -15.1742
 135   2.0000      -0.552289       -15.0285
 136   2.0000      -0.550273       -14.9737
 137   2.0000      -0.547859       -14.9080
 138   2.0000      -0.543125       -14.7792
 139   2.0000      -0.540546       -14.7090
 140   2.0000      -0.537124       -14.6159
 141   2.0000      -0.532692       -14.4953
 142   2.0000      -0.527815       -14.3626
 143   2.0000      -0.524063       -14.2605
 144   2.0000      -0.514001       -13.9867
 145   2.0000      -0.513858       -13.9828
 146   2.0000      -0.510992       -13.9048
 147   2.0000      -0.508106       -13.8263
 148   2.0000      -0.507039       -13.7972
 149   2.0000      -0.505878       -13.7656
 150   2.0000      -0.501294       -13.6409
 151   2.0000      -0.498952       -13.5772
 152   2.0000      -0.494261       -13.4495
 153   2.0000      -0.492582       -13.4038
 154   2.0000      -0.491299       -13.3689
 155   2.0000      -0.488587       -13.2951
 156   2.0000      -0.481537       -13.1033
 157   2.0000      -0.479570       -13.0498
 158   2.0000      -0.476870       -12.9763
 159   2.0000      -0.472163       -12.8482
 160   2.0000      -0.470088       -12.7918
 161   2.0000      -0.469966       -12.7884
 162   2.0000      -0.466267       -12.6878
 163   2.0000      -0.464408       -12.6372
 164   2.0000      -0.459385       -12.5005
 165   2.0000      -0.456671       -12.4266
 166   2.0000      -0.451034       -12.2733
 167   2.0000      -0.446573       -12.1519
 168   2.0000      -0.439084       -11.9481
 169   2.0000      -0.438419       -11.9300
 170   2.0000      -0.437375       -11.9016
 171   2.0000      -0.435453       -11.8493
 172   2.0000      -0.428820       -11.6688
 173   2.0000      -0.427362       -11.6291
 174   2.0000      -0.425697       -11.5838
 175   2.0000      -0.422276       -11.4907
 176   2.0000      -0.419586       -11.4175
 177   2.0000      -0.413943       -11.2640
 178   2.0000      -0.404901       -11.0179
 179   2.0000      -0.399429       -10.8690
 180   2.0000      -0.389766       -10.6061
 181   2.0000      -0.385448       -10.4886
 182   2.0000      -0.383440       -10.4339
 183   2.0000      -0.371611       -10.1120
 184   2.0000      -0.370496       -10.0817
 185   2.0000      -0.366588        -9.9754
 186   2.0000      -0.362235        -9.8569
 187   2.0000      -0.361853        -9.8465
 188   2.0000      -0.351377        -9.5615
 189   2.0000      -0.341388        -9.2896
 190   2.0000      -0.339109        -9.2276
 191   2.0000      -0.337425        -9.1818
 192   2.0000      -0.334650        -9.1063
 193   2.0000      -0.332074        -9.0362
 194   2.0000      -0.329026        -8.9532
 195   2.0000      -0.326857        -8.8942
 196   2.0000      -0.325088        -8.8461
 197   2.0000      -0.303173        -8.2498
 198   2.0000      -0.272738        -7.4216
 199   2.0000      -0.253283        -6.8922
 200   2.0000      -0.229142        -6.2353
 201   0.0000      -0.082634        -2.2486
 202   0.0000      -0.068293        -1.8584
 203   0.0000      -0.036135        -0.9833
 204   0.0000      -0.028867        -0.7855
 205   0.0000      -0.008459        -0.2302

MULLIKEN ATOMIC CHARGES
-----------------------
   0 C :    0.107333
   1 N :   -0.063763
   2 C :   -0.033513
   3 C :    0.025685
   4 N :   -0.185089
   5 C :    0.281874
   6 O :   -0.205871
   7 N :   -0.192389
   8 C :    0.099284
   9 C :    0.015826
  10 N :   -0.107779
  11 C :    0.079906
  12 C :    0.162523
  13 C :   -0.173185
  14 C :   -0.008851
  15 C :    0.137925
  16 O :   -0.166926
  17 N :   -0.126630
  18 C :    0.014595
  19 O :   -0.252849
  20 C :    0.228198
  21 O :   -0.152539
  22 S :    0.166679
  23 C :   -0.052157
  24 C :   -0.064239
  25 S :    0.139431
  26 C :   -0.104075
  27 C :   -0.036981
  28 S :    0.091945
  29 C :   -0.159535
  30 C :    0.090305
  31 C :   -0.178055
  32 S :    0.190080
  33 C :   -0.193095
  34 C :    0.206261
  35 C :    0.138197
  36 C :   -0.075254
  37 C :   -0.179883
  38 N :    0.127704
  39 C :    0.031297
  40 C :    0.013000
  41 C :   -0.134802
  42 C :   -0.154175
  43 N :    0.068033
  44 C :    0.014456
  45 C :   -0.024961
  46 C :    0.096434
  47 O :   -0.189888
  48 C :    0.180931
  49 C :   -0.110700
  50 C :   -0.083940
  51 C :    0.123040
  52 C :    0.001168
  53 C :   -0.021399
  54 H :    0.063250
  55 H :    0.016560
  56 H :    0.029609
  57 H :    0.014694
  58 H :    0.052768
  59 H :    0.149495
  60 H :    0.034853
  61 H :    0.032087
  62 H :    0.054990
  63 H :    0.022861
  64 H :    0.005064
  65 H :    0.001825
  66 H :    0.018220
  67 H :    0.009318
  68 H :   -0.028535
  69 H :    0.008612
  70 H :    0.026546
  71 H :    0.033002
  72 H :    0.010338
  73 H :    0.015833
  74 H :    0.029024
Sum of atomic charges:    0.0000000

LOEWDIN ATOMIC CHARGES
----------------------
   0 C :    0.059370
   1 N :   -0.076519
   2 C :    0.025183
   3 C :   -0.034861
   4 N :    0.030897
   5 C :    0.136942
   6 O :   -0.146511
   7 N :    0.031903
   8 C :    0.005910
   9 C :   -0.021703
  10 N :   -0.087297
  11 C :    0.028265
  12 C :    0.064546
  13 C :   -0.145333
  14 C :   -0.156267
  15 C :    0.067933
  16 O :   -0.186445
  17 N :    0.032417
  18 C :   -0.052265
  19 O :   -0.061137
  20 C :    0.093495
  21 O :   -0.154005
  22 S :    0.417415
  23 C :   -0.218032
  24 C :   -0.172774
  25 S :    0.467542
  26 C :   -0.190461
  27 C :   -0.213246
  28 S :    0.336643
  29 C :   -0.171729
  30 C :   -0.063835
  31 C :   -0.175476
  32 S :    0.521992
  33 C :   -0.169390
  34 C :   -0.042970
  35 C :   -0.035425
  36 C :   -0.035520
  37 C :   -0.020025
  38 N :   -0.042700
  39 C :    0.014849
  40 C :    0.014688
  41 C :   -0.063576
  42 C :   -0.004985
  43 N :   -0.090090
  44 C :   -0.068943
  45 C :   -0.010270
  46 C :    0.003993
  47 O :    0.027960
  48 C :    0.036079
  49 C :   -0.068213
  50 C :   -0.042549
  51 C :   -0.047995
  52 C :   -0.032598
  53 C :   -0.036769
  54 H :    0.032081
  55 H :    0.027798
  56 H :    0.034754
  57 H :    0.026714
  58 H :    0.026463
  59 H :    0.071073
  60 H :    0.029949
  61 H :    0.028534
  62 H :    0.015329
  63 H :    0.041349
  64 H :    0.046839
  65 H :    0.043483
  66 H :    0.034880
  67 H :    0.036686
  68 H :    0.026334
  69 H :    0.033923
  70 H :    0.036434
  71 H :    0.039225
  72 H :    0.040455
  73 H :    0.021554
  74 H :    0.028038

  Mayer bond orders larger than 0.100000
B(  0-C ,  1-N ) :   1.7165 B(  0-C ,  3-C ) :   0.1029 B(  0-C ,  4-N ) :   1.0805
B(  0-C , 54-H ) :   0.9685 B(  1-N ,  2-C ) :   1.3705 B(  2-C ,  3-C ) :   1.5179
B(  2-C , 55-H ) :   0.9739 B(  3-C ,  4-N ) :   1.0696 B(  3-C , 12-C ) :   1.0786
B(  4-N ,  5-C ) :   1.0035 B(  5-C ,  6-O ) :   2.0390 B(  5-C ,  7-N ) :   1.0297
B(  7-N ,  8-C ) :   1.0960 B(  7-N , 11-C ) :   1.0776 B(  8-C ,  9-C ) :   1.5930
B(  8-C , 56-H ) :   0.9927 B(  9-C , 10-N ) :   1.3150 B(  9-C , 57-H ) :   0.9998
B( 10-N , 11-C ) :   1.7745 B( 11-C , 58-H ) :   0.9729 B( 12-C , 13-C ) :   1.4237
B( 12-C , 17-N ) :   1.2432 B( 13-C , 14-C ) :   1.1637 B( 13-C , 20-C ) :   1.0035
B( 14-C , 15-C ) :   0.9414 B( 14-C , 18-C ) :   1.5103 B( 15-C , 16-O ) :   2.2121
B( 15-C , 17-N ) :   1.0471 B( 17-N , 59-H ) :   0.8794 B( 18-C , 19-O ) :   1.1022
B( 18-C , 22-S ) :   1.0671 B( 19-O , 20-C ) :   0.9793 B( 20-C , 21-O ) :   2.1559
B( 22-S , 23-C ) :   1.0041 B( 23-C , 24-C ) :   1.5939 B( 23-C , 27-C ) :   1.2526
B( 24-C , 25-S ) :   1.2032 B( 24-C , 60-H ) :   0.9667 B( 25-S , 26-C ) :   1.1822
B( 26-C , 27-C ) :   1.6038 B( 26-C , 61-H ) :   0.9694 B( 27-C , 28-S ) :   1.0068
B( 28-S , 29-C ) :   1.0457 B( 29-C , 30-C ) :   1.7226 B( 29-C , 62-H ) :   0.9501
B( 30-C , 31-C ) :   1.1568 B( 30-C , 63-H ) :   0.9445 B( 31-C , 32-S ) :   1.1490
B( 31-C , 33-C ) :   0.1032 B( 31-C , 35-C ) :   1.3764 B( 32-S , 33-C ) :   1.1726
B( 33-C , 34-C ) :   1.3684 B( 33-C , 44-C ) :   1.0922 B( 34-C , 35-C ) :   1.1745
B( 34-C , 41-C ) :   1.1829 B( 35-C , 36-C ) :   1.2017 B( 36-C , 37-C ) :   1.1005
B( 36-C , 39-C ) :   1.5354 B( 37-C , 38-N ) :   2.9768 B( 39-C , 40-C ) :   1.1917
B( 39-C , 64-H ) :   0.9921 B( 40-C , 41-C ) :   1.5255 B( 40-C , 65-H ) :   0.9954
B( 41-C , 42-C ) :   1.1138 B( 42-C , 43-N ) :   2.8788 B( 44-C , 45-C ) :   1.6624
B( 44-C , 66-H ) :   0.9384 B( 45-C , 46-C ) :   1.2135 B( 45-C , 67-H ) :   0.9393
B( 46-C , 47-O ) :   1.1426 B( 46-C , 48-C ) :   0.1003 B( 46-C , 50-C ) :   1.4264
B( 47-O , 48-C ) :   1.1385 B( 48-C , 49-C ) :   1.4485 B( 48-C , 52-C ) :   1.1057
B( 49-C , 50-C ) :   1.2673 B( 49-C , 68-H ) :   1.0127 B( 50-C , 51-C ) :   1.0989
B( 51-C , 69-H ) :   0.9473 B( 51-C , 70-H ) :   0.9448 B( 51-C , 71-H ) :   0.9395
B( 52-C , 53-C ) :   1.9264 B( 52-C , 72-H ) :   0.9541 B( 53-C , 73-H ) :   0.9557
B( 53-C , 74-H ) :   0.9499

-----------------------------------------------------------------------------
         ABSORPTION SPECTRUM VIA TRANSITION ELECTRIC DIPOLE MOMENTS
-----------------------------------------------------------------------------
State   Energy  Wavelength   fosc         T2         TX        TY        TZ
        (cm-1)    (nm)                  (au**2)     (au)      (au)      (au)
-----------------------------------------------------------------------------
   0   14621.1    683.9   0.254721005   5.73537   1.57127   1.50185   1.00545
   1   17236.8    580.2   0.027890369   0.53269  -0.28346  -0.19631  -0.64328
   2   18093.7    552.7   0.035497643   0.64587  -0.60892  -0.47847  -0.21486
   3   22911.6    436.5   0.200518208   2.88121   1.66032   0.17290   0.30767
   4   24494.0    408.3   0.132231475   1.77726   0.51910   1.10001   0.54568
   5   25252.3    396.0   0.495402912   6.45853   2.05282   0.86680   1.22193
   6   26474.2    377.7   0.408863600   5.08430   1.65103   1.26679   0.86814
   7   27925.3    358.1   0.001564327   0.01844  -0.13158   0.01762  -0.02859
   8   29210.5    342.3   0.016776653   0.18908  -0.00288   0.43481   0.00334
   9   30639.7    326.4   0.117473077   1.26220  -0.93503  -0.59929  -0.16961
  10   31570.7    316.7   0.177062514   1.84636  -0.61508   1.19367  -0.20784
  11   32008.3    312.4   0.070917398   0.72940  -0.77593   0.27511  -0.22727
  12   33214.0    301.1   0.007065948   0.07004   0.17377  -0.12028   0.15929
  13   33888.9    295.1   0.025751286   0.25016   0.42682  -0.25938  -0.02660
  14   34042.4    293.8   0.013539561   0.13094  -0.18857   0.19033  -0.24321
  15   34779.8    287.5   0.053201870   0.50359   0.23584  -0.66632   0.06319
  16   35083.8    285.0   0.005056092   0.04744  -0.11085  -0.10684  -0.15408
  17   35611.4    280.8   0.017568593   0.16241  -0.10230  -0.34009   0.19050
  18   35765.8    279.6   0.037259510   0.34296   0.37903  -0.38516   0.22572
  19   36138.1    276.7   0.023691807   0.21583  -0.27021  -0.17592  -0.33447
  20   36245.5    275.9   0.043824149   0.39805   0.46313   0.42283   0.06908
  21   36392.7    274.8   0.091020139   0.82338   0.23488  -0.82317   0.30099
  22   36892.8    271.1   0.205650124   1.83511   0.92104  -0.98417   0.13494
  23   37734.5    265.0   0.069914696   0.60997  -0.55029  -0.50291  -0.23287
  24   37952.2    263.5   0.026609816   0.23082  -0.24394  -0.41133   0.04604
  25   38094.8    262.5   0.005707014   0.04932   0.00632  -0.15470   0.15921
  26   38156.3    262.1   0.065460012   0.56479   0.35476  -0.65388   0.10667
  27   38333.8    260.9   0.001997473   0.01715  -0.04319   0.04307  -0.11591
  28   38476.9    259.9   0.013491613   0.11544  -0.07855  -0.11341   0.31049
  29   38848.8    257.4   0.031294787   0.26520   0.02507  -0.49193   0.15025
  30   39341.7    254.2   0.080369733   0.67253  -0.40722  -0.70499  -0.09847
  31   39491.5    253.2   0.030095823   0.25089   0.25524   0.42081   0.09304
  32   39700.3    251.9   0.069410587   0.57558   0.60788   0.45387  -0.00802
  33   39952.9    250.3   0.047782104   0.39372  -0.34468   0.24812   0.46191
  34   40295.9    248.2   0.002682780   0.02192   0.12850   0.01179   0.07257

FINAL SINGLE POINT ENERGY     -3809.512982668775

DIPOLE MOMENT
-------------
                                X             Y             Z
Electronic contribution:     34.93733      21.73066      26.91894
Nuclear contribution   :    -35.85758     -22.63950     -27.67244
                        -----------------------------------------
Total Dipole Moment    :     -0.92025      -0.90885      -0.75350
                        -----------------------------------------
Magnitude (a.u.)       :      1.49687
Magnitude (Debye)      :      3.80473

Rotational constants in cm-1:     0.002827     0.001078     0.001027
Rotational constants in MHz :    84.757947    32.325260    30.795430

                             ****ORCA TERMINATED NORMALLY****
TOTAL RUN TIME: 0 days 0 hours 7 minutes 20 seconds 170 msec
