                         Program Version 4.2.0 -  RELEASE  -
|  1> # ORCA input file
|  2> # SCF done       -136.287914609783          0.000343941346
|  3> ! CAM-B3LYP def2-SVP def2/J RIJCOSX Grid4 TightSCF
|  4> %maxcore 5000
|  5> %tddft
|  6>     Mode sTDDFT
|  7>     Ethresh 5.0
|  8>     maxcore 5000
|  9> end
| 10>
| 11> %pal
| 12>   nprocs 6
| 13>   end
| 14> * xyz 0 1
| 15>    C        0.93883        -2.23587        -4.00878
| 16>    S        0.95780        -0.75808        -4.95840
| 17>    C        2.67622        -0.98642        -5.38723
| 18>    O        3.31659        -0.24583        -6.07389
| 19>    N        3.12442        -2.13955        -4.80224
| 20>    C        2.23916        -2.87244        -4.03648
| 21>    O        2.55881        -3.91050        -3.48229
| 22>    C        4.49553        -2.56228        -4.98834
| 23>    C       -0.20495        -2.64411        -3.38098
| 24>    C       -0.45326        -3.77146        -2.58549
| 25>    S        0.74422        -4.95507        -2.15657
| 26>    C       -0.37609        -5.88230        -1.22530
| 27>    C       -1.66794        -5.31816        -1.26531
| 28>    C       -1.70723        -4.10484        -2.01627
| 29>    C       -2.93514        -3.40293        -2.11107
| 30>    C       -3.11633        -2.18666        -2.80771
| 31>    N       -3.37577        -1.20349        -3.34015
| 32>    C       -4.06916        -3.90985        -1.49349
| 33>    C       -4.03821        -5.12054        -0.81057
| 34>    C       -2.85786        -5.83671        -0.69959
| 35>    C       -2.93589        -7.10888        -0.08746
| 36>    N       -3.09885        -8.15222         0.35991
| 37>    C        0.03939        -7.01616        -0.49386
| 38>    C        1.26043        -7.59708        -0.64112
| 39>    C        1.72775        -8.70110         0.10752
| 40>    S        3.14827        -9.55991        -0.42692
| 41>    C        3.05746       -10.70251         0.88523
| 42>    C        1.97286       -10.40343         1.71005
| 43>    C        1.22975        -9.27567         1.27373
| 44>    C        0.15998        -8.76464         2.02990
| 45>    N       -0.67659        -8.34741         2.69453
| 46>    C        1.61335       -11.10226         2.87382
| 47>    N        1.28756       -11.64761         3.82958
| 48>    C        4.02437       -11.73217         0.95599
| 49>    C        4.06263       -12.71738         1.89346
| 50>    C        5.02385       -13.74685         1.93183
| 51>    C        6.05499       -14.07875         1.07506
| 52>    C        6.80437       -15.19823         1.48221
| 53>    O        7.78864       -15.48987         0.58633
| 54>    C        7.68447       -14.52334        -0.44764
| 55>    N        6.61964       -13.59011        -0.08792
| 56>    C        6.39638       -15.78964         2.64891
| 57>    S        5.01692       -14.89859         3.27047
| 58>    C        6.91815       -16.93210         3.30682
| 59>    S        8.28337       -17.78579         2.64998
| 60>    C        8.22909       -18.92854         3.96793
| 61>    C        7.20559       -18.63788         4.84463
| 62>    C        6.46828       -17.51464         4.47261
| 63>    C        9.13844       -19.97446         4.04927
| 64>    C        9.93816       -20.88326         4.10758
| 65>    C       10.84658       -21.94621         4.20727
| 66>    C       11.82578       -22.15925         3.33001
| 67>    H        4.69702        -2.71271        -6.04890
| 68>    H        4.62415        -3.49504        -4.44197
| 69>    H        5.17455        -1.80128        -4.60374
| 70>    H       -1.05569        -1.99127        -3.52582
| 71>    H       -4.99553        -3.36003        -1.56664
| 72>    H       -4.94225        -5.51519        -0.37262
| 73>    H       -0.66129        -7.42910         0.21585
| 74>    H        1.93042        -7.22507        -1.40647
| 75>    H        4.78787       -11.69955         0.19114
| 76>    H        3.32327       -12.73834         2.68043
| 77>    H        7.48909       -15.03740        -1.40177
| 78>    H        8.64231       -13.98720        -0.52231
| 79>    H        6.02205       -13.26579        -0.83242
| 80>    H        7.00981       -19.22860         5.72140
| 81>    H        5.63025       -17.12527         5.02307
| 82>    H       10.70520       -22.60096         5.05900
| 83>    H       11.97231       -21.51166         2.48190
| 84>    H       12.50605       -22.98606         3.43735
| 85> *
| 86>
| 87>                          ****END OF INPUT****

CARTESIAN COORDINATES (ANGSTROEM)
---------------------------------
  C      0.938830   -2.235870   -4.008780
  S      0.957800   -0.758080   -4.958400
  C      2.676220   -0.986420   -5.387230
  O      3.316590   -0.245830   -6.073890
  N      3.124420   -2.139550   -4.802240
  C      2.239160   -2.872440   -4.036480
  O      2.558810   -3.910500   -3.482290
  C      4.495530   -2.562280   -4.988340
  C     -0.204950   -2.644110   -3.380980
  C     -0.453260   -3.771460   -2.585490
  S      0.744220   -4.955070   -2.156570
  C     -0.376090   -5.882300   -1.225300
  C     -1.667940   -5.318160   -1.265310
  C     -1.707230   -4.104840   -2.016270
  C     -2.935140   -3.402930   -2.111070
  C     -3.116330   -2.186660   -2.807710
  N     -3.375770   -1.203490   -3.340150
  C     -4.069160   -3.909850   -1.493490
  C     -4.038210   -5.120540   -0.810570
  C     -2.857860   -5.836710   -0.699590
  C     -2.935890   -7.108880   -0.087460
  N     -3.098850   -8.152220    0.359910
  C      0.039390   -7.016160   -0.493860
  C      1.260430   -7.597080   -0.641120
  C      1.727750   -8.701100    0.107520
  S      3.148270   -9.559910   -0.426920
  C      3.057460  -10.702510    0.885230
  C      1.972860  -10.403430    1.710050
  C      1.229750   -9.275670    1.273730
  C      0.159980   -8.764640    2.029900
  N     -0.676590   -8.347410    2.694530
  C      1.613350  -11.102260    2.873820
  N      1.287560  -11.647610    3.829580
  C      4.024370  -11.732170    0.955990
  C      4.062630  -12.717380    1.893460
  C      5.023850  -13.746850    1.931830
  C      6.054990  -14.078750    1.075060
  C      6.804370  -15.198230    1.482210
  O      7.788640  -15.489870    0.586330
  C      7.684470  -14.523340   -0.447640
  N      6.619640  -13.590110   -0.087920
  C      6.396380  -15.789640    2.648910
  S      5.016920  -14.898590    3.270470
  C      6.918150  -16.932100    3.306820
  S      8.283370  -17.785790    2.649980
  C      8.229090  -18.928540    3.967930
  C      7.205590  -18.637880    4.844630
  C      6.468280  -17.514640    4.472610
  C      9.138440  -19.974460    4.049270
  C      9.938160  -20.883260    4.107580
  C     10.846580  -21.946210    4.207270
  C     11.825780  -22.159250    3.330010
  H      4.697020   -2.712710   -6.048900
  H      4.624150   -3.495040   -4.441970
  H      5.174550   -1.801280   -4.603740
  H     -1.055690   -1.991270   -3.525820
  H     -4.995530   -3.360030   -1.566640
  H     -4.942250   -5.515190   -0.372620
  H     -0.661290   -7.429100    0.215850
  H      1.930420   -7.225070   -1.406470
  H      4.787870  -11.699550    0.191140
  H      3.323270  -12.738340    2.680430
  H      7.489090  -15.037400   -1.401770
  H      8.642310  -13.987200   -0.522310
  H      6.022050  -13.265790   -0.832420
  H      7.009810  -19.228600    5.721400
  H      5.630250  -17.125270    5.023070
  H     10.705200  -22.600960    5.059000
  H     11.972310  -21.511660    2.481900
  H     12.506050  -22.986060    3.437350

 Total Charge           Charge          ....    0
 Multiplicity           Mult            ....    1
 Number of Electrons    NEL             ....  392
 Basis Dimension        Dim             ....  838

ORBITAL ENERGIES
----------------

  NO   OCC          E(Eh)            E(eV)
   0   2.0000     -88.988533     -2421.5011
   1   2.0000     -88.986124     -2421.4355
   2   2.0000     -88.958048     -2420.6716
   3   2.0000     -88.957034     -2420.6440
   4   2.0000     -88.956473     -2420.6287
   5   2.0000     -19.273581      -524.4608
   6   2.0000     -19.224150      -523.1157
   7   2.0000     -19.218620      -522.9652
   8   2.0000     -14.477973      -393.9657
   9   2.0000     -14.455698      -393.3595
  10   2.0000     -14.426522      -392.5656
  11   2.0000     -14.419609      -392.3775
  12   2.0000     -14.411643      -392.1608
  13   2.0000     -14.411517      -392.1573
  14   2.0000     -10.413919      -283.3771
  15   2.0000     -10.408690      -283.2348
  16   2.0000     -10.382288      -282.5164
  17   2.0000     -10.342032      -281.4210
  18   2.0000     -10.341972      -281.4194
  19   2.0000     -10.341896      -281.4173
  20   2.0000     -10.341614      -281.4096
  21   2.0000     -10.337267      -281.2913
  22   2.0000     -10.333368      -281.1852
  23   2.0000     -10.331144      -281.1247
  24   2.0000     -10.330906      -281.1182
  25   2.0000     -10.328662      -281.0572
  26   2.0000     -10.326353      -280.9944
  27   2.0000     -10.326316      -280.9933
  28   2.0000     -10.326109      -280.9877
  29   2.0000     -10.326054      -280.9862
  30   2.0000     -10.323022      -280.9037
  31   2.0000     -10.320535      -280.8360
  32   2.0000     -10.319295      -280.8023
  33   2.0000     -10.317637      -280.7572
  34   2.0000     -10.317506      -280.7536
  35   2.0000     -10.315663      -280.7034
  36   2.0000     -10.315008      -280.6856
  37   2.0000     -10.311816      -280.5988
  38   2.0000     -10.311134      -280.5802
  39   2.0000     -10.310801      -280.5712
  40   2.0000     -10.310183      -280.5543
  41   2.0000     -10.309914      -280.5470
  42   2.0000     -10.308988      -280.5218
  43   2.0000     -10.305990      -280.4402
  44   2.0000     -10.303240      -280.3654
  45   2.0000     -10.296855      -280.1917
  46   2.0000     -10.288887      -279.9749
  47   2.0000     -10.277335      -279.6605
  48   2.0000     -10.275878      -279.6208
  49   2.0000     -10.272496      -279.5288
  50   2.0000     -10.271309      -279.4965
  51   2.0000     -10.268775      -279.4276
  52   2.0000      -8.081907      -219.9199
  53   2.0000      -8.081615      -219.9119
  54   2.0000      -8.054125      -219.1639
  55   2.0000      -8.053415      -219.1446
  56   2.0000      -8.051997      -219.1060
  57   2.0000      -6.051122      -164.6594
  58   2.0000      -6.050587      -164.6448
  59   2.0000      -6.047098      -164.5499
  60   2.0000      -6.046117      -164.5232
  61   2.0000      -6.044728      -164.4854
  62   2.0000      -6.043985      -164.4652
  63   2.0000      -6.023735      -163.9142
  64   2.0000      -6.022798      -163.8887
  65   2.0000      -6.021900      -163.8642
  66   2.0000      -6.020172      -163.8172
  67   2.0000      -6.018562      -163.7734
  68   2.0000      -6.017832      -163.7535
  69   2.0000      -6.015379      -163.6868
  70   2.0000      -6.014344      -163.6586
  71   2.0000      -6.012829      -163.6174
  72   2.0000      -1.197871       -32.5957
  73   2.0000      -1.174333       -31.9552
  74   2.0000      -1.149545       -31.2807
  75   2.0000      -1.062236       -28.9049
  76   2.0000      -1.039342       -28.2819
  77   2.0000      -1.034319       -28.1453
  78   2.0000      -1.027460       -27.9586
  79   2.0000      -1.011561       -27.5260
  80   2.0000      -1.003352       -27.3026
  81   2.0000      -0.995965       -27.1016
  82   2.0000      -0.992831       -27.0163
  83   2.0000      -0.989864       -26.9356
  84   2.0000      -0.974005       -26.5040
  85   2.0000      -0.971014       -26.4226
  86   2.0000      -0.954876       -25.9835
  87   2.0000      -0.934188       -25.4205
  88   2.0000      -0.922297       -25.0970
  89   2.0000      -0.905676       -24.6447
  90   2.0000      -0.892869       -24.2962
  91   2.0000      -0.886936       -24.1348
  92   2.0000      -0.881542       -23.9880
  93   2.0000      -0.871005       -23.7013
  94   2.0000      -0.863463       -23.4960
  95   2.0000      -0.854907       -23.2632
  96   2.0000      -0.843519       -22.9533
  97   2.0000      -0.834654       -22.7121
  98   2.0000      -0.820044       -22.3145
  99   2.0000      -0.813100       -22.1256
 100   2.0000      -0.807144       -21.9635
 101   2.0000      -0.790873       -21.5207
 102   2.0000      -0.784503       -21.3474
 103   2.0000      -0.774311       -21.0701
 104   2.0000      -0.763585       -20.7782
 105   2.0000      -0.754350       -20.5269
 106   2.0000      -0.745135       -20.2762
 107   2.0000      -0.723535       -19.6884
 108   2.0000      -0.713889       -19.4259
 109   2.0000      -0.709272       -19.3003
 110   2.0000      -0.704559       -19.1720
 111   2.0000      -0.698165       -18.9980
 112   2.0000      -0.696618       -18.9560
 113   2.0000      -0.682639       -18.5755
 114   2.0000      -0.670681       -18.2501
 115   2.0000      -0.658421       -17.9165
 116   2.0000      -0.653842       -17.7920
 117   2.0000      -0.646275       -17.5860
 118   2.0000      -0.640167       -17.4198
 119   2.0000      -0.630436       -17.1550
 120   2.0000      -0.615262       -16.7421
 121   2.0000      -0.608557       -16.5597
 122   2.0000      -0.604022       -16.4363
 123   2.0000      -0.600257       -16.3338
 124   2.0000      -0.594937       -16.1891
 125   2.0000      -0.591926       -16.1071
 126   2.0000      -0.585390       -15.9293
 127   2.0000      -0.582503       -15.8507
 128   2.0000      -0.579231       -15.7617
 129   2.0000      -0.571879       -15.5616
 130   2.0000      -0.564062       -15.3489
 131   2.0000      -0.559428       -15.2228
 132   2.0000      -0.558536       -15.1985
 133   2.0000      -0.545347       -14.8397
 134   2.0000      -0.541131       -14.7249
 135   2.0000      -0.540618       -14.7110
 136   2.0000      -0.539245       -14.6736
 137   2.0000      -0.533165       -14.5082
 138   2.0000      -0.529427       -14.4064
 139   2.0000      -0.525590       -14.3020
 140   2.0000      -0.521968       -14.2035
 141   2.0000      -0.518180       -14.1004
 142   2.0000      -0.508050       -13.8247
 143   2.0000      -0.507528       -13.8105
 144   2.0000      -0.504540       -13.7292
 145   2.0000      -0.498025       -13.5520
 146   2.0000      -0.494907       -13.4671
 147   2.0000      -0.494274       -13.4499
 148   2.0000      -0.491163       -13.3652
 149   2.0000      -0.490215       -13.3394
 150   2.0000      -0.487203       -13.2575
 151   2.0000      -0.484376       -13.1805
 152   2.0000      -0.483321       -13.1518
 153   2.0000      -0.479786       -13.0556
 154   2.0000      -0.477944       -13.0055
 155   2.0000      -0.474070       -12.9001
 156   2.0000      -0.464115       -12.6292
 157   2.0000      -0.462246       -12.5783
 158   2.0000      -0.458760       -12.4835
 159   2.0000      -0.458349       -12.4723
 160   2.0000      -0.456462       -12.4210
 161   2.0000      -0.453525       -12.3411
 162   2.0000      -0.451120       -12.2756
 163   2.0000      -0.449440       -12.2299
 164   2.0000      -0.447465       -12.1761
 165   2.0000      -0.441569       -12.0157
 166   2.0000      -0.439715       -11.9653
 167   2.0000      -0.438607       -11.9351
 168   2.0000      -0.436252       -11.8710
 169   2.0000      -0.432591       -11.7714
 170   2.0000      -0.427607       -11.6358
 171   2.0000      -0.423592       -11.5265
 172   2.0000      -0.422636       -11.5005
 173   2.0000      -0.418571       -11.3899
 174   2.0000      -0.415719       -11.3123
 175   2.0000      -0.415291       -11.3007
 176   2.0000      -0.411250       -11.1907
 177   2.0000      -0.409388       -11.1400
 178   2.0000      -0.406374       -11.0580
 179   2.0000      -0.397372       -10.8130
 180   2.0000      -0.391783       -10.6610
 181   2.0000      -0.373326       -10.1587
 182   2.0000      -0.372549       -10.1376
 183   2.0000      -0.362873        -9.8743
 184   2.0000      -0.350703        -9.5431
 185   2.0000      -0.349671        -9.5150
 186   2.0000      -0.345776        -9.4090
 187   2.0000      -0.339914        -9.2495
 188   2.0000      -0.338895        -9.2218
 189   2.0000      -0.333104        -9.0642
 190   2.0000      -0.325320        -8.8524
 191   2.0000      -0.318568        -8.6687
 192   2.0000      -0.291136        -7.9222
 193   2.0000      -0.273345        -7.4381
 194   2.0000      -0.256041        -6.9672
 195   2.0000      -0.235616        -6.4114
 196   0.0000      -0.107156        -2.9159
 197   0.0000      -0.069123        -1.8809
 198   0.0000      -0.056534        -1.5384
 199   0.0000      -0.037695        -1.0257
 200   0.0000      -0.022047        -0.5999

MULLIKEN ATOMIC CHARGES
-----------------------
   0 C :   -0.224304
   1 S :    0.076459
   2 C :    0.136622
   3 O :   -0.176668
   4 N :   -0.265157
   5 C :    0.258565
   6 O :   -0.223782
   7 C :    0.126179
   8 C :    0.030999
   9 C :   -0.119557
  10 S :    0.218942
  11 C :   -0.112522
  12 C :    0.157152
  13 C :    0.177822
  14 C :   -0.108006
  15 C :   -0.170943
  16 N :    0.109059
  17 C :    0.028242
  18 C :    0.016545
  19 C :   -0.077969
  20 C :   -0.192477
  21 N :    0.137155
  22 C :   -0.030579
  23 C :    0.039872
  24 C :   -0.099873
  25 S :    0.157297
  26 C :   -0.081292
  27 C :   -0.038712
  28 C :    0.005319
  29 C :   -0.265429
  30 N :    0.208621
  31 C :   -0.247564
  32 N :    0.190299
  33 C :    0.011347
  34 C :    0.077314
  35 C :   -0.238228
  36 C :    0.141952
  37 C :    0.146079
  38 O :   -0.307003
  39 C :    0.337281
  40 N :   -0.198917
  41 C :   -0.131762
  42 S :    0.134166
  43 C :   -0.050575
  44 S :    0.179319
  45 C :   -0.139132
  46 C :    0.067218
  47 C :   -0.028319
  48 C :    0.079813
  49 C :   -0.083648
  50 C :   -0.090365
  51 C :    0.000704
  52 H :    0.048434
  53 H :    0.054810
  54 H :    0.048809
  55 H :    0.001326
  56 H :    0.011562
  57 H :    0.009781
  58 H :    0.037431
  59 H :    0.000502
  60 H :   -0.047865
  61 H :   -0.003049
  62 H :    0.031486
  63 H :    0.036941
  64 H :    0.144125
  65 H :   -0.010308
  66 H :   -0.003879
  67 H :    0.031855
  68 H :    0.030202
  69 H :    0.030275
Sum of atomic charges:   -0.0000000

LOEWDIN ATOMIC CHARGES
----------------------
   0 C :   -0.220491
   1 S :    0.347062
   2 C :   -0.053354
   3 O :   -0.165705
   4 N :   -0.041068
   5 C :    0.067168
   6 O :   -0.202841
   7 C :    0.041039
   8 C :   -0.011037
   9 C :   -0.186331
  10 S :    0.570378
  11 C :   -0.165622
  12 C :   -0.032101
  13 C :   -0.015834
  14 C :   -0.052682
  15 C :   -0.028772
  16 N :   -0.046991
  17 C :    0.022433
  18 C :    0.011834
  19 C :   -0.036617
  20 C :   -0.031404
  21 N :   -0.028684
  22 C :   -0.025224
  23 C :   -0.039836
  24 C :   -0.146469
  25 S :    0.463156
  26 C :   -0.121616
  27 C :   -0.098876
  28 C :   -0.074967
  29 C :   -0.032566
  30 N :   -0.028150
  31 C :   -0.029764
  32 N :   -0.043054
  33 C :   -0.087777
  34 C :    0.006522
  35 C :   -0.212443
  36 C :   -0.010926
  37 C :   -0.002794
  38 O :   -0.104364
  39 C :    0.167117
  40 N :   -0.051460
  41 C :   -0.201943
  42 S :    0.417816
  43 C :   -0.182171
  44 S :    0.461724
  45 C :   -0.188414
  46 C :   -0.032259
  47 C :   -0.060533
  48 C :   -0.060002
  49 C :   -0.027194
  50 C :   -0.042722
  51 C :   -0.017233
  52 H :    0.035428
  53 H :    0.036956
  54 H :    0.035772
  55 H :    0.048612
  56 H :    0.047781
  57 H :    0.047475
  58 H :    0.046197
  59 H :    0.026657
  60 H :    0.020121
  61 H :    0.041223
  62 H :    0.015679
  63 H :    0.019029
  64 H :    0.079410
  65 H :    0.035732
  66 H :    0.029620
  67 H :    0.044605
  68 H :    0.028777
  69 H :    0.026967

  Mayer bond orders larger than 0.100000
B(  0-C ,  1-S ) :   1.0459 B(  0-C ,  5-C ) :   0.9886 B(  0-C ,  8-C ) :   1.6627
B(  1-S ,  2-C ) :   0.9972 B(  2-C ,  3-O ) :   2.1326 B(  2-C ,  4-N ) :   1.0552
B(  4-N ,  5-C ) :   1.0951 B(  4-N ,  7-C ) :   0.9315 B(  5-C ,  6-O ) :   2.0267
B(  7-C , 52-H ) :   0.9762 B(  7-C , 53-H ) :   0.9585 B(  7-C , 54-H ) :   0.9767
B(  8-C ,  9-C ) :   1.2528 B(  8-C , 55-H ) :   0.9205 B(  9-C , 10-S ) :   1.1349
B(  9-C , 13-C ) :   1.2938 B( 10-S , 11-C ) :   1.1526 B( 11-C , 12-C ) :   1.2787
B( 11-C , 22-C ) :   1.2003 B( 12-C , 13-C ) :   1.2050 B( 12-C , 19-C ) :   1.2307
B( 13-C , 14-C ) :   1.2164 B( 14-C , 15-C ) :   1.0807 B( 14-C , 17-C ) :   1.5183
B( 15-C , 16-N ) :   2.9617 B( 17-C , 18-C ) :   1.2226 B( 17-C , 56-H ) :   0.9926
B( 18-C , 19-C ) :   1.5130 B( 18-C , 57-H ) :   0.9951 B( 19-C , 20-C ) :   1.0820
B( 20-C , 21-N ) :   2.9953 B( 22-C , 23-C ) :   1.6324 B( 22-C , 58-H ) :   0.9467
B( 23-C , 24-C ) :   1.1614 B( 23-C , 59-H ) :   0.9483 B( 24-C , 25-S ) :   1.1058
B( 24-C , 28-C ) :   1.4686 B( 25-S , 26-C ) :   1.1260 B( 26-C , 27-C ) :   1.4430
B( 26-C , 33-C ) :   1.1828 B( 27-C , 28-C ) :   1.3383 B( 27-C , 31-C ) :   1.1705
B( 28-C , 29-C ) :   1.1555 B( 29-C , 30-N ) :   2.9650 B( 31-C , 32-N ) :   2.9394
B( 33-C , 34-C ) :   1.6303 B( 33-C , 60-H ) :   0.9363 B( 34-C , 35-C ) :   1.2077
B( 34-C , 61-H ) :   0.9332 B( 35-C , 36-C ) :   1.4631 B( 35-C , 42-S ) :   1.0501
B( 36-C , 37-C ) :   1.2478 B( 36-C , 40-N ) :   1.1472 B( 37-C , 38-O ) :   1.1068
B( 37-C , 41-C ) :   1.5404 B( 38-O , 39-C ) :   0.9771 B( 39-C , 40-N ) :   1.0020
B( 39-C , 62-H ) :   0.9590 B( 39-C , 63-H ) :   0.9577 B( 40-N , 64-H ) :   0.9117
B( 41-C , 42-S ) :   1.0805 B( 41-C , 43-C ) :   1.1605 B( 43-C , 44-S ) :   1.1320
B( 43-C , 45-C ) :   0.1048 B( 43-C , 47-C ) :   1.4859 B( 44-S , 45-C ) :   1.0966
B( 45-C , 46-C ) :   1.5096 B( 45-C , 48-C ) :   0.9660 B( 46-C , 47-C ) :   1.2685
B( 46-C , 65-H ) :   1.0012 B( 47-C , 66-H ) :   0.9958 B( 48-C , 49-C ) :   2.3656
B( 49-C , 50-C ) :   1.0180 B( 50-C , 51-C ) :   1.9312 B( 50-C , 67-H ) :   0.9616
B( 51-C , 68-H ) :   0.9632 B( 51-C , 69-H ) :   0.9554

-----------------------------------------------------------------------------
         ABSORPTION SPECTRUM VIA TRANSITION ELECTRIC DIPOLE MOMENTS
-----------------------------------------------------------------------------
State   Energy  Wavelength   fosc         T2         TX        TY        TZ
        (cm-1)    (nm)                  (au**2)     (au)      (au)      (au)
-----------------------------------------------------------------------------
   0   14577.7    686.0   1.282269265  28.95780  -1.58605   4.55423  -2.38772
   1   20170.9    495.8   0.394219668   6.43410   2.12287  -1.38776  -0.04070
   2   22002.7    454.5   0.723353291  10.82307  -1.41918   2.79311  -1.00375
   3   23898.7    418.4   0.127770247   1.76008  -1.13887   0.67363   0.09637
   4   24622.9    406.1   0.301824317   4.03544  -1.72591   0.05696   1.02637
   5   27201.0    367.6   0.077245242   0.93489  -0.02313  -0.79954   0.54323
   6   28395.4    352.2   0.125719964   1.45758   1.18674   0.18958  -0.11529
   7   28738.6    348.0   0.027383581   0.31369   0.10412  -0.07887   0.54464
   8   30112.4    332.1   0.035165562   0.38446   0.52493   0.10463  -0.31299
   9   31158.5    320.9   0.015820705   0.16716   0.29997  -0.03771  -0.27523
  10   31433.3    318.1   0.051793270   0.54245  -0.71938  -0.00997   0.15761
  11   31764.7    314.8   0.213323406   2.21090  -0.73513   1.20083  -0.47800
  12   32345.3    309.2   0.083228211   0.84710   0.76772  -0.49998   0.08788
  13   33528.6    298.3   0.008160838   0.08013  -0.23311  -0.15528  -0.04099
  14   34406.4    290.6   0.027142574   0.25971   0.50595   0.00605   0.06069
  15   34906.5    286.5   0.019925279   0.18792  -0.24382   0.02247   0.35772
  16   35615.6    280.8   0.155949943   1.44152  -1.12112   0.02259   0.42906
  17   35862.1    278.8   0.244948198   2.24861  -1.35484   0.61672  -0.18074
  18   36583.1    273.4   0.026749686   0.24072   0.45806   0.05953  -0.16541
  19   37570.7    266.2   0.004151482   0.03638   0.16964  -0.03367  -0.08040
  20   37849.7    264.2   0.082805931   0.72024  -0.80692  -0.08285   0.24951
  21   39052.1    256.1   0.004761717   0.04014   0.16021  -0.08344  -0.08668
  22   39138.4    255.5   0.006103016   0.05134  -0.20981   0.06479  -0.05582
  23   39401.3    253.8   0.001411696   0.01180   0.02271   0.05375  -0.09160
  24   39484.0    253.3   0.010493513   0.08749  -0.06076   0.27391  -0.09367
  25   39800.8    251.3   0.081154971   0.67127   0.76178  -0.08092  -0.29054

FINAL SINGLE POINT ENERGY     -4000.723086820080

DIPOLE MOMENT
-------------
                                X             Y             Z
Electronic contribution:    -26.34404      28.28483      -3.28245
Nuclear contribution   :     28.49064     -29.54556       1.35129
                        -----------------------------------------
Total Dipole Moment    :      2.14660      -1.26073      -1.93117
                        -----------------------------------------
Magnitude (a.u.)       :      3.15067
Magnitude (Debye)      :      8.00837

Rotational constants in cm-1:     0.003310     0.000380     0.000344
Rotational constants in MHz :    99.220468    11.379115    10.306574

                             ****ORCA TERMINATED NORMALLY****
TOTAL RUN TIME: 0 days 0 hours 10 minutes 7 seconds 353 msec
