                         Program Version 4.2.0 -  RELEASE  -
|  1> # ORCA input file
|  2> # SCF done       -145.960062859771          0.000876231404
|  3> ! CAM-B3LYP def2-SVP def2/J RIJCOSX Grid4 TightSCF
|  4> %maxcore 5000
|  5> %tddft
|  6>     Mode sTDDFT
|  7>     Ethresh 5.0
|  8>     maxcore 5000
|  9> end
| 10>
| 11> %pal
| 12>   nprocs 6
| 13>   end
| 14> * xyz 0 1
| 15>    C        3.06062        -4.65206         3.39945
| 16>    C        3.73547        -4.02767         4.52811
| 17>    C        3.10219        -2.89844         4.88269
| 18>    C        1.93128        -2.72440         4.00076
| 19>    O        1.00760        -1.95974         4.11482
| 20>    C        2.02740        -3.87443         3.00165
| 21>    C        1.05180        -4.09294         1.99681
| 22>    S        0.43128        -5.67703         1.67809
| 23>    C       -0.78368        -5.08882         0.57989
| 24>    C       -0.68430        -3.69373         0.44552
| 25>    C        0.38192        -3.14033         1.22342
| 26>    C        0.72756        -1.77121         1.07421
| 27>    C        1.93549        -1.25959         1.59760
| 28>    N        2.94595        -0.82881         1.92743
| 29>    C       -0.06388        -0.95180         0.29466
| 30>    C       -1.17594        -1.46467        -0.37560
| 31>    C       -1.47690        -2.81492        -0.33977
| 32>    C       -2.57809        -3.24601        -1.11057
| 33>    N       -3.48527        -3.52186        -1.75724
| 34>    C       -1.68173        -5.97481        -0.05430
| 35>    C       -1.67518        -7.32085         0.13620
| 36>    C       -2.52763        -8.19072        -0.51646
| 37>    C       -3.25980        -8.96154        -1.10959
| 38>    C       -4.03481        -9.89268        -1.77004
| 39>    S       -3.83993       -11.59455        -1.43065
| 40>    C       -5.04395       -11.99375        -2.63208
| 41>    C       -5.55213       -10.85663        -3.23375
| 42>    C       -4.98838        -9.68092        -2.74973
| 43>    C       -5.34376       -13.31709        -2.87516
| 44>    C       -5.52056       -14.51228        -3.03213
| 45>    C       -5.67502       -15.86977        -3.18394
| 46>    S       -6.59955       -16.58631        -4.45481
| 47>    C       -6.18207       -18.20763        -3.95297
| 48>    C       -5.40095       -18.17708        -2.77457
| 49>    C       -5.09673       -16.84976        -2.36135
| 50>    C       -4.29548       -16.61894        -1.22764
| 51>    C       -3.81750       -17.66831        -0.49676
| 52>    C       -2.95556       -17.47494         0.70701
| 53>    C       -4.17053       -19.00173        -0.87483
| 54>    O       -3.68129       -19.96642        -0.06752
| 55>    C       -3.98820       -21.31668        -0.34605
| 56>    C       -4.95490       -19.24592        -1.98050
| 57>    C       -6.60189       -19.27007        -4.76675
| 58>    C       -6.13311       -20.55135        -4.69468
| 59>    C       -6.56841       -21.61894        -5.49493
| 60>    S       -7.72815       -21.42134        -6.77829
| 61>    C       -7.64455       -23.10387        -7.23297
| 62>    C       -6.76122       -23.78784        -6.42161
| 63>    C       -6.15607       -22.95623        -5.43222
| 64>    N       -5.25976       -23.48788        -4.48946
| 65>    O       -4.86211       -22.77517        -3.57278
| 66>    O       -4.92267       -24.65172        -4.62457
| 67>    C       -6.50256       -25.16888        -6.53999
| 68>    N       -6.35300       -26.29590        -6.69438
| 69>    C       -8.46521       -23.52884        -8.33405
| 70>    C       -8.51835       -24.75026        -8.86279
| 71>    H        3.37993        -5.57169         2.94259
| 72>    H        4.61897        -4.44091         4.98120
| 73>    H        3.34691        -2.21171         5.66881
| 74>    H        0.19182         0.09123         0.18731
| 75>    H       -1.79256        -0.80419        -0.96676
| 76>    H       -2.40267        -5.54625        -0.73445
| 77>    H       -0.96435        -7.76923         0.82146
| 78>    H       -6.30602       -10.89865        -3.99948
| 79>    H       -5.24887        -8.69574        -3.09304
| 80>    H       -4.06988       -15.60081        -0.94713
| 81>    H       -2.77144       -16.41941         0.88605
| 82>    H       -2.00565       -17.98898         0.56983
| 83>    H       -3.43401       -17.91167         1.58217
| 84>    H       -3.45076       -21.89748         0.40109
| 85>    H       -3.65948       -21.61492        -1.34495
| 86>    H       -5.06079       -21.50794        -0.25014
| 87>    H       -5.24308       -20.25365        -2.21501
| 88>    H       -7.33057       -19.02822        -5.53308
| 89>    H       -5.34650       -20.79642        -4.00345
| 90>    H       -9.08146       -22.73896        -8.74673
| 91>    H       -7.92588       -25.56818        -8.49603
| 92>    H       -9.17181       -24.95727        -9.69215
| 93> *
| 94>
| 95>                          ****END OF INPUT****

CARTESIAN COORDINATES (ANGSTROEM)
---------------------------------
  C      3.060620   -4.652060    3.399450
  C      3.735470   -4.027670    4.528110
  C      3.102190   -2.898440    4.882690
  C      1.931280   -2.724400    4.000760
  O      1.007600   -1.959740    4.114820
  C      2.027400   -3.874430    3.001650
  C      1.051800   -4.092940    1.996810
  S      0.431280   -5.677030    1.678090
  C     -0.783680   -5.088820    0.579890
  C     -0.684300   -3.693730    0.445520
  C      0.381920   -3.140330    1.223420
  C      0.727560   -1.771210    1.074210
  C      1.935490   -1.259590    1.597600
  N      2.945950   -0.828810    1.927430
  C     -0.063880   -0.951800    0.294660
  C     -1.175940   -1.464670   -0.375600
  C     -1.476900   -2.814920   -0.339770
  C     -2.578090   -3.246010   -1.110570
  N     -3.485270   -3.521860   -1.757240
  C     -1.681730   -5.974810   -0.054300
  C     -1.675180   -7.320850    0.136200
  C     -2.527630   -8.190720   -0.516460
  C     -3.259800   -8.961540   -1.109590
  C     -4.034810   -9.892680   -1.770040
  S     -3.839930  -11.594550   -1.430650
  C     -5.043950  -11.993750   -2.632080
  C     -5.552130  -10.856630   -3.233750
  C     -4.988380   -9.680920   -2.749730
  C     -5.343760  -13.317090   -2.875160
  C     -5.520560  -14.512280   -3.032130
  C     -5.675020  -15.869770   -3.183940
  S     -6.599550  -16.586310   -4.454810
  C     -6.182070  -18.207630   -3.952970
  C     -5.400950  -18.177080   -2.774570
  C     -5.096730  -16.849760   -2.361350
  C     -4.295480  -16.618940   -1.227640
  C     -3.817500  -17.668310   -0.496760
  C     -2.955560  -17.474940    0.707010
  C     -4.170530  -19.001730   -0.874830
  O     -3.681290  -19.966420   -0.067520
  C     -3.988200  -21.316680   -0.346050
  C     -4.954900  -19.245920   -1.980500
  C     -6.601890  -19.270070   -4.766750
  C     -6.133110  -20.551350   -4.694680
  C     -6.568410  -21.618940   -5.494930
  S     -7.728150  -21.421340   -6.778290
  C     -7.644550  -23.103870   -7.232970
  C     -6.761220  -23.787840   -6.421610
  C     -6.156070  -22.956230   -5.432220
  N     -5.259760  -23.487880   -4.489460
  O     -4.862110  -22.775170   -3.572780
  O     -4.922670  -24.651720   -4.624570
  C     -6.502560  -25.168880   -6.539990
  N     -6.353000  -26.295900   -6.694380
  C     -8.465210  -23.528840   -8.334050
  C     -8.518350  -24.750260   -8.862790
  H      3.379930   -5.571690    2.942590
  H      4.618970   -4.440910    4.981200
  H      3.346910   -2.211710    5.668810
  H      0.191820    0.091230    0.187310
  H     -1.792560   -0.804190   -0.966760
  H     -2.402670   -5.546250   -0.734450
  H     -0.964350   -7.769230    0.821460
  H     -6.306020  -10.898650   -3.999480
  H     -5.248870   -8.695740   -3.093040
  H     -4.069880  -15.600810   -0.947130
  H     -2.771440  -16.419410    0.886050
  H     -2.005650  -17.988980    0.569830
  H     -3.434010  -17.911670    1.582170
  H     -3.450760  -21.897480    0.401090
  H     -3.659480  -21.614920   -1.344950
  H     -5.060790  -21.507940   -0.250140
  H     -5.243080  -20.253650   -2.215010
  H     -7.330570  -19.028220   -5.533080
  H     -5.346500  -20.796420   -4.003450
  H     -9.081460  -22.738960   -8.746730
  H     -7.925880  -25.568180   -8.496030
  H     -9.171810  -24.957270   -9.692150

 Total Charge           Charge          ....    0
 Multiplicity           Mult            ....    1
 Number of Electrons    NEL             ....  410
 Basis Dimension        Dim             ....  910

ORBITAL ENERGIES
----------------

  NO   OCC          E(Eh)            E(eV)
   0   2.0000     -88.987555     -2421.4745
   1   2.0000     -88.981957     -2421.3222
   2   2.0000     -88.974804     -2421.1275
   3   2.0000     -88.968514     -2420.9563
   4   2.0000     -19.252905      -523.8982
   5   2.0000     -19.236707      -523.4574
   6   2.0000     -19.235963      -523.4372
   7   2.0000     -19.233989      -523.3835
   8   2.0000     -14.647013      -398.5655
   9   2.0000     -14.420165      -392.3926
  10   2.0000     -14.415104      -392.2549
  11   2.0000     -14.397645      -391.7798
  12   2.0000     -10.373917      -282.2886
  13   2.0000     -10.340250      -281.3725
  14   2.0000     -10.340242      -281.3723
  15   2.0000     -10.336076      -281.2589
  16   2.0000     -10.335248      -281.2364
  17   2.0000     -10.334891      -281.2267
  18   2.0000     -10.333255      -281.1822
  19   2.0000     -10.329035      -281.0673
  20   2.0000     -10.328630      -281.0563
  21   2.0000     -10.328380      -281.0495
  22   2.0000     -10.325131      -280.9611
  23   2.0000     -10.324624      -280.9473
  24   2.0000     -10.323805      -280.9250
  25   2.0000     -10.319783      -280.8156
  26   2.0000     -10.318585      -280.7830
  27   2.0000     -10.317243      -280.7465
  28   2.0000     -10.315229      -280.6916
  29   2.0000     -10.315057      -280.6870
  30   2.0000     -10.313828      -280.6535
  31   2.0000     -10.311054      -280.5780
  32   2.0000     -10.310733      -280.5693
  33   2.0000     -10.305725      -280.4330
  34   2.0000     -10.304203      -280.3916
  35   2.0000     -10.303021      -280.3594
  36   2.0000     -10.302967      -280.3580
  37   2.0000     -10.302731      -280.3516
  38   2.0000     -10.300529      -280.2916
  39   2.0000     -10.299641      -280.2675
  40   2.0000     -10.294622      -280.1309
  41   2.0000     -10.293900      -280.1113
  42   2.0000     -10.293630      -280.1039
  43   2.0000     -10.291234      -280.0387
  44   2.0000     -10.288766      -279.9716
  45   2.0000     -10.288757      -279.9713
  46   2.0000     -10.287420      -279.9349
  47   2.0000     -10.285342      -279.8784
  48   2.0000     -10.284484      -279.8550
  49   2.0000     -10.283095      -279.8172
  50   2.0000     -10.282070      -279.7893
  51   2.0000     -10.280532      -279.7475
  52   2.0000     -10.278877      -279.7025
  53   2.0000     -10.278510      -279.6925
  54   2.0000     -10.270526      -279.4752
  55   2.0000     -10.262660      -279.2612
  56   2.0000      -8.082545      -219.9372
  57   2.0000      -8.077710      -219.8057
  58   2.0000      -8.069829      -219.5912
  59   2.0000      -8.063996      -219.4325
  60   2.0000      -6.051442      -164.6681
  61   2.0000      -6.047394      -164.5580
  62   2.0000      -6.046934      -164.5454
  63   2.0000      -6.045429      -164.5045
  64   2.0000      -6.042923      -164.4363
  65   2.0000      -6.039712      -164.3489
  66   2.0000      -6.038955      -164.3283
  67   2.0000      -6.034841      -164.2164
  68   2.0000      -6.033380      -164.1766
  69   2.0000      -6.032336      -164.1482
  70   2.0000      -6.029188      -164.0625
  71   2.0000      -6.025898      -163.9730
  72   2.0000      -1.314982       -35.7825
  73   2.0000      -1.157260       -31.4906
  74   2.0000      -1.145581       -31.1728
  75   2.0000      -1.131423       -30.7876
  76   2.0000      -1.029580       -28.0163
  77   2.0000      -1.021541       -27.7975
  78   2.0000      -1.005513       -27.3614
  79   2.0000      -1.004294       -27.3282
  80   2.0000      -0.999740       -27.2043
  81   2.0000      -0.994732       -27.0680
  82   2.0000      -0.980195       -26.6725
  83   2.0000      -0.976465       -26.5710
  84   2.0000      -0.962477       -26.1903
  85   2.0000      -0.939504       -25.5652
  86   2.0000      -0.927094       -25.2275
  87   2.0000      -0.926219       -25.2037
  88   2.0000      -0.917935       -24.9783
  89   2.0000      -0.907062       -24.6824
  90   2.0000      -0.897866       -24.4322
  91   2.0000      -0.885027       -24.0828
  92   2.0000      -0.869465       -23.6594
  93   2.0000      -0.865937       -23.5634
  94   2.0000      -0.861952       -23.4549
  95   2.0000      -0.857142       -23.3240
  96   2.0000      -0.847981       -23.0747
  97   2.0000      -0.840280       -22.8652
  98   2.0000      -0.837676       -22.7943
  99   2.0000      -0.824835       -22.4449
 100   2.0000      -0.808850       -22.0099
 101   2.0000      -0.793358       -21.5884
 102   2.0000      -0.790710       -21.5163
 103   2.0000      -0.783720       -21.3261
 104   2.0000      -0.779869       -21.2213
 105   2.0000      -0.772333       -21.0163
 106   2.0000      -0.765367       -20.8267
 107   2.0000      -0.743644       -20.2356
 108   2.0000      -0.734680       -19.9917
 109   2.0000      -0.720063       -19.5939
 110   2.0000      -0.711888       -19.3715
 111   2.0000      -0.703771       -19.1506
 112   2.0000      -0.691812       -18.8252
 113   2.0000      -0.690739       -18.7960
 114   2.0000      -0.677604       -18.4385
 115   2.0000      -0.666969       -18.1492
 116   2.0000      -0.665341       -18.1049
 117   2.0000      -0.660771       -17.9805
 118   2.0000      -0.654018       -17.7967
 119   2.0000      -0.653543       -17.7838
 120   2.0000      -0.650496       -17.7009
 121   2.0000      -0.634412       -17.2632
 122   2.0000      -0.628739       -17.1089
 123   2.0000      -0.624377       -16.9902
 124   2.0000      -0.621173       -16.9030
 125   2.0000      -0.604298       -16.4438
 126   2.0000      -0.603703       -16.4276
 127   2.0000      -0.601612       -16.3707
 128   2.0000      -0.597255       -16.2521
 129   2.0000      -0.593437       -16.1482
 130   2.0000      -0.587470       -15.9859
 131   2.0000      -0.578479       -15.7412
 132   2.0000      -0.575386       -15.6570
 133   2.0000      -0.565793       -15.3960
 134   2.0000      -0.560975       -15.2649
 135   2.0000      -0.556375       -15.1397
 136   2.0000      -0.554565       -15.0905
 137   2.0000      -0.550082       -14.9685
 138   2.0000      -0.544065       -14.8048
 139   2.0000      -0.539073       -14.6689
 140   2.0000      -0.535024       -14.5587
 141   2.0000      -0.533298       -14.5118
 142   2.0000      -0.524706       -14.2780
 143   2.0000      -0.522602       -14.2207
 144   2.0000      -0.520541       -14.1646
 145   2.0000      -0.514445       -13.9988
 146   2.0000      -0.513318       -13.9681
 147   2.0000      -0.512762       -13.9530
 148   2.0000      -0.509840       -13.8735
 149   2.0000      -0.509478       -13.8636
 150   2.0000      -0.504894       -13.7389
 151   2.0000      -0.502070       -13.6620
 152   2.0000      -0.497169       -13.5286
 153   2.0000      -0.496470       -13.5096
 154   2.0000      -0.493153       -13.4194
 155   2.0000      -0.490415       -13.3449
 156   2.0000      -0.489458       -13.3188
 157   2.0000      -0.486420       -13.2362
 158   2.0000      -0.483386       -13.1536
 159   2.0000      -0.479411       -13.0454
 160   2.0000      -0.474811       -12.9203
 161   2.0000      -0.471320       -12.8253
 162   2.0000      -0.470865       -12.8129
 163   2.0000      -0.469585       -12.7781
 164   2.0000      -0.460442       -12.5293
 165   2.0000      -0.457150       -12.4397
 166   2.0000      -0.450751       -12.2656
 167   2.0000      -0.449308       -12.2263
 168   2.0000      -0.448364       -12.2006
 169   2.0000      -0.446948       -12.1621
 170   2.0000      -0.443108       -12.0576
 171   2.0000      -0.441808       -12.0222
 172   2.0000      -0.438066       -11.9204
 173   2.0000      -0.435878       -11.8608
 174   2.0000      -0.433809       -11.8046
 175   2.0000      -0.428395       -11.6572
 176   2.0000      -0.427149       -11.6233
 177   2.0000      -0.423036       -11.5114
 178   2.0000      -0.422705       -11.5024
 179   2.0000      -0.417200       -11.3526
 180   2.0000      -0.414065       -11.2673
 181   2.0000      -0.411076       -11.1859
 182   2.0000      -0.405804       -11.0425
 183   2.0000      -0.403813       -10.9883
 184   2.0000      -0.402420       -10.9504
 185   2.0000      -0.393406       -10.7051
 186   2.0000      -0.387290       -10.5387
 187   2.0000      -0.377737       -10.2787
 188   2.0000      -0.373806       -10.1718
 189   2.0000      -0.368794       -10.0354
 190   2.0000      -0.361182        -9.8283
 191   2.0000      -0.356268        -9.6945
 192   2.0000      -0.349322        -9.5055
 193   2.0000      -0.348361        -9.4794
 194   2.0000      -0.347852        -9.4655
 195   2.0000      -0.343221        -9.3395
 196   2.0000      -0.342100        -9.3090
 197   2.0000      -0.336397        -9.1538
 198   2.0000      -0.333600        -9.0777
 199   2.0000      -0.325007        -8.8439
 200   2.0000      -0.304924        -8.2974
 201   2.0000      -0.295538        -8.0420
 202   2.0000      -0.286495        -7.7959
 203   2.0000      -0.250886        -6.8270
 204   2.0000      -0.227684        -6.1956
 205   0.0000      -0.101620        -2.7652
 206   0.0000      -0.087849        -2.3905
 207   0.0000      -0.072145        -1.9632
 208   0.0000      -0.048759        -1.3268
 209   0.0000      -0.041284        -1.1234

MULLIKEN ATOMIC CHARGES
-----------------------
   0 C :   -0.015068
   1 C :    0.058273
   2 C :   -0.011267
   3 C :    0.132278
   4 O :   -0.118947
   5 C :   -0.043574
   6 C :   -0.130185
   7 S :    0.180088
   8 C :   -0.145738
   9 C :    0.164588
  10 C :    0.167672
  11 C :   -0.057704
  12 C :   -0.214279
  13 N :    0.127526
  14 C :    0.014867
  15 C :    0.023775
  16 C :   -0.093388
  17 C :   -0.178636
  18 N :    0.108389
  19 C :    0.008172
  20 C :   -0.099369
  21 C :    0.001003
  22 C :    0.063030
  23 C :   -0.150319
  24 S :    0.183455
  25 C :   -0.162341
  26 C :    0.049994
  27 C :    0.055508
  28 C :    0.019550
  29 C :   -0.021372
  30 C :   -0.157228
  31 S :    0.194876
  32 C :   -0.131721
  33 C :    0.128661
  34 C :    0.133187
  35 C :   -0.086011
  36 C :   -0.086867
  37 C :    0.129589
  38 C :    0.224010
  39 O :   -0.302224
  40 C :    0.171627
  41 C :   -0.183954
  42 C :    0.065841
  43 C :   -0.070669
  44 C :   -0.129703
  45 S :    0.145408
  46 C :   -0.098607
  47 C :   -0.063329
  48 C :    0.205673
  49 N :    0.275920
  50 O :   -0.274439
  51 O :   -0.226648
  52 C :   -0.225247
  53 N :    0.146669
  54 C :    0.027137
  55 C :   -0.005531
  56 H :   -0.002036
  57 H :    0.007809
  58 H :    0.003435
  59 H :    0.005263
  60 H :    0.007669
  61 H :    0.024327
  62 H :    0.028537
  63 H :   -0.002348
  64 H :    0.000910
  65 H :   -0.034546
  66 H :    0.004065
  67 H :    0.029721
  68 H :    0.029971
  69 H :    0.037945
  70 H :    0.044832
  71 H :    0.029054
  72 H :   -0.026477
  73 H :   -0.011657
  74 H :    0.026943
  75 H :   -0.007975
  76 H :    0.049183
  77 H :    0.032975
Sum of atomic charges:   -0.0000000

LOEWDIN ATOMIC CHARGES
----------------------
   0 C :    0.002693
   1 C :    0.023482
   2 C :   -0.046854
   3 C :    0.101681
   4 O :   -0.092516
   5 C :   -0.085766
   6 C :   -0.164624
   7 S :    0.503037
   8 C :   -0.167179
   9 C :   -0.028912
  10 C :   -0.023577
  11 C :   -0.034317
  12 C :   -0.021819
  13 N :   -0.050215
  14 C :    0.010728
  15 C :    0.017720
  16 C :   -0.049733
  17 C :   -0.024438
  18 N :   -0.050508
  19 C :   -0.020520
  20 C :   -0.044705
  21 C :   -0.020879
  22 C :   -0.052345
  23 C :   -0.180329
  24 S :    0.461926
  25 C :   -0.184063
  26 C :   -0.033933
  27 C :   -0.031133
  28 C :   -0.041086
  29 C :   -0.046002
  30 C :   -0.182650
  31 S :    0.484370
  32 C :   -0.187391
  33 C :   -0.021644
  34 C :   -0.038707
  35 C :   -0.012003
  36 C :   -0.028648
  37 C :   -0.040298
  38 C :    0.071459
  39 O :   -0.087276
  40 C :    0.079954
  41 C :   -0.084764
  42 C :   -0.012071
  43 C :   -0.079829
  44 C :   -0.123584
  45 S :    0.465107
  46 C :   -0.133202
  47 C :   -0.094044
  48 C :   -0.071642
  49 N :    0.291833
  50 O :   -0.235674
  51 O :   -0.182583
  52 C :   -0.032655
  53 N :   -0.050149
  54 C :   -0.057002
  55 C :   -0.001965
  56 H :    0.028537
  57 H :    0.033340
  58 H :    0.034983
  59 H :    0.045762
  60 H :    0.045936
  61 H :    0.047275
  62 H :    0.034772
  63 H :    0.037699
  64 H :    0.039565
  65 H :    0.031300
  66 H :    0.027898
  67 H :    0.038884
  68 H :    0.038479
  69 H :    0.030125
  70 H :    0.023226
  71 H :    0.019527
  72 H :    0.031254
  73 H :    0.022277
  74 H :    0.032574
  75 H :    0.029889
  76 H :    0.033871
  77 H :    0.032070

  Mayer bond orders larger than 0.100000
B(  0-C ,  1-C ) :   1.0155 B(  0-C ,  5-C ) :   1.7076 B(  0-C , 56-H ) :   1.0088
B(  1-C ,  2-C ) :   1.7233 B(  1-C , 57-H ) :   1.0008 B(  2-C ,  3-C ) :   0.9885
B(  2-C , 58-H ) :   1.0127 B(  3-C ,  4-O ) :   2.1994 B(  3-C ,  5-C ) :   0.8977
B(  5-C ,  6-C ) :   1.0816 B(  6-C ,  7-S ) :   1.1737 B(  6-C ,  8-C ) :   0.1112
B(  6-C , 10-C ) :   1.3801 B(  7-S ,  8-C ) :   1.1414 B(  8-C ,  9-C ) :   1.3382
B(  8-C , 19-C ) :   1.1802 B(  9-C , 10-C ) :   1.1855 B(  9-C , 16-C ) :   1.2058
B( 10-C , 11-C ) :   1.2093 B( 11-C , 12-C ) :   1.0818 B( 11-C , 14-C ) :   1.5365
B( 12-C , 13-N ) :   3.0197 B( 14-C , 15-C ) :   1.1936 B( 14-C , 59-H ) :   0.9955
B( 15-C , 16-C ) :   1.5378 B( 15-C , 60-H ) :   0.9917 B( 16-C , 17-C ) :   1.0904
B( 17-C , 18-N ) :   2.9673 B( 19-C , 20-C ) :   1.6497 B( 19-C , 61-H ) :   0.9604
B( 20-C , 21-C ) :   1.0276 B( 20-C , 62-H ) :   0.9499 B( 21-C , 22-C ) :   2.2377
B( 22-C , 23-C ) :   0.9857 B( 23-C , 24-S ) :   1.1070 B( 23-C , 25-C ) :   0.1079
B( 23-C , 27-C ) :   1.4799 B( 24-S , 25-C ) :   1.1085 B( 25-C , 26-C ) :   1.4681
B( 25-C , 28-C ) :   1.0149 B( 26-C , 27-C ) :   1.2797 B( 26-C , 63-H ) :   1.0029
B( 27-C , 64-H ) :   1.0018 B( 28-C , 29-C ) :   2.2700 B( 29-C , 30-C ) :   1.0015
B( 30-C , 31-S ) :   1.1531 B( 30-C , 34-C ) :   1.3276 B( 31-S , 32-C ) :   1.1035
B( 32-C , 33-C ) :   1.2958 B( 32-C , 42-C ) :   1.2279 B( 33-C , 34-C ) :   1.2326
B( 33-C , 41-C ) :   1.1861 B( 34-C , 35-C ) :   1.1812 B( 35-C , 36-C ) :   1.5514
B( 35-C , 65-H ) :   0.9997 B( 36-C , 37-C ) :   1.0694 B( 36-C , 38-C ) :   1.2107
B( 37-C , 66-H ) :   0.9523 B( 37-C , 67-H ) :   0.9463 B( 37-C , 68-H ) :   0.9467
B( 38-C , 39-O ) :   1.2121 B( 38-C , 41-C ) :   1.4286 B( 39-O , 40-C ) :   0.9445
B( 40-C , 69-H ) :   0.9764 B( 40-C , 70-H ) :   0.9671 B( 40-C , 71-H ) :   0.9690
B( 41-C , 72-H ) :   0.9887 B( 42-C , 43-C ) :   1.5218 B( 42-C , 73-H ) :   0.9477
B( 43-C , 44-C ) :   1.2348 B( 43-C , 74-H ) :   0.9612 B( 44-C , 45-S ) :   1.1295
B( 44-C , 48-C ) :   1.3973 B( 45-S , 46-C ) :   1.0899 B( 46-C , 47-C ) :   1.5529
B( 46-C , 54-C ) :   1.1140 B( 47-C , 48-C ) :   1.2257 B( 47-C , 52-C ) :   1.1351
B( 48-C , 49-N ) :   0.9753 B( 49-N , 50-O ) :   1.4517 B( 49-N , 51-O ) :   1.5156
B( 50-O , 51-O ) :   0.2455 B( 52-C , 53-N ) :   2.9567 B( 54-C , 55-C ) :   1.9374
B( 54-C , 75-H ) :   0.9405 B( 55-C , 76-H ) :   0.9457 B( 55-C , 77-H ) :   0.9441

-----------------------------------------------------------------------------
         ABSORPTION SPECTRUM VIA TRANSITION ELECTRIC DIPOLE MOMENTS
-----------------------------------------------------------------------------
State   Energy  Wavelength   fosc         T2         TX        TY        TZ
        (cm-1)    (nm)                  (au**2)     (au)      (au)      (au)
-----------------------------------------------------------------------------
   0   14336.5    697.5   2.129490442  48.89978  -2.53876  -5.88722  -2.79197
   1   16626.3    601.5   0.242030047   4.79235  -0.84743   2.01689   0.07972
   2   19126.5    522.8   0.018526929   0.31889  -0.27588  -0.44241   0.21693
   3   21171.0    472.3   0.035458668   0.55139   0.52702   0.23951   0.46506
   4   23070.2    433.5   0.278718620   3.97731  -0.45155  -1.91652   0.31680
   5   25350.4    394.5   0.082876263   1.07627   0.68407   0.42812   0.65195
   6   25660.3    389.7   0.035122681   0.45061   0.43124   0.05764   0.51120
   7   26633.5    375.5   0.017112329   0.21152  -0.11976   0.24721  -0.36887
   8   27622.0    362.0   0.186357144   2.22110  -0.63277   0.98204  -0.92536
   9   27979.9    357.4   0.010149120   0.11941   0.21391   0.27083   0.01759
  10   28242.1    354.1   0.056423675   0.65772  -0.66913   0.01427  -0.45802
  11   28402.4    352.1   0.170970111   1.98171   0.36943   1.33853   0.23145
  12   29305.5    341.2   0.110545635   1.24185  -0.51456  -0.61054  -0.77738
  13   31154.9    321.0   0.019400972   0.20501   0.09770   0.17307   0.40683
  14   31854.4    313.9   0.003786554   0.03913  -0.11034   0.16319  -0.01808
  15   32747.9    305.4   0.038504991   0.38709  -0.39196  -0.34883  -0.33432
  16   33174.8    301.4   0.040270600   0.39963   0.07947  -0.61307   0.13212
  17   34474.1    290.1   0.012605677   0.12038   0.09028  -0.30019   0.14871
  18   34922.5    286.3   0.011440883   0.10785  -0.12946  -0.27692  -0.12004
  19   35064.0    285.2   0.053941733   0.50645  -0.25793   0.43550  -0.50027
  20   35290.4    283.4   0.037933609   0.35387  -0.02909  -0.58965  -0.07301
  21   35644.8    280.5   0.000427190   0.00395  -0.04255   0.01910  -0.04208
  22   36069.4    277.2   0.036368650   0.33194  -0.15967  -0.48171  -0.27276
  23   36284.8    275.6   0.030615269   0.27777   0.17367   0.43007   0.25030
  24   36654.6    272.8   0.047508796   0.42670  -0.00143  -0.64059  -0.12785
  25   37305.5    268.1   0.012917782   0.11400   0.26230  -0.07904   0.19735
  26   37616.9    265.8   0.029497864   0.25816   0.20316   0.44668  -0.13176
  27   37710.5    265.2   0.027582855   0.24080  -0.33309   0.26795  -0.24094
  28   37942.0    263.6   0.015375736   0.13341   0.17316   0.15849   0.27984
  29   38357.4    260.7   0.000348775   0.00299   0.01843   0.04968   0.01362
  30   38497.2    259.8   0.001234186   0.01055   0.09326  -0.02108   0.03759
  31   38851.4    257.4   0.039856495   0.33773   0.26474  -0.42045   0.30144
  32   38919.4    256.9   0.111319400   0.94163  -0.65286   0.23247  -0.67924
  33   39192.9    255.1   0.015808445   0.13279   0.21417   0.14593   0.25617
  34   39827.9    251.1   0.213836015   1.76754  -0.78959  -0.49421  -0.94860
  35   40053.7    249.7   0.144984669   1.19167   0.36832  -0.60725   0.82901
  36   40265.1    248.4   0.008649761   0.07072   0.03557  -0.26329  -0.01162

FINAL SINGLE POINT ENERGY     -3798.969052331280

DIPOLE MOMENT
-------------
                                X             Y             Z
Electronic contribution:      0.03707      27.92777      -6.03956
Nuclear contribution   :      0.05576     -25.89118       6.52497
                        -----------------------------------------
Total Dipole Moment    :      0.09283       2.03660       0.48541
                        -----------------------------------------
Magnitude (a.u.)       :      2.09570
Magnitude (Debye)      :      5.32685

Rotational constants in cm-1:     0.003889     0.000251     0.000239
Rotational constants in MHz :   116.578984     7.510300     7.151408

                             ****ORCA TERMINATED NORMALLY****
TOTAL RUN TIME: 0 days 0 hours 9 minutes 50 seconds 663 msec
