                         Program Version 4.2.0 -  RELEASE  -
|  1> # ORCA input file
|  2> # SCF done       -124.463396664738          0.000445273580
|  3> ! CAM-B3LYP def2-SVP def2/J RIJCOSX Grid4 TightSCF
|  4> %maxcore 5000
|  5> %tddft
|  6>     Mode sTDDFT
|  7>     Ethresh 5.0
|  8>     maxcore 5000
|  9> end
| 10>
| 11> %pal
| 12>   nprocs 6
| 13>   end
| 14> * xyz 0 1
| 15>    C        2.30143        -3.66710         0.87535
| 16>    C        3.50236        -3.21742         1.50378
| 17>    C        4.02384        -2.17581         0.81284
| 18>    C        3.16200        -1.88916        -0.33269
| 19>    O        3.33265        -1.02388        -1.16455
| 20>    C        2.02963        -2.90706        -0.24430
| 21>    C        0.91882        -3.09801        -1.07679
| 22>    S       -0.16527        -4.40423        -0.64205
| 23>    C       -1.25710        -4.08959        -1.96382
| 24>    C       -0.77517        -2.99890        -2.73357
| 25>    C        0.43616        -2.44476        -2.23916
| 26>    C        0.99807        -1.35007        -2.91623
| 27>    C        0.39433        -0.82054        -4.02683
| 28>    C        0.98014         0.34743        -4.75071
| 29>    C       -0.81822        -1.38285        -4.51148
| 30>    O       -1.33065        -0.77974        -5.61283
| 31>    C       -2.53423        -1.26329        -6.15633
| 32>    C       -1.39019        -2.46060        -3.86964
| 33>    C       -2.43077        -4.80991        -2.12881
| 34>    C       -2.83678        -5.80223        -1.25408
| 35>    C       -4.03487        -6.50272        -1.30487
| 36>    C       -4.93549        -6.55479        -2.45675
| 37>    C       -5.87162        -7.50169        -2.29203
| 38>    C       -5.66458        -8.14324        -0.98462
| 39>    O       -6.27527        -9.06620        -0.48271
| 40>    C       -4.52729        -7.42173        -0.35300
| 41>    C       -4.20274        -7.71753         0.96409
| 42>    S       -4.78841        -9.22504         1.61830
| 43>    C       -3.95820        -8.99226         3.13046
| 44>    C       -3.30399        -7.73378         3.15438
| 45>    C       -3.47530        -6.99640         1.95460
| 46>    C       -3.00993        -5.67950         1.90208
| 47>    C       -2.29648        -5.11876         2.94057
| 48>    C       -1.72592        -3.74297         2.76769
| 49>    C       -2.08107        -5.88441         4.11252
| 50>    O       -1.34609        -5.45826         5.18789
| 51>    C       -1.66124        -4.21423         5.78419
| 52>    C       -2.59471        -7.16356         4.21285
| 53>    C       -4.01032        -9.92960         4.16371
| 54>    C       -4.73164       -11.09440         4.11660
| 55>    C       -4.81068       -12.03550         5.16315
| 56>    C       -5.63309       -13.26678         5.05445
| 57>    C       -5.54335       -13.97132         6.18057
| 58>    C       -4.63919       -13.23901         7.12367
| 59>    O       -4.32679       -13.57965         8.24592
| 60>    C       -4.22405       -12.03425         6.39865
| 61>    H        1.70360        -4.48647         1.23387
| 62>    H        3.91163        -3.66236         2.39376
| 63>    H        4.91637        -1.61950         1.02363
| 64>    H        1.91638        -0.91908        -2.55602
| 65>    H        1.89936         0.67247        -4.27280
| 66>    H        0.26927         1.17229        -4.76554
| 67>    H        1.18598         0.08051        -5.78613
| 68>    H       -2.74599        -0.62801        -7.01473
| 69>    H       -3.35801        -1.18720        -5.43920
| 70>    H       -2.43615        -2.30103        -6.49090
| 71>    H       -2.30731        -2.89921        -4.22683
| 72>    H       -3.07190        -4.52957        -2.95144
| 73>    H       -2.15382        -6.05290        -0.45332
| 74>    H       -4.81211        -5.93557        -3.32718
| 75>    H       -6.64633        -7.79254        -2.97586
| 76>    H       -3.22004        -5.07402         1.03558
| 77>    H       -1.74973        -3.46197         1.71743
| 78>    H       -0.69134        -3.71814         3.10455
| 79>    H       -2.29081        -2.99956         3.32889
| 80>    H       -1.45530        -4.33127         6.84904
| 81>    H       -2.71573        -3.96220         5.65257
| 82>    H       -1.03843        -3.40515         5.39406
| 83>    H       -2.43552        -7.70491         5.13138
| 84>    H       -3.44622        -9.70391         5.05748
| 85>    H       -5.29718       -11.30913         3.21825
| 86>    H       -6.19973       -13.50396         4.17126
| 87>    H       -6.01262       -14.90460         6.42751
| 88>    H       -3.56520       -11.29854         6.81764
| 89> *
| 90>
| 91>                          ****END OF INPUT****

CARTESIAN COORDINATES (ANGSTROEM)
---------------------------------
  C      2.301430   -3.667100    0.875350
  C      3.502360   -3.217420    1.503780
  C      4.023840   -2.175810    0.812840
  C      3.162000   -1.889160   -0.332690
  O      3.332650   -1.023880   -1.164550
  C      2.029630   -2.907060   -0.244300
  C      0.918820   -3.098010   -1.076790
  S     -0.165270   -4.404230   -0.642050
  C     -1.257100   -4.089590   -1.963820
  C     -0.775170   -2.998900   -2.733570
  C      0.436160   -2.444760   -2.239160
  C      0.998070   -1.350070   -2.916230
  C      0.394330   -0.820540   -4.026830
  C      0.980140    0.347430   -4.750710
  C     -0.818220   -1.382850   -4.511480
  O     -1.330650   -0.779740   -5.612830
  C     -2.534230   -1.263290   -6.156330
  C     -1.390190   -2.460600   -3.869640
  C     -2.430770   -4.809910   -2.128810
  C     -2.836780   -5.802230   -1.254080
  C     -4.034870   -6.502720   -1.304870
  C     -4.935490   -6.554790   -2.456750
  C     -5.871620   -7.501690   -2.292030
  C     -5.664580   -8.143240   -0.984620
  O     -6.275270   -9.066200   -0.482710
  C     -4.527290   -7.421730   -0.353000
  C     -4.202740   -7.717530    0.964090
  S     -4.788410   -9.225040    1.618300
  C     -3.958200   -8.992260    3.130460
  C     -3.303990   -7.733780    3.154380
  C     -3.475300   -6.996400    1.954600
  C     -3.009930   -5.679500    1.902080
  C     -2.296480   -5.118760    2.940570
  C     -1.725920   -3.742970    2.767690
  C     -2.081070   -5.884410    4.112520
  O     -1.346090   -5.458260    5.187890
  C     -1.661240   -4.214230    5.784190
  C     -2.594710   -7.163560    4.212850
  C     -4.010320   -9.929600    4.163710
  C     -4.731640  -11.094400    4.116600
  C     -4.810680  -12.035500    5.163150
  C     -5.633090  -13.266780    5.054450
  C     -5.543350  -13.971320    6.180570
  C     -4.639190  -13.239010    7.123670
  O     -4.326790  -13.579650    8.245920
  C     -4.224050  -12.034250    6.398650
  H      1.703600   -4.486470    1.233870
  H      3.911630   -3.662360    2.393760
  H      4.916370   -1.619500    1.023630
  H      1.916380   -0.919080   -2.556020
  H      1.899360    0.672470   -4.272800
  H      0.269270    1.172290   -4.765540
  H      1.185980    0.080510   -5.786130
  H     -2.745990   -0.628010   -7.014730
  H     -3.358010   -1.187200   -5.439200
  H     -2.436150   -2.301030   -6.490900
  H     -2.307310   -2.899210   -4.226830
  H     -3.071900   -4.529570   -2.951440
  H     -2.153820   -6.052900   -0.453320
  H     -4.812110   -5.935570   -3.327180
  H     -6.646330   -7.792540   -2.975860
  H     -3.220040   -5.074020    1.035580
  H     -1.749730   -3.461970    1.717430
  H     -0.691340   -3.718140    3.104550
  H     -2.290810   -2.999560    3.328890
  H     -1.455300   -4.331270    6.849040
  H     -2.715730   -3.962200    5.652570
  H     -1.038430   -3.405150    5.394060
  H     -2.435520   -7.704910    5.131380
  H     -3.446220   -9.703910    5.057480
  H     -5.297180  -11.309130    3.218250
  H     -6.199730  -13.503960    4.171260
  H     -6.012620  -14.904600    6.427510
  H     -3.565200  -11.298540    6.817640

 Total Charge           Charge          ....    0
 Multiplicity           Mult            ....    1
 Number of Electrons    NEL             ....  334
 Basis Dimension        Dim             ....  792

ORBITAL ENERGIES
----------------

  NO   OCC          E(Eh)            E(eV)
   0   2.0000     -88.965462     -2420.8733
   1   2.0000     -88.955269     -2420.5959
   2   2.0000     -19.257268      -524.0169
   3   2.0000     -19.234443      -523.3958
   4   2.0000     -19.231024      -523.3028
   5   2.0000     -19.219010      -522.9758
   6   2.0000     -19.189870      -522.1829
   7   2.0000     -10.371120      -282.2125
   8   2.0000     -10.358541      -281.8702
   9   2.0000     -10.339912      -281.3633
  10   2.0000     -10.332479      -281.1610
  11   2.0000     -10.331412      -281.1320
  12   2.0000     -10.329416      -281.0777
  13   2.0000     -10.320423      -280.8330
  14   2.0000     -10.319211      -280.8000
  15   2.0000     -10.312803      -280.6256
  16   2.0000     -10.310825      -280.5718
  17   2.0000     -10.298975      -280.2494
  18   2.0000     -10.297249      -280.2024
  19   2.0000     -10.296889      -280.1926
  20   2.0000     -10.296203      -280.1739
  21   2.0000     -10.295699      -280.1602
  22   2.0000     -10.295540      -280.1559
  23   2.0000     -10.291467      -280.0451
  24   2.0000     -10.287718      -279.9430
  25   2.0000     -10.287398      -279.9343
  26   2.0000     -10.284935      -279.8673
  27   2.0000     -10.284924      -279.8670
  28   2.0000     -10.282991      -279.8144
  29   2.0000     -10.281659      -279.7782
  30   2.0000     -10.281541      -279.7750
  31   2.0000     -10.281209      -279.7659
  32   2.0000     -10.279431      -279.7175
  33   2.0000     -10.279342      -279.7151
  34   2.0000     -10.275699      -279.6160
  35   2.0000     -10.275330      -279.6060
  36   2.0000     -10.274239      -279.5763
  37   2.0000     -10.270908      -279.4856
  38   2.0000     -10.270723      -279.4806
  39   2.0000     -10.268808      -279.4285
  40   2.0000     -10.268506      -279.4202
  41   2.0000     -10.268060      -279.4081
  42   2.0000     -10.264764      -279.3184
  43   2.0000     -10.258248      -279.1411
  44   2.0000     -10.253592      -279.0144
  45   2.0000     -10.243386      -278.7367
  46   2.0000      -8.060042      -219.3249
  47   2.0000      -8.049119      -219.0277
  48   2.0000      -6.029315      -164.0660
  49   2.0000      -6.025191      -163.9538
  50   2.0000      -6.022332      -163.8760
  51   2.0000      -6.018318      -163.7668
  52   2.0000      -6.013909      -163.6468
  53   2.0000      -6.011750      -163.5880
  54   2.0000      -1.161486       -31.6056
  55   2.0000      -1.139489       -31.0071
  56   2.0000      -1.137484       -30.9525
  57   2.0000      -1.131000       -30.7761
  58   2.0000      -1.097728       -29.8707
  59   2.0000      -1.001246       -27.2453
  60   2.0000      -0.992751       -27.0141
  61   2.0000      -0.969840       -26.3907
  62   2.0000      -0.966067       -26.2880
  63   2.0000      -0.946490       -25.7553
  64   2.0000      -0.936622       -25.4868
  65   2.0000      -0.930787       -25.3280
  66   2.0000      -0.905777       -24.6475
  67   2.0000      -0.894286       -24.3348
  68   2.0000      -0.873514       -23.7695
  69   2.0000      -0.866784       -23.5864
  70   2.0000      -0.851449       -23.1691
  71   2.0000      -0.839974       -22.8569
  72   2.0000      -0.838733       -22.8231
  73   2.0000      -0.836596       -22.7649
  74   2.0000      -0.810820       -22.0635
  75   2.0000      -0.801154       -21.8005
  76   2.0000      -0.789746       -21.4901
  77   2.0000      -0.787020       -21.4159
  78   2.0000      -0.774271       -21.0690
  79   2.0000      -0.769270       -20.9329
  80   2.0000      -0.767284       -20.8789
  81   2.0000      -0.763101       -20.7650
  82   2.0000      -0.738089       -20.0844
  83   2.0000      -0.730447       -19.8765
  84   2.0000      -0.711350       -19.3568
  85   2.0000      -0.700352       -19.0575
  86   2.0000      -0.692741       -18.8504
  87   2.0000      -0.689600       -18.7650
  88   2.0000      -0.674130       -18.3440
  89   2.0000      -0.668096       -18.1798
  90   2.0000      -0.657227       -17.8841
  91   2.0000      -0.640091       -17.4178
  92   2.0000      -0.633296       -17.2329
  93   2.0000      -0.625973       -17.0336
  94   2.0000      -0.623160       -16.9570
  95   2.0000      -0.614403       -16.7188
  96   2.0000      -0.605286       -16.4707
  97   2.0000      -0.604106       -16.4386
  98   2.0000      -0.600002       -16.3269
  99   2.0000      -0.592298       -16.1172
 100   2.0000      -0.585330       -15.9276
 101   2.0000      -0.582670       -15.8553
 102   2.0000      -0.578679       -15.7467
 103   2.0000      -0.576388       -15.6843
 104   2.0000      -0.565377       -15.3847
 105   2.0000      -0.558409       -15.1951
 106   2.0000      -0.551169       -14.9981
 107   2.0000      -0.548627       -14.9289
 108   2.0000      -0.537405       -14.6235
 109   2.0000      -0.534075       -14.5329
 110   2.0000      -0.529355       -14.4045
 111   2.0000      -0.527167       -14.3449
 112   2.0000      -0.523524       -14.2458
 113   2.0000      -0.520425       -14.1615
 114   2.0000      -0.516376       -14.0513
 115   2.0000      -0.515528       -14.0282
 116   2.0000      -0.514602       -14.0030
 117   2.0000      -0.510359       -13.8876
 118   2.0000      -0.506486       -13.7822
 119   2.0000      -0.503547       -13.7022
 120   2.0000      -0.502864       -13.6836
 121   2.0000      -0.501573       -13.6485
 122   2.0000      -0.499399       -13.5893
 123   2.0000      -0.493864       -13.4387
 124   2.0000      -0.489139       -13.3101
 125   2.0000      -0.486615       -13.2415
 126   2.0000      -0.484049       -13.1717
 127   2.0000      -0.482812       -13.1380
 128   2.0000      -0.479645       -13.0518
 129   2.0000      -0.478094       -13.0096
 130   2.0000      -0.475120       -12.9287
 131   2.0000      -0.473974       -12.8975
 132   2.0000      -0.472716       -12.8633
 133   2.0000      -0.468092       -12.7374
 134   2.0000      -0.461745       -12.5647
 135   2.0000      -0.458678       -12.4813
 136   2.0000      -0.456756       -12.4290
 137   2.0000      -0.447093       -12.1660
 138   2.0000      -0.442351       -12.0370
 139   2.0000      -0.439572       -11.9614
 140   2.0000      -0.438469       -11.9313
 141   2.0000      -0.436429       -11.8758
 142   2.0000      -0.433561       -11.7978
 143   2.0000      -0.427857       -11.6426
 144   2.0000      -0.422928       -11.5085
 145   2.0000      -0.417813       -11.3693
 146   2.0000      -0.415186       -11.2978
 147   2.0000      -0.411571       -11.1994
 148   2.0000      -0.406630       -11.0650
 149   2.0000      -0.406145       -11.0518
 150   2.0000      -0.395992       -10.7755
 151   2.0000      -0.391968       -10.6660
 152   2.0000      -0.380082       -10.3426
 153   2.0000      -0.377344       -10.2681
 154   2.0000      -0.361913        -9.8481
 155   2.0000      -0.340876        -9.2757
 156   2.0000      -0.338553        -9.2125
 157   2.0000      -0.331439        -9.0189
 158   2.0000      -0.327954        -8.9241
 159   2.0000      -0.314627        -8.5614
 160   2.0000      -0.306713        -8.3461
 161   2.0000      -0.306052        -8.3281
 162   2.0000      -0.295915        -8.0523
 163   2.0000      -0.292979        -7.9724
 164   2.0000      -0.280924        -7.6443
 165   2.0000      -0.246143        -6.6979
 166   2.0000      -0.201526        -5.4838
 167   0.0000      -0.115780        -3.1505
 168   0.0000      -0.078194        -2.1278
 169   0.0000      -0.055256        -1.5036
 170   0.0000      -0.030517        -0.8304
 171   0.0000      -0.020283        -0.5519

MULLIKEN ATOMIC CHARGES
-----------------------
   0 C :   -0.064262
   1 C :    0.082465
   2 C :   -0.045823
   3 C :    0.168116
   4 O :   -0.130406
   5 C :   -0.038426
   6 C :   -0.081496
   7 S :    0.095528
   8 C :   -0.065752
   9 C :    0.137434
  10 C :    0.120147
  11 C :   -0.102674
  12 C :   -0.099312
  13 C :    0.130867
  14 C :    0.217798
  15 O :   -0.302533
  16 C :    0.180007
  17 C :   -0.176130
  18 C :   -0.019179
  19 C :   -0.056420
  20 C :    0.038525
  21 C :    0.044060
  22 C :   -0.025339
  23 C :    0.127435
  24 O :   -0.162091
  25 C :   -0.023216
  26 C :   -0.131528
  27 S :    0.180065
  28 C :   -0.066196
  29 C :    0.133439
  30 C :    0.148542
  31 C :   -0.131990
  32 C :   -0.103933
  33 C :    0.103949
  34 C :    0.143466
  35 O :   -0.334173
  36 C :    0.189188
  37 C :   -0.088274
  38 C :    0.009067
  39 C :   -0.008826
  40 C :    0.081035
  41 C :    0.041344
  42 C :   -0.034244
  43 C :    0.141705
  44 O :   -0.157410
  45 C :   -0.123760
  46 H :    0.009938
  47 H :    0.003494
  48 H :   -0.011342
  49 H :   -0.024656
  50 H :    0.014038
  51 H :    0.024999
  52 H :    0.024675
  53 H :    0.040916
  54 H :    0.024265
  55 H :    0.025108
  56 H :   -0.053027
  57 H :   -0.020421
  58 H :    0.015874
  59 H :   -0.009632
  60 H :   -0.008642
  61 H :   -0.027656
  62 H :    0.014320
  63 H :    0.026989
  64 H :    0.023890
  65 H :    0.034888
  66 H :    0.020186
  67 H :    0.017477
  68 H :   -0.036938
  69 H :   -0.008045
  70 H :   -0.012449
  71 H :   -0.011180
  72 H :   -0.013610
  73 H :   -0.024248
Sum of atomic charges:   -0.0000000

LOEWDIN ATOMIC CHARGES
----------------------
   0 C :   -0.039780
   1 C :    0.030018
   2 C :   -0.080927
   3 C :    0.106460
   4 O :   -0.099460
   5 C :   -0.077142
   6 C :   -0.142454
   7 S :    0.461844
   8 C :   -0.164961
   9 C :   -0.029024
  10 C :   -0.044495
  11 C :   -0.011458
  12 C :   -0.031027
  13 C :   -0.040240
  14 C :    0.064474
  15 O :   -0.090939
  16 C :    0.076752
  17 C :   -0.085877
  18 C :   -0.035248
  19 C :   -0.033781
  20 C :   -0.031264
  21 C :    0.034591
  22 C :   -0.055192
  23 C :    0.081593
  24 O :   -0.136312
  25 C :   -0.098029
  26 C :   -0.143574
  27 S :    0.509779
  28 C :   -0.178803
  29 C :   -0.034650
  30 C :   -0.050246
  31 C :   -0.017335
  32 C :   -0.045969
  33 C :   -0.045996
  34 C :    0.048622
  35 O :   -0.127334
  36 C :    0.080111
  37 C :   -0.037306
  38 C :   -0.002426
  39 C :   -0.045322
  40 C :   -0.001564
  41 C :    0.008762
  42 C :   -0.047192
  43 C :    0.068613
  44 O :   -0.130467
  45 C :   -0.087686
  46 H :    0.020169
  47 H :    0.033074
  48 H :    0.029327
  49 H :    0.026459
  50 H :    0.031883
  51 H :    0.036277
  52 H :    0.036308
  53 H :    0.030828
  54 H :    0.016171
  55 H :    0.016457
  56 H :    0.023006
  57 H :    0.029154
  58 H :    0.027508
  59 H :    0.027738
  60 H :    0.031291
  61 H :    0.029998
  62 H :    0.025204
  63 H :    0.032488
  64 H :    0.033169
  65 H :    0.026180
  66 H :    0.016037
  67 H :    0.011351
  68 H :    0.031183
  69 H :    0.035460
  70 H :    0.022012
  71 H :    0.025609
  72 H :    0.027066
  73 H :    0.020452

  Mayer bond orders larger than 0.100000
B(  0-C ,  1-C ) :   1.0699 B(  0-C ,  5-C ) :   1.5807 B(  0-C , 46-H ) :   0.9912
B(  1-C ,  2-C ) :   1.6507 B(  1-C , 47-H ) :   1.0027 B(  2-C ,  3-C ) :   1.0367
B(  2-C , 48-H ) :   1.0159 B(  3-C ,  4-O ) :   2.1212 B(  3-C ,  5-C ) :   0.8807
B(  4-O , 49-H ) :   0.1054 B(  5-C ,  6-C ) :   1.2449 B(  6-C ,  7-S ) :   1.1337
B(  6-C , 10-C ) :   1.2943 B(  7-S ,  8-C ) :   1.0932 B(  8-C ,  9-C ) :   1.2436
B(  8-C , 18-C ) :   1.3041 B(  9-C , 10-C ) :   1.2197 B(  9-C , 17-C ) :   1.2097
B( 10-C , 11-C ) :   1.1974 B( 11-C , 12-C ) :   1.5391 B( 11-C , 49-H ) :   0.9803
B( 12-C , 13-C ) :   1.0706 B( 12-C , 14-C ) :   1.2284 B( 13-C , 50-H ) :   0.9512
B( 13-C , 51-H ) :   0.9469 B( 13-C , 52-H ) :   0.9469 B( 14-C , 15-O ) :   1.1937
B( 14-C , 17-C ) :   1.4186 B( 15-O , 16-C ) :   0.9634 B( 16-C , 53-H ) :   0.9777
B( 16-C , 54-H ) :   0.9680 B( 16-C , 55-H ) :   0.9680 B( 17-C , 56-H ) :   0.9915
B( 18-C , 19-C ) :   1.4478 B( 18-C , 57-H ) :   0.9701 B( 19-C , 20-C ) :   1.2780
B( 19-C , 58-H ) :   0.9708 B( 20-C , 21-C ) :   1.0240 B( 20-C , 25-C ) :   1.3693
B( 21-C , 22-C ) :   1.7072 B( 21-C , 59-H ) :   0.9983 B( 22-C , 23-C ) :   1.0109
B( 22-C , 60-H ) :   1.0163 B( 23-C , 24-O ) :   2.1127 B( 23-C , 25-C ) :   0.9304
B( 25-C , 26-C ) :   1.3038 B( 26-C , 27-S ) :   1.1667 B( 26-C , 30-C ) :   1.2272
B( 27-S , 28-C ) :   1.0845 B( 28-C , 29-C ) :   1.2371 B( 28-C , 38-C ) :   1.2585
B( 29-C , 30-C ) :   1.2417 B( 29-C , 37-C ) :   1.1898 B( 30-C , 31-C ) :   1.2173
B( 31-C , 32-C ) :   1.4853 B( 31-C , 61-H ) :   0.9953 B( 32-C , 33-C ) :   1.0654
B( 32-C , 34-C ) :   1.2333 B( 33-C , 62-H ) :   0.9441 B( 33-C , 63-H ) :   0.9528
B( 33-C , 64-H ) :   0.9380 B( 34-C , 35-O ) :   1.1255 B( 34-C , 37-C ) :   1.4858
B( 35-O , 36-C ) :   0.9509 B( 36-C , 65-H ) :   0.9791 B( 36-C , 66-H ) :   0.9673
B( 36-C , 67-H ) :   0.9702 B( 37-C , 68-H ) :   1.0017 B( 38-C , 39-C ) :   1.5524
B( 38-C , 69-H ) :   0.9743 B( 39-C , 40-C ) :   1.1543 B( 39-C , 70-H ) :   0.9772
B( 40-C , 41-C ) :   0.9927 B( 40-C , 45-C ) :   1.5914 B( 41-C , 42-C ) :   1.7588
B( 41-C , 71-H ) :   1.0044 B( 42-C , 43-C ) :   0.9687 B( 42-C , 72-H ) :   1.0087
B( 43-C , 44-O ) :   2.1487 B( 43-C , 45-C ) :   0.9905 B( 45-C , 73-H ) :   1.0141

-----------------------------------------------------------------------------
         ABSORPTION SPECTRUM VIA TRANSITION ELECTRIC DIPOLE MOMENTS
-----------------------------------------------------------------------------
State   Energy  Wavelength   fosc         T2         TX        TY        TZ
        (cm-1)    (nm)                  (au**2)     (au)      (au)      (au)
-----------------------------------------------------------------------------
   0    5076.5   1969.8   0.273149207  17.71367   2.24278   2.82040  -2.17461
   1   12042.0    830.4   0.108395900   2.96339   0.44924  -0.78560   1.46438
   2   13616.6    734.4   0.257950592   6.23655  -1.93199  -0.45843  -1.51453
   3   16939.8    590.3   0.400506489   7.78353   0.02477   1.91552  -2.02823
   4   20814.6    480.4   0.124349932   1.96677  -1.21916  -0.67168   0.17108
   5   21653.1    461.8   0.057283528   0.87093   0.36945   0.80102  -0.30463
   6   21852.2    457.6   0.024643181   0.37126  -0.35209  -0.19797  -0.45618
   7   22470.8    445.0   0.018126009   0.26556   0.06559   0.32313  -0.39603
   8   22689.0    440.7   0.000292288   0.00424  -0.03901  -0.03997   0.03349
   9   23414.0    427.1   0.090974590   1.27914  -0.31309   0.63669  -0.88077
  10   23641.3    423.0   0.076181113   1.06084   0.68103   0.76998   0.06453
  11   24139.9    414.3   0.000153620   0.00210   0.04110   0.01211   0.01609
  12   24308.4    411.4   0.004886619   0.06618  -0.10863   0.13094  -0.19296
  13   25480.2    392.5   0.020079927   0.25944  -0.27856  -0.30199  -0.30107
  14   26280.4    380.5   0.009881489   0.12378   0.15695   0.26980  -0.16236
  15   27366.1    365.4   0.051020759   0.61378  -0.51541  -0.17705  -0.56284
  16   30103.3    332.2   0.173753838   1.90018  -0.23728  -1.21595   0.60443
  17   30265.7    330.4   0.117119630   1.27396   0.86310   0.50860   0.51994
  18   30639.3    326.4   0.010592331   0.11381   0.03396   0.16221  -0.29385
  19   31322.6    319.3   0.126725505   1.33193   0.58221   0.92501  -0.37057
  20   31520.0    317.3   0.138670073   1.44835  -0.65158  -0.92903   0.40086
  21   31899.9    313.5   0.036424786   0.37591  -0.27822  -0.10401  -0.53636
  22   32213.1    310.4   0.065861229   0.67309   0.11892   0.32722  -0.74288
  23   33375.8    299.6   0.000056882   0.00056   0.01644   0.00484   0.01635
  24   33455.6    298.9   0.032834846   0.32310  -0.08072   0.00498  -0.56264
  25   33938.7    294.6   0.085415901   0.82855  -0.11013   0.56863  -0.70220
  26   34535.6    289.6   0.082687317   0.78822   0.41051  -0.16075   0.77062
  27   34742.6    287.8   0.010294216   0.09755   0.14004  -0.22845   0.16046
  28   35342.8    282.9   0.001019507   0.00950  -0.07875  -0.00704   0.05697
  29   35717.9    280.0   0.102811817   0.94762   0.35780   0.90502   0.02328
  30   37186.0    268.9   0.036687582   0.32480  -0.24869  -0.34516  -0.37923
  31   37259.3    268.4   0.000671698   0.00593   0.04676   0.04732   0.03884
  32   37695.3    265.3   0.005332353   0.04657  -0.12925  -0.17279  -0.00286
  33   38033.8    262.9   0.096843226   0.83825   0.58066   0.61178   0.35611
  34   38324.7    260.9   0.005953980   0.05115  -0.12540  -0.18579  -0.03003
  35   38776.9    257.9   0.096999303   0.82351  -0.06179  -0.58967   0.68701
  36   39114.0    255.7   0.031095444   0.26172  -0.22058   0.18181  -0.42428
  37   39291.8    254.5   0.028321829   0.23730   0.14924  -0.17612   0.42896
  38   40227.1    248.6   0.100651288   0.82371   0.35788   0.78596  -0.27910

FINAL SINGLE POINT ENERGY     -2672.735690531542

DIPOLE MOMENT
-------------
                                X             Y             Z
Electronic contribution:     -5.92026     -25.84871       4.93075
Nuclear contribution   :      6.07135      28.82934      -7.40970
                        -----------------------------------------
Total Dipole Moment    :      0.15109       2.98063      -2.47895
                        -----------------------------------------
Magnitude (a.u.)       :      3.87972
Magnitude (Debye)      :      9.86145

Rotational constants in cm-1:     0.003553     0.000914     0.000762
Rotational constants in MHz :   106.523623    27.396811    22.834148

                             ****ORCA TERMINATED NORMALLY****
TOTAL RUN TIME: 0 days 0 hours 5 minutes 51 seconds 495 msec
