                         Program Version 4.2.0 -  RELEASE  -
|  1> # ORCA input file
|  2> # SCF done        -91.135754500292          0.000439164398
|  3> ! CAM-B3LYP def2-SVP def2/J RIJCOSX Grid4 TightSCF
|  4> %maxcore 5000
|  5> %tddft
|  6>     Mode sTDDFT
|  7>     Ethresh 5.0
|  8>     maxcore 5000
|  9> end
| 10>
| 11> %pal
| 12>   nprocs 6
| 13>   end
| 14> * xyz 0 1
| 15>    C        2.16210        -0.35392        -0.09821
| 16>    C        3.05976         0.33646        -1.00228
| 17>    C        2.96731        -0.18885        -2.23577
| 18>    C        1.94997        -1.26396        -2.21476
| 19>    O        1.56578        -1.93546        -3.13643
| 20>    C        1.48891        -1.33712        -0.76426
| 21>    C        0.51890        -2.25078        -0.30232
| 22>    C       -0.49275        -2.82853        -1.21269
| 23>    C       -1.43137        -3.48557        -0.52380
| 24>    C       -1.08417        -3.42125         0.90874
| 25>    O       -1.68941        -3.84708         1.86528
| 26>    C        0.22039        -2.68548         0.98108
| 27>    C        0.87436        -2.66169         2.22507
| 28>    S       -0.04566        -3.03489         3.65683
| 29>    C        1.35607        -2.87677         4.68459
| 30>    C        2.49604        -2.58935         3.93125
| 31>    C        2.22562        -2.47538         2.54749
| 32>    C        3.24297        -2.28766         1.60517
| 33>    N        4.07650        -2.12504         0.83191
| 34>    C        3.80046        -2.43168         4.42911
| 35>    N        4.87804        -2.28981         4.79696
| 36>    C        1.20230        -3.08872         6.07237
| 37>    C        2.18563        -2.98157         7.01112
| 38>    C        2.01394        -3.25842         8.38448
| 39>    C        0.84122        -3.93675         8.96680
| 40>    C        1.04579        -4.18787        10.26160
| 41>    C        2.39077        -3.68067        10.64175
| 42>    O        2.91244        -3.75197        11.72704
| 43>    C        2.94618        -3.06192         9.39079
| 44>    C        4.18951        -2.38056         9.35025
| 45>    C        5.27136        -2.61436        10.34745
| 46>    C        6.30854        -1.82419        10.07877
| 47>    C        5.96413        -0.96951         8.90133
| 48>    O        6.63090        -0.09177         8.40879
| 49>    C        4.60813        -1.40581         8.49696
| 50>    H        2.01550        -0.05904         0.92507
| 51>    H        3.69778         1.14300        -0.68917
| 52>    H        3.51151         0.08141        -3.11988
| 53>    H       -0.44147        -2.68928        -2.27670
| 54>    H       -2.30292        -3.98862        -0.89581
| 55>    H        0.19482        -3.33679         6.37809
| 56>    H        3.17933        -2.69024         6.70384
| 57>    H       -0.03236        -4.19783         8.39771
| 58>    H        0.38891        -4.67114        10.95954
| 59>    H        5.17468        -3.33331        11.13945
| 60>    H        7.24887        -1.76032        10.59179
| 61>    H        4.06668        -0.93755         7.69823
| 62> *
| 63>
| 64>                          ****END OF INPUT****

CARTESIAN COORDINATES (ANGSTROEM)
---------------------------------
  C      2.162100   -0.353920   -0.098210
  C      3.059760    0.336460   -1.002280
  C      2.967310   -0.188850   -2.235770
  C      1.949970   -1.263960   -2.214760
  O      1.565780   -1.935460   -3.136430
  C      1.488910   -1.337120   -0.764260
  C      0.518900   -2.250780   -0.302320
  C     -0.492750   -2.828530   -1.212690
  C     -1.431370   -3.485570   -0.523800
  C     -1.084170   -3.421250    0.908740
  O     -1.689410   -3.847080    1.865280
  C      0.220390   -2.685480    0.981080
  C      0.874360   -2.661690    2.225070
  S     -0.045660   -3.034890    3.656830
  C      1.356070   -2.876770    4.684590
  C      2.496040   -2.589350    3.931250
  C      2.225620   -2.475380    2.547490
  C      3.242970   -2.287660    1.605170
  N      4.076500   -2.125040    0.831910
  C      3.800460   -2.431680    4.429110
  N      4.878040   -2.289810    4.796960
  C      1.202300   -3.088720    6.072370
  C      2.185630   -2.981570    7.011120
  C      2.013940   -3.258420    8.384480
  C      0.841220   -3.936750    8.966800
  C      1.045790   -4.187870   10.261600
  C      2.390770   -3.680670   10.641750
  O      2.912440   -3.751970   11.727040
  C      2.946180   -3.061920    9.390790
  C      4.189510   -2.380560    9.350250
  C      5.271360   -2.614360   10.347450
  C      6.308540   -1.824190   10.078770
  C      5.964130   -0.969510    8.901330
  O      6.630900   -0.091770    8.408790
  C      4.608130   -1.405810    8.496960
  H      2.015500   -0.059040    0.925070
  H      3.697780    1.143000   -0.689170
  H      3.511510    0.081410   -3.119880
  H     -0.441470   -2.689280   -2.276700
  H     -2.302920   -3.988620   -0.895810
  H      0.194820   -3.336790    6.378090
  H      3.179330   -2.690240    6.703840
  H     -0.032360   -4.197830    8.397710
  H      0.388910   -4.671140   10.959540
  H      5.174680   -3.333310   11.139450
  H      7.248870   -1.760320   10.591790
  H      4.066680   -0.937550    7.698230

 Total Charge           Charge          ....    0
 Multiplicity           Mult            ....    1
 Number of Electrons    NEL             ....  242
 Basis Dimension        Dim             ....  554

ORBITAL ENERGIES
----------------

  NO   OCC          E(Eh)            E(eV)
   0   2.0000     -88.988244     -2421.4932
   1   2.0000     -19.247713      -523.7569
   2   2.0000     -19.247207      -523.7431
   3   2.0000     -19.230637      -523.2922
   4   2.0000     -19.204434      -522.5792
   5   2.0000     -14.427059      -392.5802
   6   2.0000     -14.420486      -392.4014
   7   2.0000     -10.385752      -282.6107
   8   2.0000     -10.383957      -282.5618
   9   2.0000     -10.370212      -282.1878
  10   2.0000     -10.350711      -281.6572
  11   2.0000     -10.344069      -281.4764
  12   2.0000     -10.338800      -281.3330
  13   2.0000     -10.337039      -281.2851
  14   2.0000     -10.336387      -281.2674
  15   2.0000     -10.332130      -281.1515
  16   2.0000     -10.325794      -280.9791
  17   2.0000     -10.325729      -280.9774
  18   2.0000     -10.319727      -280.8140
  19   2.0000     -10.314981      -280.6849
  20   2.0000     -10.313979      -280.6576
  21   2.0000     -10.312082      -280.6060
  22   2.0000     -10.309867      -280.5457
  23   2.0000     -10.306910      -280.4653
  24   2.0000     -10.304957      -280.4121
  25   2.0000     -10.304839      -280.4089
  26   2.0000     -10.303100      -280.3616
  27   2.0000     -10.296107      -280.1713
  28   2.0000     -10.295885      -280.1653
  29   2.0000     -10.292993      -280.0866
  30   2.0000     -10.291577      -280.0480
  31   2.0000     -10.285324      -279.8779
  32   2.0000     -10.276141      -279.6280
  33   2.0000     -10.265215      -279.3307
  34   2.0000     -10.258476      -279.1473
  35   2.0000      -8.082380      -219.9327
  36   2.0000      -6.051833      -164.6787
  37   2.0000      -6.047228      -164.5534
  38   2.0000      -6.044576      -164.4813
  39   2.0000      -1.160683       -31.5838
  40   2.0000      -1.159250       -31.5448
  41   2.0000      -1.141973       -31.0747
  42   2.0000      -1.113942       -30.3119
  43   2.0000      -1.035257       -28.1708
  44   2.0000      -1.007669       -27.4201
  45   2.0000      -1.001268       -27.2459
  46   2.0000      -0.995390       -27.0859
  47   2.0000      -0.985027       -26.8040
  48   2.0000      -0.976403       -26.5693
  49   2.0000      -0.949781       -25.8448
  50   2.0000      -0.925192       -25.1757
  51   2.0000      -0.897985       -24.4354
  52   2.0000      -0.878094       -23.8941
  53   2.0000      -0.865338       -23.5470
  54   2.0000      -0.847132       -23.0516
  55   2.0000      -0.820870       -22.3370
  56   2.0000      -0.796177       -21.6651
  57   2.0000      -0.793954       -21.6046
  58   2.0000      -0.788020       -21.4431
  59   2.0000      -0.762912       -20.7599
  60   2.0000      -0.739384       -20.1197
  61   2.0000      -0.737739       -20.0749
  62   2.0000      -0.719088       -19.5674
  63   2.0000      -0.711646       -19.3649
  64   2.0000      -0.679677       -18.4949
  65   2.0000      -0.673691       -18.3321
  66   2.0000      -0.665888       -18.1197
  67   2.0000      -0.655162       -17.8279
  68   2.0000      -0.634151       -17.2561
  69   2.0000      -0.628054       -17.0902
  70   2.0000      -0.621140       -16.9021
  71   2.0000      -0.613639       -16.6980
  72   2.0000      -0.604943       -16.4613
  73   2.0000      -0.596184       -16.2230
  74   2.0000      -0.593645       -16.1539
  75   2.0000      -0.575996       -15.6736
  76   2.0000      -0.565472       -15.3873
  77   2.0000      -0.553500       -15.0615
  78   2.0000      -0.548902       -14.9364
  79   2.0000      -0.543039       -14.7769
  80   2.0000      -0.541472       -14.7342
  81   2.0000      -0.535535       -14.5727
  82   2.0000      -0.531027       -14.4500
  83   2.0000      -0.526168       -14.3178
  84   2.0000      -0.522879       -14.2283
  85   2.0000      -0.521454       -14.1895
  86   2.0000      -0.518648       -14.1131
  87   2.0000      -0.513315       -13.9680
  88   2.0000      -0.509995       -13.8777
  89   2.0000      -0.508729       -13.8432
  90   2.0000      -0.504872       -13.7383
  91   2.0000      -0.499738       -13.5986
  92   2.0000      -0.492065       -13.3898
  93   2.0000      -0.488929       -13.3044
  94   2.0000      -0.484137       -13.1740
  95   2.0000      -0.479384       -13.0447
  96   2.0000      -0.474338       -12.9074
  97   2.0000      -0.471144       -12.8205
  98   2.0000      -0.468594       -12.7511
  99   2.0000      -0.463713       -12.6183
 100   2.0000      -0.454710       -12.3733
 101   2.0000      -0.452892       -12.3238
 102   2.0000      -0.447961       -12.1897
 103   2.0000      -0.444687       -12.1005
 104   2.0000      -0.443374       -12.0648
 105   2.0000      -0.437316       -11.9000
 106   2.0000      -0.429359       -11.6835
 107   2.0000      -0.415467       -11.3054
 108   2.0000      -0.406781       -11.0691
 109   2.0000      -0.401679       -10.9302
 110   2.0000      -0.392347       -10.6763
 111   2.0000      -0.365926        -9.9574
 112   2.0000      -0.355359        -9.6698
 113   2.0000      -0.350906        -9.5486
 114   2.0000      -0.345984        -9.4147
 115   2.0000      -0.341085        -9.2814
 116   2.0000      -0.335140        -9.1196
 117   2.0000      -0.321477        -8.7478
 118   2.0000      -0.314321        -8.5531
 119   2.0000      -0.287068        -7.8115
 120   2.0000      -0.257581        -7.0091
 121   0.0000      -0.121292        -3.3005
 122   0.0000      -0.099767        -2.7148
 123   0.0000      -0.073368        -1.9964
 124   0.0000      -0.044126        -1.2007
 125   0.0000      -0.036998        -1.0068

MULLIKEN ATOMIC CHARGES
-----------------------
   0 C :   -0.016753
   1 C :    0.076531
   2 C :   -0.005866
   3 C :    0.136729
   4 O :   -0.118479
   5 C :   -0.052075
   6 C :    0.075558
   7 C :    0.047631
   8 C :   -0.010607
   9 C :    0.130880
  10 O :   -0.147520
  11 C :   -0.058778
  12 C :   -0.119248
  13 S :    0.208793
  14 C :   -0.080756
  15 C :   -0.028208
  16 C :    0.006209
  17 C :   -0.308439
  18 N :    0.229131
  19 C :   -0.258630
  20 N :    0.205486
  21 C :    0.043953
  22 C :   -0.033533
  23 C :    0.041887
  24 C :    0.046288
  25 C :   -0.011752
  26 C :    0.123261
  27 O :   -0.125548
  28 C :    0.002919
  29 C :    0.015339
  30 C :    0.049121
  31 C :   -0.032608
  32 C :    0.144363
  33 O :   -0.135182
  34 C :   -0.103570
  35 H :    0.020614
  36 H :    0.018409
  37 H :    0.007351
  38 H :    0.025643
  39 H :    0.003151
  40 H :   -0.015847
  41 H :    0.015627
  42 H :   -0.000269
  43 H :   -0.001380
  44 H :    0.009674
  45 H :   -0.009213
  46 H :   -0.010287
Sum of atomic charges:    0.0000000

LOEWDIN ATOMIC CHARGES
----------------------
   0 C :    0.066959
   1 C :    0.030909
   2 C :   -0.030235
   3 C :    0.101976
   4 O :   -0.090989
   5 C :   -0.084695
   6 C :    0.028794
   7 C :    0.045278
   8 C :   -0.045654
   9 C :    0.091403
  10 O :   -0.119966
  11 C :   -0.111790
  12 C :   -0.124498
  13 S :    0.514663
  14 C :   -0.148614
  15 C :   -0.083640
  16 C :   -0.098343
  17 C :   -0.019829
  18 N :   -0.037241
  19 C :   -0.034506
  20 N :   -0.031881
  21 C :   -0.029636
  22 C :   -0.002291
  23 C :    0.007247
  24 C :    0.022722
  25 C :   -0.039266
  26 C :    0.090026
  27 O :   -0.099789
  28 C :   -0.062045
  29 C :   -0.000828
  30 C :    0.020428
  31 C :   -0.052569
  32 C :    0.076006
  33 O :   -0.106530
  34 C :   -0.049481
  35 H :    0.036125
  36 H :    0.039039
  37 H :    0.037411
  38 H :    0.037363
  39 H :    0.036735
  40 H :    0.029409
  41 H :    0.042311
  42 H :    0.029821
  43 H :    0.034155
  44 H :    0.029861
  45 H :    0.029645
  46 H :    0.026032

  Mayer bond orders larger than 0.100000
B(  0-C ,  1-C ) :   1.0296 B(  0-C ,  5-C ) :   1.6110 B(  0-C , 35-H ) :   1.0055
B(  1-C ,  2-C ) :   1.7035 B(  1-C , 36-H ) :   1.0013 B(  2-C ,  3-C ) :   0.9849
B(  2-C , 37-H ) :   1.0146 B(  3-C ,  4-O ) :   2.1855 B(  3-C ,  5-C ) :   0.9018
B(  5-C ,  6-C ) :   1.1628 B(  6-C ,  7-C ) :   1.0188 B(  6-C , 11-C ) :   1.5353
B(  7-C ,  8-C ) :   1.7029 B(  7-C , 38-H ) :   0.9987 B(  8-C ,  9-C ) :   1.0002
B(  8-C , 39-H ) :   1.0196 B(  9-C , 10-O ) :   2.1236 B(  9-C , 11-C ) :   0.9097
B( 11-C , 12-C ) :   1.2074 B( 12-C , 13-S ) :   1.1648 B( 12-C , 16-C ) :   1.4188
B( 13-S , 14-C ) :   1.0815 B( 14-C , 15-C ) :   1.4492 B( 14-C , 21-C ) :   1.1657
B( 15-C , 16-C ) :   1.3448 B( 15-C , 19-C ) :   1.1569 B( 16-C , 17-C ) :   1.1803
B( 17-C , 18-N ) :   2.9572 B( 19-C , 20-N ) :   2.9511 B( 21-C , 22-C ) :   1.6173
B( 21-C , 40-H ) :   0.9435 B( 22-C , 23-C ) :   1.1804 B( 22-C , 41-H ) :   0.9558
B( 23-C , 24-C ) :   1.0027 B( 23-C , 28-C ) :   1.5500 B( 24-C , 25-C ) :   1.7390
B( 24-C , 42-H ) :   0.9971 B( 25-C , 26-C ) :   0.9892 B( 25-C , 43-H ) :   1.0116
B( 26-C , 27-O ) :   2.1778 B( 26-C , 28-C ) :   0.9132 B( 28-C , 29-C ) :   1.1017
B( 29-C , 30-C ) :   1.0094 B( 29-C , 34-C ) :   1.6321 B( 30-C , 31-C ) :   1.7439
B( 30-C , 44-H ) :   1.0009 B( 31-C , 32-C ) :   0.9712 B( 31-C , 45-H ) :   1.0088
B( 32-C , 33-O ) :   2.1765 B( 32-C , 34-C ) :   0.9552 B( 34-C , 46-H ) :   1.0129

-----------------------------------------------------------------------------
         ABSORPTION SPECTRUM VIA TRANSITION ELECTRIC DIPOLE MOMENTS
-----------------------------------------------------------------------------
State   Energy  Wavelength   fosc         T2         TX        TY        TZ
        (cm-1)    (nm)                  (au**2)     (au)      (au)      (au)
-----------------------------------------------------------------------------
   0   14072.7    710.6   0.446241925  10.43920  -0.75145   0.44494  -3.11072
   1   17445.0    573.2   0.114415704   2.15919   0.99573   0.73741   0.78989
   2   20756.1    481.8   0.112590605   1.78580   0.17227   0.39907  -1.26367
   3   21477.6    465.6   0.009664425   0.14814   0.28129   0.23337  -0.12062
   4   21968.3    455.2   0.005051981   0.07571  -0.23561  -0.09499   0.10569
   5   23195.7    431.1   0.035379003   0.50213  -0.51705  -0.29526  -0.38420
   6   23789.4    420.4   0.096601250   1.33683  -0.26708  -0.01539  -1.12484
   7   25094.6    398.5   0.024735040   0.32450   0.07498  -0.03953   0.56330
   8   25728.8    388.7   0.014181457   0.18146   0.00104   0.02058   0.42548
   9   26783.6    373.4   0.007904033   0.09715  -0.14093  -0.24317   0.13475
  10   27347.9    365.7   0.181405680   2.18375  -0.83005  -0.79548   0.92843
  11   28181.4    354.8   0.000728946   0.00852  -0.06384  -0.06602  -0.00897
  12   29360.9    340.6   0.114036245   1.27864  -0.38939  -0.09867  -1.05702
  13   29745.5    336.2   0.006865124   0.07598   0.26393  -0.05826  -0.05410
  14   31544.0    317.0   0.035757136   0.37318  -0.08473   0.01702  -0.60474
  15   31686.1    315.6   0.005670919   0.05892   0.13412   0.08507   0.18356
  16   32249.3    310.1   0.136155164   1.38992   0.13167   0.42879  -1.09029
  17   33416.3    299.3   0.052833994   0.52051   0.71006  -0.05697   0.11436
  18   33743.6    296.4   0.276276817   2.69543   0.55351  -0.07663   1.54376
  19   34318.3    291.4   0.003102084   0.02976   0.10587   0.10146  -0.09086
  20   34456.8    290.2   0.000469334   0.00448  -0.01757   0.02977   0.05735
  21   35712.6    280.0   0.002104851   0.01940  -0.00672   0.05672  -0.12705
  22   36492.5    274.0   0.050981855   0.45993  -0.55988  -0.27901   0.26194
  23   37177.9    269.0   0.010226644   0.09056   0.22831  -0.15178   0.12408
  24   37717.0    265.1   0.065099848   0.56822   0.60873   0.41641  -0.15579
  25   38523.0    259.6   0.032419125   0.27705   0.02970   0.23239  -0.47134
  26   38716.7    258.3   0.162729540   1.38371  -1.01280  -0.50982   0.31307
  27   39218.2    255.0   0.022272751   0.18697  -0.26126  -0.17678  -0.29573
  28   39598.9    252.5   0.006663478   0.05540  -0.00223  -0.07390   0.22346

FINAL SINGLE POINT ENERGY     -1880.605888767923

DIPOLE MOMENT
-------------
                                X             Y             Z
Electronic contribution:     -2.78886      -2.09522      -5.93719
Nuclear contribution   :      0.12628       2.25583       4.59582
                        -----------------------------------------
Total Dipole Moment    :     -2.66258       0.16061      -1.34137
                        -----------------------------------------
Magnitude (a.u.)       :      2.98570
Magnitude (Debye)      :      7.58903

Rotational constants in cm-1:     0.007722     0.001676     0.001405
Rotational constants in MHz :   231.508616    50.247456    42.122354

                             ****ORCA TERMINATED NORMALLY****
TOTAL RUN TIME: 0 days 0 hours 2 minutes 23 seconds 851 msec
