                         Program Version 4.2.0 -  RELEASE  -
|  1> # ORCA input file
|  2> # SCF done       -140.978275457996          0.000726768062
|  3> ! CAM-B3LYP def2-SVP def2/J RIJCOSX Grid4 TightSCF
|  4> %maxcore 5000
|  5> %tddft
|  6>     Mode sTDDFT
|  7>     Ethresh 5.0
|  8>     maxcore 5000
|  9> end
| 10>
| 11> %pal
| 12>   nprocs 6
| 13>   end
| 14> * xyz 0 1
| 15>    C      -16.31410        18.35107        19.13591
| 16>    C      -15.03644        18.27274        18.64903
| 17>    C      -14.76760        18.25949        17.27352
| 18>    C      -15.75949        18.32355        16.31036
| 19>    C      -17.09727        18.40737        16.78739
| 20>    C      -17.36147        18.41972        18.20447
| 21>    N      -18.66636        18.50111        18.47032
| 22>    S      -19.47357        18.55616        17.08493
| 23>    N      -18.22106        18.48062        16.07659
| 24>    C      -15.46043        18.29993        14.90526
| 25>    S      -13.81275        18.18997        14.34577
| 26>    C      -14.33567        18.19964        12.68268
| 27>    C      -15.70920        18.28844        12.59752
| 28>    C      -16.33539        18.34495        13.84289
| 29>    C      -13.42529        18.10555        11.64434
| 30>    C      -12.61155        18.00088        10.74786
| 31>    C      -11.72608        17.85332         9.68881
| 32>    C      -10.38334        17.79025         9.85069
| 33>    C       -9.45188        17.58610         8.79653
| 34>    S       -7.74277        17.53427         9.15871
| 35>    C       -7.35282        17.23743         7.48091
| 36>    C       -8.49880        17.18882         6.71317
| 37>    C       -9.66680        17.38554         7.44732
| 38>    C       -6.04014        17.08319         7.07163
| 39>    C       -4.87926        16.93834         6.74208
| 40>    C       -3.54835        16.82066         6.36398
| 41>    C       -2.55260        17.28002         7.15736
| 42>    C       -1.16002        17.19003         6.85367
| 43>    C       -0.20770        17.94512         7.48041
| 44>    O        1.14818        17.70936         7.34014
| 45>    C        1.47378        16.72041         6.46058
| 46>    C        0.48230        15.99854         5.73017
| 47>    C        1.01732        15.07680         4.89244
| 48>    S        2.74151        15.07280         4.97994
| 49>    C        2.73673        16.32976         6.16098
| 50>    O       -0.84716        16.22754         5.89278
| 51>    C       -0.49108        19.05215         8.35069
| 52>    C       -1.57898        19.83716         8.19394
| 53>    N       -1.95211        20.87405         8.98038
| 54>    C       -1.46137        21.04021        10.35867
| 55>    N       -2.50408        21.70302        11.11783
| 56>    C       -3.71421        21.30406        10.42061
| 57>    N       -4.88043        22.11703        10.67114
| 58>    C       -5.76232        22.03631         9.51195
| 59>    C       -5.55168        20.73271         8.71207
| 60>    N       -4.23935        20.67358         8.09480
| 61>    C       -3.30738        21.40080         8.92967
| 62>    N       -6.67722        20.80302         7.81582
| 63>    C       -7.78176        21.18702         8.68996
| 64>    N       -7.17884        21.97996         9.75969
| 65>    C       -7.85052        23.09518        10.23213
| 66>    C       -7.29050        24.13971        10.82730
| 67>    H      -16.53408        18.36016        20.19058
| 68>    H      -14.20458        18.21828        19.33561
| 69>    H      -13.73852        18.19515        16.94974
| 70>    H      -16.22884        18.30795        11.65602
| 71>    H      -17.39829        18.41431        13.98359
| 72>    H      -12.17012        17.77084         8.70527
| 73>    H       -9.97143        17.88474        10.84703
| 74>    H       -8.47115        17.01389         5.65211
| 75>    H      -10.64662        17.37519         7.00467
| 76>    H       -3.33447        16.38425         5.39849
| 77>    H       -2.80522        17.73885         8.10179
| 78>    H        0.50513        14.40624         4.23492
| 79>    H        3.65531        16.70430         6.56114
| 80>    H        0.26436        19.27091         9.08905
| 81>    H       -2.23570        19.69236         7.34965
| 82>    H       -0.53169        21.61412        10.37315
| 83>    H       -1.27576        20.04925        10.79577
| 84>    H       -2.41547        22.71420        11.07002
| 85>    H       -3.85799        20.23458        10.65831
| 86>    H       -5.36143        21.82688        11.51512
| 87>    H       -5.52304        22.89907         8.85926
| 88>    H       -5.63601        19.87220         9.40502
| 89>    H       -4.28419        21.05929         7.15726
| 90>    H       -3.23781        22.47270         8.66123
| 91>    H       -6.85396        19.92416         7.34051
| 92>    H       -8.29263        20.31801         9.14061
| 93>    H       -8.51398        21.76480         8.11294
| 94>    H       -8.92401        23.01727        10.12375
| 95>    H       -6.22697        24.21913        10.95758
| 96>    H       -7.89803        24.93504        11.21671
| 97> *
| 98>
| 99>                          ****END OF INPUT****

CARTESIAN COORDINATES (ANGSTROEM)
---------------------------------
  C    -16.314100   18.351070   19.135910
  C    -15.036440   18.272740   18.649030
  C    -14.767600   18.259490   17.273520
  C    -15.759490   18.323550   16.310360
  C    -17.097270   18.407370   16.787390
  C    -17.361470   18.419720   18.204470
  N    -18.666360   18.501110   18.470320
  S    -19.473570   18.556160   17.084930
  N    -18.221060   18.480620   16.076590
  C    -15.460430   18.299930   14.905260
  S    -13.812750   18.189970   14.345770
  C    -14.335670   18.199640   12.682680
  C    -15.709200   18.288440   12.597520
  C    -16.335390   18.344950   13.842890
  C    -13.425290   18.105550   11.644340
  C    -12.611550   18.000880   10.747860
  C    -11.726080   17.853320    9.688810
  C    -10.383340   17.790250    9.850690
  C     -9.451880   17.586100    8.796530
  S     -7.742770   17.534270    9.158710
  C     -7.352820   17.237430    7.480910
  C     -8.498800   17.188820    6.713170
  C     -9.666800   17.385540    7.447320
  C     -6.040140   17.083190    7.071630
  C     -4.879260   16.938340    6.742080
  C     -3.548350   16.820660    6.363980
  C     -2.552600   17.280020    7.157360
  C     -1.160020   17.190030    6.853670
  C     -0.207700   17.945120    7.480410
  O      1.148180   17.709360    7.340140
  C      1.473780   16.720410    6.460580
  C      0.482300   15.998540    5.730170
  C      1.017320   15.076800    4.892440
  S      2.741510   15.072800    4.979940
  C      2.736730   16.329760    6.160980
  O     -0.847160   16.227540    5.892780
  C     -0.491080   19.052150    8.350690
  C     -1.578980   19.837160    8.193940
  N     -1.952110   20.874050    8.980380
  C     -1.461370   21.040210   10.358670
  N     -2.504080   21.703020   11.117830
  C     -3.714210   21.304060   10.420610
  N     -4.880430   22.117030   10.671140
  C     -5.762320   22.036310    9.511950
  C     -5.551680   20.732710    8.712070
  N     -4.239350   20.673580    8.094800
  C     -3.307380   21.400800    8.929670
  N     -6.677220   20.803020    7.815820
  C     -7.781760   21.187020    8.689960
  N     -7.178840   21.979960    9.759690
  C     -7.850520   23.095180   10.232130
  C     -7.290500   24.139710   10.827300
  H    -16.534080   18.360160   20.190580
  H    -14.204580   18.218280   19.335610
  H    -13.738520   18.195150   16.949740
  H    -16.228840   18.307950   11.656020
  H    -17.398290   18.414310   13.983590
  H    -12.170120   17.770840    8.705270
  H     -9.971430   17.884740   10.847030
  H     -8.471150   17.013890    5.652110
  H    -10.646620   17.375190    7.004670
  H     -3.334470   16.384250    5.398490
  H     -2.805220   17.738850    8.101790
  H      0.505130   14.406240    4.234920
  H      3.655310   16.704300    6.561140
  H      0.264360   19.270910    9.089050
  H     -2.235700   19.692360    7.349650
  H     -0.531690   21.614120   10.373150
  H     -1.275760   20.049250   10.795770
  H     -2.415470   22.714200   11.070020
  H     -3.857990   20.234580   10.658310
  H     -5.361430   21.826880   11.515120
  H     -5.523040   22.899070    8.859260
  H     -5.636010   19.872200    9.405020
  H     -4.284190   21.059290    7.157260
  H     -3.237810   22.472700    8.661230
  H     -6.853960   19.924160    7.340510
  H     -8.292630   20.318010    9.140610
  H     -8.513980   21.764800    8.112940
  H     -8.924010   23.017270   10.123750
  H     -6.226970   24.219130   10.957580
  H     -7.898030   24.935040   11.216710

 Total Charge           Charge          ....    0
 Multiplicity           Mult            ....    1
 Number of Electrons    NEL             ....  394
 Basis Dimension        Dim             ....  894

ORBITAL ENERGIES
----------------

  NO   OCC          E(Eh)            E(eV)
   0   2.0000     -89.018430     -2422.3146
   1   2.0000     -88.960323     -2420.7334
   2   2.0000     -88.952262     -2420.5141
   3   2.0000     -88.945350     -2420.3260
   4   2.0000     -19.261565      -524.1338
   5   2.0000     -19.253633      -523.9180
   6   2.0000     -14.433513      -392.7559
   7   2.0000     -14.431730      -392.7073
   8   2.0000     -14.429993      -392.6601
   9   2.0000     -14.417120      -392.3098
  10   2.0000     -14.407407      -392.0455
  11   2.0000     -14.402572      -391.9139
  12   2.0000     -14.401202      -391.8766
  13   2.0000     -14.401098      -391.8738
  14   2.0000     -10.335430      -281.2414
  15   2.0000     -10.334000      -281.2024
  16   2.0000     -10.328626      -281.0562
  17   2.0000     -10.327958      -281.0380
  18   2.0000     -10.327298      -281.0201
  19   2.0000     -10.326769      -281.0057
  20   2.0000     -10.322628      -280.8930
  21   2.0000     -10.322573      -280.8915
  22   2.0000     -10.322101      -280.8786
  23   2.0000     -10.319215      -280.8001
  24   2.0000     -10.317824      -280.7623
  25   2.0000     -10.315758      -280.7060
  26   2.0000     -10.315622      -280.7024
  27   2.0000     -10.309606      -280.5387
  28   2.0000     -10.307956      -280.4937
  29   2.0000     -10.304072      -280.3881
  30   2.0000     -10.299374      -280.2602
  31   2.0000     -10.298236      -280.2292
  32   2.0000     -10.291297      -280.0404
  33   2.0000     -10.290429      -280.0168
  34   2.0000     -10.290396      -280.0159
  35   2.0000     -10.284080      -279.8440
  36   2.0000     -10.283322      -279.8234
  37   2.0000     -10.282251      -279.7943
  38   2.0000     -10.279915      -279.7307
  39   2.0000     -10.279903      -279.7304
  40   2.0000     -10.277960      -279.6775
  41   2.0000     -10.277500      -279.6650
  42   2.0000     -10.275691      -279.6158
  43   2.0000     -10.272959      -279.5414
  44   2.0000     -10.271808      -279.5101
  45   2.0000     -10.270748      -279.4813
  46   2.0000     -10.270166      -279.4654
  47   2.0000     -10.269085      -279.4360
  48   2.0000     -10.264568      -279.3131
  49   2.0000     -10.261927      -279.2412
  50   2.0000     -10.253066      -279.0001
  51   2.0000     -10.232434      -278.4387
  52   2.0000      -8.110395      -220.6951
  53   2.0000      -8.055318      -219.1963
  54   2.0000      -8.047894      -218.9943
  55   2.0000      -8.041030      -218.8075
  56   2.0000      -6.081599      -165.4887
  57   2.0000      -6.073795      -165.2764
  58   2.0000      -6.072848      -165.2506
  59   2.0000      -6.024588      -163.9374
  60   2.0000      -6.020541      -163.8273
  61   2.0000      -6.017472      -163.7437
  62   2.0000      -6.017192      -163.7361
  63   2.0000      -6.013096      -163.6246
  64   2.0000      -6.010542      -163.5552
  65   2.0000      -6.009907      -163.5379
  66   2.0000      -6.006417      -163.4429
  67   2.0000      -6.002733      -163.3427
  68   2.0000      -1.182889       -32.1880
  69   2.0000      -1.145275       -31.1645
  70   2.0000      -1.118223       -30.4284
  71   2.0000      -1.097006       -29.8511
  72   2.0000      -1.073605       -29.2143
  73   2.0000      -1.010895       -27.5078
  74   2.0000      -1.006293       -27.3826
  75   2.0000      -0.985911       -26.8280
  76   2.0000      -0.985421       -26.8147
  77   2.0000      -0.974164       -26.5084
  78   2.0000      -0.971622       -26.4392
  79   2.0000      -0.969727       -26.3876
  80   2.0000      -0.951607       -25.8945
  81   2.0000      -0.940149       -25.5827
  82   2.0000      -0.910789       -24.7838
  83   2.0000      -0.907512       -24.6947
  84   2.0000      -0.880420       -23.9574
  85   2.0000      -0.874612       -23.7994
  86   2.0000      -0.857167       -23.3247
  87   2.0000      -0.853839       -23.2341
  88   2.0000      -0.841317       -22.8934
  89   2.0000      -0.834866       -22.7179
  90   2.0000      -0.831510       -22.6265
  91   2.0000      -0.826946       -22.5023
  92   2.0000      -0.823713       -22.4144
  93   2.0000      -0.817759       -22.2523
  94   2.0000      -0.814276       -22.1576
  95   2.0000      -0.799751       -21.7623
  96   2.0000      -0.790495       -21.5105
  97   2.0000      -0.776447       -21.1282
  98   2.0000      -0.771817       -21.0022
  99   2.0000      -0.751520       -20.4499
 100   2.0000      -0.739117       -20.1124
 101   2.0000      -0.731855       -19.9148
 102   2.0000      -0.725013       -19.7286
 103   2.0000      -0.717280       -19.5182
 104   2.0000      -0.708741       -19.2858
 105   2.0000      -0.700902       -19.0725
 106   2.0000      -0.694390       -18.8953
 107   2.0000      -0.686562       -18.6823
 108   2.0000      -0.671411       -18.2700
 109   2.0000      -0.668631       -18.1944
 110   2.0000      -0.666856       -18.1461
 111   2.0000      -0.657046       -17.8791
 112   2.0000      -0.652881       -17.7658
 113   2.0000      -0.648353       -17.6426
 114   2.0000      -0.642630       -17.4869
 115   2.0000      -0.628121       -17.0921
 116   2.0000      -0.625840       -17.0300
 117   2.0000      -0.622946       -16.9512
 118   2.0000      -0.609753       -16.5922
 119   2.0000      -0.603486       -16.4217
 120   2.0000      -0.599673       -16.3179
 121   2.0000      -0.592544       -16.1239
 122   2.0000      -0.590172       -16.0594
 123   2.0000      -0.583323       -15.8730
 124   2.0000      -0.575092       -15.6491
 125   2.0000      -0.574503       -15.6330
 126   2.0000      -0.570665       -15.5286
 127   2.0000      -0.568512       -15.4700
 128   2.0000      -0.561367       -15.2756
 129   2.0000      -0.558167       -15.1885
 130   2.0000      -0.557318       -15.1654
 131   2.0000      -0.547739       -14.9047
 132   2.0000      -0.546832       -14.8801
 133   2.0000      -0.542063       -14.7503
 134   2.0000      -0.538512       -14.6536
 135   2.0000      -0.530727       -14.4418
 136   2.0000      -0.520607       -14.1664
 137   2.0000      -0.519521       -14.1369
 138   2.0000      -0.516689       -14.0598
 139   2.0000      -0.512387       -13.9428
 140   2.0000      -0.511425       -13.9166
 141   2.0000      -0.505227       -13.7479
 142   2.0000      -0.502648       -13.6778
 143   2.0000      -0.500195       -13.6110
 144   2.0000      -0.493694       -13.4341
 145   2.0000      -0.492649       -13.4057
 146   2.0000      -0.489560       -13.3216
 147   2.0000      -0.489186       -13.3114
 148   2.0000      -0.485016       -13.1980
 149   2.0000      -0.483503       -13.1568
 150   2.0000      -0.483070       -13.1450
 151   2.0000      -0.481430       -13.1004
 152   2.0000      -0.480967       -13.0878
 153   2.0000      -0.474085       -12.9005
 154   2.0000      -0.468621       -12.7518
 155   2.0000      -0.464858       -12.6494
 156   2.0000      -0.463708       -12.6181
 157   2.0000      -0.459938       -12.5155
 158   2.0000      -0.459273       -12.4974
 159   2.0000      -0.458738       -12.4829
 160   2.0000      -0.453456       -12.3392
 161   2.0000      -0.452207       -12.3052
 162   2.0000      -0.450340       -12.2544
 163   2.0000      -0.445748       -12.1294
 164   2.0000      -0.444225       -12.0880
 165   2.0000      -0.439034       -11.9467
 166   2.0000      -0.429091       -11.6762
 167   2.0000      -0.423704       -11.5296
 168   2.0000      -0.422610       -11.4998
 169   2.0000      -0.420394       -11.4395
 170   2.0000      -0.417660       -11.3651
 171   2.0000      -0.414250       -11.2723
 172   2.0000      -0.404382       -11.0038
 173   2.0000      -0.402765       -10.9598
 174   2.0000      -0.393748       -10.7144
 175   2.0000      -0.388196       -10.5633
 176   2.0000      -0.384112       -10.4522
 177   2.0000      -0.375833       -10.2269
 178   2.0000      -0.361813        -9.8454
 179   2.0000      -0.351567        -9.5666
 180   2.0000      -0.340285        -9.2596
 181   2.0000      -0.337071        -9.1722
 182   2.0000      -0.334215        -9.0945
 183   2.0000      -0.330006        -8.9799
 184   2.0000      -0.329149        -8.9566
 185   2.0000      -0.325991        -8.8707
 186   2.0000      -0.318984        -8.6800
 187   2.0000      -0.318321        -8.6620
 188   2.0000      -0.313181        -8.5221
 189   2.0000      -0.307585        -8.3698
 190   2.0000      -0.300979        -8.1901
 191   2.0000      -0.292195        -7.9510
 192   2.0000      -0.274548        -7.4708
 193   2.0000      -0.271600        -7.3906
 194   2.0000      -0.264267        -7.1911
 195   2.0000      -0.242415        -6.5965
 196   2.0000      -0.216206        -5.8833
 197   0.0000      -0.067333        -1.8322
 198   0.0000      -0.046684        -1.2703
 199   0.0000      -0.012700        -0.3456
 200   0.0000       0.012882         0.3505
 201   0.0000       0.036671         0.9979

MULLIKEN ATOMIC CHARGES
-----------------------
   0 C :   -0.026848
   1 C :    0.039638
   2 C :   -0.073386
   3 C :    0.184592
   4 C :   -0.023831
   5 C :    0.054117
   6 N :   -0.267574
   7 S :    0.499347
   8 N :   -0.286715
   9 C :   -0.125499
  10 S :    0.127776
  11 C :   -0.127013
  12 C :    0.057581
  13 C :    0.001705
  14 C :    0.061996
  15 C :   -0.035252
  16 C :   -0.090927
  17 C :    0.073743
  18 C :   -0.098141
  19 S :    0.142283
  20 C :   -0.191302
  21 C :    0.054571
  22 C :    0.015148
  23 C :    0.057448
  24 C :   -0.007966
  25 C :   -0.106592
  26 C :   -0.055362
  27 C :    0.115186
  28 C :    0.178445
  29 O :   -0.247188
  30 C :    0.212104
  31 C :    0.227361
  32 C :   -0.181267
  33 S :    0.097610
  34 C :   -0.175898
  35 O :   -0.266679
  36 C :   -0.078946
  37 C :    0.085301
  38 N :   -0.285096
  39 C :    0.256714
  40 N :   -0.197785
  41 C :    0.042685
  42 N :   -0.146847
  43 C :    0.143545
  44 C :    0.077446
  45 N :   -0.165256
  46 C :    0.127420
  47 N :   -0.244694
  48 C :    0.300226
  49 N :   -0.312852
  50 C :    0.061288
  51 C :   -0.077357
  52 H :   -0.017146
  53 H :   -0.003462
  54 H :   -0.006105
  55 H :   -0.014286
  56 H :    0.000220
  57 H :    0.023708
  58 H :   -0.001940
  59 H :   -0.010269
  60 H :   -0.014528
  61 H :    0.023988
  62 H :    0.030829
  63 H :    0.020136
  64 H :    0.019838
  65 H :   -0.003746
  66 H :    0.032975
  67 H :    0.022170
  68 H :    0.015858
  69 H :    0.104990
  70 H :   -0.001383
  71 H :    0.120578
  72 H :   -0.015861
  73 H :   -0.011255
  74 H :    0.117516
  75 H :   -0.004086
  76 H :    0.125614
  77 H :    0.005495
  78 H :    0.008347
  79 H :    0.004272
  80 H :    0.019116
  81 H :    0.009417
Sum of atomic charges:   -0.0000000

LOEWDIN ATOMIC CHARGES
----------------------
   0 C :   -0.024318
   1 C :   -0.013115
   2 C :   -0.024416
   3 C :   -0.035212
   4 C :   -0.041494
   5 C :   -0.051556
   6 N :   -0.285123
   7 S :    0.636686
   8 N :   -0.285299
   9 C :   -0.164199
  10 S :    0.439882
  11 C :   -0.182874
  12 C :   -0.037233
  13 C :   -0.045207
  14 C :   -0.057723
  15 C :   -0.029054
  16 C :   -0.041540
  17 C :   -0.022392
  18 C :   -0.177771
  19 S :    0.445614
  20 C :   -0.186513
  21 C :   -0.046567
  22 C :   -0.051755
  23 C :   -0.101456
  24 C :   -0.002651
  25 C :   -0.075221
  26 C :    0.003335
  27 C :   -0.015155
  28 C :    0.050827
  29 O :   -0.055863
  30 C :   -0.009058
  31 C :   -0.005255
  32 C :   -0.217246
  33 S :    0.424908
  34 C :   -0.213522
  35 O :   -0.068994
  36 C :   -0.140047
  37 C :    0.056220
  38 N :   -0.060612
  39 C :    0.098240
  40 N :   -0.098329
  41 C :    0.049000
  42 N :   -0.096563
  43 C :    0.060899
  44 C :    0.047927
  45 N :   -0.091219
  46 C :    0.061640
  47 N :   -0.104053
  48 C :    0.108447
  49 N :   -0.084858
  50 C :    0.020960
  51 C :   -0.136521
  52 H :    0.037268
  53 H :    0.034339
  54 H :    0.024058
  55 H :    0.033651
  56 H :    0.030978
  57 H :    0.041507
  58 H :    0.034153
  59 H :    0.035330
  60 H :    0.029948
  61 H :    0.041200
  62 H :    0.040889
  63 H :    0.026821
  64 H :    0.026915
  65 H :    0.027444
  66 H :    0.030332
  67 H :    0.021297
  68 H :    0.015939
  69 H :    0.056798
  70 H :    0.009621
  71 H :    0.069249
  72 H :    0.003529
  73 H :   -0.003039
  74 H :    0.064138
  75 H :    0.005251
  76 H :    0.064929
  77 H :   -0.004189
  78 H :    0.012259
  79 H :    0.023706
  80 H :    0.018025
  81 H :    0.023053

  Mayer bond orders larger than 0.100000
B(  0-C ,  1-C ) :   1.4910 B(  0-C ,  3-C ) :   0.1062 B(  0-C ,  5-C ) :   1.2053
B(  0-C , 52-H ) :   1.0205 B(  1-C ,  2-C ) :   1.2251 B(  1-C , 53-H ) :   0.9825
B(  2-C ,  3-C ) :   1.4869 B(  2-C , 54-H ) :   0.9874 B(  3-C ,  4-C ) :   1.1874
B(  3-C ,  9-C ) :   1.0945 B(  4-C ,  5-C ) :   1.1646 B(  4-C ,  8-N ) :   1.5299
B(  5-C ,  6-N ) :   1.5100 B(  6-N ,  7-S ) :   1.2796 B(  6-N ,  8-N ) :   0.1508
B(  7-S ,  8-N ) :   1.2538 B(  9-C , 10-S ) :   1.1137 B(  9-C , 11-C ) :   0.1047
B(  9-C , 13-C ) :   1.5318 B( 10-S , 11-C ) :   1.1029 B( 11-C , 12-C ) :   1.5007
B( 11-C , 14-C ) :   0.9705 B( 12-C , 13-C ) :   1.2393 B( 12-C , 55-H ) :   1.0027
B( 13-C , 56-H ) :   0.9779 B( 14-C , 15-C ) :   2.2808 B( 15-C , 16-C ) :   1.0243
B( 16-C , 17-C ) :   1.7185 B( 16-C , 57-H ) :   0.9544 B( 17-C , 18-C ) :   1.1149
B( 17-C , 58-H ) :   0.9664 B( 18-C , 19-S ) :   1.0999 B( 18-C , 22-C ) :   1.4915
B( 19-S , 20-C ) :   1.1143 B( 20-C , 21-C ) :   1.4836 B( 20-C , 23-C ) :   0.9580
B( 21-C , 22-C ) :   1.2770 B( 21-C , 59-H ) :   1.0018 B( 22-C , 60-H ) :   0.9898
B( 23-C , 24-C ) :   2.2181 B( 24-C , 25-C ) :   1.0016 B( 25-C , 26-C ) :   1.6651
B( 25-C , 61-H ) :   0.9615 B( 26-C , 27-C ) :   1.1684 B( 26-C , 62-H ) :   0.9629
B( 27-C , 28-C ) :   1.5121 B( 27-C , 35-O ) :   1.0281 B( 28-C , 29-O ) :   1.0541
B( 28-C , 36-C ) :   1.1357 B( 29-O , 30-C ) :   1.0586 B( 30-C , 31-C ) :   1.1947
B( 30-C , 34-C ) :   1.5750 B( 31-C , 32-C ) :   1.5714 B( 31-C , 35-O ) :   1.0748
B( 32-C , 33-S ) :   1.1329 B( 32-C , 63-H ) :   0.9719 B( 33-S , 34-C ) :   1.1400
B( 34-C , 64-H ) :   0.9714 B( 36-C , 37-C ) :   1.5996 B( 36-C , 65-H ) :   0.9484
B( 37-C , 38-N ) :   1.2083 B( 37-C , 66-H ) :   0.9621 B( 38-N , 39-C ) :   0.9330
B( 38-N , 46-C ) :   0.9641 B( 39-C , 40-N ) :   1.0816 B( 39-C , 67-H ) :   0.9571
B( 39-C , 68-H ) :   0.9416 B( 40-N , 41-C ) :   1.0643 B( 40-N , 69-H ) :   0.9326
B( 41-C , 42-N ) :   1.1415 B( 41-C , 46-C ) :   1.0421 B( 41-C , 70-H ) :   0.8812
B( 42-N , 43-C ) :   1.0635 B( 42-N , 71-H ) :   0.9128 B( 43-C , 44-C ) :   0.9928
B( 43-C , 49-N ) :   1.0254 B( 43-C , 72-H ) :   0.8870 B( 44-C , 45-N ) :   1.0907
B( 44-C , 47-N ) :   1.0849 B( 44-C , 73-H ) :   0.8795 B( 45-N , 46-C ) :   1.1184
B( 45-N , 74-H ) :   0.9082 B( 46-C , 75-H ) :   0.8946 B( 47-N , 48-C ) :   1.0329
B( 47-N , 76-H ) :   0.9328 B( 48-C , 49-N ) :   0.9563 B( 48-C , 77-H ) :   0.9490
B( 48-C , 78-H ) :   0.9488 B( 49-N , 50-C ) :   1.0917 B( 50-C , 51-C ) :   1.9262
B( 50-C , 79-H ) :   0.9640 B( 51-C , 80-H ) :   0.9422 B( 51-C , 81-H ) :   0.9502

-----------------------------------------------------------------------------
         ABSORPTION SPECTRUM VIA TRANSITION ELECTRIC DIPOLE MOMENTS
-----------------------------------------------------------------------------
State   Energy  Wavelength   fosc         T2         TX        TY        TZ
        (cm-1)    (nm)                  (au**2)     (au)      (au)      (au)
-----------------------------------------------------------------------------
   0   19670.8    508.4   1.580542520  26.45211  -4.55002  -0.20275   2.38920
   1   23370.5    427.9   0.360224495   5.07435  -0.42935  -0.61967  -2.12274
   2   26681.5    374.8   0.486586899   6.00380   2.06138  -0.09403  -1.32123
   3   28421.6    351.8   0.231832619   2.68535  -0.59362   0.97179   1.17839
   4   29942.1    334.0   0.006648298   0.07310   0.14870  -0.10414  -0.20035
   5   30947.6    323.1   0.128574491   1.36774  -0.62984  -0.59640  -0.78444
   6   32454.8    308.1   0.060996517   0.61873   0.57956   0.04790   0.52967
   7   33662.6    297.1   0.074515424   0.72874   0.32607  -0.50464  -0.60643
   8   34750.5    287.8   0.098338749   0.93162   0.63089  -0.72968   0.03423
   9   36299.5    275.5   0.003259684   0.02956   0.08483  -0.13412  -0.06616
  10   36552.9    273.6   0.067830538   0.61091   0.45580   0.45204  -0.44589
  11   37119.5    269.4   0.051711782   0.45863   0.38269  -0.43893  -0.34571
  12   37574.7    266.1   0.007190627   0.06300   0.21292   0.11405   0.06823
  13   37676.9    265.4   0.002980985   0.02605   0.04617   0.05250  -0.14546
  14   37770.9    264.8   0.033561092   0.29252  -0.40047   0.33865   0.13213
  15   38979.9    256.5   0.003488387   0.02946  -0.13190  -0.08888  -0.06453
  16   39432.4    253.6   0.016691666   0.13935  -0.32158  -0.16806   0.08775
  17   39780.2    251.4   0.000822312   0.00681  -0.03311   0.01725   0.07356
  18   40302.9    248.1   0.041174595   0.33633  -0.54647   0.15436   0.11779

FINAL SINGLE POINT ENERGY     -3643.995566472662

DIPOLE MOMENT
-------------
                                X             Y             Z
Electronic contribution:    -30.59382     -30.73868      13.48115
Nuclear contribution   :     30.16402      31.43097     -13.39129
                        -----------------------------------------
Total Dipole Moment    :     -0.42979       0.69229       0.08986
                        -----------------------------------------
Magnitude (a.u.)       :      0.81980
Magnitude (Debye)      :      2.08376

Rotational constants in cm-1:     0.003165     0.000371     0.000358
Rotational constants in MHz :    94.883450    11.112005    10.724149

                             ****ORCA TERMINATED NORMALLY****
TOTAL RUN TIME: 0 days 0 hours 5 minutes 44 seconds 353 msec
