                         Program Version 4.2.0 -  RELEASE  -
|  1> # ORCA input file
|  2> # SCF done       -127.205297821112          0.000730423016
|  3> ! CAM-B3LYP def2-SVP def2/J RIJCOSX Grid4 TightSCF
|  4> %maxcore 5000
|  5> %tddft
|  6>     Mode sTDDFT
|  7>     Ethresh 5.0
|  8>     maxcore 5000
|  9> end
| 10>
| 11> %pal
| 12>   nprocs 6
| 13>   end
| 14> * xyz 0 1
| 15>    C       -0.22672        -1.02649         3.16912
| 16>    C       -0.69664        -0.86847         1.89357
| 17>    C       -0.74010         0.38338         1.25739
| 18>    C       -0.29960         1.54388         1.86512
| 19>    C        0.17076         1.40905         3.19926
| 20>    C        0.21096         0.12330         3.84447
| 21>    N        0.68802         0.20396         5.08805
| 22>    S        1.04823         1.73774         5.40346
| 23>    N        0.62378         2.37759         3.99120
| 24>    C       -0.31716         2.84508         1.24019
| 25>    C       -0.16592         3.20113        -0.08793
| 26>    C        0.11567         2.27472        -1.23174
| 27>    C       -1.13436         2.03630        -2.08139
| 28>    C       -0.24914         4.58834        -0.28175
| 29>    C       -0.46054         5.31140         0.87060
| 30>    S       -0.53046         4.24810         2.24325
| 31>    C       -0.59261         6.71664         1.07317
| 32>    C       -0.59595         7.63655         0.08660
| 33>    C       -0.71350         9.06374         0.22912
| 34>    C       -0.80519         9.83429        -0.92325
| 35>    C       -0.90995        11.21808        -0.89661
| 36>    C       -0.90869        11.92439         0.29264
| 37>    C       -0.85955        11.17874         1.50045
| 38>    C       -0.74786         9.76054         1.47495
| 39>    N       -0.67398         9.08975         2.64010
| 40>    C       -0.75396         9.73647         3.77336
| 41>    C       -0.94079        11.14592         3.79278
| 42>    N       -0.97493        11.82660         2.67713
| 43>    C       -1.09336        11.90577         5.06897
| 44>    C       -0.64900         8.93896         5.03127
| 45>    C       -1.00242        13.37134         0.27967
| 46>    C       -0.25890        14.32637         0.93751
| 47>    C        0.90290        14.04066         1.83787
| 48>    C        2.07315        13.43896         1.05944
| 49>    C       -0.64450        15.63141         0.58737
| 50>    C       -1.67381        15.70208        -0.32237
| 51>    S       -2.17325        14.09895        -0.78264
| 52>    C       -2.28006        16.87797        -0.84561
| 53>    C       -3.31066        16.88006        -1.71488
| 54>    C       -3.95239        18.04519        -2.25702
| 55>    C       -5.04179        17.91082        -3.10302
| 56>    C       -5.72038        19.00181        -3.66291
| 57>    C       -5.34268        20.29373        -3.41079
| 58>    C       -4.24218        20.49477        -2.56308
| 59>    C       -3.53982        19.37884        -1.97821
| 60>    N       -2.53111        19.78438        -1.20865
| 61>    S       -2.47461        21.39355        -1.22119
| 62>    N       -3.71932        21.66661        -2.19724
| 63>    H       -0.19338        -1.98491         3.66030
| 64>    H       -1.05679        -1.72889         1.34887
| 65>    H       -1.16345         0.43155         0.26810
| 66>    H        0.50779         1.32655        -0.86195
| 67>    H        0.88358         2.73092        -1.86208
| 68>    H       -1.93828         1.61303        -1.48244
| 69>    H       -0.91181         1.35302        -2.89770
| 70>    H       -1.48916         2.97458        -2.50136
| 71>    H       -0.14181         5.04249        -1.25073
| 72>    H       -0.69432         7.04523         2.09563
| 73>    H       -0.51253         7.30004        -0.93995
| 74>    H       -0.79325         9.33660        -1.88279
| 75>    H       -0.97521        11.76254        -1.82789
| 76>    H       -1.93895        11.52411         5.63890
| 77>    H       -1.25475        12.95664         4.84515
| 78>    H       -0.19927        11.80057         5.68244
| 79>    H       -0.47810         7.89432         4.78729
| 80>    H       -1.56659         9.02611         5.61169
| 81>    H        0.17284         9.30475         5.64498
| 82>    H        0.59190        13.34682         2.61930
| 83>    H        1.21980        14.97295         2.30880
| 84>    H        1.78485        12.48903         0.61423
| 85>    H        2.91889        13.26769         1.72162
| 86>    H        2.38748        14.11050         0.26285
| 87>    H       -0.17565        16.51155         0.99243
| 88>    H       -1.86967        17.81701        -0.50181
| 89>    H       -3.71627        15.93022        -2.04400
| 90>    H       -5.38716        16.91463        -3.33829
| 91>    H       -6.56442        18.80918        -4.30817
| 92>    H       -5.85481        21.14209        -3.83395
| 93> *
| 94>
| 95>                          ****END OF INPUT****

CARTESIAN COORDINATES (ANGSTROEM)
---------------------------------
  C     -0.226720   -1.026490    3.169120
  C     -0.696640   -0.868470    1.893570
  C     -0.740100    0.383380    1.257390
  C     -0.299600    1.543880    1.865120
  C      0.170760    1.409050    3.199260
  C      0.210960    0.123300    3.844470
  N      0.688020    0.203960    5.088050
  S      1.048230    1.737740    5.403460
  N      0.623780    2.377590    3.991200
  C     -0.317160    2.845080    1.240190
  C     -0.165920    3.201130   -0.087930
  C      0.115670    2.274720   -1.231740
  C     -1.134360    2.036300   -2.081390
  C     -0.249140    4.588340   -0.281750
  C     -0.460540    5.311400    0.870600
  S     -0.530460    4.248100    2.243250
  C     -0.592610    6.716640    1.073170
  C     -0.595950    7.636550    0.086600
  C     -0.713500    9.063740    0.229120
  C     -0.805190    9.834290   -0.923250
  C     -0.909950   11.218080   -0.896610
  C     -0.908690   11.924390    0.292640
  C     -0.859550   11.178740    1.500450
  C     -0.747860    9.760540    1.474950
  N     -0.673980    9.089750    2.640100
  C     -0.753960    9.736470    3.773360
  C     -0.940790   11.145920    3.792780
  N     -0.974930   11.826600    2.677130
  C     -1.093360   11.905770    5.068970
  C     -0.649000    8.938960    5.031270
  C     -1.002420   13.371340    0.279670
  C     -0.258900   14.326370    0.937510
  C      0.902900   14.040660    1.837870
  C      2.073150   13.438960    1.059440
  C     -0.644500   15.631410    0.587370
  C     -1.673810   15.702080   -0.322370
  S     -2.173250   14.098950   -0.782640
  C     -2.280060   16.877970   -0.845610
  C     -3.310660   16.880060   -1.714880
  C     -3.952390   18.045190   -2.257020
  C     -5.041790   17.910820   -3.103020
  C     -5.720380   19.001810   -3.662910
  C     -5.342680   20.293730   -3.410790
  C     -4.242180   20.494770   -2.563080
  C     -3.539820   19.378840   -1.978210
  N     -2.531110   19.784380   -1.208650
  S     -2.474610   21.393550   -1.221190
  N     -3.719320   21.666610   -2.197240
  H     -0.193380   -1.984910    3.660300
  H     -1.056790   -1.728890    1.348870
  H     -1.163450    0.431550    0.268100
  H      0.507790    1.326550   -0.861950
  H      0.883580    2.730920   -1.862080
  H     -1.938280    1.613030   -1.482440
  H     -0.911810    1.353020   -2.897700
  H     -1.489160    2.974580   -2.501360
  H     -0.141810    5.042490   -1.250730
  H     -0.694320    7.045230    2.095630
  H     -0.512530    7.300040   -0.939950
  H     -0.793250    9.336600   -1.882790
  H     -0.975210   11.762540   -1.827890
  H     -1.938950   11.524110    5.638900
  H     -1.254750   12.956640    4.845150
  H     -0.199270   11.800570    5.682440
  H     -0.478100    7.894320    4.787290
  H     -1.566590    9.026110    5.611690
  H      0.172840    9.304750    5.644980
  H      0.591900   13.346820    2.619300
  H      1.219800   14.972950    2.308800
  H      1.784850   12.489030    0.614230
  H      2.918890   13.267690    1.721620
  H      2.387480   14.110500    0.262850
  H     -0.175650   16.511550    0.992430
  H     -1.869670   17.817010   -0.501810
  H     -3.716270   15.930220   -2.044000
  H     -5.387160   16.914630   -3.338290
  H     -6.564420   18.809180   -4.308170
  H     -5.854810   21.142090   -3.833950

 Total Charge           Charge          ....    0
 Multiplicity           Mult            ....    1
 Number of Electrons    NEL             ....  364
 Basis Dimension        Dim             ....  838

ORBITAL ENERGIES
----------------

  NO   OCC          E(Eh)            E(eV)
   0   2.0000     -89.012835     -2422.1624
   1   2.0000     -89.010750     -2422.1056
   2   2.0000     -88.936067     -2420.0734
   3   2.0000     -88.935102     -2420.0472
   4   2.0000     -14.427614      -392.5953
   5   2.0000     -14.426635      -392.5687
   6   2.0000     -14.425831      -392.5468
   7   2.0000     -14.424914      -392.5219
   8   2.0000     -14.409177      -392.0936
   9   2.0000     -14.409016      -392.0893
  10   2.0000     -10.315387      -280.6959
  11   2.0000     -10.314276      -280.6657
  12   2.0000     -10.311960      -280.6027
  13   2.0000     -10.310417      -280.5607
  14   2.0000     -10.310106      -280.5522
  15   2.0000     -10.308172      -280.4996
  16   2.0000     -10.304579      -280.4019
  17   2.0000     -10.304057      -280.3876
  18   2.0000     -10.291862      -280.0558
  19   2.0000     -10.285077      -279.8712
  20   2.0000     -10.283257      -279.8216
  21   2.0000     -10.282124      -279.7908
  22   2.0000     -10.281447      -279.7724
  23   2.0000     -10.281226      -279.7664
  24   2.0000     -10.279981      -279.7325
  25   2.0000     -10.279079      -279.7080
  26   2.0000     -10.277344      -279.6607
  27   2.0000     -10.276461      -279.6367
  28   2.0000     -10.275631      -279.6141
  29   2.0000     -10.274442      -279.5818
  30   2.0000     -10.272501      -279.5290
  31   2.0000     -10.271693      -279.5070
  32   2.0000     -10.270519      -279.4750
  33   2.0000     -10.269732      -279.4536
  34   2.0000     -10.266876      -279.3759
  35   2.0000     -10.266284      -279.3598
  36   2.0000     -10.266092      -279.3546
  37   2.0000     -10.264168      -279.3022
  38   2.0000     -10.263439      -279.2824
  39   2.0000     -10.262187      -279.2483
  40   2.0000     -10.261734      -279.2360
  41   2.0000     -10.258975      -279.1609
  42   2.0000     -10.258342      -279.1437
  43   2.0000     -10.255298      -279.0609
  44   2.0000     -10.255092      -279.0552
  45   2.0000     -10.253566      -279.0137
  46   2.0000     -10.247426      -278.8466
  47   2.0000     -10.242171      -278.7036
  48   2.0000      -8.104756      -220.5416
  49   2.0000      -8.102873      -220.4904
  50   2.0000      -8.031485      -218.5478
  51   2.0000      -8.030203      -218.5129
  52   2.0000      -6.075889      -165.3333
  53   2.0000      -6.074085      -165.2842
  54   2.0000      -6.068269      -165.1260
  55   2.0000      -6.067204      -165.0970
  56   2.0000      -6.066333      -165.0733
  57   2.0000      -6.065230      -165.0433
  58   2.0000      -6.000636      -163.2856
  59   2.0000      -5.999428      -163.2527
  60   2.0000      -5.996725      -163.1792
  61   2.0000      -5.995198      -163.1376
  62   2.0000      -5.993737      -163.0979
  63   2.0000      -5.992538      -163.0653
  64   2.0000      -1.112965       -30.2853
  65   2.0000      -1.110462       -30.2172
  66   2.0000      -1.070535       -29.1307
  67   2.0000      -0.994363       -27.0580
  68   2.0000      -0.977758       -26.6061
  69   2.0000      -0.970597       -26.4113
  70   2.0000      -0.965143       -26.2629
  71   2.0000      -0.962353       -26.1870
  72   2.0000      -0.947879       -25.7931
  73   2.0000      -0.945714       -25.7342
  74   2.0000      -0.943480       -25.6734
  75   2.0000      -0.892669       -24.2908
  76   2.0000      -0.883426       -24.0392
  77   2.0000      -0.877758       -23.8850
  78   2.0000      -0.869364       -23.6566
  79   2.0000      -0.858156       -23.3516
  80   2.0000      -0.856860       -23.3164
  81   2.0000      -0.846783       -23.0421
  82   2.0000      -0.844802       -22.9882
  83   2.0000      -0.836783       -22.7700
  84   2.0000      -0.823554       -22.4100
  85   2.0000      -0.809407       -22.0251
  86   2.0000      -0.796600       -21.6766
  87   2.0000      -0.796015       -21.6607
  88   2.0000      -0.795107       -21.6360
  89   2.0000      -0.777208       -21.1489
  90   2.0000      -0.762141       -20.7389
  91   2.0000      -0.732290       -19.9266
  92   2.0000      -0.726997       -19.7826
  93   2.0000      -0.718639       -19.5552
  94   2.0000      -0.711410       -19.3584
  95   2.0000      -0.708592       -19.2818
  96   2.0000      -0.700819       -19.0703
  97   2.0000      -0.695837       -18.9347
  98   2.0000      -0.693616       -18.8743
  99   2.0000      -0.689489       -18.7620
 100   2.0000      -0.682033       -18.5591
 101   2.0000      -0.667416       -18.1613
 102   2.0000      -0.655119       -17.8267
 103   2.0000      -0.644906       -17.5488
 104   2.0000      -0.627490       -17.0749
 105   2.0000      -0.619688       -16.8626
 106   2.0000      -0.614291       -16.7157
 107   2.0000      -0.602910       -16.4060
 108   2.0000      -0.600473       -16.3397
 109   2.0000      -0.589828       -16.0500
 110   2.0000      -0.585334       -15.9277
 111   2.0000      -0.579818       -15.7776
 112   2.0000      -0.575391       -15.6572
 113   2.0000      -0.566627       -15.4187
 114   2.0000      -0.563358       -15.3297
 115   2.0000      -0.553307       -15.0562
 116   2.0000      -0.551544       -15.0083
 117   2.0000      -0.548894       -14.9362
 118   2.0000      -0.545602       -14.8466
 119   2.0000      -0.542721       -14.7682
 120   2.0000      -0.537124       -14.6159
 121   2.0000      -0.535322       -14.5668
 122   2.0000      -0.533888       -14.5278
 123   2.0000      -0.524503       -14.2725
 124   2.0000      -0.520875       -14.1737
 125   2.0000      -0.512100       -13.9350
 126   2.0000      -0.508708       -13.8427
 127   2.0000      -0.501742       -13.6531
 128   2.0000      -0.496724       -13.5166
 129   2.0000      -0.490938       -13.3591
 130   2.0000      -0.488674       -13.2975
 131   2.0000      -0.487992       -13.2789
 132   2.0000      -0.484446       -13.1824
 133   2.0000      -0.479347       -13.0437
 134   2.0000      -0.475521       -12.9396
 135   2.0000      -0.473048       -12.8723
 136   2.0000      -0.471838       -12.8394
 137   2.0000      -0.469811       -12.7842
 138   2.0000      -0.469107       -12.7651
 139   2.0000      -0.462018       -12.5722
 140   2.0000      -0.459941       -12.5156
 141   2.0000      -0.456342       -12.4177
 142   2.0000      -0.451964       -12.2986
 143   2.0000      -0.451232       -12.2786
 144   2.0000      -0.448801       -12.2125
 145   2.0000      -0.446869       -12.1599
 146   2.0000      -0.443513       -12.0686
 147   2.0000      -0.442379       -12.0378
 148   2.0000      -0.440218       -11.9789
 149   2.0000      -0.438075       -11.9206
 150   2.0000      -0.437515       -11.9054
 151   2.0000      -0.430387       -11.7114
 152   2.0000      -0.429149       -11.6777
 153   2.0000      -0.426295       -11.6001
 154   2.0000      -0.424025       -11.5383
 155   2.0000      -0.417346       -11.3566
 156   2.0000      -0.415890       -11.3169
 157   2.0000      -0.408938       -11.1278
 158   2.0000      -0.406675       -11.0662
 159   2.0000      -0.403299       -10.9743
 160   2.0000      -0.401409       -10.9229
 161   2.0000      -0.396885       -10.7998
 162   2.0000      -0.396134       -10.7794
 163   2.0000      -0.388369       -10.5680
 164   2.0000      -0.381867       -10.3911
 165   2.0000      -0.377265       -10.2659
 166   2.0000      -0.365256        -9.9391
 167   2.0000      -0.359724        -9.7886
 168   2.0000      -0.357617        -9.7312
 169   2.0000      -0.352864        -9.6019
 170   2.0000      -0.352426        -9.5900
 171   2.0000      -0.324933        -8.8419
 172   2.0000      -0.323038        -8.7903
 173   2.0000      -0.320969        -8.7340
 174   2.0000      -0.310287        -8.4433
 175   2.0000      -0.306622        -8.3436
 176   2.0000      -0.306226        -8.3328
 177   2.0000      -0.297232        -8.0881
 178   2.0000      -0.295186        -8.0324
 179   2.0000      -0.284447        -7.7402
 180   2.0000      -0.246170        -6.6986
 181   2.0000      -0.226669        -6.1680
 182   0.0000      -0.058865        -1.6018
 183   0.0000      -0.051817        -1.4100
 184   0.0000      -0.039217        -1.0671
 185   0.0000       0.000406         0.0110
 186   0.0000       0.002307         0.0628

MULLIKEN ATOMIC CHARGES
-----------------------
   0 C :   -0.033484
   1 C :    0.044686
   2 C :   -0.060027
   3 C :    0.128110
   4 C :   -0.033474
   5 C :    0.059087
   6 N :   -0.270093
   7 S :    0.492311
   8 N :   -0.284742
   9 C :   -0.165614
  10 C :   -0.009021
  11 C :    0.067999
  12 C :    0.015418
  13 C :   -0.052260
  14 C :   -0.050695
  15 S :    0.161962
  16 C :    0.088637
  17 C :   -0.055866
  18 C :    0.129736
  19 C :   -0.050855
  20 C :   -0.021036
  21 C :    0.038334
  22 C :   -0.033768
  23 C :   -0.033538
  24 N :   -0.000069
  25 C :   -0.157234
  26 C :   -0.168270
  27 N :    0.011062
  28 C :    0.125061
  29 C :    0.119452
  30 C :   -0.166034
  31 C :    0.036757
  32 C :    0.102634
  33 C :    0.006965
  34 C :   -0.059078
  35 C :   -0.034353
  36 S :    0.104805
  37 C :    0.054378
  38 C :   -0.069985
  39 C :    0.125741
  40 C :   -0.053168
  41 C :    0.042925
  42 C :   -0.030547
  43 C :    0.055253
  44 C :    0.004079
  45 N :   -0.291334
  46 S :    0.491962
  47 N :   -0.269861
  48 H :   -0.022527
  49 H :   -0.009268
  50 H :   -0.032593
  51 H :    0.005344
  52 H :    0.005051
  53 H :    0.017371
  54 H :    0.015883
  55 H :    0.009586
  56 H :   -0.034397
  57 H :   -0.010950
  58 H :   -0.038773
  59 H :   -0.025718
  60 H :   -0.020510
  61 H :    0.024068
  62 H :    0.033775
  63 H :    0.024480
  64 H :    0.032882
  65 H :    0.026571
  66 H :    0.023785
  67 H :    0.014785
  68 H :   -0.020832
  69 H :    0.019684
  70 H :    0.006204
  71 H :    0.009957
  72 H :   -0.030295
  73 H :    0.002473
  74 H :   -0.026880
  75 H :   -0.022181
  76 H :   -0.007879
  77 H :   -0.022045
Sum of atomic charges:   -0.0000000

LOEWDIN ATOMIC CHARGES
----------------------
   0 C :   -0.028929
   1 C :   -0.013884
   2 C :   -0.023959
   3 C :   -0.034325
   4 C :   -0.053386
   5 C :   -0.052701
   6 N :   -0.289454
   7 S :    0.632327
   8 N :   -0.296423
   9 C :   -0.182483
  10 C :   -0.044336
  11 C :   -0.030540
  12 C :   -0.050721
  13 C :   -0.064897
  14 C :   -0.169543
  15 S :    0.467088
  16 C :   -0.028863
  17 C :   -0.028014
  18 C :   -0.019027
  19 C :   -0.016786
  20 C :   -0.018251
  21 C :   -0.045438
  22 C :   -0.007546
  23 C :   -0.004840
  24 N :   -0.035300
  25 C :   -0.001115
  26 C :   -0.004659
  27 N :   -0.035033
  28 C :   -0.053679
  29 C :   -0.053150
  30 C :   -0.162907
  31 C :   -0.043241
  32 C :   -0.033282
  33 C :   -0.051000
  34 C :   -0.052150
  35 C :   -0.173223
  36 S :    0.426089
  37 C :   -0.017311
  38 C :   -0.043587
  39 C :   -0.020146
  40 C :   -0.021774
  41 C :   -0.015408
  42 C :   -0.029101
  43 C :   -0.052098
  44 C :   -0.041496
  45 N :   -0.286221
  46 S :    0.628645
  47 N :   -0.287221
  48 H :    0.035535
  49 H :    0.032299
  50 H :    0.030515
  51 H :    0.025463
  52 H :    0.030572
  53 H :    0.020731
  54 H :    0.023714
  55 H :    0.024097
  56 H :    0.021503
  57 H :    0.022508
  58 H :    0.023336
  59 H :    0.028396
  60 H :    0.026831
  61 H :    0.037097
  62 H :    0.040340
  63 H :    0.037252
  64 H :    0.039474
  65 H :    0.038312
  66 H :    0.036924
  67 H :    0.025665
  68 H :    0.021861
  69 H :    0.022993
  70 H :    0.020504
  71 H :    0.022192
  72 H :    0.026230
  73 H :    0.033498
  74 H :    0.018905
  75 H :    0.029128
  76 H :    0.032168
  77 H :    0.035256

  Mayer bond orders larger than 0.100000
B(  0-C ,  1-C ) :   1.4929 B(  0-C ,  3-C ) :   0.1042 B(  0-C ,  5-C ) :   1.2031
B(  0-C , 48-H ) :   1.0231 B(  1-C ,  2-C ) :   1.2075 B(  1-C , 49-H ) :   0.9845
B(  2-C ,  3-C ) :   1.5104 B(  2-C , 50-H ) :   0.9952 B(  3-C ,  4-C ) :   1.1758
B(  3-C ,  9-C ) :   1.0406 B(  4-C ,  5-C ) :   1.1685 B(  4-C ,  8-N ) :   1.5255
B(  5-C ,  6-N ) :   1.5142 B(  6-N ,  7-S ) :   1.2729 B(  6-N ,  8-N ) :   0.1512
B(  7-S ,  8-N ) :   1.2591 B(  9-C , 10-C ) :   1.5289 B(  9-C , 14-C ) :   0.1051
B(  9-C , 15-S ) :   1.1349 B( 10-C , 11-C ) :   1.0639 B( 10-C , 13-C ) :   1.2705
B( 11-C , 12-C ) :   1.0988 B( 11-C , 51-H ) :   0.9244 B( 11-C , 52-H ) :   0.9246
B( 12-C , 53-H ) :   0.9657 B( 12-C , 54-H ) :   0.9679 B( 12-C , 55-H ) :   0.9663
B( 13-C , 14-C ) :   1.4841 B( 13-C , 56-H ) :   0.9947 B( 14-C , 15-S ) :   1.1315
B( 14-C , 16-C ) :   1.0801 B( 16-C , 17-C ) :   1.7054 B( 16-C , 57-H ) :   0.9401
B( 17-C , 18-C ) :   1.1167 B( 17-C , 58-H ) :   0.9707 B( 18-C , 19-C ) :   1.3858
B( 18-C , 21-C ) :   0.1121 B( 18-C , 23-C ) :   1.1863 B( 19-C , 20-C ) :   1.2541
B( 19-C , 59-H ) :   1.0030 B( 20-C , 21-C ) :   1.4354 B( 20-C , 60-H ) :   0.9974
B( 21-C , 22-C ) :   1.2500 B( 21-C , 30-C ) :   0.9989 B( 22-C , 23-C ) :   1.2482
B( 22-C , 27-N ) :   1.4465 B( 23-C , 24-N ) :   1.4340 B( 24-N , 25-C ) :   1.6733
B( 25-C , 26-C ) :   1.1738 B( 25-C , 29-C ) :   1.0948 B( 26-C , 27-N ) :   1.6681
B( 26-C , 28-C ) :   1.0926 B( 28-C , 61-H ) :   0.9421 B( 28-C , 62-H ) :   0.9435
B( 28-C , 63-H ) :   0.9417 B( 29-C , 64-H ) :   0.9458 B( 29-C , 65-H ) :   0.9410
B( 29-C , 66-H ) :   0.9425 B( 30-C , 31-C ) :   1.5627 B( 30-C , 35-C ) :   0.1046
B( 30-C , 36-S ) :   1.1242 B( 31-C , 32-C ) :   1.0770 B( 31-C , 34-C ) :   1.2381
B( 32-C , 33-C ) :   1.1006 B( 32-C , 67-H ) :   0.9038 B( 32-C , 68-H ) :   0.9166
B( 33-C , 69-H ) :   0.9725 B( 33-C , 70-H ) :   0.9666 B( 33-C , 71-H ) :   0.9689
B( 34-C , 35-C ) :   1.4744 B( 34-C , 72-H ) :   1.0044 B( 35-C , 36-S ) :   1.1049
B( 35-C , 37-C ) :   1.1275 B( 37-C , 38-C ) :   1.6639 B( 37-C , 73-H ) :   0.9581
B( 38-C , 39-C ) :   1.1184 B( 38-C , 74-H ) :   0.9703 B( 39-C , 40-C ) :   1.4780
B( 39-C , 42-C ) :   0.1042 B( 39-C , 44-C ) :   1.1524 B( 40-C , 41-C ) :   1.2072
B( 40-C , 75-H ) :   0.9984 B( 41-C , 42-C ) :   1.4917 B( 41-C , 76-H ) :   0.9855
B( 42-C , 43-C ) :   1.2038 B( 42-C , 77-H ) :   1.0190 B( 43-C , 44-C ) :   1.1655
B( 43-C , 47-N ) :   1.5130 B( 44-C , 45-N ) :   1.5202 B( 45-N , 46-S ) :   1.2499
B( 45-N , 47-N ) :   0.1507 B( 46-S , 47-N ) :   1.2746

-----------------------------------------------------------------------------
         ABSORPTION SPECTRUM VIA TRANSITION ELECTRIC DIPOLE MOMENTS
-----------------------------------------------------------------------------
State   Energy  Wavelength   fosc         T2         TX        TY        TZ
        (cm-1)    (nm)                  (au**2)     (au)      (au)      (au)
-----------------------------------------------------------------------------
   0   21230.7    471.0   1.609126116  24.95182   1.01514  -4.70737   1.32740
   1   23363.6    428.0   0.040904182   0.57637   0.72075   0.17785   0.15894
   2   24811.6    403.0   0.040809013   0.54147  -0.25410  -0.18840  -0.66439
   3   27441.2    364.4   0.032894675   0.39464   0.09904   0.57394   0.23541
   4   30395.8    329.0   0.005257562   0.05694   0.23702  -0.02062  -0.01844
   5   30802.5    324.6   0.036099032   0.38582  -0.07891   0.59033  -0.17637
   6   32314.2    309.5   0.124240955   1.26575   0.11792  -1.11149  -0.12823
   7   32658.0    306.2   0.154362154   1.55606  -0.23953   1.22412   0.01478
   8   33154.2    301.6   0.074811183   0.74285   0.11259  -0.64887   0.55601
   9   33511.2    298.4   0.627081553   6.16041  -0.59214   2.25552  -0.84994
  10   35073.9    285.1   0.076490485   0.71796   0.51369  -0.51231   0.43775
  11   35750.5    279.7   0.111652883   1.02817   0.70161  -0.04754   0.73052
  12   35969.2    278.0   0.035624660   0.32606  -0.14601   0.51800   0.19083
  13   37996.9    263.2   0.019607629   0.16988   0.01575   0.24994  -0.32736
  14   38702.6    258.4   0.013696171   0.11650   0.08289   0.09579   0.31695
  15   38934.0    256.8   0.092547616   0.78255   0.02619   0.04522   0.88307
  16   39266.9    254.7   0.215955485   1.81056   0.18234   0.53110  -1.22280
  17   39960.1    250.2   0.044095023   0.36328   0.07935   0.57244  -0.17116
  18   40183.9    248.9   0.065385103   0.53568   0.28718  -0.40265   0.53951

FINAL SINGLE POINT ENERGY     -3384.584584861575

DIPOLE MOMENT
-------------
                                X             Y             Z
Electronic contribution:     -6.51734      15.66554       6.09560
Nuclear contribution   :      6.45862     -16.35244      -6.04215
                        -----------------------------------------
Total Dipole Moment    :     -0.05872      -0.68690       0.05345
                        -----------------------------------------
Magnitude (a.u.)       :      0.69147
Magnitude (Debye)      :      1.75759

Rotational constants in cm-1:     0.005142     0.000451     0.000427
Rotational constants in MHz :   154.140165    13.511752    12.789380

                             ****ORCA TERMINATED NORMALLY****
TOTAL RUN TIME: 0 days 0 hours 5 minutes 7 seconds 396 msec
