                         Program Version 4.2.0 -  RELEASE  -
|  1> # ORCA input file
|  2> # SCF done       -200.101004156958          0.000777214041
|  3> ! CAM-B3LYP def2-SVP def2/J RIJCOSX Grid4 TightSCF
|  4> %maxcore 5000
|  5> %tddft
|  6>     Mode sTDDFT
|  7>     Ethresh 5.0
|  8>     maxcore 5000
|  9> end
| 10>
| 11> %pal
| 12>   nprocs 6
| 13>   end
| 14> * xyz 0 1
| 15>    C        3.15515         1.72705        -0.92518
| 16>    C        1.86537         1.47540        -1.25902
| 17>    C        1.00941         0.38703        -0.70376
| 18>    O        0.31396        -0.34682        -1.36220
| 19>    O        1.08745         0.38567         0.62483
| 20>    C        0.24715        -0.50533         1.35111
| 21>    C        1.17770         2.35675        -2.11661
| 22>    N        0.61783         3.08169        -2.80680
| 23>    C        4.07125         0.91348        -0.18245
| 24>    C        5.02431         1.70140         0.63568
| 25>    C        5.92649         2.60118         0.07045
| 26>    C        6.77859         3.37385         0.85309
| 27>    C        6.73946         3.25900         2.23940
| 28>    C        5.84628         2.36832         2.82884
| 29>    C        5.00307         1.60685         2.02818
| 30>    F        4.14817         0.76352         2.61407
| 31>    F        5.80214         2.24909         4.15701
| 32>    F        7.55362         3.99199         2.99734
| 33>    F        7.63758         4.21634         0.27887
| 34>    F        5.99892         2.71703        -1.25793
| 35>    C        4.18239        -0.46507        -0.24479
| 36>    C        3.26346        -1.23906        -1.11207
| 37>    C        3.20397        -1.02236        -2.48659
| 38>    C        2.34620        -1.74830        -3.30311
| 39>    C        1.53067        -2.72714        -2.74474
| 40>    C        1.59079        -2.97975        -1.37954
| 41>    C        2.45205        -2.23937        -0.57986
| 42>    F        2.49224        -2.49083         0.73274
| 43>    F        0.83002        -3.93900        -0.84323
| 44>    F        0.71305        -3.43669        -3.51946
| 45>    F        2.31698        -1.52654        -4.61553
| 46>    F        4.00005        -0.10306        -3.03923
| 47>    C        5.23566        -1.15364         0.39093
| 48>    C        5.66385        -2.45242         0.22236
| 49>    C        6.78953        -2.99366         0.89411
| 50>    C        7.09211        -4.27819         0.55645
| 51>    C        6.21455        -4.83649        -0.39476
| 52>    S        5.00228        -3.65836        -0.86219
| 53>    C        6.22833        -6.11538        -0.91802
| 54>    C        7.19996        -7.12070        -0.71007
| 55>    C        6.94462        -8.27847        -1.37654
| 56>    C        5.74570        -8.27069        -2.13569
| 57>    S        4.96623        -6.70209        -1.97363
| 58>    C        5.29290        -9.32218        -2.88820
| 59>    C        4.09161        -9.43043        -3.61480
| 60>    C        2.98898        -8.60929        -3.63886
| 61>    C        1.93515        -9.05319        -4.46605
| 62>    C        2.27009       -10.28281        -5.13425
| 63>    S        3.86648       -10.82513        -4.64748
| 64>    C        1.43059       -10.91272        -6.03314
| 65>    O        1.62074       -12.05207        -6.74344
| 66>    C        2.75925       -12.85722        -6.54619
| 67>    C        0.18638       -10.28452        -6.27696
| 68>    C       -0.15312        -9.09368        -5.61096
| 69>    C        0.67733        -8.45269        -4.69547
| 70>    O        0.13788        -7.33626        -4.16355
| 71>    C        0.73630        -6.60170        -3.12334
| 72>    S       -1.73221        -8.53366        -6.06061
| 73>    C       -1.92213        -9.88354        -7.16439
| 74>    C       -0.83566       -10.71794        -7.14740
| 75>    C       -3.13137        -9.98939        -7.91778
| 76>    C       -3.29775       -10.73431        -9.03227
| 77>    C       -2.19090       -11.49607        -9.70297
| 78>    O       -2.14553       -12.69047        -9.81644
| 79>    O       -1.28050       -10.64472       -10.17987
| 80>    C       -0.14179       -11.21288       -10.81411
| 81>    C       -4.54869       -10.83011        -9.66959
| 82>    N       -5.56201       -10.90488       -10.20222
| 83>    H        3.55862         2.67478        -1.26475
| 84>    H       -0.52125         0.08092         1.85622
| 85>    H        0.86794        -1.01655         2.08470
| 86>    H       -0.22153        -1.22091         0.67375
| 87>    H        5.84974        -0.57558         1.06724
| 88>    H        7.34121        -2.41189         1.61084
| 89>    H        7.90872        -4.83648         0.97685
| 90>    H        8.06266        -6.95613        -0.09069
| 91>    H        7.57541        -9.14911        -1.34567
| 92>    H        5.94540       -10.18531        -2.93301
| 93>    H        2.95993        -7.71508        -3.05047
| 94>    H        2.84464       -13.19091        -5.50926
| 95>    H        3.67694       -12.34373        -6.84442
| 96>    H        2.60857       -13.72346        -7.18926
| 97>    H        1.64126        -6.09017        -3.46286
| 98>    H        0.95563        -7.23094        -2.25665
| 99>    H       -0.00735        -5.85622        -2.84569
|100>    H       -0.76762       -11.64018        -7.69356
|101>    H       -3.97501        -9.42042        -7.54720
|102>    H        0.59905       -11.48698       -10.05922
|103>    H        0.25864       -10.44736       -11.47392
|104>    H       -0.42732       -12.10183       -11.37960
|105> *
|106>
|107>                          ****END OF INPUT****

CARTESIAN COORDINATES (ANGSTROEM)
---------------------------------
  C      3.155150    1.727050   -0.925180
  C      1.865370    1.475400   -1.259020
  C      1.009410    0.387030   -0.703760
  O      0.313960   -0.346820   -1.362200
  O      1.087450    0.385670    0.624830
  C      0.247150   -0.505330    1.351110
  C      1.177700    2.356750   -2.116610
  N      0.617830    3.081690   -2.806800
  C      4.071250    0.913480   -0.182450
  C      5.024310    1.701400    0.635680
  C      5.926490    2.601180    0.070450
  C      6.778590    3.373850    0.853090
  C      6.739460    3.259000    2.239400
  C      5.846280    2.368320    2.828840
  C      5.003070    1.606850    2.028180
  F      4.148170    0.763520    2.614070
  F      5.802140    2.249090    4.157010
  F      7.553620    3.991990    2.997340
  F      7.637580    4.216340    0.278870
  F      5.998920    2.717030   -1.257930
  C      4.182390   -0.465070   -0.244790
  C      3.263460   -1.239060   -1.112070
  C      3.203970   -1.022360   -2.486590
  C      2.346200   -1.748300   -3.303110
  C      1.530670   -2.727140   -2.744740
  C      1.590790   -2.979750   -1.379540
  C      2.452050   -2.239370   -0.579860
  F      2.492240   -2.490830    0.732740
  F      0.830020   -3.939000   -0.843230
  F      0.713050   -3.436690   -3.519460
  F      2.316980   -1.526540   -4.615530
  F      4.000050   -0.103060   -3.039230
  C      5.235660   -1.153640    0.390930
  C      5.663850   -2.452420    0.222360
  C      6.789530   -2.993660    0.894110
  C      7.092110   -4.278190    0.556450
  C      6.214550   -4.836490   -0.394760
  S      5.002280   -3.658360   -0.862190
  C      6.228330   -6.115380   -0.918020
  C      7.199960   -7.120700   -0.710070
  C      6.944620   -8.278470   -1.376540
  C      5.745700   -8.270690   -2.135690
  S      4.966230   -6.702090   -1.973630
  C      5.292900   -9.322180   -2.888200
  C      4.091610   -9.430430   -3.614800
  C      2.988980   -8.609290   -3.638860
  C      1.935150   -9.053190   -4.466050
  C      2.270090  -10.282810   -5.134250
  S      3.866480  -10.825130   -4.647480
  C      1.430590  -10.912720   -6.033140
  O      1.620740  -12.052070   -6.743440
  C      2.759250  -12.857220   -6.546190
  C      0.186380  -10.284520   -6.276960
  C     -0.153120   -9.093680   -5.610960
  C      0.677330   -8.452690   -4.695470
  O      0.137880   -7.336260   -4.163550
  C      0.736300   -6.601700   -3.123340
  S     -1.732210   -8.533660   -6.060610
  C     -1.922130   -9.883540   -7.164390
  C     -0.835660  -10.717940   -7.147400
  C     -3.131370   -9.989390   -7.917780
  C     -3.297750  -10.734310   -9.032270
  C     -2.190900  -11.496070   -9.702970
  O     -2.145530  -12.690470   -9.816440
  O     -1.280500  -10.644720  -10.179870
  C     -0.141790  -11.212880  -10.814110
  C     -4.548690  -10.830110   -9.669590
  N     -5.562010  -10.904880  -10.202220
  H      3.558620    2.674780   -1.264750
  H     -0.521250    0.080920    1.856220
  H      0.867940   -1.016550    2.084700
  H     -0.221530   -1.220910    0.673750
  H      5.849740   -0.575580    1.067240
  H      7.341210   -2.411890    1.610840
  H      7.908720   -4.836480    0.976850
  H      8.062660   -6.956130   -0.090690
  H      7.575410   -9.149110   -1.345670
  H      5.945400  -10.185310   -2.933010
  H      2.959930   -7.715080   -3.050470
  H      2.844640  -13.190910   -5.509260
  H      3.676940  -12.343730   -6.844420
  H      2.608570  -13.723460   -7.189260
  H      1.641260   -6.090170   -3.462860
  H      0.955630   -7.230940   -2.256650
  H     -0.007350   -5.856220   -2.845690
  H     -0.767620  -11.640180   -7.693560
  H     -3.975010   -9.420420   -7.547200
  H      0.599050  -11.486980  -10.059220
  H      0.258640  -10.447360  -11.473920
  H     -0.427320  -12.101830  -11.379600

 Total Charge           Charge          ....    0
 Multiplicity           Mult            ....    1
 Number of Electrons    NEL             ....  514
 Basis Dimension        Dim             .... 1078

ORBITAL ENERGIES
----------------

  NO   OCC          E(Eh)            E(eV)
   0   2.0000     -88.970101     -2420.9995
   1   2.0000     -88.967987     -2420.9420
   2   2.0000     -88.958026     -2420.6709
   3   2.0000     -88.954410     -2420.5726
   4   2.0000     -24.818256      -675.3391
   5   2.0000     -24.816967      -675.3040
   6   2.0000     -24.816756      -675.2983
   7   2.0000     -24.816090      -675.2801
   8   2.0000     -24.815594      -675.2666
   9   2.0000     -24.813532      -675.2105
  10   2.0000     -24.813383      -675.2065
  11   2.0000     -24.812669      -675.1870
  12   2.0000     -24.810834      -675.1371
  13   2.0000     -24.806918      -675.0306
  14   2.0000     -19.274346      -524.4816
  15   2.0000     -19.265208      -524.2330
  16   2.0000     -19.257616      -524.0264
  17   2.0000     -19.256662      -524.0004
  18   2.0000     -19.218678      -522.9668
  19   2.0000     -19.213126      -522.8157
  20   2.0000     -14.401508      -391.8850
  21   2.0000     -14.398806      -391.8114
  22   2.0000     -10.419631      -283.5326
  23   2.0000     -10.411117      -283.3009
  24   2.0000     -10.399854      -282.9944
  25   2.0000     -10.396797      -282.9112
  26   2.0000     -10.396401      -282.9005
  27   2.0000     -10.395721      -282.8819
  28   2.0000     -10.394373      -282.8453
  29   2.0000     -10.394291      -282.8430
  30   2.0000     -10.393760      -282.8286
  31   2.0000     -10.393374      -282.8181
  32   2.0000     -10.389606      -282.7156
  33   2.0000     -10.388901      -282.6964
  34   2.0000     -10.347872      -281.5799
  35   2.0000     -10.346432      -281.5407
  36   2.0000     -10.336765      -281.2777
  37   2.0000     -10.335492      -281.2430
  38   2.0000     -10.331482      -281.1339
  39   2.0000     -10.329179      -281.0713
  40   2.0000     -10.328484      -281.0524
  41   2.0000     -10.327941      -281.0376
  42   2.0000     -10.327315      -281.0205
  43   2.0000     -10.327184      -281.0170
  44   2.0000     -10.327104      -281.0148
  45   2.0000     -10.324496      -280.9438
  46   2.0000     -10.323291      -280.9110
  47   2.0000     -10.321864      -280.8722
  48   2.0000     -10.321133      -280.8523
  49   2.0000     -10.317550      -280.7548
  50   2.0000     -10.317054      -280.7413
  51   2.0000     -10.316484      -280.7258
  52   2.0000     -10.316126      -280.7161
  53   2.0000     -10.314214      -280.6640
  54   2.0000     -10.310324      -280.5582
  55   2.0000     -10.309556      -280.5373
  56   2.0000     -10.309043      -280.5233
  57   2.0000     -10.307894      -280.4921
  58   2.0000     -10.305512      -280.4272
  59   2.0000     -10.302371      -280.3418
  60   2.0000     -10.301816      -280.3267
  61   2.0000     -10.301414      -280.3157
  62   2.0000     -10.301063      -280.3062
  63   2.0000     -10.299817      -280.2723
  64   2.0000     -10.296943      -280.1941
  65   2.0000     -10.291827      -280.0549
  66   2.0000     -10.286708      -279.9156
  67   2.0000     -10.284090      -279.8443
  68   2.0000      -8.065785      -219.4812
  69   2.0000      -8.063340      -219.4146
  70   2.0000      -8.053450      -219.1455
  71   2.0000      -8.049643      -219.0419
  72   2.0000      -6.035531      -164.2352
  73   2.0000      -6.033131      -164.1698
  74   2.0000      -6.031473      -164.1247
  75   2.0000      -6.028995      -164.0573
  76   2.0000      -6.026796      -163.9975
  77   2.0000      -6.024347      -163.9308
  78   2.0000      -6.023336      -163.9033
  79   2.0000      -6.019210      -163.7910
  80   2.0000      -6.019138      -163.7891
  81   2.0000      -6.015157      -163.6807
  82   2.0000      -6.014376      -163.6595
  83   2.0000      -6.011103      -163.5704
  84   2.0000      -1.344535       -36.5867
  85   2.0000      -1.343869       -36.5685
  86   2.0000      -1.337926       -36.4068
  87   2.0000      -1.335912       -36.3520
  88   2.0000      -1.332106       -36.2484
  89   2.0000      -1.330603       -36.2075
  90   2.0000      -1.322462       -35.9860
  91   2.0000      -1.321419       -35.9576
  92   2.0000      -1.318051       -35.8660
  93   2.0000      -1.315247       -35.7897
  94   2.0000      -1.206124       -32.8203
  95   2.0000      -1.198628       -32.6163
  96   2.0000      -1.162211       -31.6254
  97   2.0000      -1.161079       -31.5946
  98   2.0000      -1.113029       -30.2871
  99   2.0000      -1.106296       -30.1038
 100   2.0000      -1.018105       -27.7040
 101   2.0000      -1.010431       -27.4952
 102   2.0000      -1.004075       -27.3223
 103   2.0000      -1.002238       -27.2723
 104   2.0000      -0.993937       -27.0464
 105   2.0000      -0.988685       -26.9035
 106   2.0000      -0.987167       -26.8622
 107   2.0000      -0.982290       -26.7295
 108   2.0000      -0.962016       -26.1778
 109   2.0000      -0.934598       -25.4317
 110   2.0000      -0.923082       -25.1183
 111   2.0000      -0.912504       -24.8305
 112   2.0000      -0.900432       -24.5020
 113   2.0000      -0.894543       -24.3417
 114   2.0000      -0.882907       -24.0251
 115   2.0000      -0.874789       -23.8042
 116   2.0000      -0.871425       -23.7127
 117   2.0000      -0.868814       -23.6416
 118   2.0000      -0.864976       -23.5372
 119   2.0000      -0.853029       -23.2121
 120   2.0000      -0.848386       -23.0858
 121   2.0000      -0.842728       -22.9318
 122   2.0000      -0.837824       -22.7983
 123   2.0000      -0.827920       -22.5288
 124   2.0000      -0.821176       -22.3453
 125   2.0000      -0.812546       -22.1105
 126   2.0000      -0.808444       -21.9989
 127   2.0000      -0.804324       -21.8868
 128   2.0000      -0.785768       -21.3818
 129   2.0000      -0.768187       -20.9034
 130   2.0000      -0.757897       -20.6234
 131   2.0000      -0.755059       -20.5462
 132   2.0000      -0.753452       -20.5025
 133   2.0000      -0.752113       -20.4660
 134   2.0000      -0.748390       -20.3647
 135   2.0000      -0.730715       -19.8838
 136   2.0000      -0.709117       -19.2961
 137   2.0000      -0.694067       -18.8865
 138   2.0000      -0.692099       -18.8330
 139   2.0000      -0.690355       -18.7855
 140   2.0000      -0.688004       -18.7215
 141   2.0000      -0.684876       -18.6364
 142   2.0000      -0.684120       -18.6158
 143   2.0000      -0.679498       -18.4901
 144   2.0000      -0.675241       -18.3742
 145   2.0000      -0.674065       -18.3422
 146   2.0000      -0.669577       -18.2201
 147   2.0000      -0.662277       -18.0215
 148   2.0000      -0.653948       -17.7948
 149   2.0000      -0.644687       -17.5428
 150   2.0000      -0.643945       -17.5226
 151   2.0000      -0.642969       -17.4961
 152   2.0000      -0.636838       -17.3293
 153   2.0000      -0.635957       -17.3053
 154   2.0000      -0.633921       -17.2499
 155   2.0000      -0.633764       -17.2456
 156   2.0000      -0.630498       -17.1567
 157   2.0000      -0.629230       -17.1222
 158   2.0000      -0.627766       -17.0824
 159   2.0000      -0.623062       -16.9544
 160   2.0000      -0.619352       -16.8534
 161   2.0000      -0.618663       -16.8347
 162   2.0000      -0.615161       -16.7394
 163   2.0000      -0.613989       -16.7075
 164   2.0000      -0.611989       -16.6531
 165   2.0000      -0.607578       -16.5330
 166   2.0000      -0.597025       -16.2459
 167   2.0000      -0.593875       -16.1602
 168   2.0000      -0.591618       -16.0987
 169   2.0000      -0.590782       -16.0760
 170   2.0000      -0.583753       -15.8847
 171   2.0000      -0.578196       -15.7335
 172   2.0000      -0.577439       -15.7129
 173   2.0000      -0.573674       -15.6105
 174   2.0000      -0.569420       -15.4947
 175   2.0000      -0.566846       -15.4247
 176   2.0000      -0.565665       -15.3925
 177   2.0000      -0.563390       -15.3306
 178   2.0000      -0.561194       -15.2709
 179   2.0000      -0.560142       -15.2422
 180   2.0000      -0.556396       -15.1403
 181   2.0000      -0.555468       -15.1151
 182   2.0000      -0.552823       -15.0431
 183   2.0000      -0.552318       -15.0293
 184   2.0000      -0.550269       -14.9736
 185   2.0000      -0.548316       -14.9204
 186   2.0000      -0.542138       -14.7523
 187   2.0000      -0.536004       -14.5854
 188   2.0000      -0.533397       -14.5145
 189   2.0000      -0.532937       -14.5020
 190   2.0000      -0.532110       -14.4795
 191   2.0000      -0.529513       -14.4088
 192   2.0000      -0.527734       -14.3604
 193   2.0000      -0.526292       -14.3211
 194   2.0000      -0.523604       -14.2480
 195   2.0000      -0.518462       -14.1081
 196   2.0000      -0.515493       -14.0273
 197   2.0000      -0.510427       -13.8894
 198   2.0000      -0.510009       -13.8780
 199   2.0000      -0.508920       -13.8484
 200   2.0000      -0.507598       -13.8124
 201   2.0000      -0.503455       -13.6997
 202   2.0000      -0.501803       -13.6548
 203   2.0000      -0.499848       -13.6015
 204   2.0000      -0.494090       -13.4449
 205   2.0000      -0.492118       -13.3912
 206   2.0000      -0.491465       -13.3734
 207   2.0000      -0.487644       -13.2695
 208   2.0000      -0.485437       -13.2094
 209   2.0000      -0.483890       -13.1673
 210   2.0000      -0.476722       -12.9723
 211   2.0000      -0.473971       -12.8974
 212   2.0000      -0.472907       -12.8684
 213   2.0000      -0.470920       -12.8144
 214   2.0000      -0.470065       -12.7911
 215   2.0000      -0.466002       -12.6806
 216   2.0000      -0.463513       -12.6128
 217   2.0000      -0.462222       -12.5777
 218   2.0000      -0.454555       -12.3691
 219   2.0000      -0.451509       -12.2862
 220   2.0000      -0.450382       -12.2555
 221   2.0000      -0.445096       -12.1117
 222   2.0000      -0.444367       -12.0918
 223   2.0000      -0.440997       -12.0001
 224   2.0000      -0.438677       -11.9370
 225   2.0000      -0.437256       -11.8983
 226   2.0000      -0.433561       -11.7978
 227   2.0000      -0.431941       -11.7537
 228   2.0000      -0.430049       -11.7022
 229   2.0000      -0.427306       -11.6276
 230   2.0000      -0.424932       -11.5630
 231   2.0000      -0.422432       -11.4950
 232   2.0000      -0.412993       -11.2381
 233   2.0000      -0.410293       -11.1646
 234   2.0000      -0.409606       -11.1459
 235   2.0000      -0.406986       -11.0746
 236   2.0000      -0.403298       -10.9743
 237   2.0000      -0.399748       -10.8777
 238   2.0000      -0.385269       -10.4837
 239   2.0000      -0.383710       -10.4413
 240   2.0000      -0.376180       -10.2364
 241   2.0000      -0.372982       -10.1494
 242   2.0000      -0.368037       -10.0148
 243   2.0000      -0.360663        -9.8141
 244   2.0000      -0.359313        -9.7774
 245   2.0000      -0.349661        -9.5148
 246   2.0000      -0.349026        -9.4975
 247   2.0000      -0.346091        -9.4176
 248   2.0000      -0.341353        -9.2887
 249   2.0000      -0.335296        -9.1239
 250   2.0000      -0.333968        -9.0877
 251   2.0000      -0.326126        -8.8743
 252   2.0000      -0.323611        -8.8059
 253   2.0000      -0.303953        -8.2710
 254   2.0000      -0.286544        -7.7973
 255   2.0000      -0.248532        -6.7629
 256   2.0000      -0.226695        -6.1687
 257   0.0000      -0.109093        -2.9686
 258   0.0000      -0.063303        -1.7226
 259   0.0000      -0.044182        -1.2023
 260   0.0000      -0.010730        -0.2920
 261   0.0000      -0.008146        -0.2217

MULLIKEN ATOMIC CHARGES
-----------------------
   0 C :    0.079968
   1 C :   -0.192856
   2 C :    0.210515
   3 O :   -0.202056
   4 O :   -0.289450
   5 C :    0.158945
   6 C :   -0.148397
   7 N :    0.117112
   8 C :    0.013743
   9 C :   -0.184801
  10 C :    0.196586
  11 C :    0.178130
  12 C :    0.130136
  13 C :    0.171543
  14 C :    0.196065
  15 F :   -0.157624
  16 F :   -0.157582
  17 F :   -0.152094
  18 F :   -0.155287
  19 F :   -0.156760
  20 C :    0.136245
  21 C :   -0.275773
  22 C :    0.259396
  23 C :    0.179811
  24 C :    0.153009
  25 C :    0.189024
  26 C :    0.196517
  27 F :   -0.160589
  28 F :   -0.162413
  29 F :   -0.149717
  30 F :   -0.150998
  31 F :   -0.152338
  32 C :   -0.052645
  33 C :    0.007091
  34 C :    0.018884
  35 C :    0.044821
  36 C :   -0.043152
  37 S :    0.073363
  38 C :   -0.027176
  39 C :    0.026126
  40 C :    0.044916
  41 C :   -0.027362
  42 S :    0.066919
  43 C :    0.035700
  44 C :   -0.044130
  45 C :   -0.080914
  46 C :    0.050887
  47 C :   -0.132702
  48 S :    0.070219
  49 C :    0.125482
  50 O :   -0.311562
  51 C :    0.168599
  52 C :    0.053950
  53 C :   -0.117086
  54 C :    0.133297
  55 O :   -0.303966
  56 C :    0.185026
  57 S :    0.159422
  58 C :   -0.084591
  59 C :   -0.041106
  60 C :    0.142544
  61 C :   -0.170086
  62 C :    0.174991
  63 O :   -0.189050
  64 O :   -0.282926
  65 C :    0.171291
  66 C :   -0.135182
  67 N :    0.109908
  68 H :    0.028075
  69 H :    0.045423
  70 H :    0.046757
  71 H :    0.047825
  72 H :   -0.008375
  73 H :   -0.004425
  74 H :   -0.006361
  75 H :   -0.007326
  76 H :   -0.002742
  77 H :   -0.009078
  78 H :   -0.026844
  79 H :    0.036118
  80 H :    0.036476
  81 H :    0.042847
  82 H :    0.030327
  83 H :    0.030255
  84 H :    0.040341
  85 H :    0.006965
  86 H :    0.014768
  87 H :    0.032703
  88 H :    0.041958
  89 H :    0.046500
Sum of atomic charges:   -0.0000000

LOEWDIN ATOMIC CHARGES
----------------------
   0 C :    0.055940
   1 C :   -0.112605
   2 C :    0.085819
   3 O :   -0.168478
   4 O :   -0.072796
   5 C :    0.078573
   6 C :   -0.030236
   7 N :   -0.049524
   8 C :   -0.038716
   9 C :   -0.073147
  10 C :    0.061809
  11 C :    0.027569
  12 C :    0.040207
  13 C :    0.025614
  14 C :    0.059975
  15 F :   -0.036690
  16 F :   -0.037261
  17 F :   -0.030329
  18 F :   -0.034952
  19 F :   -0.035522
  20 C :    0.017930
  21 C :   -0.101529
  22 C :    0.072244
  23 C :    0.036952
  24 C :    0.054185
  25 C :    0.028745
  26 C :    0.045038
  27 F :   -0.033671
  28 F :   -0.038815
  29 F :   -0.022192
  30 F :   -0.030365
  31 F :   -0.031326
  32 C :   -0.072397
  33 C :   -0.118742
  34 C :   -0.037190
  35 C :   -0.016518
  36 C :   -0.188819
  37 S :    0.398404
  38 C :   -0.158958
  39 C :   -0.040101
  40 C :   -0.015017
  41 C :   -0.147454
  42 S :    0.387606
  43 C :   -0.052792
  44 C :   -0.168695
  45 C :   -0.053223
  46 C :   -0.069993
  47 C :   -0.183852
  48 S :    0.391194
  49 C :    0.025632
  50 O :   -0.101742
  51 C :    0.065731
  52 C :   -0.059164
  53 C :   -0.172018
  54 C :    0.029975
  55 O :   -0.096363
  56 C :    0.078557
  57 S :    0.430695
  58 C :   -0.170125
  59 C :   -0.024321
  60 C :    0.033541
  61 C :   -0.095371
  62 C :    0.086443
  63 O :   -0.152224
  64 O :   -0.078515
  65 C :    0.081541
  66 C :   -0.029095
  67 N :   -0.050686
  68 H :    0.047635
  69 H :    0.028510
  70 H :    0.026352
  71 H :    0.023018
  72 H :    0.035465
  73 H :    0.035825
  74 H :    0.035310
  75 H :    0.034340
  76 H :    0.037556
  77 H :    0.037060
  78 H :    0.013186
  79 H :    0.013967
  80 H :    0.011875
  81 H :    0.032576
  82 H :    0.013754
  83 H :    0.017932
  84 H :    0.028735
  85 H :    0.035070
  86 H :    0.046139
  87 H :    0.022635
  88 H :    0.029174
  89 H :    0.025493

  Mayer bond orders larger than 0.100000
B(  0-C ,  1-C ) :   1.7792 B(  0-C ,  8-C ) :   1.1073 B(  0-C , 68-H ) :   0.9405
B(  1-C ,  2-C ) :   0.8791 B(  1-C ,  6-C ) :   1.1529 B(  2-C ,  3-O ) :   2.1033
B(  2-C ,  4-O ) :   1.2463 B(  4-O ,  5-C ) :   0.9039 B(  5-C , 69-H ) :   0.9799
B(  5-C , 70-H ) :   0.9779 B(  5-C , 71-H ) :   0.9630 B(  6-C ,  7-N ) :   3.0311
B(  8-C ,  9-C ) :   0.9315 B(  8-C , 20-C ) :   1.6445 B(  9-C , 10-C ) :   1.3497
B(  9-C , 12-C ) :   0.1067 B(  9-C , 14-C ) :   1.3490 B( 10-C , 11-C ) :   1.2683
B( 10-C , 19-F ) :   1.1721 B( 11-C , 12-C ) :   1.2739 B( 11-C , 18-F ) :   1.1776
B( 12-C , 13-C ) :   1.2718 B( 12-C , 17-F ) :   1.1787 B( 13-C , 14-C ) :   1.2787
B( 13-C , 16-F ) :   1.1765 B( 14-C , 15-F ) :   1.1776 B( 20-C , 21-C ) :   0.9356
B( 20-C , 32-C ) :   1.2170 B( 21-C , 22-C ) :   1.3497 B( 21-C , 24-C ) :   0.1133
B( 21-C , 26-C ) :   1.3168 B( 22-C , 23-C ) :   1.2922 B( 22-C , 31-F ) :   1.1771
B( 23-C , 24-C ) :   1.2778 B( 23-C , 30-F ) :   1.1853 B( 24-C , 25-C ) :   1.2867
B( 24-C , 29-F ) :   1.1572 B( 25-C , 26-C ) :   1.2877 B( 25-C , 28-F ) :   1.1636
B( 26-C , 27-F ) :   1.1600 B( 32-C , 33-C ) :   1.5358 B( 32-C , 72-H ) :   0.9473
B( 33-C , 34-C ) :   1.1564 B( 33-C , 37-S ) :   1.0502 B( 34-C , 35-C ) :   1.5720
B( 34-C , 73-H ) :   1.0007 B( 35-C , 36-C ) :   1.1952 B( 35-C , 74-H ) :   0.9940
B( 36-C , 37-S ) :   1.0319 B( 36-C , 38-C ) :   1.4967 B( 38-C , 39-C ) :   1.1841
B( 38-C , 42-S ) :   1.0576 B( 39-C , 40-C ) :   1.5887 B( 39-C , 75-H ) :   0.9935
B( 40-C , 41-C ) :   1.1446 B( 40-C , 76-H ) :   0.9993 B( 41-C , 42-S ) :   1.0282
B( 41-C , 43-C ) :   1.6088 B( 43-C , 44-C ) :   1.1531 B( 43-C , 77-H ) :   0.9524
B( 44-C , 45-C ) :   1.5302 B( 44-C , 48-S ) :   1.0399 B( 45-C , 46-C ) :   1.2041
B( 45-C , 78-H ) :   0.9721 B( 46-C , 47-C ) :   1.2498 B( 46-C , 54-C ) :   1.2297
B( 47-C , 48-S ) :   1.0072 B( 47-C , 49-C ) :   1.4164 B( 49-C , 50-O ) :   1.2160
B( 49-C , 52-C ) :   1.2546 B( 50-O , 51-C ) :   0.9435 B( 51-C , 79-H ) :   0.9680
B( 51-C , 80-H ) :   0.9669 B( 51-C , 81-H ) :   0.9756 B( 52-C , 53-C ) :   1.3761
B( 52-C , 59-C ) :   1.1954 B( 53-C , 54-C ) :   1.3773 B( 53-C , 57-S ) :   1.0569
B( 54-C , 55-O ) :   1.2776 B( 55-O , 56-C ) :   0.9359 B( 56-C , 82-H ) :   0.9653
B( 56-C , 83-H ) :   0.9646 B( 56-C , 84-H ) :   0.9688 B( 57-S , 58-C ) :   1.0632
B( 58-C , 59-C ) :   1.5334 B( 58-C , 60-C ) :   1.0919 B( 59-C , 85-H ) :   0.9833
B( 60-C , 61-C ) :   1.8190 B( 60-C , 86-H ) :   0.9526 B( 61-C , 62-C ) :   0.8507
B( 61-C , 66-C ) :   1.1626 B( 62-C , 63-O ) :   2.1199 B( 62-C , 64-O ) :   1.2298
B( 64-O , 65-C ) :   0.9162 B( 65-C , 87-H ) :   0.9760 B( 65-C , 88-H ) :   0.9816
B( 65-C , 89-H ) :   0.9671 B( 66-C , 67-N ) :   3.0229

-----------------------------------------------------------------------------
         ABSORPTION SPECTRUM VIA TRANSITION ELECTRIC DIPOLE MOMENTS
-----------------------------------------------------------------------------
State   Energy  Wavelength   fosc         T2         TX        TY        TZ
        (cm-1)    (nm)                  (au**2)     (au)      (au)      (au)
-----------------------------------------------------------------------------
   0   12210.9    818.9   0.939457636  25.32830   1.20852   4.39058   2.14256
   1   17145.1    583.3   0.566907806  10.88548  -1.29969   3.00686   0.39385
   2   21346.1    468.5   0.371315543   5.72665  -2.08760   0.14286  -1.16110
   3   24501.1    408.1   0.112828234   1.51603   0.83853  -0.90146   0.01647
   4   25512.3    392.0   0.735668808   9.49309  -2.53620   0.15251  -1.74285
   5   27740.7    360.5   0.028479723   0.33798   0.35257   0.18239   0.42475
   6   28511.4    350.7   0.062325178   0.71965   0.54093  -0.53981   0.36831
   7   29032.4    344.4   0.005109350   0.05794   0.11977  -0.20712  -0.02632
   8   29669.0    337.1   0.103658859   1.15021   0.92249  -0.17914   0.51685
   9   30924.3    323.4   0.021535341   0.22926   0.38419  -0.01701   0.28525
  10   31506.2    317.4   0.023513000   0.24569  -0.39711   0.04145  -0.29373
  11   32017.2    312.3   0.007456906   0.07667   0.01668   0.25441   0.10803
  12   33029.0    302.8   0.019549221   0.19485  -0.03497  -0.31805  -0.30410
  13   33106.6    302.1   0.005763330   0.05731   0.10249   0.21563  -0.01768
  14   33671.5    297.0   0.040058868   0.39166  -0.39266   0.48633  -0.03103
  15   33977.8    294.3   0.020112114   0.19487   0.07461   0.41362   0.13497
  16   34238.3    292.1   0.075632839   0.72723   0.50891   0.28833   0.62057
  17   34961.6    286.0   0.349074834   3.28703   1.50660   0.07085   1.00606
  18   35294.0    283.3   0.049826437   0.46477  -0.59230   0.33285  -0.05621
  19   35884.2    278.7   0.095571961   0.87680  -0.69756  -0.34933  -0.51787
  20   36105.2    277.0   0.097838590   0.89211  -0.66470  -0.30808  -0.59613
  21   36534.9    273.7   0.029592203   0.26665   0.44244   0.12683   0.23412
  22   36674.3    272.7   0.064671113   0.58053   0.57301   0.05128   0.49956
  23   37564.4    266.2   0.003027835   0.02654  -0.07356   0.09986  -0.10561
  24   38041.3    262.9   0.006536241   0.05657   0.10555  -0.16942  -0.12932
  25   38462.0    260.0   0.083386909   0.71374  -0.21009  -0.67732  -0.45917
  26   38579.6    259.2   0.164586482   1.40447   0.86254   0.29649   0.75669
  27   39120.6    255.6   0.047703105   0.40144   0.42205   0.05263   0.46961
  28   39976.8    250.1   0.081824164   0.67383   0.37580   0.50815   0.52382
  29   40276.1    248.3   0.033324657   0.27239  -0.21743   0.21179  -0.42457

FINAL SINGLE POINT ENERGY     -4913.603347618757

DIPOLE MOMENT
-------------
                                X             Y             Z
Electronic contribution:     20.70253      95.77162      42.36981
Nuclear contribution   :    -15.81853     -97.59299     -39.20644
                        -----------------------------------------
Total Dipole Moment    :      4.88400      -1.82137       3.16337
                        -----------------------------------------
Magnitude (a.u.)       :      6.09736
Magnitude (Debye)      :     15.49825

Rotational constants in cm-1:     0.001942     0.000390     0.000346
Rotational constants in MHz :    58.228541    11.690686    10.374645

                             ****ORCA TERMINATED NORMALLY****
TOTAL RUN TIME: 0 days 0 hours 8 minutes 40 seconds 362 msec
