                         Program Version 4.2.0 -  RELEASE  -
|  1> # ORCA input file
|  2> # SCF done       -199.979038623090          0.000569884395
|  3> ! CAM-B3LYP def2-SVP def2/J RIJCOSX Grid4 TightSCF
|  4> %maxcore 5000
|  5> %tddft
|  6>     Mode sTDDFT
|  7>     Ethresh 5.0
|  8>     maxcore 5000
|  9> end
| 10>
| 11> %pal
| 12>   nprocs 6
| 13>   end
| 14> * xyz 0 1
| 15>    C        8.86688         6.44285        -2.32474
| 16>    C        8.68279         5.02991        -1.88059
| 17>    N        7.65288         4.76235        -1.12395
| 18>    C        7.44228         3.50432        -0.68330
| 19>    C        6.30746         3.23017         0.12826
| 20>    C        5.28363         4.14696         0.47907
| 21>    C        5.10369         5.39723        -0.02632
| 22>    C        4.05072         6.25848         0.33961
| 23>    C        3.75900         7.49257        -0.23577
| 24>    C        2.64423         8.09135         0.32256
| 25>    C        2.07665         7.32672         1.34763
| 26>    S        2.90954         5.85367         1.61590
| 27>    C        0.95152         8.01013         1.85848
| 28>    S       -0.24120         7.78914         3.07165
| 29>    C       -0.98607         9.30824         2.62420
| 30>    C       -2.14950         9.76973         3.30007
| 31>    C       -2.95643        10.81730         2.95117
| 32>    C       -4.04514        11.01588         3.83232
| 33>    C       -5.03637        12.01578         3.77107
| 34>    C       -5.10272        12.92975         2.64815
| 35>    C       -4.95669        12.63559         1.32310
| 36>    C       -5.07725        13.77386         0.49650
| 37>   Cl       -4.93879        13.68013        -1.21941
| 38>    C       -5.30846        14.93801         1.16868
| 39>    C       -5.48503        16.30827         0.62483
| 40>    S       -5.39197        14.63299         2.87167
| 41>    C       -5.94035        12.06062         4.82538
| 42>    S       -7.25986        13.18548         4.96607
| 43>    C       -7.78740        12.43501         6.46004
| 44>    C       -8.92622        12.91038         7.17218
| 45>    C       -9.68697        13.95371         6.79491
| 46>    C      -10.83075        14.40184         7.55465
| 47>    C      -11.60371        15.49319         7.13539
| 48>    C      -12.67694        15.84428         7.93315
| 49>    N      -12.97536        15.18950         9.04719
| 50>    C      -12.18603        14.17452         9.35676
| 51>    N      -11.14253        13.74800         8.68140
| 52>    C       -6.98296        11.38818         6.81284
| 53>    C       -5.91817        11.14938         5.91172
| 54>    C       -4.94013        10.13433         5.96191
| 55>    C       -4.84005         9.19363         7.05918
| 56>    C       -4.50479         7.87106         7.00076
| 57>    C       -4.42772         7.26946         8.27543
| 58>   Cl       -4.03620         5.60523         8.48138
| 59>    C       -4.68573         8.11303         9.31618
| 60>    C       -4.68544         7.82555        10.77255
| 61>    S       -5.04819         9.69562         8.71635
| 62>    C       -4.03533        10.09186         4.90631
| 63>    S       -2.70883         8.97219         4.75573
| 64>    C       -0.31555         9.93349         1.58486
| 65>    C        0.78407         9.20414         1.15538
| 66>    C        1.86306         9.36735         0.11075
| 67>    C        1.27097         9.43079        -1.29969
| 68>    C        2.72580        10.60074         0.39272
| 69>    C        6.20865         1.90298         0.60906
| 70>    N        5.27846         1.44590         1.45022
| 71>    S        5.55575        -0.11032         1.73646
| 72>    N        6.85404        -0.29539         0.81474
| 73>    C        7.13317         0.86817         0.22205
| 74>    C        8.21658         1.13398        -0.63510
| 75>    C        9.09918         0.09916        -1.06518
| 76>    C       10.53976         0.24195        -1.29311
| 77>    N       11.14388        -0.85897        -1.63201
| 78>    C       10.16952        -1.81264        -1.68049
| 79>    C        9.98679        -3.12889        -2.00116
| 80>    N       10.65522        -4.23200        -2.43381
| 81>    C        9.73896        -5.15575        -2.57091
| 82>    C        8.39437        -4.71806        -2.24566
| 83>    C        8.54042        -3.42434        -1.86160
| 84>    C        7.83185        -2.22512        -1.45742
| 85>    S        6.20273        -2.04034        -1.36733
| 86>    C        8.86025        -1.23763        -1.30191
| 87>    C        8.37637         2.47983        -1.04113
| 88>    N        9.42445         2.77880        -1.83879
| 89>    C        9.59675         4.00188        -2.25766
| 90>    C       10.78039         4.27676        -3.12228
| 91>    H        8.09639         7.06760        -1.88180
| 92>    H        8.80338         6.50872        -3.41022
| 93>    H        9.84586         6.81135        -2.02286
| 94>    H        4.56509         3.76083         1.19270
| 95>    H        5.79412         5.76458        -0.77171
| 96>    H        4.34978         7.90284        -1.03488
| 97>    H       -2.76949        11.44136         2.09804
| 98>    H       -4.81270        11.64223         0.93991
| 99>    H       -4.77468        16.99689         1.08043
|100>    H       -6.48929        16.67623         0.83367
|101>    H       -5.33059        16.29900        -0.45133
|102>    H       -9.18207        12.38533         8.08250
|103>    H       -9.45794        14.50240         5.89075
|104>    H      -11.36695        16.03072         6.23102
|105>    H      -13.32600        16.67461         7.68422
|106>    H      -12.42627        13.63599        10.26547
|107>    H       -7.16427        10.79986         7.69311
|108>    H       -4.35112         7.32555         6.08849
|109>    H       -4.47278         6.77218        10.93665
|110>    H       -5.65279         8.06563        11.21238
|111>    H       -3.92885         8.42228        11.28162
|112>    H       -0.62266        10.88061         1.18133
|113>    H        2.06786         9.46868        -2.03816
|114>    H        0.65168        10.31801        -1.40533
|115>    H        0.65867         8.55279        -1.49215
|116>    H        3.14260        10.54848         1.39596
|117>    H        2.12579        11.50355         0.31082
|118>    H        3.54294        10.65561        -0.32221
|119>    H       11.08760         1.15751        -1.16450
|120>    H       10.00916        -6.14420        -2.90052
|121>    H        7.50950        -5.32072        -2.30410
|122>    H       11.31349         3.34909        -3.31001
|123>    H       11.44952         4.98413        -2.63361
|124>    H       10.46622         4.71132        -4.06988
|125> *
|126>
|127>                          ****END OF INPUT****

CARTESIAN COORDINATES (ANGSTROEM)
---------------------------------
  C      8.866880    6.442850   -2.324740
  C      8.682790    5.029910   -1.880590
  N      7.652880    4.762350   -1.123950
  C      7.442280    3.504320   -0.683300
  C      6.307460    3.230170    0.128260
  C      5.283630    4.146960    0.479070
  C      5.103690    5.397230   -0.026320
  C      4.050720    6.258480    0.339610
  C      3.759000    7.492570   -0.235770
  C      2.644230    8.091350    0.322560
  C      2.076650    7.326720    1.347630
  S      2.909540    5.853670    1.615900
  C      0.951520    8.010130    1.858480
  S     -0.241200    7.789140    3.071650
  C     -0.986070    9.308240    2.624200
  C     -2.149500    9.769730    3.300070
  C     -2.956430   10.817300    2.951170
  C     -4.045140   11.015880    3.832320
  C     -5.036370   12.015780    3.771070
  C     -5.102720   12.929750    2.648150
  C     -4.956690   12.635590    1.323100
  C     -5.077250   13.773860    0.496500
  Cl    -4.938790   13.680130   -1.219410
  C     -5.308460   14.938010    1.168680
  C     -5.485030   16.308270    0.624830
  S     -5.391970   14.632990    2.871670
  C     -5.940350   12.060620    4.825380
  S     -7.259860   13.185480    4.966070
  C     -7.787400   12.435010    6.460040
  C     -8.926220   12.910380    7.172180
  C     -9.686970   13.953710    6.794910
  C    -10.830750   14.401840    7.554650
  C    -11.603710   15.493190    7.135390
  C    -12.676940   15.844280    7.933150
  N    -12.975360   15.189500    9.047190
  C    -12.186030   14.174520    9.356760
  N    -11.142530   13.748000    8.681400
  C     -6.982960   11.388180    6.812840
  C     -5.918170   11.149380    5.911720
  C     -4.940130   10.134330    5.961910
  C     -4.840050    9.193630    7.059180
  C     -4.504790    7.871060    7.000760
  C     -4.427720    7.269460    8.275430
  Cl    -4.036200    5.605230    8.481380
  C     -4.685730    8.113030    9.316180
  C     -4.685440    7.825550   10.772550
  S     -5.048190    9.695620    8.716350
  C     -4.035330   10.091860    4.906310
  S     -2.708830    8.972190    4.755730
  C     -0.315550    9.933490    1.584860
  C      0.784070    9.204140    1.155380
  C      1.863060    9.367350    0.110750
  C      1.270970    9.430790   -1.299690
  C      2.725800   10.600740    0.392720
  C      6.208650    1.902980    0.609060
  N      5.278460    1.445900    1.450220
  S      5.555750   -0.110320    1.736460
  N      6.854040   -0.295390    0.814740
  C      7.133170    0.868170    0.222050
  C      8.216580    1.133980   -0.635100
  C      9.099180    0.099160   -1.065180
  C     10.539760    0.241950   -1.293110
  N     11.143880   -0.858970   -1.632010
  C     10.169520   -1.812640   -1.680490
  C      9.986790   -3.128890   -2.001160
  N     10.655220   -4.232000   -2.433810
  C      9.738960   -5.155750   -2.570910
  C      8.394370   -4.718060   -2.245660
  C      8.540420   -3.424340   -1.861600
  C      7.831850   -2.225120   -1.457420
  S      6.202730   -2.040340   -1.367330
  C      8.860250   -1.237630   -1.301910
  C      8.376370    2.479830   -1.041130
  N      9.424450    2.778800   -1.838790
  C      9.596750    4.001880   -2.257660
  C     10.780390    4.276760   -3.122280
  H      8.096390    7.067600   -1.881800
  H      8.803380    6.508720   -3.410220
  H      9.845860    6.811350   -2.022860
  H      4.565090    3.760830    1.192700
  H      5.794120    5.764580   -0.771710
  H      4.349780    7.902840   -1.034880
  H     -2.769490   11.441360    2.098040
  H     -4.812700   11.642230    0.939910
  H     -4.774680   16.996890    1.080430
  H     -6.489290   16.676230    0.833670
  H     -5.330590   16.299000   -0.451330
  H     -9.182070   12.385330    8.082500
  H     -9.457940   14.502400    5.890750
  H    -11.366950   16.030720    6.231020
  H    -13.326000   16.674610    7.684220
  H    -12.426270   13.635990   10.265470
  H     -7.164270   10.799860    7.693110
  H     -4.351120    7.325550    6.088490
  H     -4.472780    6.772180   10.936650
  H     -5.652790    8.065630   11.212380
  H     -3.928850    8.422280   11.281620
  H     -0.622660   10.880610    1.181330
  H      2.067860    9.468680   -2.038160
  H      0.651680   10.318010   -1.405330
  H      0.658670    8.552790   -1.492150
  H      3.142600   10.548480    1.395960
  H      2.125790   11.503550    0.310820
  H      3.542940   10.655610   -0.322210
  H     11.087600    1.157510   -1.164500
  H     10.009160   -6.144200   -2.900520
  H      7.509500   -5.320720   -2.304100
  H     11.313490    3.349090   -3.310010
  H     11.449520    4.984130   -2.633610
  H     10.466220    4.711320   -4.069880

 Total Charge           Charge          ....    0
 Multiplicity           Mult            ....    1
 Number of Electrons    NEL             ....  600
 Basis Dimension        Dim             .... 1274

ORBITAL ENERGIES
----------------

  NO   OCC          E(Eh)            E(eV)
   0   2.0000    -101.585543     -2764.2832
   1   2.0000    -101.582089     -2764.1892
   2   2.0000     -89.020000     -2422.3574
   3   2.0000     -88.967341     -2420.9244
   4   2.0000     -88.961268     -2420.7592
   5   2.0000     -88.958179     -2420.6751
   6   2.0000     -88.957437     -2420.6549
   7   2.0000     -88.953430     -2420.5459
   8   2.0000     -88.949388     -2420.4359
   9   2.0000     -88.879624     -2418.5375
  10   2.0000     -14.430295      -392.6683
  11   2.0000     -14.426651      -392.5691
  12   2.0000     -14.422270      -392.4499
  13   2.0000     -14.421506      -392.4291
  14   2.0000     -14.402779      -391.9195
  15   2.0000     -14.399647      -391.8343
  16   2.0000     -14.397352      -391.7719
  17   2.0000     -14.393294      -391.6614
  18   2.0000     -10.330105      -281.0964
  19   2.0000     -10.328088      -281.0416
  20   2.0000     -10.327380      -281.0223
  21   2.0000     -10.323784      -280.9245
  22   2.0000     -10.321152      -280.8528
  23   2.0000     -10.320820      -280.8438
  24   2.0000     -10.319387      -280.8048
  25   2.0000     -10.317694      -280.7587
  26   2.0000     -10.317424      -280.7514
  27   2.0000     -10.317227      -280.7460
  28   2.0000     -10.316611      -280.7292
  29   2.0000     -10.316221      -280.7187
  30   2.0000     -10.314823      -280.6806
  31   2.0000     -10.314818      -280.6805
  32   2.0000     -10.313828      -280.6535
  33   2.0000     -10.313001      -280.6310
  34   2.0000     -10.311627      -280.5936
  35   2.0000     -10.308767      -280.5158
  36   2.0000     -10.306985      -280.4673
  37   2.0000     -10.306957      -280.4665
  38   2.0000     -10.306447      -280.4527
  39   2.0000     -10.306411      -280.4517
  40   2.0000     -10.305944      -280.4390
  41   2.0000     -10.305502      -280.4270
  42   2.0000     -10.304404      -280.3971
  43   2.0000     -10.303684      -280.3775
  44   2.0000     -10.303184      -280.3639
  45   2.0000     -10.300983      -280.3040
  46   2.0000     -10.299876      -280.2739
  47   2.0000     -10.298014      -280.2232
  48   2.0000     -10.297427      -280.2072
  49   2.0000     -10.296960      -280.1945
  50   2.0000     -10.290878      -280.0290
  51   2.0000     -10.289740      -279.9981
  52   2.0000     -10.288213      -279.9565
  53   2.0000     -10.288086      -279.9531
  54   2.0000     -10.286830      -279.9189
  55   2.0000     -10.282897      -279.8118
  56   2.0000     -10.281606      -279.7767
  57   2.0000     -10.280784      -279.7544
  58   2.0000     -10.280164      -279.7375
  59   2.0000     -10.279716      -279.7253
  60   2.0000     -10.279630      -279.7230
  61   2.0000     -10.278890      -279.7028
  62   2.0000     -10.278755      -279.6991
  63   2.0000     -10.278418      -279.6900
  64   2.0000     -10.277976      -279.6779
  65   2.0000     -10.277971      -279.6778
  66   2.0000     -10.277825      -279.6738
  67   2.0000     -10.276838      -279.6470
  68   2.0000     -10.276332      -279.6332
  69   2.0000     -10.275851      -279.6201
  70   2.0000     -10.275733      -279.6169
  71   2.0000     -10.275199      -279.6024
  72   2.0000     -10.275010      -279.5972
  73   2.0000     -10.270080      -279.4631
  74   2.0000     -10.268443      -279.4185
  75   2.0000     -10.268159      -279.4108
  76   2.0000      -9.540219      -259.6026
  77   2.0000      -9.536871      -259.5115
  78   2.0000      -8.111282      -220.7192
  79   2.0000      -8.062236      -219.3846
  80   2.0000      -8.056086      -219.2172
  81   2.0000      -8.053902      -219.1578
  82   2.0000      -8.053056      -219.1348
  83   2.0000      -8.048785      -219.0186
  84   2.0000      -8.044808      -218.9104
  85   2.0000      -7.975333      -217.0199
  86   2.0000      -7.310444      -198.9273
  87   2.0000      -7.307114      -198.8367
  88   2.0000      -7.300317      -198.6517
  89   2.0000      -7.300246      -198.6498
  90   2.0000      -7.296937      -198.5597
  91   2.0000      -7.296861      -198.5577
  92   2.0000      -6.082305      -165.5079
  93   2.0000      -6.074661      -165.2999
  94   2.0000      -6.074096      -165.2846
  95   2.0000      -6.031616      -164.1286
  96   2.0000      -6.027462      -164.0156
  97   2.0000      -6.025334      -163.9577
  98   2.0000      -6.024315      -163.9299
  99   2.0000      -6.023178      -163.8990
 100   2.0000      -6.022376      -163.8772
 101   2.0000      -6.021370      -163.8498
 102   2.0000      -6.019010      -163.7856
 103   2.0000      -6.018499      -163.7717
 104   2.0000      -6.018223      -163.7642
 105   2.0000      -6.018206      -163.7637
 106   2.0000      -6.016005      -163.7038
 107   2.0000      -6.015117      -163.6797
 108   2.0000      -6.014338      -163.6585
 109   2.0000      -6.014275      -163.6567
 110   2.0000      -6.010338      -163.5496
 111   2.0000      -6.010071      -163.5424
 112   2.0000      -6.006231      -163.4379
 113   2.0000      -5.944251      -161.7513
 114   2.0000      -5.943962      -161.7434
 115   2.0000      -5.934447      -161.4845
 116   2.0000      -1.116437       -30.3798
 117   2.0000      -1.083132       -29.4735
 118   2.0000      -1.073727       -29.2176
 119   2.0000      -1.064963       -28.9791
 120   2.0000      -1.044899       -28.4331
 121   2.0000      -1.016473       -27.6596
 122   2.0000      -1.011981       -27.5374
 123   2.0000      -1.007430       -27.4136
 124   2.0000      -1.001944       -27.2643
 125   2.0000      -0.995175       -27.0801
 126   2.0000      -0.984889       -26.8002
 127   2.0000      -0.974567       -26.5193
 128   2.0000      -0.971918       -26.4472
 129   2.0000      -0.970160       -26.3994
 130   2.0000      -0.956551       -26.0291
 131   2.0000      -0.944796       -25.7092
 132   2.0000      -0.942618       -25.6499
 133   2.0000      -0.941142       -25.6098
 134   2.0000      -0.930488       -25.3199
 135   2.0000      -0.915675       -24.9168
 136   2.0000      -0.899699       -24.4821
 137   2.0000      -0.896500       -24.3950
 138   2.0000      -0.893563       -24.3151
 139   2.0000      -0.889890       -24.2151
 140   2.0000      -0.876318       -23.8458
 141   2.0000      -0.866176       -23.5698
 142   2.0000      -0.861151       -23.4331
 143   2.0000      -0.853135       -23.2150
 144   2.0000      -0.850434       -23.1415
 145   2.0000      -0.850059       -23.1313
 146   2.0000      -0.841042       -22.8859
 147   2.0000      -0.836409       -22.7598
 148   2.0000      -0.830216       -22.5913
 149   2.0000      -0.825541       -22.4641
 150   2.0000      -0.825295       -22.4574
 151   2.0000      -0.821740       -22.3607
 152   2.0000      -0.816548       -22.2194
 153   2.0000      -0.809485       -22.0272
 154   2.0000      -0.806432       -21.9441
 155   2.0000      -0.802672       -21.8418
 156   2.0000      -0.794727       -21.6256
 157   2.0000      -0.785449       -21.3732
 158   2.0000      -0.779852       -21.2209
 159   2.0000      -0.771261       -20.9871
 160   2.0000      -0.760940       -20.7062
 161   2.0000      -0.750623       -20.4255
 162   2.0000      -0.745730       -20.2924
 163   2.0000      -0.741421       -20.1751
 164   2.0000      -0.736652       -20.0453
 165   2.0000      -0.728611       -19.8265
 166   2.0000      -0.721962       -19.6456
 167   2.0000      -0.715464       -19.4688
 168   2.0000      -0.705745       -19.2043
 169   2.0000      -0.703924       -19.1547
 170   2.0000      -0.698336       -19.0027
 171   2.0000      -0.687333       -18.7033
 172   2.0000      -0.682413       -18.5694
 173   2.0000      -0.677814       -18.4443
 174   2.0000      -0.664150       -18.0724
 175   2.0000      -0.654824       -17.8187
 176   2.0000      -0.651100       -17.7173
 177   2.0000      -0.640667       -17.4334
 178   2.0000      -0.638598       -17.3771
 179   2.0000      -0.635136       -17.2829
 180   2.0000      -0.632137       -17.2013
 181   2.0000      -0.628986       -17.1156
 182   2.0000      -0.626808       -17.0563
 183   2.0000      -0.623942       -16.9783
 184   2.0000      -0.621422       -16.9098
 185   2.0000      -0.615941       -16.7606
 186   2.0000      -0.609485       -16.5849
 187   2.0000      -0.607834       -16.5400
 188   2.0000      -0.604351       -16.4452
 189   2.0000      -0.599246       -16.3063
 190   2.0000      -0.597012       -16.2455
 191   2.0000      -0.591856       -16.1052
 192   2.0000      -0.583690       -15.8830
 193   2.0000      -0.582200       -15.8425
 194   2.0000      -0.576814       -15.6959
 195   2.0000      -0.573172       -15.5968
 196   2.0000      -0.563929       -15.3453
 197   2.0000      -0.558671       -15.2022
 198   2.0000      -0.552942       -15.0463
 199   2.0000      -0.550105       -14.9691
 200   2.0000      -0.546495       -14.8709
 201   2.0000      -0.542399       -14.7594
 202   2.0000      -0.540934       -14.7196
 203   2.0000      -0.539794       -14.6885
 204   2.0000      -0.538863       -14.6632
 205   2.0000      -0.533115       -14.5068
 206   2.0000      -0.530726       -14.4418
 207   2.0000      -0.526800       -14.3350
 208   2.0000      -0.524680       -14.2773
 209   2.0000      -0.523014       -14.2319
 210   2.0000      -0.521652       -14.1949
 211   2.0000      -0.521341       -14.1864
 212   2.0000      -0.520089       -14.1523
 213   2.0000      -0.519329       -14.1317
 214   2.0000      -0.514661       -14.0046
 215   2.0000      -0.513590       -13.9755
 216   2.0000      -0.511456       -13.9174
 217   2.0000      -0.506722       -13.7886
 218   2.0000      -0.503522       -13.7015
 219   2.0000      -0.501898       -13.6573
 220   2.0000      -0.500909       -13.6304
 221   2.0000      -0.498644       -13.5688
 222   2.0000      -0.495551       -13.4846
 223   2.0000      -0.495015       -13.4700
 224   2.0000      -0.492651       -13.4057
 225   2.0000      -0.488032       -13.2800
 226   2.0000      -0.486477       -13.2377
 227   2.0000      -0.484234       -13.1767
 228   2.0000      -0.483667       -13.1612
 229   2.0000      -0.480841       -13.0844
 230   2.0000      -0.479895       -13.0586
 231   2.0000      -0.478143       -13.0109
 232   2.0000      -0.476534       -12.9672
 233   2.0000      -0.474073       -12.9002
 234   2.0000      -0.473394       -12.8817
 235   2.0000      -0.472879       -12.8677
 236   2.0000      -0.471425       -12.8281
 237   2.0000      -0.469721       -12.7817
 238   2.0000      -0.467516       -12.7218
 239   2.0000      -0.466899       -12.7050
 240   2.0000      -0.464173       -12.6308
 241   2.0000      -0.462940       -12.5972
 242   2.0000      -0.460325       -12.5261
 243   2.0000      -0.458253       -12.4697
 244   2.0000      -0.456111       -12.4114
 245   2.0000      -0.455900       -12.4057
 246   2.0000      -0.454732       -12.3739
 247   2.0000      -0.453157       -12.3310
 248   2.0000      -0.451065       -12.2741
 249   2.0000      -0.446963       -12.1625
 250   2.0000      -0.441421       -12.0117
 251   2.0000      -0.437382       -11.9018
 252   2.0000      -0.435987       -11.8638
 253   2.0000      -0.428958       -11.6726
 254   2.0000      -0.427787       -11.6407
 255   2.0000      -0.425262       -11.5720
 256   2.0000      -0.423800       -11.5322
 257   2.0000      -0.421069       -11.4579
 258   2.0000      -0.420481       -11.4419
 259   2.0000      -0.417115       -11.3503
 260   2.0000      -0.413952       -11.2642
 261   2.0000      -0.412230       -11.2173
 262   2.0000      -0.409211       -11.1352
 263   2.0000      -0.408119       -11.1055
 264   2.0000      -0.405411       -11.0318
 265   2.0000      -0.403340       -10.9755
 266   2.0000      -0.396888       -10.7999
 267   2.0000      -0.395740       -10.7686
 268   2.0000      -0.394267       -10.7286
 269   2.0000      -0.391734       -10.6596
 270   2.0000      -0.382516       -10.4088
 271   2.0000      -0.378752       -10.3064
 272   2.0000      -0.378379       -10.2962
 273   2.0000      -0.377534       -10.2732
 274   2.0000      -0.373839       -10.1727
 275   2.0000      -0.363015        -9.8781
 276   2.0000      -0.361780        -9.8445
 277   2.0000      -0.360272        -9.8035
 278   2.0000      -0.346162        -9.4196
 279   2.0000      -0.338619        -9.2143
 280   2.0000      -0.336419        -9.1544
 281   2.0000      -0.335925        -9.1410
 282   2.0000      -0.330156        -8.9840
 283   2.0000      -0.326038        -8.8720
 284   2.0000      -0.324030        -8.8173
 285   2.0000      -0.322604        -8.7785
 286   2.0000      -0.320839        -8.7305
 287   2.0000      -0.319718        -8.7000
 288   2.0000      -0.318256        -8.6602
 289   2.0000      -0.315267        -8.5788
 290   2.0000      -0.314193        -8.5496
 291   2.0000      -0.309095        -8.4109
 292   2.0000      -0.300445        -8.1755
 293   2.0000      -0.294563        -8.0155
 294   2.0000      -0.289140        -7.8679
 295   2.0000      -0.279827        -7.6145
 296   2.0000      -0.265802        -7.2328
 297   2.0000      -0.259914        -7.0726
 298   2.0000      -0.244846        -6.6626
 299   2.0000      -0.220431        -5.9982
 300   0.0000      -0.102856        -2.7988
 301   0.0000      -0.081614        -2.2208
 302   0.0000      -0.063356        -1.7240
 303   0.0000      -0.049878        -1.3572
 304   0.0000      -0.036715        -0.9991

MULLIKEN ATOMIC CHARGES
-----------------------
   0 C :    0.124058
   1 C :   -0.165162
   2 N :   -0.011496
   3 C :   -0.072665
   4 C :    0.112625
   5 C :   -0.113981
   6 C :    0.038110
   7 C :   -0.033544
   8 C :   -0.049532
   9 C :    0.021254
  10 C :   -0.080062
  11 S :    0.148748
  12 C :   -0.087915
  13 S :    0.160872
  14 C :   -0.055905
  15 C :   -0.006518
  16 C :   -0.092761
  17 C :    0.099772
  18 C :    0.129528
  19 C :   -0.210084
  20 C :    0.030886
  21 C :    0.078417
  22 Cl:   -0.092976
  23 C :   -0.264487
  24 C :    0.122821
  25 S :    0.145209
  26 C :   -0.136403
  27 S :    0.102012
  28 C :   -0.004426
  29 C :    0.045129
  30 C :   -0.011468
  31 C :    0.025996
  32 C :   -0.031155
  33 C :    0.068766
  34 N :   -0.112336
  35 C :    0.072206
  36 N :   -0.095256
  37 C :   -0.052707
  38 C :    0.074914
  39 C :    0.149798
  40 C :   -0.208308
  41 C :    0.030458
  42 C :    0.086141
  43 Cl:   -0.088226
  44 C :   -0.267005
  45 C :    0.123052
  46 S :    0.137508
  47 C :   -0.142754
  48 S :    0.111748
  49 C :   -0.050803
  50 C :    0.014759
  51 C :   -0.107181
  52 C :    0.104511
  53 C :    0.105658
  54 C :    0.001381
  55 N :   -0.287215
  56 S :    0.524071
  57 N :   -0.254882
  58 C :   -0.000197
  59 C :    0.096467
  60 C :   -0.102591
  61 C :    0.092361
  62 N :   -0.034141
  63 C :    0.003968
  64 C :   -0.005304
  65 N :   -0.058447
  66 C :    0.085596
  67 C :   -0.090791
  68 C :    0.063510
  69 C :    0.002204
  70 S :   -0.151793
  71 C :    0.017445
  72 C :   -0.031033
  73 N :   -0.006526
  74 C :   -0.167376
  75 C :    0.126567
  76 H :    0.027368
  77 H :    0.030047
  78 H :    0.025839
  79 H :   -0.001551
  80 H :    0.002924
  81 H :   -0.026239
  82 H :   -0.020992
  83 H :   -0.008991
  84 H :    0.032817
  85 H :    0.035761
  86 H :    0.023616
  87 H :    0.010564
  88 H :   -0.013590
  89 H :   -0.009070
  90 H :    0.008106
  91 H :    0.012063
  92 H :   -0.014150
  93 H :   -0.005963
  94 H :    0.024487
  95 H :    0.033157
  96 H :    0.037260
  97 H :   -0.022890
  98 H :    0.010694
  99 H :    0.011020
 100 H :    0.023657
 101 H :    0.022988
 102 H :    0.010817
 103 H :    0.010001
 104 H :    0.000265
 105 H :    0.005416
 106 H :   -0.010890
 107 H :    0.035178
 108 H :    0.030404
 109 H :    0.026761
Sum of atomic charges:   -0.0000000

LOEWDIN ATOMIC CHARGES
----------------------
   0 C :   -0.052790
   1 C :   -0.002549
   2 N :   -0.034111
   3 C :   -0.020623
   4 C :   -0.005225
   5 C :   -0.041692
   6 C :   -0.004547
   7 C :   -0.165893
   8 C :   -0.041953
   9 C :   -0.042375
  10 C :   -0.185278
  11 S :    0.443877
  12 C :   -0.196417
  13 S :    0.442065
  14 C :   -0.183627
  15 C :   -0.164089
  16 C :   -0.061790
  17 C :   -0.030935
  18 C :   -0.061142
  19 C :   -0.172734
  20 C :   -0.069812
  21 C :   -0.179275
  22 Cl:    0.124150
  23 C :   -0.199510
  24 C :   -0.061473
  25 S :    0.436753
  26 C :   -0.145975
  27 S :    0.395857
  28 C :   -0.155464
  29 C :    0.008564
  30 C :   -0.051235
  31 C :    0.034509
  32 C :   -0.064143
  33 C :    0.047977
  34 N :   -0.099437
  35 C :    0.045031
  36 N :   -0.092350
  37 C :   -0.048544
  38 C :   -0.046933
  39 C :   -0.050633
  40 C :   -0.172275
  41 C :   -0.075606
  42 C :   -0.177092
  43 Cl:    0.128778
  44 C :   -0.197694
  45 C :   -0.061120
  46 S :    0.447135
  47 C :   -0.144840
  48 S :    0.409354
  49 C :   -0.046679
  50 C :   -0.033893
  51 C :   -0.034790
  52 C :   -0.024142
  53 C :   -0.023862
  54 C :   -0.048524
  55 N :   -0.290285
  56 S :    0.664768
  57 N :   -0.277881
  58 C :   -0.043070
  59 C :   -0.049836
  60 C :   -0.026360
  61 C :    0.100951
  62 N :   -0.093496
  63 C :    0.048000
  64 C :    0.021489
  65 N :   -0.099662
  66 C :    0.073077
  67 C :   -0.043001
  68 C :   -0.018054
  69 C :   -0.145064
  70 S :    0.045748
  71 C :   -0.028974
  72 C :    0.002078
  73 N :   -0.043045
  74 C :    0.006290
  75 C :   -0.051822
  76 H :    0.037974
  77 H :    0.039586
  78 H :    0.038069
  79 H :    0.025489
  80 H :    0.031592
  81 H :    0.029950
  82 H :    0.028573
  83 H :    0.034075
  84 H :    0.038226
  85 H :    0.039404
  86 H :    0.033653
  87 H :    0.041363
  88 H :    0.021933
  89 H :    0.032253
  90 H :    0.025518
  91 H :    0.017406
  92 H :    0.020096
  93 H :    0.026871
  94 H :    0.034147
  95 H :    0.038662
  96 H :    0.039891
  97 H :    0.030710
  98 H :    0.023663
  99 H :    0.023726
 100 H :    0.031077
 101 H :    0.030894
 102 H :    0.023641
 103 H :    0.023392
 104 H :    0.020250
 105 H :    0.021771
 106 H :    0.031764
 107 H :    0.042014
 108 H :    0.040222
 109 H :    0.039315

  Mayer bond orders larger than 0.100000
B(  0-C ,  1-C ) :   1.0949 B(  0-C , 76-H ) :   0.9450 B(  0-C , 77-H ) :   0.9405
B(  0-C , 78-H ) :   0.9409 B(  1-C ,  2-N ) :   1.7071 B(  1-C , 74-C ) :   1.1334
B(  2-N ,  3-C ) :   1.4137 B(  3-C ,  4-C ) :   1.2216 B(  3-C , 72-C ) :   1.1510
B(  4-C ,  5-C ) :   1.2403 B(  4-C , 54-C ) :   1.1677 B(  4-C , 59-C ) :   0.1393
B(  5-C ,  6-C ) :   1.5444 B(  5-C , 79-H ) :   0.9591 B(  6-C ,  7-C ) :   1.1722
B(  6-C , 80-H ) :   0.9604 B(  7-C ,  8-C ) :   1.3988 B(  7-C , 11-S ) :   1.0857
B(  8-C ,  9-C ) :   1.3135 B(  8-C , 81-H ) :   1.0142 B(  9-C , 10-C ) :   1.5057
B(  9-C , 51-C ) :   0.9376 B( 10-C , 11-S ) :   1.0930 B( 10-C , 12-C ) :   1.1871
B( 12-C , 13-S ) :   1.0850 B( 12-C , 50-C ) :   1.5189 B( 13-S , 14-C ) :   1.1087
B( 14-C , 15-C ) :   1.1069 B( 14-C , 49-C ) :   1.4797 B( 15-C , 16-C ) :   1.5733
B( 15-C , 48-S ) :   1.0585 B( 16-C , 17-C ) :   1.1792 B( 16-C , 82-H ) :   0.9942
B( 17-C , 18-C ) :   1.3175 B( 17-C , 47-C ) :   1.2675 B( 18-C , 19-C ) :   0.9780
B( 18-C , 26-C ) :   1.4033 B( 19-C , 20-C ) :   1.5497 B( 19-C , 25-S ) :   1.1368
B( 20-C , 21-C ) :   1.2145 B( 20-C , 83-H ) :   1.0092 B( 21-C , 22-Cl) :   1.0022
B( 21-C , 23-C ) :   1.6034 B( 23-C , 24-C ) :   1.0831 B( 23-C , 25-S ) :   1.1273
B( 24-C , 84-H ) :   0.9486 B( 24-C , 85-H ) :   0.9482 B( 24-C , 86-H ) :   0.9447
B( 26-C , 27-S ) :   1.0666 B( 26-C , 38-C ) :   1.2732 B( 27-S , 28-C ) :   1.0501
B( 28-C , 29-C ) :   1.1154 B( 28-C , 37-C ) :   1.5511 B( 29-C , 30-C ) :   1.6906
B( 29-C , 87-H ) :   0.9773 B( 30-C , 31-C ) :   1.0907 B( 30-C , 88-H ) :   0.9719
B( 31-C , 32-C ) :   1.3381 B( 31-C , 36-N ) :   1.5175 B( 32-C , 33-C ) :   1.3875
B( 32-C , 89-H ) :   0.9771 B( 33-C , 34-N ) :   1.5395 B( 33-C , 90-H ) :   0.9816
B( 34-N , 35-C ) :   1.5015 B( 35-C , 36-N ) :   1.5311 B( 35-C , 91-H ) :   0.9747
B( 37-C , 38-C ) :   1.1692 B( 37-C , 92-H ) :   0.9861 B( 38-C , 39-C ) :   1.2926
B( 39-C , 40-C ) :   0.9898 B( 39-C , 47-C ) :   1.4254 B( 40-C , 41-C ) :   1.5486
B( 40-C , 46-S ) :   1.1304 B( 41-C , 42-C ) :   1.2219 B( 41-C , 93-H ) :   0.9949
B( 42-C , 43-Cl) :   1.0057 B( 42-C , 44-C ) :   1.6061 B( 44-C , 45-C ) :   1.0814
B( 44-C , 46-S ) :   1.1297 B( 45-C , 94-H ) :   0.9440 B( 45-C , 95-H ) :   0.9484
B( 45-C , 96-H ) :   0.9490 B( 47-C , 48-S ) :   1.0567 B( 49-C , 50-C ) :   1.3144
B( 49-C , 97-H ) :   1.0034 B( 50-C , 51-C ) :   0.9414 B( 51-C , 52-C ) :   1.0355
B( 51-C , 53-C ) :   1.0327 B( 52-C , 98-H ) :   0.9643 B( 52-C , 99-H ) :   0.9646
B( 52-C ,100-H ) :   0.9646 B( 53-C ,101-H ) :   0.9646 B( 53-C ,102-H ) :   0.9649
B( 53-C ,103-H ) :   0.9646 B( 54-C , 55-N ) :   1.5172 B( 54-C , 58-C ) :   1.0971
B( 55-N , 56-S ) :   1.2826 B( 55-N , 57-N ) :   0.1538 B( 56-S , 57-N ) :   1.2769
B( 57-N , 58-C ) :   1.5060 B( 58-C , 59-C ) :   1.2493 B( 59-C , 60-C ) :   1.0178
B( 59-C , 72-C ) :   1.3102 B( 60-C , 61-C ) :   1.0456 B( 60-C , 71-C ) :   1.5580
B( 61-C , 62-N ) :   1.7058 B( 61-C ,104-H ) :   0.9862 B( 62-N , 63-C ) :   1.2725
B( 63-C , 64-C ) :   1.5287 B( 63-C , 71-C ) :   1.0464 B( 64-C , 65-N ) :   1.2729
B( 64-C , 68-C ) :   1.0526 B( 65-N , 66-C ) :   1.6838 B( 66-C , 67-C ) :   1.0543
B( 66-C ,105-H ) :   0.9883 B( 67-C , 68-C ) :   1.5985 B( 67-C ,106-H ) :   1.0084
B( 68-C , 69-C ) :   0.9890 B( 69-C , 70-S ) :   1.6757 B( 69-C , 71-C ) :   1.0576
B( 72-C , 73-N ) :   1.4231 B( 73-N , 74-C ) :   1.7205 B( 74-C , 75-C ) :   1.0969
B( 75-C ,107-H ) :   0.9426 B( 75-C ,108-H ) :   0.9405 B( 75-C ,109-H ) :   0.9390

-----------------------------------------------------------------------------
         ABSORPTION SPECTRUM VIA TRANSITION ELECTRIC DIPOLE MOMENTS
-----------------------------------------------------------------------------
State   Energy  Wavelength   fosc         T2         TX        TY        TZ
        (cm-1)    (nm)                  (au**2)     (au)      (au)      (au)
-----------------------------------------------------------------------------
   0   11983.2    834.5   1.281971334  35.21943   3.69104  -4.39399  -1.51279
   1   14250.6    701.7   0.075466081   1.74339   1.01073  -0.79396  -0.30240
   2   15600.7    641.0   0.050515021   1.06599  -0.89605   0.44718   0.25122
   3   17317.9    577.4   0.008919352   0.16956   0.39938   0.10010   0.00578
   4   20278.3    493.1   0.137683336   2.23525   1.26933  -0.67368  -0.41257
   5   20980.8    476.6   0.416593894   6.53682  -2.34833   0.82613   0.58282
   6   21332.7    468.8   0.002423944   0.03741   0.10158  -0.15645   0.05112
   7   21867.5    457.3   0.963661499  14.50779  -2.86751   2.24060   1.12468
   8   22986.2    435.0   0.048717869   0.69775  -0.01844  -0.78274  -0.29107
   9   23874.8    418.9   0.111102599   1.53201  -0.45118  -0.80113   0.82863
  10   25127.7    398.0   0.014869179   0.19481  -0.15947   0.19274  -0.36363
  11   25262.1    395.8   0.007453072   0.09713  -0.24391  -0.07310  -0.17970
  12   25612.3    390.4   0.062667948   0.80551   0.08396  -0.46682   0.76193
  13   26154.5    382.3   0.000812848   0.01023   0.06416  -0.02330  -0.07465
  14   26320.0    379.9   0.001406999   0.01760   0.01488   0.09132   0.09507
  15   27094.5    369.1   0.003138355   0.03813   0.14816   0.11904   0.04484
  16   27381.0    365.2   0.050189689   0.60345  -0.07223   0.73896  -0.22840
  17   28391.1    352.2   0.016674075   0.19335  -0.39192  -0.02163  -0.19819
  18   28888.9    346.2   0.269215659   3.06793  -1.06116   1.36088   0.29977
  19   29672.0    337.0   0.044882728   0.49798  -0.09994  -0.44281  -0.54029
  20   29896.1    334.5   0.402062611   4.42746   1.28973   0.47794  -1.59237
  21   30365.9    329.3   0.304363701   3.29975   1.11611   0.59056  -1.30587
  22   30576.1    327.1   0.104219517   1.12213   0.50807   0.44874  -0.81402
  23   30716.6    325.6   0.136317012   1.46101  -0.88452   0.59084   0.57406
  24   31361.4    318.9   0.028068091   0.29464  -0.20270  -0.01337  -0.50336
  25   31931.8    313.2   0.069113747   0.71255  -0.47708   0.64808   0.25482
  26   31953.2    313.0   0.018893312   0.19466  -0.42057   0.10207   0.08579
  27   32348.8    309.1   0.061580099   0.62670   0.70492  -0.22311  -0.28286
  28   32884.0    304.1   0.010172888   0.10184   0.05166   0.31492  -0.00142
  29   33429.6    299.1   0.041659956   0.41026   0.04778  -0.60429  -0.20690
  30   33543.4    298.1   0.041510291   0.40740   0.28333  -0.49351   0.28910
  31   33593.6    297.7   0.004980063   0.04880   0.06962   0.19170   0.08490
  32   33950.4    294.5   0.002822131   0.02737  -0.13209  -0.04999   0.08614
  33   34313.6    291.4   0.011623045   0.11151  -0.16810  -0.27634  -0.08302
  34   34445.6    290.3   0.025654294   0.24519  -0.22729   0.08052   0.43249
  35   34633.5    288.7   0.061251362   0.58223   0.35971  -0.65819  -0.14008
  36   34842.5    287.0   0.025950771   0.24520   0.07097  -0.39381   0.29168
  37   35036.0    285.4   0.051805495   0.48678   0.21420   0.33024  -0.57606
  38   35079.6    285.1   0.022060315   0.20703  -0.18770  -0.32662   0.25518
  39   35780.0    279.5   0.014487234   0.13330  -0.22788   0.07695   0.27467
  40   35891.8    278.6   0.003218102   0.02952  -0.01926   0.00072  -0.17072
  41   36213.9    276.1   0.117703923   1.07002   0.23460  -0.75577  -0.66618
  42   36513.5    273.9   0.051546921   0.46476   0.26355   0.50901  -0.36907
  43   36606.5    273.2   0.117207084   1.05407  -0.42268  -0.93321   0.06737
  44   36879.0    271.2   0.007948852   0.07096   0.26636  -0.00302  -0.00005
  45   37045.2    269.9   0.045386270   0.40334  -0.36185  -0.22417   0.47133
  46   37458.9    267.0   0.018963954   0.16667  -0.05967  -0.37037   0.16103
  47   37544.9    266.3   0.025490541   0.22351   0.07694   0.34795  -0.31069
  48   37756.8    264.9   0.051721782   0.45098   0.38016  -0.00247  -0.55358
  49   37929.3    263.6   0.102784684   0.89213  -0.01604   0.78447  -0.52581
  50   38086.3    262.6   0.057232447   0.49471   0.28624  -0.53894  -0.34974
  51   38369.3    260.6   0.070038969   0.60094  -0.36244  -0.55770   0.39818
  52   38566.1    259.3   0.260947614   2.22753   1.14779   0.04680  -0.95284
  53   38872.5    257.3   0.336768613   2.85210   0.69868   1.53240  -0.12529
  54   39291.5    254.5   0.087663128   0.73450  -0.09912   0.82784  -0.19837
  55   39379.9    253.9   0.000211420   0.00177   0.04202  -0.00064  -0.00119
  56   39528.3    253.0   0.322376562   2.68492   1.41649  -0.81997  -0.07813
  57   39782.4    251.4   0.047380992   0.39209  -0.42611   0.45128  -0.08290
  58   39817.9    251.1   0.021090131   0.17437  -0.24995   0.28940  -0.16777
  59   39866.8    250.8   0.006109744   0.05045  -0.19492   0.00327  -0.11157
  60   39959.1    250.3   0.014829338   0.12217  -0.28041   0.20414  -0.04329
  61   40071.4    249.6   0.017778196   0.14606  -0.05296  -0.27490   0.26017
  62   40152.7    249.0   0.004030279   0.03304  -0.07632  -0.06991  -0.14944
  63   40309.7    248.1   0.012860072   0.10503  -0.14482  -0.27533  -0.09082

FINAL SINGLE POINT ENERGY     -6769.865838160717

DIPOLE MOMENT
-------------
                                X             Y             Z
Electronic contribution:    -15.60465     -42.51901      21.19173
Nuclear contribution   :     15.51250      45.86610     -21.99431
                        -----------------------------------------
Total Dipole Moment    :     -0.09215       3.34709      -0.80258
                        -----------------------------------------
Magnitude (a.u.)       :      3.44320
Magnitude (Debye)      :      8.75193

Rotational constants in cm-1:     0.001402     0.000172     0.000158
Rotational constants in MHz :    42.026161     5.147013     4.728742

                             ****ORCA TERMINATED NORMALLY****
TOTAL RUN TIME: 0 days 0 hours 11 minutes 30 seconds 493 msec
