                         Program Version 4.2.0 -  RELEASE  -
|  1> # ORCA input file
|  2> # SCF done       -202.803448146896          0.000492418860
|  3> ! CAM-B3LYP def2-SVP def2/J RIJCOSX Grid4 TightSCF
|  4> %maxcore 5000
|  5> %tddft
|  6>     Mode sTDDFT
|  7>     Ethresh 5.0
|  8>     maxcore 5000
|  9> end
| 10>
| 11> %pal
| 12>   nprocs 6
| 13>   end
| 14> * xyz 0 1
| 15>    C        6.33877         1.32356        -9.30963
| 16>    O        6.24052         1.92575        -8.04089
| 17>    C        6.26006         3.28002        -7.96196
| 18>    C        6.37315         4.13283        -9.04765
| 19>    C        6.37132         5.51762        -8.85818
| 20>    O        6.48571         6.25245        -9.99728
| 21>    C        6.49169         7.65626        -9.89553
| 22>    C        6.25965         6.04590        -7.58288
| 23>    C        6.16143         5.18499        -6.48651
| 24>    C        6.06725         5.74902        -5.14478
| 25>    C        5.29763         6.87503        -4.81362
| 26>    C        5.32746         7.20344        -3.47569
| 27>    C        4.51345         8.14164        -2.78619
| 28>    S        3.17215         8.89169        -3.60586
| 29>    C        2.55124         9.51486        -2.10547
| 30>    C        1.30169        10.19651        -2.03340
| 31>    S        0.72295        11.17039        -3.34107
| 32>    C       -0.70325        11.61608        -2.43904
| 33>    C       -1.75020        12.40368        -2.97831
| 34>    C       -1.72694        13.26033        -4.03087
| 35>    C       -3.00066        13.60464        -4.73818
| 36>    O       -4.12384        13.41238        -4.33558
| 37>    C       -2.56252        14.16544        -6.02480
| 38>    C       -3.14575        14.63032        -7.21577
| 39>    C       -2.19402        15.07658        -8.08417
| 40>    S       -0.58134        14.95843        -7.47628
| 41>    C       -1.17705        14.27275        -6.02499
| 42>    C       -0.62226        13.85812        -4.76457
| 43>    C        0.61171        14.21896        -4.28703
| 44>    C        0.99574        14.09062        -2.93824
| 45>    N        1.31126        14.05930        -1.83491
| 46>    C        1.55395        14.85993        -5.11558
| 47>    N        2.32722        15.36885        -5.79366
| 48>    C       -0.70804        10.99073        -1.20788
| 49>    C        0.41601        10.19612        -0.96167
| 50>    C        0.60313         9.38610         0.24896
| 51>    C        0.89497         8.03128         0.12661
| 52>    C        1.12699         7.27403         1.26840
| 53>    O        1.47154         5.95935         1.26871
| 54>    C        1.60103         5.28756         0.03700
| 55>    C        1.03105         7.87475         2.52027
| 56>    C        0.70408         9.22043         2.64255
| 57>    O        0.62806         9.69575         3.91297
| 58>    C        0.29398        11.04973         4.10789
| 59>    C        0.49209         9.98371         1.49711
| 60>    C        3.38420         9.19685        -1.05710
| 61>    C        4.49426         8.42780        -1.42769
| 62>    C        5.50184         7.95946        -0.46803
| 63>    C        5.09905         7.21254         0.63753
| 64>    C        6.05456         6.74981         1.53243
| 65>    O        5.79382         6.02455         2.64384
| 66>    C        4.45397         5.68959         2.94290
| 67>    C        7.40682         7.03573         1.31870
| 68>    C        7.80069         7.79926         0.23314
| 69>    O        9.08547         8.13914        -0.05064
| 70>    C       10.10349         7.69600         0.81398
| 71>    C        6.83837         8.26797        -0.66292
| 72>    S        6.36887         6.13067        -2.59627
| 73>    C        6.67870         5.18541        -4.02923
| 74>    C        7.54436         4.06714        -3.94817
| 75>    C        7.75130         3.31267        -2.83466
| 76>    C        9.00170         2.51432        -2.66004
| 77>    O        9.80446         2.22504        -3.51607
| 78>    C        9.05005         2.22461        -1.21597
| 79>    C        9.92497         1.62266        -0.29581
| 80>    C        9.40106         1.64358         0.96341
| 81>    S        7.83981         2.37787         1.06066
| 82>    C        7.88141         2.68488        -0.62290
| 83>    C        6.98610         3.24256        -1.59795
| 84>    C        5.63750         3.41779        -1.41583
| 85>    C        4.71825         3.71122        -2.44253
| 86>    N        3.91368         3.90322        -3.23902
| 87>    C        5.02156         3.25456        -0.16218
| 88>    N        4.47509         3.14793         0.84232
| 89>    C        6.15566         3.81263        -6.67483
| 90>    H        7.28460         1.57374        -9.80012
| 91>    H        5.50502         1.61381        -9.95651
| 92>    H        6.29914         0.25062        -9.12932
| 93>    H        6.45834         3.77329       -10.05928
| 94>    H        7.33825         8.01253        -9.30005
| 95>    H        5.55870         8.03186        -9.46361
| 96>    H        6.58961         8.02455       -10.91540
| 97>    H        6.27456         7.10952        -7.41149
| 98>    H        4.69128         7.41044        -5.52287
| 99>    H       -2.72954        12.23666        -2.53950
|100>    H       -4.20115        14.63704        -7.41537
|101>    H       -2.34308        15.48640        -9.06406
|102>    H       -1.51203        11.10913        -0.50329
|103>    H        0.94214         7.59112        -0.85589
|104>    H        1.92890         4.27962         0.28631
|105>    H        2.35165         5.75693        -0.60839
|106>    H        0.64740         5.23849        -0.49678
|107>    H        1.20443         7.28729         3.40639
|108>    H        0.28285        11.19659         5.18658
|109>    H       -0.69554        11.28199         3.70176
|110>    H        1.03721        11.71705         3.66028
|111>    H        0.26899        11.03665         1.55196
|112>    H        3.21005         9.52433        -0.04895
|113>    H        4.05360         6.99352         0.77550
|114>    H        4.49270         5.16946         3.89808
|115>    H        4.03319         5.02153         2.18717
|116>    H        3.82856         6.58133         3.03803
|117>    H        8.10960         6.64870         2.03758
|118>    H       11.03245         8.08246         0.39745
|119>    H       10.15047         6.60265         0.85103
|120>    H        9.96900         8.08847         1.82686
|121>    H        7.15548         8.87065        -1.49859
|122>    H        8.15665         3.84231        -4.81492
|123>    H       10.87870         1.19805        -0.54890
|124>    H        9.84212         1.25613         1.86105
|125>    H        6.02764         3.13738        -5.84495
|126> *
|127>
|128>                          ****END OF INPUT****

CARTESIAN COORDINATES (ANGSTROEM)
---------------------------------
  C      6.338770    1.323560   -9.309630
  O      6.240520    1.925750   -8.040890
  C      6.260060    3.280020   -7.961960
  C      6.373150    4.132830   -9.047650
  C      6.371320    5.517620   -8.858180
  O      6.485710    6.252450   -9.997280
  C      6.491690    7.656260   -9.895530
  C      6.259650    6.045900   -7.582880
  C      6.161430    5.184990   -6.486510
  C      6.067250    5.749020   -5.144780
  C      5.297630    6.875030   -4.813620
  C      5.327460    7.203440   -3.475690
  C      4.513450    8.141640   -2.786190
  S      3.172150    8.891690   -3.605860
  C      2.551240    9.514860   -2.105470
  C      1.301690   10.196510   -2.033400
  S      0.722950   11.170390   -3.341070
  C     -0.703250   11.616080   -2.439040
  C     -1.750200   12.403680   -2.978310
  C     -1.726940   13.260330   -4.030870
  C     -3.000660   13.604640   -4.738180
  O     -4.123840   13.412380   -4.335580
  C     -2.562520   14.165440   -6.024800
  C     -3.145750   14.630320   -7.215770
  C     -2.194020   15.076580   -8.084170
  S     -0.581340   14.958430   -7.476280
  C     -1.177050   14.272750   -6.024990
  C     -0.622260   13.858120   -4.764570
  C      0.611710   14.218960   -4.287030
  C      0.995740   14.090620   -2.938240
  N      1.311260   14.059300   -1.834910
  C      1.553950   14.859930   -5.115580
  N      2.327220   15.368850   -5.793660
  C     -0.708040   10.990730   -1.207880
  C      0.416010   10.196120   -0.961670
  C      0.603130    9.386100    0.248960
  C      0.894970    8.031280    0.126610
  C      1.126990    7.274030    1.268400
  O      1.471540    5.959350    1.268710
  C      1.601030    5.287560    0.037000
  C      1.031050    7.874750    2.520270
  C      0.704080    9.220430    2.642550
  O      0.628060    9.695750    3.912970
  C      0.293980   11.049730    4.107890
  C      0.492090    9.983710    1.497110
  C      3.384200    9.196850   -1.057100
  C      4.494260    8.427800   -1.427690
  C      5.501840    7.959460   -0.468030
  C      5.099050    7.212540    0.637530
  C      6.054560    6.749810    1.532430
  O      5.793820    6.024550    2.643840
  C      4.453970    5.689590    2.942900
  C      7.406820    7.035730    1.318700
  C      7.800690    7.799260    0.233140
  O      9.085470    8.139140   -0.050640
  C     10.103490    7.696000    0.813980
  C      6.838370    8.267970   -0.662920
  S      6.368870    6.130670   -2.596270
  C      6.678700    5.185410   -4.029230
  C      7.544360    4.067140   -3.948170
  C      7.751300    3.312670   -2.834660
  C      9.001700    2.514320   -2.660040
  O      9.804460    2.225040   -3.516070
  C      9.050050    2.224610   -1.215970
  C      9.924970    1.622660   -0.295810
  C      9.401060    1.643580    0.963410
  S      7.839810    2.377870    1.060660
  C      7.881410    2.684880   -0.622900
  C      6.986100    3.242560   -1.597950
  C      5.637500    3.417790   -1.415830
  C      4.718250    3.711220   -2.442530
  N      3.913680    3.903220   -3.239020
  C      5.021560    3.254560   -0.162180
  N      4.475090    3.147930    0.842320
  C      6.155660    3.812630   -6.674830
  H      7.284600    1.573740   -9.800120
  H      5.505020    1.613810   -9.956510
  H      6.299140    0.250620   -9.129320
  H      6.458340    3.773290  -10.059280
  H      7.338250    8.012530   -9.300050
  H      5.558700    8.031860   -9.463610
  H      6.589610    8.024550  -10.915400
  H      6.274560    7.109520   -7.411490
  H      4.691280    7.410440   -5.522870
  H     -2.729540   12.236660   -2.539500
  H     -4.201150   14.637040   -7.415370
  H     -2.343080   15.486400   -9.064060
  H     -1.512030   11.109130   -0.503290
  H      0.942140    7.591120   -0.855890
  H      1.928900    4.279620    0.286310
  H      2.351650    5.756930   -0.608390
  H      0.647400    5.238490   -0.496780
  H      1.204430    7.287290    3.406390
  H      0.282850   11.196590    5.186580
  H     -0.695540   11.281990    3.701760
  H      1.037210   11.717050    3.660280
  H      0.268990   11.036650    1.551960
  H      3.210050    9.524330   -0.048950
  H      4.053600    6.993520    0.775500
  H      4.492700    5.169460    3.898080
  H      4.033190    5.021530    2.187170
  H      3.828560    6.581330    3.038030
  H      8.109600    6.648700    2.037580
  H     11.032450    8.082460    0.397450
  H     10.150470    6.602650    0.851030
  H      9.969000    8.088470    1.826860
  H      7.155480    8.870650   -1.498590
  H      8.156650    3.842310   -4.814920
  H     10.878700    1.198050   -0.548900
  H      9.842120    1.256130    1.861050
  H      6.027640    3.137380   -5.844950

 Total Charge           Charge          ....    0
 Multiplicity           Mult            ....    1
 Number of Electrons    NEL             ....  556
 Basis Dimension        Dim             .... 1250

ORBITAL ENERGIES
----------------

  NO   OCC          E(Eh)            E(eV)
   0   2.0000     -88.987233     -2421.4657
   1   2.0000     -88.984055     -2421.3792
   2   2.0000     -88.968686     -2420.9610
   3   2.0000     -88.964375     -2420.8437
   4   2.0000     -88.956799     -2420.6376
   5   2.0000     -19.241058      -523.5758
   6   2.0000     -19.238983      -523.5193
   7   2.0000     -19.238598      -523.5089
   8   2.0000     -19.238368      -523.5026
   9   2.0000     -19.238144      -523.4965
  10   2.0000     -19.230584      -523.2908
  11   2.0000     -19.215342      -522.8760
  12   2.0000     -19.209921      -522.7285
  13   2.0000     -14.417225      -392.3126
  14   2.0000     -14.415598      -392.2684
  15   2.0000     -14.411456      -392.1557
  16   2.0000     -14.408933      -392.0870
  17   2.0000     -10.370367      -282.1920
  18   2.0000     -10.365275      -282.0535
  19   2.0000     -10.347951      -281.5821
  20   2.0000     -10.343905      -281.4720
  21   2.0000     -10.343297      -281.4554
  22   2.0000     -10.337900      -281.3086
  23   2.0000     -10.330526      -281.1079
  24   2.0000     -10.328990      -281.0661
  25   2.0000     -10.328665      -281.0573
  26   2.0000     -10.327549      -281.0269
  27   2.0000     -10.327071      -281.0139
  28   2.0000     -10.326088      -280.9871
  29   2.0000     -10.326040      -280.9858
  30   2.0000     -10.322610      -280.8925
  31   2.0000     -10.322224      -280.8820
  32   2.0000     -10.320203      -280.8270
  33   2.0000     -10.319761      -280.8150
  34   2.0000     -10.319704      -280.8134
  35   2.0000     -10.318407      -280.7781
  36   2.0000     -10.317705      -280.7590
  37   2.0000     -10.317338      -280.7490
  38   2.0000     -10.317192      -280.7451
  39   2.0000     -10.316996      -280.7397
  40   2.0000     -10.316880      -280.7366
  41   2.0000     -10.316838      -280.7354
  42   2.0000     -10.313939      -280.6566
  43   2.0000     -10.313481      -280.6441
  44   2.0000     -10.313411      -280.6422
  45   2.0000     -10.312592      -280.6199
  46   2.0000     -10.312439      -280.6157
  47   2.0000     -10.311015      -280.5770
  48   2.0000     -10.308915      -280.5198
  49   2.0000     -10.300011      -280.2775
  50   2.0000     -10.298398      -280.2337
  51   2.0000     -10.297263      -280.2028
  52   2.0000     -10.297129      -280.1991
  53   2.0000     -10.295703      -280.1603
  54   2.0000     -10.295480      -280.1542
  55   2.0000     -10.293081      -280.0890
  56   2.0000     -10.292577      -280.0753
  57   2.0000     -10.292546      -280.0744
  58   2.0000     -10.290325      -280.0140
  59   2.0000     -10.290147      -280.0091
  60   2.0000     -10.287457      -279.9359
  61   2.0000     -10.283987      -279.8415
  62   2.0000     -10.282970      -279.8138
  63   2.0000     -10.280565      -279.7484
  64   2.0000     -10.278184      -279.6836
  65   2.0000     -10.277474      -279.6643
  66   2.0000     -10.261751      -279.2364
  67   2.0000     -10.259960      -279.1877
  68   2.0000     -10.259023      -279.1622
  69   2.0000     -10.258310      -279.1428
  70   2.0000     -10.257118      -279.1104
  71   2.0000     -10.256512      -279.0939
  72   2.0000     -10.256024      -279.0806
  73   2.0000     -10.254337      -279.0347
  74   2.0000     -10.253501      -279.0119
  75   2.0000      -8.081973      -219.9217
  76   2.0000      -8.078764      -219.8343
  77   2.0000      -8.063911      -219.4302
  78   2.0000      -8.059818      -219.3188
  79   2.0000      -8.050533      -219.0661
  80   2.0000      -6.051313      -164.6646
  81   2.0000      -6.048065      -164.5762
  82   2.0000      -6.046671      -164.5383
  83   2.0000      -6.044525      -164.4799
  84   2.0000      -6.043501      -164.4520
  85   2.0000      -6.041319      -164.3926
  86   2.0000      -6.033183      -164.1712
  87   2.0000      -6.029124      -164.0608
  88   2.0000      -6.029073      -164.0594
  89   2.0000      -6.025994      -163.9756
  90   2.0000      -6.025045      -163.9498
  91   2.0000      -6.021842      -163.8626
  92   2.0000      -6.020026      -163.8132
  93   2.0000      -6.015666      -163.6946
  94   2.0000      -6.012542      -163.6096
  95   2.0000      -1.145914       -31.1819
  96   2.0000      -1.143867       -31.1262
  97   2.0000      -1.143439       -31.1145
  98   2.0000      -1.142869       -31.0990
  99   2.0000      -1.140970       -31.0474
 100   2.0000      -1.134978       -30.8843
 101   2.0000      -1.130869       -30.7725
 102   2.0000      -1.125196       -30.6181
 103   2.0000      -1.028534       -27.9878
 104   2.0000      -1.025208       -27.8973
 105   2.0000      -1.011230       -27.5170
 106   2.0000      -1.005895       -27.3718
 107   2.0000      -1.005110       -27.3504
 108   2.0000      -0.999492       -27.1976
 109   2.0000      -0.991883       -26.9905
 110   2.0000      -0.989915       -26.9370
 111   2.0000      -0.980158       -26.6714
 112   2.0000      -0.961390       -26.1608
 113   2.0000      -0.956625       -26.0311
 114   2.0000      -0.944733       -25.7075
 115   2.0000      -0.943754       -25.6808
 116   2.0000      -0.941570       -25.6214
 117   2.0000      -0.908377       -24.7182
 118   2.0000      -0.903087       -24.5743
 119   2.0000      -0.896610       -24.3980
 120   2.0000      -0.886585       -24.1252
 121   2.0000      -0.876650       -23.8549
 122   2.0000      -0.870287       -23.6817
 123   2.0000      -0.863647       -23.5010
 124   2.0000      -0.854153       -23.2427
 125   2.0000      -0.851949       -23.1827
 126   2.0000      -0.849561       -23.1177
 127   2.0000      -0.843786       -22.9606
 128   2.0000      -0.839603       -22.8467
 129   2.0000      -0.836376       -22.7589
 130   2.0000      -0.829445       -22.5704
 131   2.0000      -0.816063       -22.2062
 132   2.0000      -0.815063       -22.1790
 133   2.0000      -0.810701       -22.0603
 134   2.0000      -0.793774       -21.5997
 135   2.0000      -0.785028       -21.3617
 136   2.0000      -0.780849       -21.2480
 137   2.0000      -0.775771       -21.1098
 138   2.0000      -0.773064       -21.0362
 139   2.0000      -0.770348       -20.9622
 140   2.0000      -0.766615       -20.8607
 141   2.0000      -0.763934       -20.7877
 142   2.0000      -0.761252       -20.7147
 143   2.0000      -0.751448       -20.4479
 144   2.0000      -0.739956       -20.1352
 145   2.0000      -0.715893       -19.4804
 146   2.0000      -0.705217       -19.1899
 147   2.0000      -0.698270       -19.0009
 148   2.0000      -0.694488       -18.8980
 149   2.0000      -0.690984       -18.8026
 150   2.0000      -0.685963       -18.6660
 151   2.0000      -0.672735       -18.3060
 152   2.0000      -0.668960       -18.2033
 153   2.0000      -0.667155       -18.1542
 154   2.0000      -0.665690       -18.1143
 155   2.0000      -0.661760       -18.0074
 156   2.0000      -0.660378       -17.9698
 157   2.0000      -0.655481       -17.8366
 158   2.0000      -0.644863       -17.5476
 159   2.0000      -0.633286       -17.2326
 160   2.0000      -0.631739       -17.1905
 161   2.0000      -0.627226       -17.0677
 162   2.0000      -0.624251       -16.9867
 163   2.0000      -0.621020       -16.8988
 164   2.0000      -0.618081       -16.8188
 165   2.0000      -0.614139       -16.7116
 166   2.0000      -0.600782       -16.3481
 167   2.0000      -0.597829       -16.2678
 168   2.0000      -0.593946       -16.1621
 169   2.0000      -0.585264       -15.9259
 170   2.0000      -0.582565       -15.8524
 171   2.0000      -0.581728       -15.8296
 172   2.0000      -0.581547       -15.8247
 173   2.0000      -0.570787       -15.5319
 174   2.0000      -0.568823       -15.4785
 175   2.0000      -0.566750       -15.4220
 176   2.0000      -0.565544       -15.3892
 177   2.0000      -0.564530       -15.3616
 178   2.0000      -0.563136       -15.3237
 179   2.0000      -0.562590       -15.3088
 180   2.0000      -0.558847       -15.2070
 181   2.0000      -0.556403       -15.1405
 182   2.0000      -0.552606       -15.0372
 183   2.0000      -0.550051       -14.9677
 184   2.0000      -0.548886       -14.9359
 185   2.0000      -0.548491       -14.9252
 186   2.0000      -0.545354       -14.8398
 187   2.0000      -0.540676       -14.7125
 188   2.0000      -0.539919       -14.6919
 189   2.0000      -0.538898       -14.6641
 190   2.0000      -0.537056       -14.6140
 191   2.0000      -0.533262       -14.5108
 192   2.0000      -0.527687       -14.3591
 193   2.0000      -0.525011       -14.2863
 194   2.0000      -0.520634       -14.1672
 195   2.0000      -0.517048       -14.0696
 196   2.0000      -0.514349       -13.9962
 197   2.0000      -0.512866       -13.9558
 198   2.0000      -0.511028       -13.9058
 199   2.0000      -0.506702       -13.7881
 200   2.0000      -0.504333       -13.7236
 201   2.0000      -0.501642       -13.6504
 202   2.0000      -0.501516       -13.6469
 203   2.0000      -0.497191       -13.5293
 204   2.0000      -0.493840       -13.4381
 205   2.0000      -0.491782       -13.3821
 206   2.0000      -0.491196       -13.3661
 207   2.0000      -0.490162       -13.3380
 208   2.0000      -0.487425       -13.2635
 209   2.0000      -0.481872       -13.1124
 210   2.0000      -0.478992       -13.0340
 211   2.0000      -0.478337       -13.0162
 212   2.0000      -0.477148       -12.9839
 213   2.0000      -0.476122       -12.9559
 214   2.0000      -0.473392       -12.8816
 215   2.0000      -0.470951       -12.8152
 216   2.0000      -0.468950       -12.7608
 217   2.0000      -0.465854       -12.6765
 218   2.0000      -0.464619       -12.6429
 219   2.0000      -0.462770       -12.5926
 220   2.0000      -0.461821       -12.5668
 221   2.0000      -0.459410       -12.5012
 222   2.0000      -0.456983       -12.4351
 223   2.0000      -0.455597       -12.3974
 224   2.0000      -0.454270       -12.3613
 225   2.0000      -0.451500       -12.2859
 226   2.0000      -0.449518       -12.2320
 227   2.0000      -0.449105       -12.2208
 228   2.0000      -0.448686       -12.2094
 229   2.0000      -0.447180       -12.1684
 230   2.0000      -0.445877       -12.1329
 231   2.0000      -0.443701       -12.0737
 232   2.0000      -0.440735       -11.9930
 233   2.0000      -0.439496       -11.9593
 234   2.0000      -0.438461       -11.9311
 235   2.0000      -0.433364       -11.7924
 236   2.0000      -0.426755       -11.6126
 237   2.0000      -0.426640       -11.6095
 238   2.0000      -0.424612       -11.5543
 239   2.0000      -0.422659       -11.5011
 240   2.0000      -0.421616       -11.4727
 241   2.0000      -0.418378       -11.3846
 242   2.0000      -0.417711       -11.3665
 243   2.0000      -0.416097       -11.3226
 244   2.0000      -0.414033       -11.2664
 245   2.0000      -0.410456       -11.1691
 246   2.0000      -0.409152       -11.1336
 247   2.0000      -0.408445       -11.1144
 248   2.0000      -0.405532       -11.0351
 249   2.0000      -0.404607       -11.0099
 250   2.0000      -0.403336       -10.9753
 251   2.0000      -0.402268       -10.9463
 252   2.0000      -0.401102       -10.9145
 253   2.0000      -0.395367       -10.7585
 254   2.0000      -0.390210       -10.6182
 255   2.0000      -0.386846       -10.5266
 256   2.0000      -0.381769       -10.3885
 257   2.0000      -0.376448       -10.2437
 258   2.0000      -0.363617        -9.8945
 259   2.0000      -0.360560        -9.8113
 260   2.0000      -0.345544        -9.4027
 261   2.0000      -0.342335        -9.3154
 262   2.0000      -0.339374        -9.2348
 263   2.0000      -0.334210        -9.0943
 264   2.0000      -0.332801        -9.0560
 265   2.0000      -0.329627        -8.9696
 266   2.0000      -0.327614        -8.9148
 267   2.0000      -0.322376        -8.7723
 268   2.0000      -0.306930        -8.3520
 269   2.0000      -0.302736        -8.2379
 270   2.0000      -0.294530        -8.0146
 271   2.0000      -0.292620        -7.9626
 272   2.0000      -0.287825        -7.8321
 273   2.0000      -0.282604        -7.6901
 274   2.0000      -0.279703        -7.6111
 275   2.0000      -0.278103        -7.5676
 276   2.0000      -0.268630        -7.3098
 277   2.0000      -0.243984        -6.6391
 278   0.0000      -0.091638        -2.4936
 279   0.0000      -0.082639        -2.2487
 280   0.0000      -0.063169        -1.7189
 281   0.0000      -0.052376        -1.4252
 282   0.0000      -0.019891        -0.5413

MULLIKEN ATOMIC CHARGES
-----------------------
   0 C :    0.175936
   1 O :   -0.306757
   2 C :    0.259513
   3 C :   -0.145500
   4 C :    0.254701
   5 O :   -0.311022
   6 C :    0.178952
   7 C :   -0.147405
   8 C :    0.055099
   9 C :    0.208321
  10 C :   -0.053701
  11 C :   -0.038417
  12 C :   -0.057673
  13 S :    0.143172
  14 C :   -0.124130
  15 C :   -0.070482
  16 S :    0.155281
  17 C :   -0.089968
  18 C :    0.058311
  19 C :   -0.142334
  20 C :    0.150502
  21 O :   -0.137852
  22 C :    0.020138
  23 C :    0.015398
  24 C :   -0.053841
  25 S :    0.215424
  26 C :   -0.168078
  27 C :    0.214258
  28 C :   -0.314365
  29 C :   -0.202456
  30 N :    0.177338
  31 C :   -0.195464
  32 N :    0.160685
  33 C :    0.014703
  34 C :    0.119365
  35 C :   -0.009044
  36 C :   -0.088699
  37 C :    0.233855
  38 O :   -0.322989
  39 C :    0.166992
  40 C :   -0.071367
  41 C :    0.252407
  42 O :   -0.309922
  43 C :    0.176295
  44 C :   -0.122267
  45 C :    0.039613
  46 C :    0.055097
  47 C :   -0.003050
  48 C :   -0.105773
  49 C :    0.257555
  50 O :   -0.310610
  51 C :    0.177542
  52 C :   -0.156330
  53 C :    0.261414
  54 O :   -0.307755
  55 C :    0.179148
  56 C :   -0.043988
  57 S :    0.127209
  58 C :   -0.186538
  59 C :    0.045432
  60 C :   -0.152974
  61 C :    0.151102
  62 O :   -0.136762
  63 C :    0.021384
  64 C :    0.011180
  65 C :   -0.055640
  66 S :    0.214358
  67 C :   -0.175625
  68 C :    0.241083
  69 C :   -0.342199
  70 C :   -0.189555
  71 N :    0.172096
  72 C :   -0.155499
  73 N :    0.135982
  74 C :   -0.075741
  75 H :    0.023660
  76 H :    0.024094
  77 H :    0.039152
  78 H :   -0.032193
  79 H :    0.025048
  80 H :    0.021022
  81 H :    0.035849
  82 H :   -0.040084
  83 H :   -0.011929
  84 H :    0.026581
  85 H :    0.007958
  86 H :    0.041917
  87 H :   -0.008424
  88 H :   -0.023343
  89 H :    0.049039
  90 H :    0.027089
  91 H :    0.025466
  92 H :   -0.023803
  93 H :    0.037591
  94 H :    0.019683
  95 H :    0.027498
  96 H :   -0.034732
  97 H :    0.004122
  98 H :   -0.053009
  99 H :    0.024249
 100 H :    0.036613
 101 H :    0.018464
 102 H :   -0.034848
 103 H :    0.035811
 104 H :    0.020972
 105 H :    0.022966
 106 H :   -0.025112
 107 H :    0.041707
 108 H :    0.004775
 109 H :    0.040402
 110 H :   -0.009320
Sum of atomic charges:   -0.0000000

LOEWDIN ATOMIC CHARGES
----------------------
   0 C :    0.076862
   1 O :   -0.099322
   2 C :    0.066770
   3 C :   -0.096236
   4 C :    0.070395
   5 O :   -0.103957
   6 C :    0.076514
   7 C :   -0.096478
   8 C :   -0.004792
   9 C :   -0.001209
  10 C :   -0.058904
  11 C :   -0.153026
  12 C :   -0.182870
  13 S :    0.443168
  14 C :   -0.189858
  15 C :   -0.159516
  16 S :    0.471238
  17 C :   -0.185431
  18 C :    0.049485
  19 C :   -0.098266
  20 C :    0.082712
  21 O :   -0.138515
  22 C :   -0.071436
  23 C :   -0.035952
  24 C :   -0.154940
  25 S :    0.505156
  26 C :   -0.173610
  27 C :    0.047341
  28 C :   -0.145071
  29 C :   -0.038097
  30 N :   -0.045695
  31 C :   -0.033936
  32 N :   -0.046005
  33 C :   -0.003463
  34 C :   -0.044285
  35 C :   -0.009318
  36 C :   -0.084187
  37 C :    0.060330
  38 O :   -0.100198
  39 C :    0.074425
  40 C :   -0.073534
  41 C :    0.065812
  42 O :   -0.102718
  43 C :    0.075994
  44 C :   -0.093248
  45 C :   -0.022054
  46 C :   -0.039038
  47 C :   -0.029646
  48 C :   -0.092939
  49 C :    0.071173
  50 O :   -0.099420
  51 C :    0.074215
  52 C :   -0.098586
  53 C :    0.062245
  54 O :   -0.101472
  55 C :    0.076103
  56 C :   -0.073480
  57 S :    0.514688
  58 C :   -0.191330
  59 C :    0.052745
  60 C :   -0.105647
  61 C :    0.081767
  62 O :   -0.138855
  63 C :   -0.070917
  64 C :   -0.037296
  65 C :   -0.157363
  66 S :    0.503116
  67 C :   -0.173907
  68 C :    0.049230
  69 C :   -0.154430
  70 C :   -0.034576
  71 N :   -0.053366
  72 C :   -0.017298
  73 N :   -0.056145
  74 C :   -0.054101
  75 H :    0.015739
  76 H :    0.015799
  77 H :    0.029451
  78 H :    0.031404
  79 H :    0.015863
  80 H :    0.014563
  81 H :    0.028616
  82 H :    0.024544
  83 H :    0.026523
  84 H :    0.051976
  85 H :    0.042813
  86 H :    0.029955
  87 H :    0.037181
  88 H :    0.028908
  89 H :    0.030566
  90 H :    0.013033
  91 H :    0.016057
  92 H :    0.034815
  93 H :    0.029083
  94 H :    0.014212
  95 H :    0.016721
  96 H :    0.027356
  97 H :    0.040904
  98 H :    0.029378
  99 H :    0.026145
 100 H :    0.014317
 101 H :    0.013105
 102 H :    0.030159
 103 H :    0.028255
 104 H :    0.014335
 105 H :    0.015552
 106 H :    0.029509
 107 H :    0.052185
 108 H :    0.041759
 109 H :    0.029025
 110 H :    0.034649

  Mayer bond orders larger than 0.100000
B(  0-C ,  1-O ) :   0.9658 B(  0-C , 75-H ) :   0.9696 B(  0-C , 76-H ) :   0.9693
B(  0-C , 77-H ) :   0.9792 B(  1-O ,  2-C ) :   1.1539 B(  2-C ,  3-C ) :   1.3224
B(  2-C , 74-C ) :   1.2992 B(  3-C ,  4-C ) :   1.3064 B(  3-C , 78-H ) :   1.0061
B(  4-C ,  5-O ) :   1.1498 B(  4-C ,  7-C ) :   1.3298 B(  5-O ,  6-C ) :   0.9673
B(  6-C , 79-H ) :   0.9695 B(  6-C , 80-H ) :   0.9694 B(  6-C , 81-H ) :   0.9788
B(  7-C ,  8-C ) :   1.2889 B(  7-C , 82-H ) :   0.9992 B(  8-C ,  9-C ) :   0.9974
B(  8-C , 74-C ) :   1.3875 B(  9-C , 10-C ) :   1.2811 B(  9-C , 58-C ) :   1.4217
B( 10-C , 11-C ) :   1.4589 B( 10-C , 83-H ) :   0.9894 B( 11-C , 12-C ) :   1.1372
B( 11-C , 57-S ) :   1.1527 B( 12-C , 13-S ) :   1.1165 B( 12-C , 14-C ) :   0.1042
B( 12-C , 46-C ) :   1.4903 B( 13-S , 14-C ) :   1.1253 B( 14-C , 15-C ) :   1.0764
B( 14-C , 45-C ) :   1.4990 B( 15-C , 16-S ) :   1.1489 B( 15-C , 34-C ) :   1.4995
B( 16-S , 17-C ) :   1.1052 B( 17-C , 18-C ) :   1.1224 B( 17-C , 33-C ) :   1.4262
B( 18-C , 19-C ) :   1.6779 B( 18-C , 84-H ) :   0.9478 B( 19-C , 20-C ) :   0.9315
B( 19-C , 27-C ) :   1.0281 B( 20-C , 21-O ) :   2.2662 B( 20-C , 22-C ) :   0.9409
B( 22-C , 23-C ) :   1.2743 B( 22-C , 26-C ) :   1.4437 B( 23-C , 24-C ) :   1.5514
B( 23-C , 85-H ) :   1.0071 B( 24-C , 25-S ) :   1.1647 B( 24-C , 86-H ) :   0.9681
B( 25-S , 26-C ) :   1.1558 B( 26-C , 27-C ) :   1.0911 B( 27-C , 28-C ) :   1.6551
B( 28-C , 29-C ) :   1.1526 B( 28-C , 31-C ) :   1.1331 B( 29-C , 30-N ) :   3.0282
B( 31-C , 32-N ) :   3.0125 B( 33-C , 34-C ) :   1.2927 B( 33-C , 87-H ) :   1.0070
B( 34-C , 35-C ) :   0.9505 B( 35-C , 36-C ) :   1.3573 B( 35-C , 44-C ) :   1.3711
B( 36-C , 37-C ) :   1.3120 B( 36-C , 88-H ) :   0.9944 B( 37-C , 38-O ) :   1.1216
B( 37-C , 40-C ) :   1.3491 B( 38-O , 39-C ) :   0.9473 B( 39-C , 89-H ) :   0.9735
B( 39-C , 90-H ) :   0.9635 B( 39-C , 91-H ) :   0.9704 B( 40-C , 41-C ) :   1.3568
B( 40-C , 92-H ) :   1.0082 B( 41-C , 42-O ) :   1.1438 B( 41-C , 44-C ) :   1.2647
B( 42-O , 43-C ) :   0.9681 B( 43-C , 93-H ) :   0.9790 B( 43-C , 94-H ) :   0.9694
B( 43-C , 95-H ) :   0.9695 B( 44-C , 96-H ) :   1.0006 B( 45-C , 46-C ) :   1.2975
B( 45-C , 97-H ) :   0.9975 B( 46-C , 47-C ) :   0.9593 B( 47-C , 48-C ) :   1.3171
B( 47-C , 56-C ) :   1.3694 B( 48-C , 49-C ) :   1.3184 B( 48-C , 98-H ) :   1.0043
B( 49-C , 50-O ) :   1.1733 B( 49-C , 52-C ) :   1.2952 B( 50-O , 51-C ) :   0.9452
B( 51-C , 99-H ) :   0.9745 B( 51-C ,100-H ) :   0.9592 B( 51-C ,101-H ) :   0.9650
B( 52-C , 53-C ) :   1.3179 B( 52-C ,102-H ) :   1.0076 B( 53-C , 54-O ) :   1.1470
B( 53-C , 56-C ) :   1.3090 B( 54-O , 55-C ) :   0.9688 B( 55-C ,103-H ) :   0.9795
B( 55-C ,104-H ) :   0.9689 B( 55-C ,105-H ) :   0.9694 B( 56-C ,106-H ) :   1.0154
B( 57-S , 58-C ) :   1.0985 B( 58-C , 59-C ) :   1.1251 B( 59-C , 60-C ) :   1.6485
B( 59-C ,107-H ) :   0.9487 B( 60-C , 61-C ) :   0.9351 B( 60-C , 68-C ) :   1.0426
B( 61-C , 62-O ) :   2.2743 B( 61-C , 63-C ) :   0.9321 B( 63-C , 64-C ) :   1.2736
B( 63-C , 67-C ) :   1.4457 B( 64-C , 65-C ) :   1.5521 B( 64-C ,108-H ) :   1.0060
B( 65-C , 66-S ) :   1.1643 B( 65-C ,109-H ) :   0.9686 B( 66-S , 67-C ) :   1.1531
B( 67-C , 68-C ) :   1.0906 B( 68-C , 69-C ) :   1.6250 B( 69-C , 70-C ) :   1.1629
B( 69-C , 72-C ) :   1.1655 B( 70-C , 71-N ) :   2.9824 B( 72-C , 73-N ) :   2.8916
B( 74-C ,110-H ) :   1.0010

-----------------------------------------------------------------------------
         ABSORPTION SPECTRUM VIA TRANSITION ELECTRIC DIPOLE MOMENTS
-----------------------------------------------------------------------------
State   Energy  Wavelength   fosc         T2         TX        TY        TZ
        (cm-1)    (nm)                  (au**2)     (au)      (au)      (au)
-----------------------------------------------------------------------------
   0   16895.8    591.9   0.685362230  13.35418  -1.89621   3.01440  -0.81973
   1   19162.7    521.8   0.054439522   0.93526   0.67144  -0.67797   0.15742
   2   21800.4    458.7   0.006169881   0.09317  -0.15050   0.12580   0.23387
   3   23697.4    422.0   0.398688974   5.53871   1.79169  -1.37970  -0.65189
   4   25212.4    396.6   0.051299904   0.66985   0.28939   0.07741   0.76165
   5   25590.5    390.8   0.032107060   0.41304   0.58235   0.22859   0.14718
   6   26009.9    384.5   0.014233377   0.18015  -0.17343   0.11418  -0.37019
   7   26445.1    378.1   0.046404215   0.57768  -0.53903   0.47884   0.24050
   8   26869.2    372.2   0.121575369   1.48959   0.45222  -0.32448   1.08619
   9   27198.3    367.7   0.008018230   0.09705   0.11479   0.16637  -0.23706
  10   27619.3    362.1   0.065390019   0.77943   0.79893  -0.32893   0.18151
  11   28312.7    353.2   0.086440925   1.00511  -0.74838   0.64497   0.17041
  12   28624.4    349.4   0.187005453   2.15077   0.62439   0.86643  -1.00509
  13   30070.7    332.5   0.131343462   1.43794  -1.05661   0.27029  -0.49846
  14   30151.1    331.7   0.081538536   0.89030  -0.85700   0.17142  -0.35563
  15   30321.0    329.8   0.130011710   1.41161   0.97234  -0.47638   0.48911
  16   30419.0    328.7   0.009284225   0.10048   0.27981  -0.14760   0.02001
  17   30509.4    327.8   0.048057976   0.51857  -0.48559   0.21598   0.48593
  18   31106.7    321.5   0.012012504   0.12713   0.35408  -0.01681  -0.03840
  19   31226.2    320.2   0.028776662   0.30339   0.31624  -0.12448   0.43345
  20   31652.0    315.9   0.117050814   1.21744  -0.22576  -0.16642   1.06714
  21   31878.9    313.7   0.016944371   0.17498  -0.32625   0.20153  -0.16712
  22   32105.1    311.5   0.157540179   1.61545  -0.84328   0.29870   0.90283
  23   32744.9    305.4   0.032177695   0.32351   0.54012   0.17609  -0.02774
  24   32828.5    304.6   0.327396888   3.28321   0.81254  -0.25320   1.59965
  25   33064.3    302.4   0.083278901   0.82919  -0.72896   0.38606  -0.38569
  26   33074.8    302.3   0.025626597   0.25508   0.10592  -0.37937   0.31613
  27   33467.1    298.8   0.031367797   0.30856  -0.02748  -0.06276  -0.55124
  28   33894.1    295.0   0.023360935   0.22690   0.26824   0.09440   0.38215
  29   34121.0    293.1   0.027859114   0.26879  -0.31558   0.28535  -0.29627
  30   34419.0    290.5   0.058359721   0.55820  -0.45182   0.01404  -0.59486
  31   34640.7    288.7   0.420849641   3.99959  -1.70339   0.36686  -0.98156
  32   34677.6    288.4   0.030082582   0.28559   0.07600  -0.46071  -0.25992
  33   34746.6    287.8   0.063746966   0.60398   0.62034  -0.30921   0.35150
  34   35123.7    284.7   0.044586605   0.41791  -0.52551   0.34061  -0.16041
  35   35681.7    280.3   0.093686529   0.86438   0.67194  -0.44250   0.46591
  36   35845.8    279.0   0.033018058   0.30324  -0.10489   0.32783  -0.42985
  37   36037.1    277.5   0.061234279   0.55940  -0.08090   0.04129   0.74239
  38   36316.9    275.4   0.041923385   0.38003   0.42110   0.10048  -0.43888
  39   36726.7    272.3   0.064639635   0.57942  -0.47123  -0.57589  -0.16035
  40   37063.6    269.8   0.047042164   0.41784   0.35185  -0.12485   0.52770
  41   37183.3    268.9   0.170388958   1.50858   0.31555  -0.63349   1.00384
  42   37667.0    265.5   0.038152394   0.33345   0.08514  -0.01424   0.57097
  43   37784.4    264.7   0.023930706   0.20851   0.28818  -0.32089   0.14995
  44   37990.4    263.2   0.163727428   1.41881   1.15259   0.19844  -0.22577
  45   38127.0    262.3   0.097086028   0.83830  -0.77114  -0.00538   0.49358
  46   38406.5    260.4   0.003978269   0.03410  -0.17513  -0.02827   0.05131
  47   38513.6    259.6   0.076388956   0.65297   0.05487  -0.29267   0.75120
  48   39058.1    256.0   0.063770666   0.53751   0.28476   0.19374  -0.64721
  49   39483.4    253.3   0.065408866   0.54538   0.02533  -0.31001   0.66980
  50   39587.0    252.6   0.034410753   0.28617   0.05263   0.33482  -0.41388
  51   39719.6    251.8   0.042808752   0.35482   0.10070  -0.04805   0.58512
  52   40154.3    249.0   0.027513538   0.22557  -0.20431   0.39873   0.15762

FINAL SINGLE POINT ENERGY     -5039.009009578607

DIPOLE MOMENT
-------------
                                X             Y             Z
Electronic contribution:    -16.31813      25.31498     -13.64001
Nuclear contribution   :     16.73051     -25.67477      12.94472
                        -----------------------------------------
Total Dipole Moment    :      0.41238      -0.35979      -0.69529
                        -----------------------------------------
Magnitude (a.u.)       :      0.88484
Magnitude (Debye)      :      2.24908

Rotational constants in cm-1:     0.001060     0.000517     0.000394
Rotational constants in MHz :    31.789797    15.495705    11.806205

                             ****ORCA TERMINATED NORMALLY****
TOTAL RUN TIME: 0 days 0 hours 11 minutes 46 seconds 918 msec
