                         Program Version 4.2.0 -  RELEASE  -
|  1> # ORCA input file
|  2> # SCF done       -192.011693754941          0.000790107772
|  3> ! CAM-B3LYP def2-SVP def2/J RIJCOSX Grid4 TightSCF
|  4> %maxcore 5000
|  5> %tddft
|  6>     Mode sTDDFT
|  7>     Ethresh 5.0
|  8>     maxcore 5000
|  9> end
| 10>
| 11> %pal
| 12>   nprocs 6
| 13>   end
| 14> * xyz 0 1
| 15>    C       -2.79358         1.13047         3.09522
| 16>    N       -3.86209         0.48233         3.43879
| 17>    N       -4.05401        -0.79756         3.15051
| 18>    C       -3.18015        -1.51160         2.50687
| 19>    C       -1.96278        -0.91673         2.07434
| 20>    C       -1.75931         0.47298         2.38149
| 21>    N       -0.58036         0.80797         1.89015
| 22>    O       -0.09466        -0.28473         1.32519
| 23>    N       -0.89900        -1.33943         1.41827
| 24>    C       -3.44541        -2.95641         2.19822
| 25>    C       -4.72389        -3.45949         2.87298
| 26>    N       -3.68837        -3.02876         0.73552
| 27>    N       -3.20242        -3.80799        -0.02870
| 28>    C       -2.24538        -4.89101         0.29356
| 29>    C       -1.66910        -4.67934         1.64542
| 30>    C       -2.24966        -3.75459         2.55951
| 31>    N       -1.50636        -3.72995         3.62903
| 32>    O       -0.51169        -4.60010         3.41136
| 33>    N       -0.60219        -5.17262         2.20729
| 34>    C       -1.14034        -4.88144        -0.76669
| 35>    C       -3.09151        -6.13392         0.27552
| 36>    C       -3.90138        -6.66264        -0.70824
| 37>    C       -4.04065        -6.15841        -2.08236
| 38>    O       -3.52645        -5.15357        -2.51605
| 39>    C       -4.87581        -7.03465        -2.94126
| 40>    C       -5.67089        -8.09659        -2.43766
| 41>    C       -6.37292        -8.73233        -3.43101
| 42>    S       -6.07106        -8.06949        -4.98778
| 43>    C       -5.00467        -6.90822        -4.30455
| 44>    C       -4.31984        -5.92503        -5.20450
| 45>    F       -4.71534        -4.66745        -5.00027
| 46>    F       -2.98911        -5.96075        -5.08291
| 47>    F       -4.58719        -6.19982        -6.49431
| 48>    C       -7.31210        -9.88986        -3.28450
| 49>    F       -6.77534       -10.91407        -2.62001
| 50>    F       -8.44696        -9.55264        -2.66333
| 51>    F       -7.67120       -10.36446        -4.49158
| 52>    C       -5.70676        -8.44070        -1.00126
| 53>    O       -6.58116        -9.11683        -0.50606
| 54>    C       -4.61487        -7.81762        -0.25101
| 55>    C       -4.30539        -8.17313         1.04531
| 56>    S       -3.18292        -7.05347         1.74048
| 57>    C       -4.74024        -9.33409         1.77263
| 58>    C       -5.01015        -9.33168         3.12646
| 59>    C       -5.48478       -10.45822         3.80773
| 60>    C       -5.71014       -11.67924         3.19533
| 61>    C       -5.37244       -11.74335         1.81303
| 62>    C       -4.88796       -10.58195         1.11374
| 63>    N       -4.59502       -10.95751        -0.11590
| 64>    O       -4.88497       -12.25062        -0.18530
| 65>    N       -5.35373       -12.74312         0.95391
| 66>    C       -6.23772       -12.81408         3.88502
| 67>    C       -6.56685       -14.03242         3.35841
| 68>    C       -7.08723       -14.94024         4.30743
| 69>    C       -7.13041       -14.37973         5.60949
| 70>    S       -6.55214       -12.74124         5.60949
| 71>    C       -7.59385       -15.08936         6.70050
| 72>    S       -7.65156       -14.39779         8.33575
| 73>    C       -5.87369       -14.15679         8.65123
| 74>    C       -8.07988       -16.38076         6.46966
| 75>    C       -8.06128       -16.94320         5.16640
| 76>    C       -7.55217       -16.25119         4.07554
| 77>    S       -7.49270       -16.79658         2.40392
| 78>    C       -7.34556       -18.60540         2.48167
| 79>    S       -8.78287       -18.53650         5.19319
| 80>    C       -9.06984       -18.42586         6.89094
| 81>    C       -8.65510       -17.26187         7.42825
| 82>    H       -2.73027         2.17065         3.37316
| 83>    H       -5.56387        -2.86905         2.52047
| 84>    H       -4.63105        -3.33749         3.94819
| 85>    H       -4.88819        -4.50876         2.63448
| 86>    H       -0.54402        -3.98023        -0.64710
| 87>    H       -1.58065        -4.88203        -1.75821
| 88>    H       -0.50306        -5.75073        -0.63060
| 89>    H       -4.88529        -8.41177         3.67957
| 90>    H       -5.70387       -10.36198         4.86112
| 91>    H       -6.44434       -14.26377         2.31599
| 92>    H       -5.79954       -13.81245         9.67738
| 93>    H       -5.46834       -13.40966         7.97622
| 94>    H       -5.36028       -15.10689         8.53519
| 95>    H       -6.93910       -18.89521         1.51707
| 96>    H       -8.31656       -19.06749         2.62695
| 97>    H       -6.65765       -18.88204         3.27286
| 98>    H       -9.53945       -19.25475         7.38326
| 99>    H       -8.75080       -17.00184         8.46634
|100> *
|101>
|102>                          ****END OF INPUT****

CARTESIAN COORDINATES (ANGSTROEM)
---------------------------------
  C     -2.793580    1.130470    3.095220
  N     -3.862090    0.482330    3.438790
  N     -4.054010   -0.797560    3.150510
  C     -3.180150   -1.511600    2.506870
  C     -1.962780   -0.916730    2.074340
  C     -1.759310    0.472980    2.381490
  N     -0.580360    0.807970    1.890150
  O     -0.094660   -0.284730    1.325190
  N     -0.899000   -1.339430    1.418270
  C     -3.445410   -2.956410    2.198220
  C     -4.723890   -3.459490    2.872980
  N     -3.688370   -3.028760    0.735520
  N     -3.202420   -3.807990   -0.028700
  C     -2.245380   -4.891010    0.293560
  C     -1.669100   -4.679340    1.645420
  C     -2.249660   -3.754590    2.559510
  N     -1.506360   -3.729950    3.629030
  O     -0.511690   -4.600100    3.411360
  N     -0.602190   -5.172620    2.207290
  C     -1.140340   -4.881440   -0.766690
  C     -3.091510   -6.133920    0.275520
  C     -3.901380   -6.662640   -0.708240
  C     -4.040650   -6.158410   -2.082360
  O     -3.526450   -5.153570   -2.516050
  C     -4.875810   -7.034650   -2.941260
  C     -5.670890   -8.096590   -2.437660
  C     -6.372920   -8.732330   -3.431010
  S     -6.071060   -8.069490   -4.987780
  C     -5.004670   -6.908220   -4.304550
  C     -4.319840   -5.925030   -5.204500
  F     -4.715340   -4.667450   -5.000270
  F     -2.989110   -5.960750   -5.082910
  F     -4.587190   -6.199820   -6.494310
  C     -7.312100   -9.889860   -3.284500
  F     -6.775340  -10.914070   -2.620010
  F     -8.446960   -9.552640   -2.663330
  F     -7.671200  -10.364460   -4.491580
  C     -5.706760   -8.440700   -1.001260
  O     -6.581160   -9.116830   -0.506060
  C     -4.614870   -7.817620   -0.251010
  C     -4.305390   -8.173130    1.045310
  S     -3.182920   -7.053470    1.740480
  C     -4.740240   -9.334090    1.772630
  C     -5.010150   -9.331680    3.126460
  C     -5.484780  -10.458220    3.807730
  C     -5.710140  -11.679240    3.195330
  C     -5.372440  -11.743350    1.813030
  C     -4.887960  -10.581950    1.113740
  N     -4.595020  -10.957510   -0.115900
  O     -4.884970  -12.250620   -0.185300
  N     -5.353730  -12.743120    0.953910
  C     -6.237720  -12.814080    3.885020
  C     -6.566850  -14.032420    3.358410
  C     -7.087230  -14.940240    4.307430
  C     -7.130410  -14.379730    5.609490
  S     -6.552140  -12.741240    5.609490
  C     -7.593850  -15.089360    6.700500
  S     -7.651560  -14.397790    8.335750
  C     -5.873690  -14.156790    8.651230
  C     -8.079880  -16.380760    6.469660
  C     -8.061280  -16.943200    5.166400
  C     -7.552170  -16.251190    4.075540
  S     -7.492700  -16.796580    2.403920
  C     -7.345560  -18.605400    2.481670
  S     -8.782870  -18.536500    5.193190
  C     -9.069840  -18.425860    6.890940
  C     -8.655100  -17.261870    7.428250
  H     -2.730270    2.170650    3.373160
  H     -5.563870   -2.869050    2.520470
  H     -4.631050   -3.337490    3.948190
  H     -4.888190   -4.508760    2.634480
  H     -0.544020   -3.980230   -0.647100
  H     -1.580650   -4.882030   -1.758210
  H     -0.503060   -5.750730   -0.630600
  H     -4.885290   -8.411770    3.679570
  H     -5.703870  -10.361980    4.861120
  H     -6.444340  -14.263770    2.315990
  H     -5.799540  -13.812450    9.677380
  H     -5.468340  -13.409660    7.976220
  H     -5.360280  -15.106890    8.535190
  H     -6.939100  -18.895210    1.517070
  H     -8.316560  -19.067490    2.626950
  H     -6.657650  -18.882040    3.272860
  H     -9.539450  -19.254750    7.383260
  H     -8.750800  -17.001840    8.466340

 Total Charge           Charge          ....    0
 Multiplicity           Mult            ....    1
 Number of Electrons    NEL             ....  518
 Basis Dimension        Dim             .... 1052

ORBITAL ENERGIES
----------------

  NO   OCC          E(Eh)            E(eV)
   0   2.0000     -89.009687     -2422.0767
   1   2.0000     -88.997685     -2421.7501
   2   2.0000     -88.954843     -2420.5843
   3   2.0000     -88.952149     -2420.5110
   4   2.0000     -88.929530     -2419.8955
   5   2.0000     -88.921353     -2419.6730
   6   2.0000     -24.807043      -675.0340
   7   2.0000     -24.805617      -674.9952
   8   2.0000     -24.800205      -674.8479
   9   2.0000     -24.798631      -674.8051
  10   2.0000     -24.798359      -674.7976
  11   2.0000     -24.796696      -674.7524
  12   2.0000     -19.391742      -527.6761
  13   2.0000     -19.358310      -526.7664
  14   2.0000     -19.356524      -526.7178
  15   2.0000     -19.227233      -523.1996
  16   2.0000     -19.224181      -523.1166
  17   2.0000     -14.516177      -395.0053
  18   2.0000     -14.515271      -394.9806
  19   2.0000     -14.494854      -394.4250
  20   2.0000     -14.493951      -394.4005
  21   2.0000     -14.483044      -394.1037
  22   2.0000     -14.481368      -394.0580
  23   2.0000     -14.480929      -394.0461
  24   2.0000     -14.479558      -394.0088
  25   2.0000     -14.467713      -393.6865
  26   2.0000     -14.464795      -393.6071
  27   2.0000     -10.532016      -286.5907
  28   2.0000     -10.530440      -286.5478
  29   2.0000     -10.388072      -282.6738
  30   2.0000     -10.383191      -282.5410
  31   2.0000     -10.365224      -282.0521
  32   2.0000     -10.357768      -281.8492
  33   2.0000     -10.356061      -281.8027
  34   2.0000     -10.355626      -281.7909
  35   2.0000     -10.355004      -281.7740
  36   2.0000     -10.354014      -281.7471
  37   2.0000     -10.346443      -281.5410
  38   2.0000     -10.346168      -281.5336
  39   2.0000     -10.344790      -281.4960
  40   2.0000     -10.340223      -281.3718
  41   2.0000     -10.340105      -281.3686
  42   2.0000     -10.338938      -281.3368
  43   2.0000     -10.329102      -281.0691
  44   2.0000     -10.328206      -281.0448
  45   2.0000     -10.321068      -280.8505
  46   2.0000     -10.319535      -280.8088
  47   2.0000     -10.319247      -280.8010
  48   2.0000     -10.318075      -280.7691
  49   2.0000     -10.315106      -280.6883
  50   2.0000     -10.313911      -280.6558
  51   2.0000     -10.310823      -280.5718
  52   2.0000     -10.310585      -280.5653
  53   2.0000     -10.308069      -280.4968
  54   2.0000     -10.307414      -280.4790
  55   2.0000     -10.306151      -280.4446
  56   2.0000     -10.301870      -280.3281
  57   2.0000     -10.300456      -280.2897
  58   2.0000     -10.299428      -280.2617
  59   2.0000     -10.294691      -280.1328
  60   2.0000     -10.288954      -279.9767
  61   2.0000     -10.288248      -279.9575
  62   2.0000     -10.287117      -279.9267
  63   2.0000     -10.284911      -279.8667
  64   2.0000     -10.279825      -279.7283
  65   2.0000     -10.272554      -279.5304
  66   2.0000     -10.270585      -279.4768
  67   2.0000      -8.104629      -220.5382
  68   2.0000      -8.092349      -220.2040
  69   2.0000      -8.050151      -219.0558
  70   2.0000      -8.047926      -218.9952
  71   2.0000      -8.024862      -218.3676
  72   2.0000      -8.016253      -218.1333
  73   2.0000      -6.073732      -165.2747
  74   2.0000      -6.069291      -165.1538
  75   2.0000      -6.067329      -165.1004
  76   2.0000      -6.061412      -164.9394
  77   2.0000      -6.057158      -164.8237
  78   2.0000      -6.055049      -164.7662
  79   2.0000      -6.019794      -163.8069
  80   2.0000      -6.017703      -163.7500
  81   2.0000      -6.015727      -163.6962
  82   2.0000      -6.013177      -163.6269
  83   2.0000      -6.011471      -163.5804
  84   2.0000      -6.009361      -163.5230
  85   2.0000      -5.995414      -163.1435
  86   2.0000      -5.991052      -163.0248
  87   2.0000      -5.986876      -162.9112
  88   2.0000      -5.984503      -162.8466
  89   2.0000      -5.982887      -162.8026
  90   2.0000      -5.975579      -162.6038
  91   2.0000      -1.394793       -37.9542
  92   2.0000      -1.393104       -37.9083
  93   2.0000      -1.345999       -36.6265
  94   2.0000      -1.314752       -35.7762
  95   2.0000      -1.313346       -35.7380
  96   2.0000      -1.296866       -35.2895
  97   2.0000      -1.295569       -35.2542
  98   2.0000      -1.294258       -35.2185
  99   2.0000      -1.292139       -35.1609
 100   2.0000      -1.170202       -31.8428
 101   2.0000      -1.149037       -31.2669
 102   2.0000      -1.144602       -31.1462
 103   2.0000      -1.144118       -31.1330
 104   2.0000      -1.047264       -28.4975
 105   2.0000      -1.034387       -28.1471
 106   2.0000      -1.031673       -28.0732
 107   2.0000      -1.023701       -27.8563
 108   2.0000      -1.016533       -27.6613
 109   2.0000      -1.009953       -27.4822
 110   2.0000      -1.005502       -27.3611
 111   2.0000      -1.001973       -27.2651
 112   2.0000      -0.996115       -27.1057
 113   2.0000      -0.977553       -26.6006
 114   2.0000      -0.975553       -26.5462
 115   2.0000      -0.941837       -25.6287
 116   2.0000      -0.930244       -25.3132
 117   2.0000      -0.927441       -25.2370
 118   2.0000      -0.921265       -25.0689
 119   2.0000      -0.916387       -24.9362
 120   2.0000      -0.903267       -24.5792
 121   2.0000      -0.901695       -24.5364
 122   2.0000      -0.887065       -24.1383
 123   2.0000      -0.867735       -23.6123
 124   2.0000      -0.865966       -23.5641
 125   2.0000      -0.846959       -23.0469
 126   2.0000      -0.840159       -22.8619
 127   2.0000      -0.835772       -22.7425
 128   2.0000      -0.832518       -22.6540
 129   2.0000      -0.819499       -22.2997
 130   2.0000      -0.809342       -22.0233
 131   2.0000      -0.809071       -22.0159
 132   2.0000      -0.792143       -21.5553
 133   2.0000      -0.788877       -21.4664
 134   2.0000      -0.783104       -21.3093
 135   2.0000      -0.779534       -21.2122
 136   2.0000      -0.775302       -21.0971
 137   2.0000      -0.771720       -20.9996
 138   2.0000      -0.757980       -20.6257
 139   2.0000      -0.753687       -20.5089
 140   2.0000      -0.748301       -20.3623
 141   2.0000      -0.747002       -20.3270
 142   2.0000      -0.739686       -20.1279
 143   2.0000      -0.727338       -19.7919
 144   2.0000      -0.718455       -19.5502
 145   2.0000      -0.712507       -19.3883
 146   2.0000      -0.705209       -19.1897
 147   2.0000      -0.699954       -19.0467
 148   2.0000      -0.688691       -18.7402
 149   2.0000      -0.676728       -18.4147
 150   2.0000      -0.676323       -18.4037
 151   2.0000      -0.675210       -18.3734
 152   2.0000      -0.674447       -18.3526
 153   2.0000      -0.673008       -18.3135
 154   2.0000      -0.670797       -18.2533
 155   2.0000      -0.663214       -18.0470
 156   2.0000      -0.658225       -17.9112
 157   2.0000      -0.653851       -17.7922
 158   2.0000      -0.646807       -17.6005
 159   2.0000      -0.639899       -17.4125
 160   2.0000      -0.636835       -17.3292
 161   2.0000      -0.635434       -17.2910
 162   2.0000      -0.631080       -17.1726
 163   2.0000      -0.629572       -17.1315
 164   2.0000      -0.627390       -17.0721
 165   2.0000      -0.616294       -16.7702
 166   2.0000      -0.614112       -16.7108
 167   2.0000      -0.610463       -16.6115
 168   2.0000      -0.601915       -16.3789
 169   2.0000      -0.599935       -16.3251
 170   2.0000      -0.598850       -16.2955
 171   2.0000      -0.587849       -15.9962
 172   2.0000      -0.584187       -15.8965
 173   2.0000      -0.570316       -15.5191
 174   2.0000      -0.567041       -15.4300
 175   2.0000      -0.561373       -15.2757
 176   2.0000      -0.553234       -15.0543
 177   2.0000      -0.552118       -15.0239
 178   2.0000      -0.550611       -14.9829
 179   2.0000      -0.549606       -14.9555
 180   2.0000      -0.547486       -14.8978
 181   2.0000      -0.546408       -14.8685
 182   2.0000      -0.545134       -14.8338
 183   2.0000      -0.544017       -14.8034
 184   2.0000      -0.539775       -14.6880
 185   2.0000      -0.535416       -14.5694
 186   2.0000      -0.532961       -14.5026
 187   2.0000      -0.530655       -14.4399
 188   2.0000      -0.526928       -14.3384
 189   2.0000      -0.524505       -14.2725
 190   2.0000      -0.522464       -14.2170
 191   2.0000      -0.521758       -14.1978
 192   2.0000      -0.516337       -14.0502
 193   2.0000      -0.514758       -14.0073
 194   2.0000      -0.514239       -13.9932
 195   2.0000      -0.511877       -13.9289
 196   2.0000      -0.511012       -13.9053
 197   2.0000      -0.508004       -13.8235
 198   2.0000      -0.506224       -13.7751
 199   2.0000      -0.505736       -13.7618
 200   2.0000      -0.504189       -13.7197
 201   2.0000      -0.499765       -13.5993
 202   2.0000      -0.497178       -13.5289
 203   2.0000      -0.494193       -13.4477
 204   2.0000      -0.490914       -13.3584
 205   2.0000      -0.489033       -13.3073
 206   2.0000      -0.487739       -13.2720
 207   2.0000      -0.485947       -13.2233
 208   2.0000      -0.484454       -13.1827
 209   2.0000      -0.483603       -13.1595
 210   2.0000      -0.482743       -13.1361
 211   2.0000      -0.479120       -13.0375
 212   2.0000      -0.474674       -12.9165
 213   2.0000      -0.472717       -12.8633
 214   2.0000      -0.471903       -12.8411
 215   2.0000      -0.468805       -12.7568
 216   2.0000      -0.468607       -12.7515
 217   2.0000      -0.464639       -12.6435
 218   2.0000      -0.463549       -12.6138
 219   2.0000      -0.461252       -12.5513
 220   2.0000      -0.457342       -12.4449
 221   2.0000      -0.457075       -12.4376
 222   2.0000      -0.452380       -12.3099
 223   2.0000      -0.447956       -12.1895
 224   2.0000      -0.444575       -12.0975
 225   2.0000      -0.444303       -12.0901
 226   2.0000      -0.441016       -12.0006
 227   2.0000      -0.428755       -11.6670
 228   2.0000      -0.425225       -11.5710
 229   2.0000      -0.424807       -11.5596
 230   2.0000      -0.423867       -11.5340
 231   2.0000      -0.421251       -11.4628
 232   2.0000      -0.415093       -11.2953
 233   2.0000      -0.410754       -11.1772
 234   2.0000      -0.408386       -11.1127
 235   2.0000      -0.407441       -11.0870
 236   2.0000      -0.405145       -11.0245
 237   2.0000      -0.398509       -10.8440
 238   2.0000      -0.394704       -10.7404
 239   2.0000      -0.391915       -10.6645
 240   2.0000      -0.385250       -10.4832
 241   2.0000      -0.379858       -10.3365
 242   2.0000      -0.373114       -10.1529
 243   2.0000      -0.371883       -10.1194
 244   2.0000      -0.366853        -9.9826
 245   2.0000      -0.362915        -9.8754
 246   2.0000      -0.355086        -9.6624
 247   2.0000      -0.353050        -9.6070
 248   2.0000      -0.351760        -9.5719
 249   2.0000      -0.347549        -9.4573
 250   2.0000      -0.344869        -9.3844
 251   2.0000      -0.330295        -8.9878
 252   2.0000      -0.328261        -8.9324
 253   2.0000      -0.315950        -8.5974
 254   2.0000      -0.309001        -8.4083
 255   2.0000      -0.299332        -8.1452
 256   2.0000      -0.297111        -8.0848
 257   2.0000      -0.277218        -7.5435
 258   2.0000      -0.247091        -6.7237
 259   0.0000      -0.092825        -2.5259
 260   0.0000      -0.089881        -2.4458
 261   0.0000      -0.070710        -1.9241
 262   0.0000      -0.055941        -1.5222
 263   0.0000      -0.024700        -0.6721

MULLIKEN ATOMIC CHARGES
-----------------------
   0 C :    0.000762
   1 N :   -0.029742
   2 N :   -0.033676
   3 C :   -0.004171
   4 C :   -0.033070
   5 C :    0.005781
   6 N :    0.087762
   7 O :   -0.076657
   8 N :    0.058323
   9 C :   -0.138866
  10 C :    0.199153
  11 N :   -0.083143
  12 N :   -0.051027
  13 C :    0.029839
  14 C :   -0.197456
  15 C :   -0.060684
  16 N :    0.061340
  17 O :   -0.118743
  18 N :    0.073760
  19 C :    0.124148
  20 C :   -0.211895
  21 C :    0.053349
  22 C :    0.130115
  23 O :   -0.120264
  24 C :    0.058710
  25 C :    0.071194
  26 C :   -0.333413
  27 S :    0.281501
  28 C :   -0.338899
  29 C :    0.568840
  30 F :   -0.140892
  31 F :   -0.149215
  32 F :   -0.166694
  33 C :    0.564477
  34 F :   -0.141478
  35 F :   -0.145238
  36 F :   -0.166975
  37 C :    0.109084
  38 O :   -0.138444
  39 C :    0.041415
  40 C :   -0.157541
  41 S :    0.196798
  42 C :    0.084590
  43 C :   -0.025446
  44 C :   -0.072132
  45 C :    0.164400
  46 C :   -0.046172
  47 C :   -0.017216
  48 N :    0.053140
  49 O :   -0.084552
  50 N :    0.049987
  51 C :   -0.090722
  52 C :   -0.066244
  53 C :    0.076798
  54 C :   -0.045663
  55 S :    0.101598
  56 C :   -0.151939
  57 S :   -0.032129
  58 C :   -0.084565
  59 C :    0.081291
  60 C :   -0.109473
  61 C :   -0.062628
  62 S :   -0.014365
  63 C :   -0.093835
  64 S :    0.075098
  65 C :   -0.033257
  66 C :    0.003215
  67 H :    0.024302
  68 H :    0.045138
  69 H :    0.035559
  70 H :    0.005166
  71 H :    0.027396
  72 H :    0.059358
  73 H :    0.031982
  74 H :   -0.010458
  75 H :    0.001715
  76 H :    0.016978
  77 H :    0.056287
  78 H :    0.061443
  79 H :    0.063112
  80 H :    0.067238
  81 H :    0.079175
  82 H :    0.071536
  83 H :    0.031341
  84 H :   -0.005215
Sum of atomic charges:   -0.0000000

LOEWDIN ATOMIC CHARGES
----------------------
   0 C :    0.033454
   1 N :   -0.028353
   2 N :   -0.025594
   3 C :    0.015235
   4 C :   -0.064346
   5 C :   -0.073894
   6 N :    0.005343
   7 O :    0.102327
   8 N :   -0.011189
   9 C :   -0.042868
  10 C :   -0.019398
  11 N :   -0.010624
  12 N :    0.014785
  13 C :   -0.042765
  14 C :   -0.089906
  15 C :   -0.070895
  16 N :   -0.011713
  17 O :    0.056025
  18 N :   -0.003855
  19 C :   -0.027263
  20 C :   -0.129345
  21 C :   -0.084315
  22 C :    0.081132
  23 O :   -0.103901
  24 C :   -0.066491
  25 C :   -0.062264
  26 C :   -0.206320
  27 S :    0.560290
  28 C :   -0.205549
  29 C :    0.144323
  30 F :   -0.041312
  31 F :   -0.047192
  32 F :   -0.067175
  33 C :    0.145741
  34 F :   -0.040118
  35 F :   -0.046153
  36 F :   -0.067525
  37 C :    0.077894
  38 O :   -0.121731
  39 C :   -0.084157
  40 C :   -0.127028
  41 S :    0.510566
  42 C :   -0.053419
  43 C :    0.006015
  44 C :   -0.023961
  45 C :   -0.015341
  46 C :   -0.042159
  47 C :   -0.040693
  48 N :   -0.021750
  49 O :    0.087364
  50 N :   -0.016321
  51 C :   -0.161615
  52 C :   -0.027209
  53 C :   -0.071091
  54 C :   -0.157306
  55 S :    0.410467
  56 C :   -0.192387
  57 S :    0.260948
  58 C :   -0.154498
  59 C :   -0.047381
  60 C :   -0.182447
  61 C :   -0.160175
  62 S :    0.305789
  63 C :   -0.165792
  64 S :    0.409264
  65 C :   -0.158004
  66 C :   -0.062498
  67 H :    0.042014
  68 H :    0.042201
  69 H :    0.041589
  70 H :    0.021662
  71 H :    0.035505
  72 H :    0.036242
  73 H :    0.035281
  74 H :    0.032819
  75 H :    0.030084
  76 H :    0.030188
  77 H :    0.029738
  78 H :    0.009778
  79 H :    0.026511
  80 H :    0.035901
  81 H :    0.017388
  82 H :    0.028154
  83 H :    0.027015
  84 H :    0.028257

  Mayer bond orders larger than 0.100000
B(  0-C ,  1-N ) :   1.7962 B(  0-C ,  3-C ) :   0.1022 B(  0-C ,  5-C ) :   1.0771
B(  0-C , 67-H ) :   1.0166 B(  1-N ,  2-N ) :   1.1264 B(  2-N ,  3-C ) :   1.8679
B(  3-C ,  4-C ) :   1.0786 B(  3-C ,  9-C ) :   0.9390 B(  4-C ,  5-C ) :   1.1975
B(  4-C ,  8-N ) :   1.5812 B(  5-C ,  6-N ) :   1.5927 B(  6-N ,  7-O ) :   1.0984
B(  6-N ,  8-N ) :   0.1884 B(  7-O ,  8-N ) :   1.0730 B(  9-C , 10-C ) :   1.1029
B(  9-C , 11-N ) :   0.9664 B(  9-C , 15-C ) :   0.9164 B( 10-C , 68-H ) :   0.9342
B( 10-C , 69-H ) :   0.9461 B( 10-C , 70-H ) :   0.9405 B( 11-N , 12-N ) :   1.8603
B( 12-N , 13-C ) :   0.9521 B( 13-C , 14-C ) :   0.9106 B( 13-C , 19-C ) :   1.0609
B( 13-C , 20-C ) :   0.9272 B( 14-C , 15-C ) :   1.1832 B( 14-C , 18-N ) :   1.7220
B( 15-C , 16-N ) :   1.7433 B( 16-N , 17-O ) :   1.0462 B( 16-N , 18-N ) :   0.1502
B( 17-O , 18-N ) :   1.0497 B( 19-C , 71-H ) :   0.9464 B( 19-C , 72-H ) :   0.9422
B( 19-C , 73-H ) :   0.9545 B( 20-C , 21-C ) :   1.5825 B( 20-C , 41-S ) :   1.1914
B( 21-C , 22-C ) :   0.9479 B( 21-C , 39-C ) :   1.1921 B( 22-C , 23-O ) :   2.1671
B( 22-C , 24-C ) :   0.9506 B( 24-C , 25-C ) :   1.2411 B( 24-C , 28-C ) :   1.5737
B( 25-C , 26-C ) :   1.5837 B( 25-C , 37-C ) :   0.9224 B( 26-C , 27-S ) :   1.1848
B( 26-C , 33-C ) :   0.9300 B( 27-S , 28-C ) :   1.1926 B( 28-C , 29-C ) :   0.9315
B( 29-C , 30-F ) :   1.1916 B( 29-C , 31-F ) :   1.1790 B( 29-C , 32-F ) :   1.1488
B( 33-C , 34-F ) :   1.1868 B( 33-C , 35-F ) :   1.1884 B( 33-C , 36-F ) :   1.1496
B( 37-C , 38-O ) :   2.2087 B( 37-C , 39-C ) :   0.9684 B( 39-C , 40-C ) :   1.5524
B( 40-C , 41-S ) :   1.1587 B( 40-C , 42-C ) :   1.0329 B( 42-C , 43-C ) :   1.4951
B( 42-C , 45-C ) :   0.1100 B( 42-C , 47-C ) :   1.1686 B( 43-C , 44-C ) :   1.2133
B( 43-C , 74-H ) :   0.9913 B( 44-C , 45-C ) :   1.4842 B( 44-C , 75-H ) :   0.9871
B( 45-C , 46-C ) :   1.1359 B( 45-C , 51-C ) :   1.1282 B( 46-C , 47-C ) :   1.1599
B( 46-C , 50-N ) :   1.5967 B( 47-C , 48-N ) :   1.5994 B( 48-N , 49-O ) :   1.0748
B( 48-N , 50-N ) :   0.1820 B( 49-O , 50-N ) :   1.0711 B( 51-C , 52-C ) :   1.5927
B( 51-C , 55-S ) :   1.0497 B( 52-C , 53-C ) :   1.1526 B( 52-C , 76-H ) :   0.9738
B( 53-C , 54-C ) :   1.3143 B( 53-C , 61-C ) :   1.3611 B( 54-C , 55-S ) :   1.0626
B( 54-C , 56-C ) :   1.4159 B( 56-C , 57-S ) :   1.0436 B( 56-C , 59-C ) :   1.3894
B( 57-S , 58-C ) :   0.9981 B( 58-C , 77-H ) :   0.9721 B( 58-C , 78-H ) :   0.9660
B( 58-C , 79-H ) :   0.9705 B( 59-C , 60-C ) :   1.3106 B( 59-C , 66-C ) :   1.1907
B( 60-C , 61-C ) :   1.4302 B( 60-C , 64-S ) :   1.0449 B( 61-C , 62-S ) :   1.0405
B( 62-S , 63-C ) :   0.9988 B( 63-C , 80-H ) :   0.9682 B( 63-C , 81-H ) :   0.9621
B( 63-C , 82-H ) :   0.9702 B( 64-S , 65-C ) :   1.1104 B( 65-C , 66-C ) :   1.6365
B( 65-C , 83-H ) :   0.9674 B( 66-C , 84-H ) :   0.9901

-----------------------------------------------------------------------------
         ABSORPTION SPECTRUM VIA TRANSITION ELECTRIC DIPOLE MOMENTS
-----------------------------------------------------------------------------
State   Energy  Wavelength   fosc         T2         TX        TY        TZ
        (cm-1)    (nm)                  (au**2)     (au)      (au)      (au)
-----------------------------------------------------------------------------
   0   19011.9    526.0   0.549455638   9.51441   0.99142   2.69432  -1.12789
   1   21951.9    455.5   0.024726524   0.37082  -0.02799  -0.54001  -0.28004
   2   22950.0    435.7   0.001689820   0.02424   0.01441   0.14996   0.03929
   3   24140.9    414.2   0.512333803   6.98674  -0.58740  -1.75071   1.89122
   4   25548.3    391.4   0.004542170   0.05853   0.07588  -0.05852  -0.22214
   5   26254.9    380.9   0.005267431   0.06605  -0.14630  -0.20986   0.02452
   6   27497.7    363.7   0.066606631   0.79744  -0.56340  -0.69116   0.04810
   7   28326.7    353.0   0.028039511   0.32587  -0.23368  -0.45311   0.25682
   8   28542.7    350.4   0.041476408   0.47839  -0.43671  -0.53129   0.07354
   9   29809.6    335.5   0.009216872   0.10179   0.04321  -0.03982   0.31359
  10   30293.9    330.1   0.007552814   0.08208  -0.00701  -0.23770  -0.15978
  11   30736.3    325.3   0.018685715   0.20014  -0.14243  -0.42324  -0.02681
  12   31297.6    319.5   0.009645458   0.10146  -0.13892  -0.26141  -0.11757
  13   31514.1    317.3   0.001834274   0.01916  -0.02434  -0.12849  -0.04539
  14   31864.5    313.8   0.087787228   0.90698   0.09285   0.94781  -0.00305
  15   32144.4    311.1   0.025859834   0.26485   0.04678   0.28522   0.42580
  16   32980.1    303.2   0.081323443   0.81178   0.44162   0.71223   0.33087
  17   33553.7    298.0   0.116173241   1.13983  -0.44436  -0.90367  -0.35462
  18   33763.9    296.2   0.117466031   1.14534   0.39434   0.99332  -0.05610
  19   34862.8    286.8   0.004803054   0.04536   0.04814  -0.20572  -0.02681
  20   36143.6    276.7   0.014895307   0.13567   0.06754  -0.12251  -0.34074
  21   36414.5    274.6   0.048842600   0.44157  -0.26086  -0.59036  -0.15811
  22   36797.5    271.8   0.120086351   1.07436  -0.21529  -0.47923   0.89351
  23   37407.2    267.3   0.003296440   0.02901  -0.16029  -0.02315   0.05275
  24   37786.4    264.6   0.041299125   0.35982  -0.26770  -0.14728   0.51620
  25   38013.9    263.1   0.022879638   0.19814  -0.32018  -0.29303   0.09882
  26   38326.6    260.9   0.006449616   0.05540  -0.13069  -0.17671   0.08423
  27   38439.8    260.1   0.072921576   0.62453   0.40120   0.49265  -0.46996
  28   38585.4    259.2   0.112896236   0.96323  -0.19326  -0.12164   0.95451
  29   38836.7    257.5   0.043140127   0.36569   0.05761   0.00509  -0.60195
  30   39079.7    255.9   0.007429851   0.06259   0.13995  -0.07637  -0.19280
  31   39179.9    255.2   0.013599677   0.11427   0.18155   0.01687  -0.28466
  32   39842.5    251.0   0.108936728   0.90013   0.49182   0.60855  -0.53656
  33   40045.4    249.7   0.019541864   0.16065  -0.08535  -0.16021   0.35735
  34   40232.7    248.6   0.087565316   0.71652   0.03987  -0.14272   0.83340

FINAL SINGLE POINT ENERGY     -5442.266793387582

DIPOLE MOMENT
-------------
                                X             Y             Z
Electronic contribution:     -1.23283      33.09820     -73.34697
Nuclear contribution   :      1.51715     -34.20550      74.95585
                        -----------------------------------------
Total Dipole Moment    :      0.28432      -1.10731       1.60888
                        -----------------------------------------
Magnitude (a.u.)       :      1.97370
Magnitude (Debye)      :      5.01674

Rotational constants in cm-1:     0.001347     0.000445     0.000352
Rotational constants in MHz :    40.376094    13.339830    10.538503

                             ****ORCA TERMINATED NORMALLY****
TOTAL RUN TIME: 0 days 0 hours 15 minutes 34 seconds 418 msec
