                         Program Version 4.2.0 -  RELEASE  -
|  1> # ORCA input file
|  2> # SCF done       -177.601014541508          0.000311061512
|  3> ! CAM-B3LYP def2-SVP def2/J RIJCOSX Grid4 TightSCF
|  4> %maxcore 5000
|  5> %tddft
|  6>     Mode sTDDFT
|  7>     Ethresh 5.0
|  8>     maxcore 5000
|  9> end
| 10>
| 11> %pal
| 12>   nprocs 6
| 13>   end
| 14> * xyz 0 1
| 15>    C        2.12135         0.92964        -0.17077
| 16>    C        1.84746         0.73244         1.14366
| 17>    C        1.27291        -0.53470         1.40605
| 18>    C        1.00530        -0.98956         2.77365
| 19>    C        0.36128        -0.15581         3.67055
| 20>    C        0.13938        -0.57359         4.98443
| 21>    C        0.56789        -1.82712         5.38702
| 22>    C        1.22601        -2.66534         4.48310
| 23>    C        1.45294        -2.24751         3.18362
| 24>    O        1.60139        -3.87540         4.98694
| 25>    C        2.24413        -4.78525         4.12840
| 26>    O       -0.50522         0.31864         5.78507
| 27>    C       -0.74729        -0.03552         7.12488
| 28>    C        1.10880        -1.28164         0.25471
| 29>    S        1.71447        -0.43085        -1.13498
| 30>    C        0.45637        -2.55387         0.07590
| 31>    C       -0.51314        -3.03702         0.93990
| 32>    C       -1.14306        -4.26057         0.73997
| 33>    C       -0.86255        -5.07955        -0.34485
| 34>    C        0.13887        -4.61336        -1.24620
| 35>    C        0.77345        -3.36167        -1.05062
| 36>    N        1.69486        -2.93513        -1.93055
| 37>    C        2.00347        -3.67611        -2.96153
| 38>    C        1.37697        -4.94090        -3.15281
| 39>    N        0.47671        -5.36465        -2.30576
| 40>    C        1.70936        -5.82324        -4.30780
| 41>    C        3.02355        -3.14836        -3.91257
| 42>    C       -1.50782        -6.34338        -0.59888
| 43>    C       -2.73243        -6.84257        -0.16693
| 44>    C       -3.79057        -6.11543         0.61077
| 45>    C       -4.33007        -4.90686        -0.15446
| 46>    C       -2.96432        -8.14307        -0.62671
| 47>    C       -1.94527        -8.67458        -1.39037
| 48>    S       -0.68082        -7.49773        -1.60216
| 49>    C       -1.91319        -9.96791        -1.96843
| 50>    C       -0.86756       -10.45653        -2.67687
| 51>    C       -0.75602       -11.75614        -3.26170
| 52>    C        0.47684       -12.14743        -3.78693
| 53>    C        0.71219       -13.39845        -4.32585
| 54>    C       -0.29224       -14.36238        -4.39507
| 55>    C       -1.59088       -13.98269        -3.91374
| 56>    C       -1.82545       -12.70345        -3.35089
| 57>    N       -3.06340       -12.38712        -2.92446
| 58>    C       -4.03107       -13.26193        -3.03184
| 59>    C       -3.79258       -14.54788        -3.59055
| 60>    N       -2.59582       -14.87053        -4.00766
| 61>    C       -4.86601       -15.56999        -3.73725
| 62>    C       -5.38557       -12.85534        -2.55363
| 63>    C       -0.18532       -15.68683        -4.90389
| 64>    C        0.84347       -16.45398        -5.37755
| 65>    C        0.64086       -17.82720        -5.82607
| 66>    C       -0.54877       -18.49896        -5.95390
| 67>    C       -0.65600       -19.83111        -6.40784
| 68>    N       -0.82849       -20.90889        -6.76579
| 69>    C       -1.84923       -18.02105        -5.68474
| 70>    N       -2.96125       -17.78024        -5.51883
| 71>    C        1.94458       -18.39490        -6.14959
| 72>    C        2.92919       -17.39885        -5.95093
| 73>    C        2.28942       -16.15305        -5.48949
| 74>    O        2.88129       -15.11591        -5.26208
| 75>    C        4.26759       -17.62075        -6.16738
| 76>    C        4.65680       -18.89179        -6.59935
| 77>    C        3.66690       -19.88335        -6.79443
| 78>    C        2.31311       -19.65717        -6.57735
| 79>    S        4.37224       -21.37873        -7.32597
| 80>    C        5.95285       -20.67657        -7.28229
| 81>    C        5.96063       -19.38419        -6.89007
| 82>    H        2.56665         1.79043        -0.62927
| 83>    H        2.05998         1.44692         1.91868
| 84>    H        0.00649         0.81677         3.37030
| 85>    H        0.41850        -2.19726         6.38732
| 86>    H        1.97054        -2.86996         2.47228
| 87>    H        2.42539        -5.67715         4.72626
| 88>    H        3.19995        -4.39168         3.76788
| 89>    H        1.61313        -5.04459         3.27157
| 90>    H       -1.25643         0.81884         7.56823
| 91>    H        0.18593        -0.22196         7.66576
| 92>    H       -1.39085        -0.91812         7.19721
| 93>    H       -0.80135        -2.44369         1.79355
| 94>    H       -1.86226        -4.57413         1.47670
| 95>    H        1.49031        -5.31680        -5.24671
| 96>    H        1.12031        -6.73341        -4.24293
| 97>    H        2.76886        -6.07461        -4.30107
| 98>    H        3.88268        -3.81618        -3.95752
| 99>    H        3.34570        -2.16578        -3.58035
|100>    H        2.60390        -3.07237        -4.91445
|101>    H       -3.41573        -5.80406         1.58769
|102>    H       -4.61141        -6.81244         0.79326
|103>    H       -3.54182        -4.18360        -0.34764
|104>    H       -5.11526        -4.41916         0.41861
|105>    H       -4.74442        -5.22490        -1.10852
|106>    H       -3.86307        -8.69154        -0.40185
|107>    H       -2.78150       -10.59125        -1.81240
|108>    H        0.00339        -9.82091        -2.79629
|109>    H        1.29362       -11.44019        -3.75135
|110>    H        1.69709       -13.63544        -4.69265
|111>    H       -5.69691       -15.16774        -4.31457
|112>    H       -5.24657       -15.86241        -2.75932
|113>    H       -4.45833       -16.44039        -4.24417
|114>    H       -6.10359       -12.90239        -3.37109
|115>    H       -5.34849       -11.84004        -2.16900
|116>    H       -5.72720       -13.52814        -1.76832
|117>    H       -1.15223       -16.17840        -4.87662
|118>    H        4.99042       -16.83610        -6.00538
|119>    H        1.60266       -20.44977        -6.73977
|120>    H        6.79142       -21.28624        -7.55775
|121>    H        6.85004       -18.78645        -6.80369
|122> *
|123>
|124>                          ****END OF INPUT****

CARTESIAN COORDINATES (ANGSTROEM)
---------------------------------
  C      2.121350    0.929640   -0.170770
  C      1.847460    0.732440    1.143660
  C      1.272910   -0.534700    1.406050
  C      1.005300   -0.989560    2.773650
  C      0.361280   -0.155810    3.670550
  C      0.139380   -0.573590    4.984430
  C      0.567890   -1.827120    5.387020
  C      1.226010   -2.665340    4.483100
  C      1.452940   -2.247510    3.183620
  O      1.601390   -3.875400    4.986940
  C      2.244130   -4.785250    4.128400
  O     -0.505220    0.318640    5.785070
  C     -0.747290   -0.035520    7.124880
  C      1.108800   -1.281640    0.254710
  S      1.714470   -0.430850   -1.134980
  C      0.456370   -2.553870    0.075900
  C     -0.513140   -3.037020    0.939900
  C     -1.143060   -4.260570    0.739970
  C     -0.862550   -5.079550   -0.344850
  C      0.138870   -4.613360   -1.246200
  C      0.773450   -3.361670   -1.050620
  N      1.694860   -2.935130   -1.930550
  C      2.003470   -3.676110   -2.961530
  C      1.376970   -4.940900   -3.152810
  N      0.476710   -5.364650   -2.305760
  C      1.709360   -5.823240   -4.307800
  C      3.023550   -3.148360   -3.912570
  C     -1.507820   -6.343380   -0.598880
  C     -2.732430   -6.842570   -0.166930
  C     -3.790570   -6.115430    0.610770
  C     -4.330070   -4.906860   -0.154460
  C     -2.964320   -8.143070   -0.626710
  C     -1.945270   -8.674580   -1.390370
  S     -0.680820   -7.497730   -1.602160
  C     -1.913190   -9.967910   -1.968430
  C     -0.867560  -10.456530   -2.676870
  C     -0.756020  -11.756140   -3.261700
  C      0.476840  -12.147430   -3.786930
  C      0.712190  -13.398450   -4.325850
  C     -0.292240  -14.362380   -4.395070
  C     -1.590880  -13.982690   -3.913740
  C     -1.825450  -12.703450   -3.350890
  N     -3.063400  -12.387120   -2.924460
  C     -4.031070  -13.261930   -3.031840
  C     -3.792580  -14.547880   -3.590550
  N     -2.595820  -14.870530   -4.007660
  C     -4.866010  -15.569990   -3.737250
  C     -5.385570  -12.855340   -2.553630
  C     -0.185320  -15.686830   -4.903890
  C      0.843470  -16.453980   -5.377550
  C      0.640860  -17.827200   -5.826070
  C     -0.548770  -18.498960   -5.953900
  C     -0.656000  -19.831110   -6.407840
  N     -0.828490  -20.908890   -6.765790
  C     -1.849230  -18.021050   -5.684740
  N     -2.961250  -17.780240   -5.518830
  C      1.944580  -18.394900   -6.149590
  C      2.929190  -17.398850   -5.950930
  C      2.289420  -16.153050   -5.489490
  O      2.881290  -15.115910   -5.262080
  C      4.267590  -17.620750   -6.167380
  C      4.656800  -18.891790   -6.599350
  C      3.666900  -19.883350   -6.794430
  C      2.313110  -19.657170   -6.577350
  S      4.372240  -21.378730   -7.325970
  C      5.952850  -20.676570   -7.282290
  C      5.960630  -19.384190   -6.890070
  H      2.566650    1.790430   -0.629270
  H      2.059980    1.446920    1.918680
  H      0.006490    0.816770    3.370300
  H      0.418500   -2.197260    6.387320
  H      1.970540   -2.869960    2.472280
  H      2.425390   -5.677150    4.726260
  H      3.199950   -4.391680    3.767880
  H      1.613130   -5.044590    3.271570
  H     -1.256430    0.818840    7.568230
  H      0.185930   -0.221960    7.665760
  H     -1.390850   -0.918120    7.197210
  H     -0.801350   -2.443690    1.793550
  H     -1.862260   -4.574130    1.476700
  H      1.490310   -5.316800   -5.246710
  H      1.120310   -6.733410   -4.242930
  H      2.768860   -6.074610   -4.301070
  H      3.882680   -3.816180   -3.957520
  H      3.345700   -2.165780   -3.580350
  H      2.603900   -3.072370   -4.914450
  H     -3.415730   -5.804060    1.587690
  H     -4.611410   -6.812440    0.793260
  H     -3.541820   -4.183600   -0.347640
  H     -5.115260   -4.419160    0.418610
  H     -4.744420   -5.224900   -1.108520
  H     -3.863070   -8.691540   -0.401850
  H     -2.781500  -10.591250   -1.812400
  H      0.003390   -9.820910   -2.796290
  H      1.293620  -11.440190   -3.751350
  H      1.697090  -13.635440   -4.692650
  H     -5.696910  -15.167740   -4.314570
  H     -5.246570  -15.862410   -2.759320
  H     -4.458330  -16.440390   -4.244170
  H     -6.103590  -12.902390   -3.371090
  H     -5.348490  -11.840040   -2.169000
  H     -5.727200  -13.528140   -1.768320
  H     -1.152230  -16.178400   -4.876620
  H      4.990420  -16.836100   -6.005380
  H      1.602660  -20.449770   -6.739770
  H      6.791420  -21.286240   -7.557750
  H      6.850040  -18.786450   -6.803690

 Total Charge           Charge          ....    0
 Multiplicity           Mult            ....    1
 Number of Electrons    NEL             ....  484
 Basis Dimension        Dim             .... 1150

ORBITAL ENERGIES
----------------

  NO   OCC          E(Eh)            E(eV)
   0   2.0000     -88.959142     -2420.7013
   1   2.0000     -88.936747     -2420.0919
   2   2.0000     -88.936743     -2420.0918
   3   2.0000     -19.234930      -523.4091
   4   2.0000     -19.234271      -523.3911
   5   2.0000     -19.207540      -522.6637
   6   2.0000     -14.416481      -392.2924
   7   2.0000     -14.415910      -392.2769
   8   2.0000     -14.413109      -392.2006
   9   2.0000     -14.409777      -392.1100
  10   2.0000     -14.405278      -391.9876
  11   2.0000     -14.402902      -391.9229
  12   2.0000     -10.358197      -281.8609
  13   2.0000     -10.329405      -281.0774
  14   2.0000     -10.328440      -281.0511
  15   2.0000     -10.322319      -280.8846
  16   2.0000     -10.322310      -280.8843
  17   2.0000     -10.322249      -280.8827
  18   2.0000     -10.321484      -280.8619
  19   2.0000     -10.316405      -280.7237
  20   2.0000     -10.315880      -280.7094
  21   2.0000     -10.314922      -280.6833
  22   2.0000     -10.313530      -280.6454
  23   2.0000     -10.312120      -280.6070
  24   2.0000     -10.310890      -280.5736
  25   2.0000     -10.309486      -280.5354
  26   2.0000     -10.308736      -280.5150
  27   2.0000     -10.308562      -280.5102
  28   2.0000     -10.308166      -280.4995
  29   2.0000     -10.307367      -280.4777
  30   2.0000     -10.306910      -280.4653
  31   2.0000     -10.297659      -280.2136
  32   2.0000     -10.296005      -280.1685
  33   2.0000     -10.293631      -280.1039
  34   2.0000     -10.293545      -280.1016
  35   2.0000     -10.291352      -280.0419
  36   2.0000     -10.290687      -280.0238
  37   2.0000     -10.289718      -279.9975
  38   2.0000     -10.287197      -279.9289
  39   2.0000     -10.285129      -279.8726
  40   2.0000     -10.284995      -279.8690
  41   2.0000     -10.284604      -279.8583
  42   2.0000     -10.282461      -279.8000
  43   2.0000     -10.280102      -279.7358
  44   2.0000     -10.279931      -279.7311
  45   2.0000     -10.277731      -279.6713
  46   2.0000     -10.275607      -279.6135
  47   2.0000     -10.272987      -279.5422
  48   2.0000     -10.272977      -279.5419
  49   2.0000     -10.272594      -279.5315
  50   2.0000     -10.272390      -279.5259
  51   2.0000     -10.271263      -279.4953
  52   2.0000     -10.270951      -279.4868
  53   2.0000     -10.270609      -279.4775
  54   2.0000     -10.270338      -279.4701
  55   2.0000     -10.267919      -279.4043
  56   2.0000     -10.267628      -279.3964
  57   2.0000     -10.265870      -279.3485
  58   2.0000     -10.265789      -279.3463
  59   2.0000     -10.265184      -279.3299
  60   2.0000     -10.258767      -279.1552
  61   2.0000     -10.254598      -279.0418
  62   2.0000     -10.252898      -278.9955
  63   2.0000     -10.251881      -278.9679
  64   2.0000     -10.250164      -278.9211
  65   2.0000     -10.249416      -278.9008
  66   2.0000     -10.248273      -278.8697
  67   2.0000      -8.055404      -219.1987
  68   2.0000      -8.031321      -218.5434
  69   2.0000      -8.030560      -218.5226
  70   2.0000      -6.024897      -163.9458
  71   2.0000      -6.020648      -163.8302
  72   2.0000      -6.017066      -163.7327
  73   2.0000      -6.000687      -163.2870
  74   2.0000      -5.999901      -163.2656
  75   2.0000      -5.996069      -163.1613
  76   2.0000      -5.995453      -163.1446
  77   2.0000      -5.993819      -163.1001
  78   2.0000      -5.993003      -163.0779
  79   2.0000      -1.139651       -31.0115
  80   2.0000      -1.137341       -30.9486
  81   2.0000      -1.121644       -30.5215
  82   2.0000      -1.080045       -29.3895
  83   2.0000      -1.073943       -29.2235
  84   2.0000      -1.009689       -27.4750
  85   2.0000      -1.005765       -27.3683
  86   2.0000      -0.999379       -27.1945
  87   2.0000      -0.996929       -27.1278
  88   2.0000      -0.982047       -26.7229
  89   2.0000      -0.976052       -26.5597
  90   2.0000      -0.974479       -26.5169
  91   2.0000      -0.968437       -26.3525
  92   2.0000      -0.954090       -25.9621
  93   2.0000      -0.945033       -25.7157
  94   2.0000      -0.933511       -25.4021
  95   2.0000      -0.920336       -25.0436
  96   2.0000      -0.900481       -24.5033
  97   2.0000      -0.887429       -24.1482
  98   2.0000      -0.883793       -24.0492
  99   2.0000      -0.878407       -23.9027
 100   2.0000      -0.875556       -23.8251
 101   2.0000      -0.871996       -23.7282
 102   2.0000      -0.869403       -23.6577
 103   2.0000      -0.856369       -23.3030
 104   2.0000      -0.851738       -23.1770
 105   2.0000      -0.837200       -22.7814
 106   2.0000      -0.828977       -22.5576
 107   2.0000      -0.817172       -22.2364
 108   2.0000      -0.815507       -22.1911
 109   2.0000      -0.814347       -22.1595
 110   2.0000      -0.803415       -21.8620
 111   2.0000      -0.798889       -21.7389
 112   2.0000      -0.798064       -21.7164
 113   2.0000      -0.796759       -21.6809
 114   2.0000      -0.787829       -21.4379
 115   2.0000      -0.776983       -21.1428
 116   2.0000      -0.773836       -21.0571
 117   2.0000      -0.764500       -20.8031
 118   2.0000      -0.755665       -20.5627
 119   2.0000      -0.748048       -20.3554
 120   2.0000      -0.726731       -19.7754
 121   2.0000      -0.718875       -19.5616
 122   2.0000      -0.716079       -19.4855
 123   2.0000      -0.711778       -19.3685
 124   2.0000      -0.709914       -19.3177
 125   2.0000      -0.706620       -19.2281
 126   2.0000      -0.692214       -18.8361
 127   2.0000      -0.684516       -18.6266
 128   2.0000      -0.679280       -18.4841
 129   2.0000      -0.674287       -18.3483
 130   2.0000      -0.668824       -18.1996
 131   2.0000      -0.663722       -18.0608
 132   2.0000      -0.655285       -17.8312
 133   2.0000      -0.649977       -17.6868
 134   2.0000      -0.645119       -17.5546
 135   2.0000      -0.636731       -17.3263
 136   2.0000      -0.630249       -17.1499
 137   2.0000      -0.627707       -17.0808
 138   2.0000      -0.620914       -16.8959
 139   2.0000      -0.615084       -16.7373
 140   2.0000      -0.611856       -16.6495
 141   2.0000      -0.606975       -16.5166
 142   2.0000      -0.587942       -15.9987
 143   2.0000      -0.586033       -15.9468
 144   2.0000      -0.580220       -15.7886
 145   2.0000      -0.578800       -15.7499
 146   2.0000      -0.575575       -15.6622
 147   2.0000      -0.572053       -15.5663
 148   2.0000      -0.569335       -15.4924
 149   2.0000      -0.562090       -15.2952
 150   2.0000      -0.558211       -15.1897
 151   2.0000      -0.556519       -15.1436
 152   2.0000      -0.554961       -15.1013
 153   2.0000      -0.553119       -15.0511
 154   2.0000      -0.550100       -14.9690
 155   2.0000      -0.547178       -14.8895
 156   2.0000      -0.546030       -14.8582
 157   2.0000      -0.543777       -14.7969
 158   2.0000      -0.540774       -14.7152
 159   2.0000      -0.533971       -14.5301
 160   2.0000      -0.529365       -14.4048
 161   2.0000      -0.528187       -14.3727
 162   2.0000      -0.524719       -14.2783
 163   2.0000      -0.518055       -14.0970
 164   2.0000      -0.515554       -14.0289
 165   2.0000      -0.510083       -13.8801
 166   2.0000      -0.509388       -13.8612
 167   2.0000      -0.506847       -13.7920
 168   2.0000      -0.505480       -13.7548
 169   2.0000      -0.502589       -13.6761
 170   2.0000      -0.498412       -13.5625
 171   2.0000      -0.495211       -13.4754
 172   2.0000      -0.494710       -13.4617
 173   2.0000      -0.492034       -13.3889
 174   2.0000      -0.490944       -13.3593
 175   2.0000      -0.488031       -13.2800
 176   2.0000      -0.485904       -13.2221
 177   2.0000      -0.484352       -13.1799
 178   2.0000      -0.482489       -13.1292
 179   2.0000      -0.482218       -13.1218
 180   2.0000      -0.480585       -13.0774
 181   2.0000      -0.479303       -13.0425
 182   2.0000      -0.477890       -13.0040
 183   2.0000      -0.477231       -12.9861
 184   2.0000      -0.472923       -12.8689
 185   2.0000      -0.472015       -12.8442
 186   2.0000      -0.468845       -12.7579
 187   2.0000      -0.467538       -12.7223
 188   2.0000      -0.466016       -12.6809
 189   2.0000      -0.462832       -12.5943
 190   2.0000      -0.460069       -12.5191
 191   2.0000      -0.455707       -12.4004
 192   2.0000      -0.454542       -12.3687
 193   2.0000      -0.450512       -12.2591
 194   2.0000      -0.448152       -12.1948
 195   2.0000      -0.443715       -12.0741
 196   2.0000      -0.442898       -12.0519
 197   2.0000      -0.442016       -12.0279
 198   2.0000      -0.440911       -11.9978
 199   2.0000      -0.437258       -11.8984
 200   2.0000      -0.435851       -11.8601
 201   2.0000      -0.432069       -11.7572
 202   2.0000      -0.431373       -11.7383
 203   2.0000      -0.428339       -11.6557
 204   2.0000      -0.427829       -11.6418
 205   2.0000      -0.426211       -11.5978
 206   2.0000      -0.425773       -11.5859
 207   2.0000      -0.424474       -11.5505
 208   2.0000      -0.421168       -11.4606
 209   2.0000      -0.416980       -11.3466
 210   2.0000      -0.414675       -11.2839
 211   2.0000      -0.412753       -11.2316
 212   2.0000      -0.411680       -11.2024
 213   2.0000      -0.407564       -11.0904
 214   2.0000      -0.406393       -11.0585
 215   2.0000      -0.402638       -10.9563
 216   2.0000      -0.400773       -10.9056
 217   2.0000      -0.398133       -10.8338
 218   2.0000      -0.392577       -10.6826
 219   2.0000      -0.392381       -10.6772
 220   2.0000      -0.390938       -10.6380
 221   2.0000      -0.371601       -10.1118
 222   2.0000      -0.368173       -10.0185
 223   2.0000      -0.367063        -9.9883
 224   2.0000      -0.366158        -9.9637
 225   2.0000      -0.351682        -9.5698
 226   2.0000      -0.345674        -9.4063
 227   2.0000      -0.328597        -8.9416
 228   2.0000      -0.327502        -8.9118
 229   2.0000      -0.318748        -8.6736
 230   2.0000      -0.315795        -8.5932
 231   2.0000      -0.312840        -8.5128
 232   2.0000      -0.308458        -8.3936
 233   2.0000      -0.307057        -8.3555
 234   2.0000      -0.305538        -8.3141
 235   2.0000      -0.297202        -8.0873
 236   2.0000      -0.290970        -7.9177
 237   2.0000      -0.284928        -7.7533
 238   2.0000      -0.278994        -7.5918
 239   2.0000      -0.271204        -7.3798
 240   2.0000      -0.260898        -7.0994
 241   2.0000      -0.229473        -6.2443
 242   0.0000      -0.086555        -2.3553
 243   0.0000      -0.056472        -1.5367
 244   0.0000      -0.046952        -1.2776
 245   0.0000      -0.026236        -0.7139
 246   0.0000      -0.001580        -0.0430

MULLIKEN ATOMIC CHARGES
-----------------------
   0 C :   -0.061430
   1 C :    0.008636
   2 C :    0.102125
   3 C :    0.023507
   4 C :   -0.063006
   5 C :    0.259265
   6 C :   -0.150977
   7 C :    0.241512
   8 C :   -0.126532
   9 O :   -0.313425
  10 C :    0.177744
  11 O :   -0.312102
  12 C :    0.178010
  13 C :   -0.167935
  14 S :    0.147366
  15 C :    0.096875
  16 C :   -0.033392
  17 C :   -0.079620
  18 C :    0.142987
  19 C :   -0.039465
  20 C :   -0.051340
  21 N :   -0.010218
  22 C :   -0.166446
  23 C :   -0.160155
  24 N :   -0.023462
  25 C :    0.122940
  26 C :    0.124472
  27 C :   -0.144937
  28 C :   -0.009145
  29 C :    0.072606
  30 C :    0.012874
  31 C :   -0.047557
  32 C :   -0.013393
  33 S :    0.136428
  34 C :    0.053786
  35 C :   -0.080030
  36 C :    0.156180
  37 C :   -0.053717
  38 C :   -0.024396
  39 C :    0.057317
  40 C :   -0.022223
  41 C :   -0.032072
  42 N :   -0.004397
  43 C :   -0.172206
  44 C :   -0.163199
  45 N :    0.013796
  46 C :    0.124707
  47 C :    0.127133
  48 C :   -0.069079
  49 C :   -0.040345
  50 C :    0.321871
  51 C :   -0.366010
  52 C :   -0.196434
  53 N :    0.145739
  54 C :   -0.183050
  55 N :    0.167906
  56 C :    0.010038
  57 C :   -0.009035
  58 C :    0.153154
  59 O :   -0.160325
  60 C :   -0.072570
  61 C :    0.115924
  62 C :   -0.097224
  63 C :   -0.021729
  64 S :    0.136251
  65 C :   -0.049727
  66 C :    0.024478
  67 H :    0.016884
  68 H :   -0.020639
  69 H :   -0.035159
  70 H :   -0.037554
  71 H :   -0.030359
  72 H :    0.032602
  73 H :    0.021781
  74 H :    0.023877
  75 H :    0.034748
  76 H :    0.022320
  77 H :    0.020694
  78 H :   -0.003546
  79 H :   -0.037178
  80 H :    0.027507
  81 H :    0.033850
  82 H :    0.025108
  83 H :    0.026583
  84 H :    0.032336
  85 H :    0.025049
  86 H :    0.016997
  87 H :   -0.009593
  88 H :    0.025501
  89 H :    0.011111
  90 H :    0.013250
  91 H :   -0.036101
  92 H :   -0.000273
  93 H :   -0.025055
  94 H :   -0.022820
  95 H :   -0.001612
  96 H :    0.018680
  97 H :    0.019704
  98 H :    0.041873
  99 H :    0.029076
 100 H :    0.023732
 101 H :    0.026627
 102 H :    0.024726
 103 H :   -0.015646
 104 H :   -0.008909
 105 H :    0.035838
 106 H :   -0.009334
Sum of atomic charges:   -0.0000000

LOEWDIN ATOMIC CHARGES
----------------------
   0 C :   -0.191212
   1 C :   -0.064535
   2 C :   -0.047710
   3 C :   -0.005615
   4 C :   -0.066051
   5 C :    0.064517
   6 C :   -0.105299
   7 C :    0.066184
   8 C :   -0.092453
   9 O :   -0.107624
  10 C :    0.074756
  11 O :   -0.104909
  12 C :    0.075355
  13 C :   -0.175550
  14 S :    0.467645
  15 C :   -0.039762
  16 C :   -0.005975
  17 C :   -0.015477
  18 C :   -0.042967
  19 C :   -0.012341
  20 C :   -0.013362
  21 N :   -0.054084
  22 C :    0.000311
  23 C :    0.001614
  24 N :   -0.056379
  25 C :   -0.052300
  26 C :   -0.052352
  27 C :   -0.166264
  28 C :   -0.052142
  29 C :   -0.029008
  30 C :   -0.051620
  31 C :   -0.055532
  32 C :   -0.185780
  33 S :    0.473183
  34 C :    0.001693
  35 C :   -0.049746
  36 C :    0.013497
  37 C :   -0.029567
  38 C :    0.028707
  39 C :   -0.061661
  40 C :    0.011382
  41 C :   -0.015975
  42 N :   -0.036497
  43 C :   -0.002917
  44 C :    0.011007
  45 N :   -0.040136
  46 C :   -0.056671
  47 C :   -0.052695
  48 C :    0.084769
  49 C :   -0.102770
  50 C :    0.080361
  51 C :   -0.146682
  52 C :   -0.016561
  53 N :   -0.063091
  54 C :   -0.015843
  55 N :   -0.047415
  56 C :   -0.023057
  57 C :   -0.051954
  58 C :    0.087695
  59 O :   -0.147560
  60 C :    0.020338
  61 C :   -0.036406
  62 C :   -0.146025
  63 C :   -0.010060
  64 S :    0.425188
  65 C :   -0.151704
  66 C :   -0.058999
  67 H :    0.019756
  68 H :    0.027358
  69 H :    0.029417
  70 H :    0.029327
  71 H :    0.026715
  72 H :    0.026928
  73 H :    0.014779
  74 H :    0.015658
  75 H :    0.027467
  76 H :    0.014963
  77 H :    0.014210
  78 H :    0.038958
  79 H :    0.030547
  80 H :    0.039132
  81 H :    0.039796
  82 H :    0.037907
  83 H :    0.038407
  84 H :    0.040139
  85 H :    0.037914
  86 H :    0.024705
  87 H :    0.027668
  88 H :    0.024522
  89 H :    0.023114
  90 H :    0.025703
  91 H :    0.023211
  92 H :    0.030336
  93 H :    0.019226
  94 H :    0.030080
  95 H :    0.031090
  96 H :    0.036153
  97 H :    0.036702
  98 H :    0.041137
  99 H :    0.039299
 100 H :    0.036284
 101 H :    0.038485
 102 H :    0.043951
 103 H :    0.038554
 104 H :    0.040027
 105 H :    0.028271
 106 H :    0.034198

  Mayer bond orders larger than 0.100000
B(  0-C ,  1-C ) :   1.5451 B(  0-C , 14-S ) :   1.1608 B(  0-C , 67-H ) :   0.9714
B(  1-C ,  2-C ) :   1.2780 B(  1-C , 68-H ) :   0.9977 B(  2-C ,  3-C ) :   0.9667
B(  2-C , 13-C ) :   1.5180 B(  3-C ,  4-C ) :   1.3979 B(  3-C ,  8-C ) :   1.3141
B(  4-C ,  5-C ) :   1.3025 B(  4-C , 69-H ) :   1.0081 B(  5-C ,  6-C ) :   1.3186
B(  5-C , 11-O ) :   1.1374 B(  6-C ,  7-C ) :   1.3058 B(  6-C , 70-H ) :   1.0066
B(  7-C ,  8-C ) :   1.3406 B(  7-C ,  9-O ) :   1.1445 B(  8-C , 71-H ) :   0.9956
B(  9-O , 10-C ) :   0.9701 B( 10-C , 72-H ) :   0.9783 B( 10-C , 73-H ) :   0.9692
B( 10-C , 74-H ) :   0.9692 B( 11-O , 12-C ) :   0.9713 B( 12-C , 75-H ) :   0.9794
B( 12-C , 76-H ) :   0.9691 B( 12-C , 77-H ) :   0.9691 B( 13-C , 14-S ) :   1.1465
B( 13-C , 15-C ) :   1.0632 B( 15-C , 16-C ) :   1.4343 B( 15-C , 18-C ) :   0.1134
B( 15-C , 20-C ) :   1.2122 B( 16-C , 17-C ) :   1.2708 B( 16-C , 78-H ) :   0.9880
B( 17-C , 18-C ) :   1.3851 B( 17-C , 79-H ) :   1.0043 B( 18-C , 19-C ) :   1.2096
B( 18-C , 27-C ) :   1.0759 B( 19-C , 20-C ) :   1.2688 B( 19-C , 24-N ) :   1.4066
B( 20-C , 21-N ) :   1.4275 B( 21-N , 22-C ) :   1.6752 B( 22-C , 23-C ) :   1.1805
B( 22-C , 26-C ) :   1.0969 B( 23-C , 24-N ) :   1.6684 B( 23-C , 25-C ) :   1.0973
B( 25-C , 80-H ) :   0.9410 B( 25-C , 81-H ) :   0.9440 B( 25-C , 82-H ) :   0.9409
B( 26-C , 83-H ) :   0.9412 B( 26-C , 84-H ) :   0.9431 B( 26-C , 85-H ) :   0.9415
B( 27-C , 28-C ) :   1.4859 B( 27-C , 33-S ) :   1.1429 B( 28-C , 29-C ) :   1.0655
B( 28-C , 31-C ) :   1.2838 B( 29-C , 30-C ) :   1.1051 B( 29-C , 86-H ) :   0.9183
B( 29-C , 87-H ) :   0.9198 B( 30-C , 88-H ) :   0.9703 B( 30-C , 89-H ) :   0.9659
B( 30-C , 90-H ) :   0.9653 B( 31-C , 32-C ) :   1.4313 B( 31-C , 91-H ) :   1.0036
B( 32-C , 33-S ) :   1.0891 B( 32-C , 34-C ) :   1.1471 B( 34-C , 35-C ) :   1.6244
B( 34-C , 92-H ) :   0.9589 B( 35-C , 36-C ) :   1.1466 B( 35-C , 93-H ) :   0.9688
B( 36-C , 37-C ) :   1.3450 B( 36-C , 39-C ) :   0.1053 B( 36-C , 41-C ) :   1.1665
B( 37-C , 38-C ) :   1.2888 B( 37-C , 94-H ) :   1.0033 B( 38-C , 39-C ) :   1.3506
B( 38-C , 95-H ) :   0.9768 B( 39-C , 40-C ) :   1.1580 B( 39-C , 48-C ) :   1.2103
B( 40-C , 41-C ) :   1.2651 B( 40-C , 45-N ) :   1.4541 B( 41-C , 42-N ) :   1.4359
B( 42-N , 43-C ) :   1.6709 B( 43-C , 44-C ) :   1.1719 B( 43-C , 47-C ) :   1.0956
B( 44-C , 45-N ) :   1.6808 B( 44-C , 46-C ) :   1.0956 B( 46-C , 96-H ) :   0.9360
B( 46-C , 97-H ) :   0.9348 B( 46-C , 98-H ) :   0.9242 B( 47-C , 99-H ) :   0.9415
B( 47-C ,100-H ) :   0.9452 B( 47-C ,101-H ) :   0.9406 B( 48-C , 49-C ) :   1.5088
B( 48-C ,102-H ) :   0.9147 B( 49-C , 50-C ) :   1.0895 B( 49-C , 58-C ) :   0.9253
B( 50-C , 51-C ) :   1.6070 B( 50-C , 56-C ) :   0.9904 B( 51-C , 52-C ) :   1.1504
B( 51-C , 54-C ) :   1.1386 B( 52-C , 53-N ) :   2.9660 B( 54-C , 55-N ) :   2.9600
B( 56-C , 57-C ) :   1.2752 B( 56-C , 63-C ) :   1.4081 B( 57-C , 58-C ) :   0.9582
B( 57-C , 60-C ) :   1.4219 B( 58-C , 59-O ) :   2.1577 B( 59-O , 95-H ) :   0.1063
B( 60-C , 61-C ) :   1.2426 B( 60-C ,103-H ) :   1.0173 B( 61-C , 62-C ) :   1.3054
B( 61-C , 66-C ) :   1.1704 B( 62-C , 63-C ) :   1.3241 B( 62-C , 64-S ) :   1.0971
B( 63-C ,104-H ) :   0.9817 B( 64-S , 65-C ) :   1.1256 B( 65-C , 66-C ) :   1.6276
B( 65-C ,105-H ) :   0.9690 B( 66-C ,106-H ) :   0.9995

-----------------------------------------------------------------------------
         ABSORPTION SPECTRUM VIA TRANSITION ELECTRIC DIPOLE MOMENTS
-----------------------------------------------------------------------------
State   Energy  Wavelength   fosc         T2         TX        TY        TZ
        (cm-1)    (nm)                  (au**2)     (au)      (au)      (au)
-----------------------------------------------------------------------------
   0   17211.6    581.0   1.769744767  33.85056   0.46529  -5.36693  -2.19775
   1   23039.0    434.0   0.168403962   2.40638  -1.27398  -0.88499  -0.01251
   2   25481.7    392.4   0.014878986   0.19223   0.24055   0.36095   0.06388
   3   26128.9    382.7   0.082316224   1.03715   0.65369  -0.67741  -0.38852
   4   26757.2    373.7   0.018249232   0.22453   0.28042  -0.37747  -0.05839
   5   27654.3    361.6   0.001605022   0.01911   0.01397   0.08795  -0.10572
   6   28043.7    356.6   0.146762546   1.72288  -1.15631   0.61197   0.10648
   7   29286.8    341.5   0.269310895   3.02731  -1.38298   0.77665   0.71519
   8   29575.2    338.1   0.013712742   0.15264   0.23367   0.14779   0.27604
   9   29740.5    336.2   0.032701445   0.36199   0.30076  -0.38542  -0.35069
  10   30079.8    332.4   0.030728800   0.33632   0.16626  -0.32520  -0.45047
  11   30229.2    330.8   0.030950352   0.33707  -0.42323   0.20389   0.34113
  12   30717.8    325.5   0.045272395   0.48520  -0.68380  -0.13260   0.00549
  13   31200.3    320.5   0.032148645   0.33922   0.30104  -0.27282  -0.41732
  14   32132.5    311.2   0.287225074   2.94275   0.63599   1.57297   0.25303
  15   32518.6    307.5   0.012846532   0.13006   0.07083  -0.26475  -0.23440
  16   32980.5    303.2   0.014905876   0.14879   0.36905  -0.01914  -0.11057
  17   33056.0    302.5   0.035816032   0.35670  -0.26227  -0.53343  -0.05805
  18   33220.0    301.0   0.171978330   1.70431   0.98752   0.76448   0.38038
  19   33560.0    298.0   0.658244472   6.45715   2.31348  -0.86306  -0.60007
  20   34434.5    290.4   0.054413899   0.52023  -0.70932  -0.12179   0.04750
  21   34474.1    290.1   0.094175463   0.89933  -0.73885  -0.47836  -0.35298
  22   35582.5    281.0   0.024982402   0.23114   0.14684   0.44380  -0.11234
  23   35944.0    278.2   0.021082814   0.19310   0.18391   0.07039   0.39284
  24   35975.4    278.0   0.003642844   0.03334   0.04596   0.16888   0.05199
  25   36321.0    275.3   0.047879704   0.43398   0.27909  -0.27019  -0.53205
  26   37313.5    268.0   0.034451665   0.30396   0.08368  -0.38569   0.38497
  27   37623.2    265.8   0.019135619   0.16744   0.31696   0.21930   0.13743
  28   37720.7    265.1   0.009296843   0.08114   0.12115   0.10237   0.23661
  29   38425.6    260.2   0.035044625   0.30025   0.20312  -0.33894  -0.37961
  30   38511.0    259.7   0.177553885   1.51782   0.35882  -0.67615  -0.96534
  31   39009.8    256.3   0.230991100   1.94938   1.10074   0.85728  -0.05312
  32   39142.5    255.5   0.016084990   0.13528  -0.17697   0.02871   0.32116
  33   39706.2    251.8   0.116884417   0.96911  -0.08006   0.85541   0.48060
  34   39955.4    250.3   0.004150942   0.03420   0.05363   0.12518  -0.12513
  35   40327.6    248.0   0.095458025   0.77927  -0.51057   0.45464   0.55847

FINAL SINGLE POINT ENERGY     -3864.924831693902

DIPOLE MOMENT
-------------
                                X             Y             Z
Electronic contribution:     24.71865     -65.95688     -42.35160
Nuclear contribution   :    -23.39873      67.75203      43.12627
                        -----------------------------------------
Total Dipole Moment    :      1.31993       1.79515       0.77467
                        -----------------------------------------
Magnitude (a.u.)       :      2.35900
Magnitude (Debye)      :      5.99609

Rotational constants in cm-1:     0.001962     0.000283     0.000267
Rotational constants in MHz :    58.816796     8.494064     8.015866

                             ****ORCA TERMINATED NORMALLY****
TOTAL RUN TIME: 0 days 0 hours 9 minutes 48 seconds 798 msec
