                         Program Version 4.2.0 -  RELEASE  -
|  1> # ORCA input file
|  2> # SCF done       -196.008595730674          0.000325503293
|  3> ! CAM-B3LYP def2-SVP def2/J RIJCOSX Grid4 TightSCF
|  4> %maxcore 5000
|  5> %tddft
|  6>     Mode sTDDFT
|  7>     Ethresh 5.0
|  8>     maxcore 5000
|  9> end
| 10>
| 11> %pal
| 12>   nprocs 6
| 13>   end
| 14> * xyz 0 1
| 15>    C        2.54890         0.04876         1.03038
| 16>    C        1.43435         0.13850         1.79902
| 17>    C        0.62147        -1.01690         1.74085
| 18>    C       -0.61979        -1.15772         2.50803
| 19>    C       -1.60145        -0.19024         2.39395
| 20>    C       -2.81543        -0.34315         3.06907
| 21>    C       -3.01264        -1.45389         3.87352
| 22>    C       -2.00164        -2.40782         4.02053
| 23>    C       -0.80758        -2.26954         3.32889
| 24>    O       -2.30216        -3.44046         4.84821
| 25>    C       -1.31203        -4.40924         5.11042
| 26>    O       -3.73039         0.63433         2.86061
| 27>    C       -4.99558         0.51659         3.46872
| 28>    C        1.14226        -1.98574         0.90407
| 29>    S        2.64841        -1.44659         0.19870
| 30>    C        0.53296        -3.22108         0.47791
| 31>    C       -0.94094        -3.25378         0.48323
| 32>    C       -1.62883        -4.29375         1.11245
| 33>    C       -3.01016        -4.29732         1.23223
| 34>    C       -3.74932        -3.23822         0.71144
| 35>    C       -3.09335        -2.19974         0.05977
| 36>    C       -1.70755        -2.21579        -0.04708
| 37>    F       -1.10566        -1.21508        -0.69506
| 38>    F       -3.79442        -1.18909        -0.45371
| 39>    F       -5.07583        -3.21781         0.84096
| 40>    F       -3.62815        -5.30056         1.85725
| 41>    F       -0.93988        -5.30683         1.65336
| 42>    C        1.24868        -4.31287         0.06026
| 43>    C        2.68621        -4.42674         0.37394
| 44>    C        3.14435        -4.28952         1.68683
| 45>    C        4.48842        -4.41320         2.01185
| 46>    C        5.41853        -4.69038         1.01285
| 47>    C        4.98769        -4.84521        -0.30155
| 48>    C        3.63717        -4.71705        -0.60602
| 49>    F        3.25117        -4.85529        -1.87757
| 50>    F        5.86967        -5.11385        -1.26396
| 51>    F        6.70971        -4.80996         1.31442
| 52>    F        4.88906        -4.27370         3.27612
| 53>    F        2.26985        -4.04327         2.66737
| 54>    C        0.67329        -5.37708        -0.71566
| 55>    N        1.22049        -6.62324        -0.78205
| 56>    C        0.51704        -7.39626        -1.65669
| 57>    C       -0.51788        -6.61630        -2.17069
| 58>    C       -0.42046        -5.36224        -1.58397
| 59>    C        0.88042        -8.69963        -1.96279
| 60>    C        1.22468        -9.82206        -2.26965
| 61>    C        1.65827       -11.09399        -2.64197
| 62>    C        1.01039       -11.84579        -3.61170
| 63>    C        1.47679       -13.09871        -3.99917
| 64>    C        2.58857       -13.69549        -3.42057
| 65>    C        3.30560       -12.94648        -2.44562
| 66>    C        2.83589       -11.64039        -2.05405
| 67>    N        3.59807       -11.02254        -1.16234
| 68>   Se        4.97051       -12.04238        -0.78457
| 69>    N        4.44572       -13.30417        -1.87167
| 70>    C        3.01944       -14.99010        -3.87197
| 71>    N        2.86862       -15.32049        -5.14482
| 72>    C        3.46547       -16.52040        -5.29037
| 73>    C        4.01747       -16.99118        -4.00425
| 74>    C        4.65848       -18.30860        -4.16559
| 75>    O        5.20511       -18.99123        -3.32940
| 76>    C        4.46187       -18.58095        -5.60360
| 77>    C        3.73108       -17.46525        -6.24606
| 78>    N        3.52602       -17.72458        -7.56249
| 79>    C        4.06406       -18.90070        -7.76676
| 80>    C        4.65840       -19.49601        -6.58627
| 81>    C        3.69858       -16.04165        -3.07900
| 82>    C        3.86514       -16.12472        -1.64957
| 83>    C        3.00672       -15.63420        -0.76118
| 84>    H        3.32945         0.77181         0.90044
| 85>    H        1.19115         0.99159         2.40571
| 86>    H       -1.46443         0.67079         1.76024
| 87>    H       -3.92769        -1.61678         4.41757
| 88>    H       -0.01276        -2.99090         3.42190
| 89>    H       -1.75648        -5.09093         5.83329
| 90>    H       -0.41434        -3.95575         5.54066
| 91>    H       -1.04038        -4.96681         4.21004
| 92>    H       -4.91738         0.51883         4.56017
| 93>    H       -5.51377        -0.38994         3.14144
| 94>    H       -5.55835         1.39014         3.14460
| 95>    H        2.01049        -6.95064        -0.25016
| 96>    H       -1.23891        -6.93563        -2.89586
| 97>    H       -1.04237        -4.51634        -1.79746
| 98>    H        0.12634       -11.43887        -4.07895
| 99>    H        0.95467       -13.65132        -4.76480
|100>    H        4.04123       -19.34494        -8.74702
|101>    H        5.14032       -20.45279        -6.54613
|102>    H        4.71318       -16.71363        -1.32634
|103>    H        2.12085       -15.09509        -1.05671
|104>    H        3.15140       -15.77643         0.29579
|105> *
|106>
|107>                          ****END OF INPUT****

CARTESIAN COORDINATES (ANGSTROEM)
---------------------------------
  C      2.548900    0.048760    1.030380
  C      1.434350    0.138500    1.799020
  C      0.621470   -1.016900    1.740850
  C     -0.619790   -1.157720    2.508030
  C     -1.601450   -0.190240    2.393950
  C     -2.815430   -0.343150    3.069070
  C     -3.012640   -1.453890    3.873520
  C     -2.001640   -2.407820    4.020530
  C     -0.807580   -2.269540    3.328890
  O     -2.302160   -3.440460    4.848210
  C     -1.312030   -4.409240    5.110420
  O     -3.730390    0.634330    2.860610
  C     -4.995580    0.516590    3.468720
  C      1.142260   -1.985740    0.904070
  S      2.648410   -1.446590    0.198700
  C      0.532960   -3.221080    0.477910
  C     -0.940940   -3.253780    0.483230
  C     -1.628830   -4.293750    1.112450
  C     -3.010160   -4.297320    1.232230
  C     -3.749320   -3.238220    0.711440
  C     -3.093350   -2.199740    0.059770
  C     -1.707550   -2.215790   -0.047080
  F     -1.105660   -1.215080   -0.695060
  F     -3.794420   -1.189090   -0.453710
  F     -5.075830   -3.217810    0.840960
  F     -3.628150   -5.300560    1.857250
  F     -0.939880   -5.306830    1.653360
  C      1.248680   -4.312870    0.060260
  C      2.686210   -4.426740    0.373940
  C      3.144350   -4.289520    1.686830
  C      4.488420   -4.413200    2.011850
  C      5.418530   -4.690380    1.012850
  C      4.987690   -4.845210   -0.301550
  C      3.637170   -4.717050   -0.606020
  F      3.251170   -4.855290   -1.877570
  F      5.869670   -5.113850   -1.263960
  F      6.709710   -4.809960    1.314420
  F      4.889060   -4.273700    3.276120
  F      2.269850   -4.043270    2.667370
  C      0.673290   -5.377080   -0.715660
  N      1.220490   -6.623240   -0.782050
  C      0.517040   -7.396260   -1.656690
  C     -0.517880   -6.616300   -2.170690
  C     -0.420460   -5.362240   -1.583970
  C      0.880420   -8.699630   -1.962790
  C      1.224680   -9.822060   -2.269650
  C      1.658270  -11.093990   -2.641970
  C      1.010390  -11.845790   -3.611700
  C      1.476790  -13.098710   -3.999170
  C      2.588570  -13.695490   -3.420570
  C      3.305600  -12.946480   -2.445620
  C      2.835890  -11.640390   -2.054050
  N      3.598070  -11.022540   -1.162340
  Se     4.970510  -12.042380   -0.784570
  N      4.445720  -13.304170   -1.871670
  C      3.019440  -14.990100   -3.871970
  N      2.868620  -15.320490   -5.144820
  C      3.465470  -16.520400   -5.290370
  C      4.017470  -16.991180   -4.004250
  C      4.658480  -18.308600   -4.165590
  O      5.205110  -18.991230   -3.329400
  C      4.461870  -18.580950   -5.603600
  C      3.731080  -17.465250   -6.246060
  N      3.526020  -17.724580   -7.562490
  C      4.064060  -18.900700   -7.766760
  C      4.658400  -19.496010   -6.586270
  C      3.698580  -16.041650   -3.079000
  C      3.865140  -16.124720   -1.649570
  C      3.006720  -15.634200   -0.761180
  H      3.329450    0.771810    0.900440
  H      1.191150    0.991590    2.405710
  H     -1.464430    0.670790    1.760240
  H     -3.927690   -1.616780    4.417570
  H     -0.012760   -2.990900    3.421900
  H     -1.756480   -5.090930    5.833290
  H     -0.414340   -3.955750    5.540660
  H     -1.040380   -4.966810    4.210040
  H     -4.917380    0.518830    4.560170
  H     -5.513770   -0.389940    3.141440
  H     -5.558350    1.390140    3.144600
  H      2.010490   -6.950640   -0.250160
  H     -1.238910   -6.935630   -2.895860
  H     -1.042370   -4.516340   -1.797460
  H      0.126340  -11.438870   -4.078950
  H      0.954670  -13.651320   -4.764800
  H      4.041230  -19.344940   -8.747020
  H      5.140320  -20.452790   -6.546130
  H      4.713180  -16.713630   -1.326340
  H      2.120850  -15.095090   -1.056710
  H      3.151400  -15.776430    0.295790

 Total Charge           Charge          ....    0
 Multiplicity           Mult            ....    1
 Number of Electrons    NEL             ....  514
 Basis Dimension        Dim             .... 1093

ORBITAL ENERGIES
----------------

  NO   OCC          E(Eh)            E(eV)
   0   2.0000    -453.981054    -12353.4525
   1   2.0000     -88.959871     -2420.7212
   2   2.0000     -58.194946     -1583.5650
   3   2.0000     -52.265625     -1422.2199
   4   2.0000     -52.263312     -1422.1570
   5   2.0000     -52.262783     -1422.1426
   6   2.0000     -24.818431      -675.3438
   7   2.0000     -24.816343      -675.2870
   8   2.0000     -24.813080      -675.1982
   9   2.0000     -24.812842      -675.1918
  10   2.0000     -24.812667      -675.1870
  11   2.0000     -24.808276      -675.0675
  12   2.0000     -24.807605      -675.0492
  13   2.0000     -24.802116      -674.8999
  14   2.0000     -24.801935      -674.8950
  15   2.0000     -24.801584      -674.8854
  16   2.0000     -19.242150      -523.6055
  17   2.0000     -19.241791      -523.5957
  18   2.0000     -19.200276      -522.4661
  19   2.0000     -14.473756      -393.8509
  20   2.0000     -14.438492      -392.8913
  21   2.0000     -14.434884      -392.7932
  22   2.0000     -14.403006      -391.9257
  23   2.0000     -14.397723      -391.7820
  24   2.0000     -10.401484      -283.0388
  25   2.0000     -10.396928      -282.9148
  26   2.0000     -10.396319      -282.8982
  27   2.0000     -10.394590      -282.8512
  28   2.0000     -10.394303      -282.8434
  29   2.0000     -10.387315      -282.6532
  30   2.0000     -10.382278      -282.5161
  31   2.0000     -10.382119      -282.5118
  32   2.0000     -10.380694      -282.4730
  33   2.0000     -10.380494      -282.4676
  34   2.0000     -10.361397      -281.9479
  35   2.0000     -10.338471      -281.3241
  36   2.0000     -10.331908      -281.1455
  37   2.0000     -10.330859      -281.1170
  38   2.0000     -10.328736      -281.0592
  39   2.0000     -10.327877      -281.0358
  40   2.0000     -10.327230      -281.0182
  41   2.0000     -10.323983      -280.9299
  42   2.0000     -10.321177      -280.8535
  43   2.0000     -10.319256      -280.8012
  44   2.0000     -10.318403      -280.7780
  45   2.0000     -10.317348      -280.7493
  46   2.0000     -10.316830      -280.7352
  47   2.0000     -10.316551      -280.7276
  48   2.0000     -10.315254      -280.6923
  49   2.0000     -10.315184      -280.6904
  50   2.0000     -10.314345      -280.6676
  51   2.0000     -10.313841      -280.6539
  52   2.0000     -10.305140      -280.4171
  53   2.0000     -10.298412      -280.2341
  54   2.0000     -10.297258      -280.2026
  55   2.0000     -10.296642      -280.1859
  56   2.0000     -10.295180      -280.1461
  57   2.0000     -10.293276      -280.0943
  58   2.0000     -10.286324      -279.9051
  59   2.0000     -10.284820      -279.8642
  60   2.0000     -10.283173      -279.8194
  61   2.0000     -10.281768      -279.7811
  62   2.0000     -10.281375      -279.7704
  63   2.0000     -10.280117      -279.7362
  64   2.0000     -10.280007      -279.7332
  65   2.0000     -10.274797      -279.5914
  66   2.0000     -10.273875      -279.5664
  67   2.0000     -10.271274      -279.4956
  68   2.0000     -10.267838      -279.4021
  69   2.0000     -10.265233      -279.3312
  70   2.0000     -10.260270      -279.1961
  71   2.0000     -10.259610      -279.1782
  72   2.0000     -10.256841      -279.1028
  73   2.0000      -8.055105      -219.1905
  74   2.0000      -7.970818      -216.8970
  75   2.0000      -6.024460      -163.9339
  76   2.0000      -6.020118      -163.8157
  77   2.0000      -6.017394      -163.7416
  78   2.0000      -5.921015      -161.1190
  79   2.0000      -5.914351      -160.9377
  80   2.0000      -5.910592      -160.8354
  81   2.0000      -2.275087       -61.9083
  82   2.0000      -2.274538       -61.8933
  83   2.0000      -2.269989       -61.7695
  84   2.0000      -2.264870       -61.6302
  85   2.0000      -2.264692       -61.6254
  86   2.0000      -1.345280       -36.6069
  87   2.0000      -1.337733       -36.4016
  88   2.0000      -1.333694       -36.2917
  89   2.0000      -1.332301       -36.2538
  90   2.0000      -1.326895       -36.1066
  91   2.0000      -1.322258       -35.9805
  92   2.0000      -1.321316       -35.9548
  93   2.0000      -1.318350       -35.8741
  94   2.0000      -1.311234       -35.6805
  95   2.0000      -1.306948       -35.5639
  96   2.0000      -1.147835       -31.2342
  97   2.0000      -1.145644       -31.1746
  98   2.0000      -1.115170       -30.3453
  99   2.0000      -1.093464       -29.7547
 100   2.0000      -1.092978       -29.7415
 101   2.0000      -1.070530       -29.1306
 102   2.0000      -1.051484       -28.6123
 103   2.0000      -1.009071       -27.4582
 104   2.0000      -0.997804       -27.1516
 105   2.0000      -0.984685       -26.7946
 106   2.0000      -0.972357       -26.4592
 107   2.0000      -0.964574       -26.2474
 108   2.0000      -0.947244       -25.7758
 109   2.0000      -0.941515       -25.6199
 110   2.0000      -0.926282       -25.2054
 111   2.0000      -0.899292       -24.4710
 112   2.0000      -0.897592       -24.4247
 113   2.0000      -0.888474       -24.1766
 114   2.0000      -0.881191       -23.9784
 115   2.0000      -0.872066       -23.7301
 116   2.0000      -0.869124       -23.6501
 117   2.0000      -0.868011       -23.6198
 118   2.0000      -0.858744       -23.3676
 119   2.0000      -0.851356       -23.1666
 120   2.0000      -0.851084       -23.1592
 121   2.0000      -0.847841       -23.0709
 122   2.0000      -0.844948       -22.9922
 123   2.0000      -0.829600       -22.5746
 124   2.0000      -0.823997       -22.4221
 125   2.0000      -0.814222       -22.1561
 126   2.0000      -0.799481       -21.7550
 127   2.0000      -0.782511       -21.2932
 128   2.0000      -0.777237       -21.1497
 129   2.0000      -0.771667       -20.9981
 130   2.0000      -0.770348       -20.9622
 131   2.0000      -0.755585       -20.5605
 132   2.0000      -0.748337       -20.3633
 133   2.0000      -0.746357       -20.3094
 134   2.0000      -0.742304       -20.1991
 135   2.0000      -0.738164       -20.0865
 136   2.0000      -0.723542       -19.6886
 137   2.0000      -0.712047       -19.3758
 138   2.0000      -0.698722       -19.0132
 139   2.0000      -0.695396       -18.9227
 140   2.0000      -0.694347       -18.8942
 141   2.0000      -0.692423       -18.8418
 142   2.0000      -0.689271       -18.7560
 143   2.0000      -0.681598       -18.5472
 144   2.0000      -0.680235       -18.5101
 145   2.0000      -0.678444       -18.4614
 146   2.0000      -0.675372       -18.3778
 147   2.0000      -0.672586       -18.3020
 148   2.0000      -0.666552       -18.1378
 149   2.0000      -0.663417       -18.0525
 150   2.0000      -0.656343       -17.8600
 151   2.0000      -0.651381       -17.7250
 152   2.0000      -0.641356       -17.4522
 153   2.0000      -0.636583       -17.3223
 154   2.0000      -0.634742       -17.2722
 155   2.0000      -0.633531       -17.2392
 156   2.0000      -0.625974       -17.0336
 157   2.0000      -0.624697       -16.9989
 158   2.0000      -0.622848       -16.9486
 159   2.0000      -0.620807       -16.8930
 160   2.0000      -0.620094       -16.8736
 161   2.0000      -0.613009       -16.6808
 162   2.0000      -0.610902       -16.6235
 163   2.0000      -0.605444       -16.4750
 164   2.0000      -0.604854       -16.4589
 165   2.0000      -0.597518       -16.2593
 166   2.0000      -0.590616       -16.0715
 167   2.0000      -0.588287       -16.0081
 168   2.0000      -0.587892       -15.9974
 169   2.0000      -0.582711       -15.8564
 170   2.0000      -0.582044       -15.8382
 171   2.0000      -0.580117       -15.7858
 172   2.0000      -0.577688       -15.7197
 173   2.0000      -0.574973       -15.6458
 174   2.0000      -0.570799       -15.5322
 175   2.0000      -0.566958       -15.4277
 176   2.0000      -0.562862       -15.3162
 177   2.0000      -0.561085       -15.2679
 178   2.0000      -0.559538       -15.2258
 179   2.0000      -0.555204       -15.1079
 180   2.0000      -0.554194       -15.0804
 181   2.0000      -0.552765       -15.0415
 182   2.0000      -0.552131       -15.0242
 183   2.0000      -0.548842       -14.9348
 184   2.0000      -0.547508       -14.8985
 185   2.0000      -0.545035       -14.8312
 186   2.0000      -0.542252       -14.7554
 187   2.0000      -0.541937       -14.7469
 188   2.0000      -0.536188       -14.5904
 189   2.0000      -0.534875       -14.5547
 190   2.0000      -0.533052       -14.5051
 191   2.0000      -0.530949       -14.4479
 192   2.0000      -0.529088       -14.3972
 193   2.0000      -0.524816       -14.2810
 194   2.0000      -0.519495       -14.1362
 195   2.0000      -0.517374       -14.0785
 196   2.0000      -0.517074       -14.0703
 197   2.0000      -0.514815       -14.0088
 198   2.0000      -0.509584       -13.8665
 199   2.0000      -0.505184       -13.7468
 200   2.0000      -0.501059       -13.6345
 201   2.0000      -0.499539       -13.5931
 202   2.0000      -0.498614       -13.5680
 203   2.0000      -0.492645       -13.4055
 204   2.0000      -0.492179       -13.3929
 205   2.0000      -0.490087       -13.3359
 206   2.0000      -0.488971       -13.3056
 207   2.0000      -0.486274       -13.2322
 208   2.0000      -0.485182       -13.2025
 209   2.0000      -0.478982       -13.0338
 210   2.0000      -0.476343       -12.9620
 211   2.0000      -0.472909       -12.8685
 212   2.0000      -0.470809       -12.8114
 213   2.0000      -0.470384       -12.7998
 214   2.0000      -0.467442       -12.7197
 215   2.0000      -0.463637       -12.6162
 216   2.0000      -0.463308       -12.6072
 217   2.0000      -0.461752       -12.5649
 218   2.0000      -0.461477       -12.5574
 219   2.0000      -0.457892       -12.4599
 220   2.0000      -0.456447       -12.4206
 221   2.0000      -0.453113       -12.3298
 222   2.0000      -0.452161       -12.3039
 223   2.0000      -0.449862       -12.2414
 224   2.0000      -0.443785       -12.0760
 225   2.0000      -0.435696       -11.8559
 226   2.0000      -0.431399       -11.7390
 227   2.0000      -0.420756       -11.4494
 228   2.0000      -0.419557       -11.4167
 229   2.0000      -0.418091       -11.3768
 230   2.0000      -0.406561       -11.0631
 231   2.0000      -0.403596       -10.9824
 232   2.0000      -0.400615       -10.9013
 233   2.0000      -0.397732       -10.8228
 234   2.0000      -0.384256       -10.4561
 235   2.0000      -0.379589       -10.3291
 236   2.0000      -0.376035       -10.2324
 237   2.0000      -0.362841        -9.8734
 238   2.0000      -0.352448        -9.5906
 239   2.0000      -0.351281        -9.5588
 240   2.0000      -0.346500        -9.4287
 241   2.0000      -0.345803        -9.4098
 242   2.0000      -0.341300        -9.2872
 243   2.0000      -0.339942        -9.2503
 244   2.0000      -0.335836        -9.1386
 245   2.0000      -0.330063        -8.9815
 246   2.0000      -0.329836        -8.9753
 247   2.0000      -0.325874        -8.8675
 248   2.0000      -0.322984        -8.7889
 249   2.0000      -0.322336        -8.7712
 250   2.0000      -0.319663        -8.6985
 251   2.0000      -0.312419        -8.5014
 252   2.0000      -0.292884        -7.9698
 253   2.0000      -0.288227        -7.8431
 254   2.0000      -0.283688        -7.7195
 255   2.0000      -0.276391        -7.5210
 256   2.0000      -0.242535        -6.5997
 257   0.0000      -0.107548        -2.9265
 258   0.0000      -0.071677        -1.9504
 259   0.0000      -0.057338        -1.5602
 260   0.0000      -0.034330        -0.9342
 261   0.0000      -0.008016        -0.2181

MULLIKEN ATOMIC CHARGES
-----------------------
   0 C :   -0.046726
   1 C :    0.010354
   2 C :    0.110195
   3 C :    0.010011
   4 C :   -0.054082
   5 C :    0.252681
   6 C :   -0.152099
   7 C :    0.230994
   8 C :   -0.100199
   9 O :   -0.311161
  10 C :    0.177217
  11 O :   -0.307045
  12 C :    0.176232
  13 C :   -0.224823
  14 S :    0.116540
  15 C :    0.082709
  16 C :   -0.193621
  17 C :    0.242744
  18 C :    0.168084
  19 C :    0.127802
  20 C :    0.162763
  21 C :    0.231070
  22 F :   -0.157305
  23 F :   -0.158008
  24 F :   -0.156276
  25 F :   -0.158606
  26 F :   -0.164567
  27 C :    0.104141
  28 C :   -0.244443
  29 C :    0.237075
  30 C :    0.171364
  31 C :    0.135153
  32 C :    0.173279
  33 C :    0.191408
  34 F :   -0.152383
  35 F :   -0.153830
  36 F :   -0.150452
  37 F :   -0.156168
  38 F :   -0.151322
  39 C :   -0.002628
  40 N :   -0.034472
  41 C :   -0.023969
  42 C :    0.000925
  43 C :   -0.006536
  44 C :    0.085025
  45 C :   -0.030697
  46 C :   -0.001057
  47 C :   -0.005290
  48 C :    0.013001
  49 C :    0.023763
  50 C :    0.011382
  51 C :    0.006235
  52 N :   -0.269070
  53 Se:    0.526477
  54 N :   -0.245907
  55 C :   -0.031700
  56 N :   -0.047906
  57 C :    0.077546
  58 C :   -0.133975
  59 C :    0.204752
  60 O :   -0.127801
  61 C :   -0.041809
  62 C :   -0.023923
  63 N :   -0.059063
  64 C :    0.087816
  65 C :   -0.093886
  66 C :    0.021257
  67 C :   -0.008224
  68 C :   -0.015007
  69 H :    0.032542
  70 H :   -0.012288
  71 H :   -0.029642
  72 H :   -0.032683
  73 H :   -0.036755
  74 H :    0.035037
  75 H :    0.023455
  76 H :    0.018199
  77 H :    0.024651
  78 H :    0.024597
  79 H :    0.037690
  80 H :    0.134279
  81 H :   -0.023889
  82 H :   -0.022076
  83 H :   -0.010787
  84 H :    0.004745
  85 H :    0.005884
  86 H :   -0.008570
  87 H :    0.012862
  88 H :    0.022781
  89 H :    0.026009
Sum of atomic charges:   -0.0000000

LOEWDIN ATOMIC CHARGES
----------------------
   0 C :   -0.172059
   1 C :   -0.053137
   2 C :   -0.034873
   3 C :   -0.010556
   4 C :   -0.067114
   5 C :    0.061514
   6 C :   -0.104909
   7 C :    0.064696
   8 C :   -0.094139
   9 O :   -0.101508
  10 C :    0.075684
  11 O :   -0.098864
  12 C :    0.077253
  13 C :   -0.182506
  14 S :    0.444943
  15 C :   -0.019673
  16 C :   -0.072293
  17 C :    0.070041
  18 C :    0.026995
  19 C :    0.042345
  20 C :    0.028554
  21 C :    0.067614
  22 F :   -0.033494
  23 F :   -0.035571
  24 F :   -0.033597
  25 F :   -0.037986
  26 F :   -0.035109
  27 C :   -0.029433
  28 C :   -0.100349
  29 C :    0.066008
  30 C :    0.026507
  31 C :    0.043333
  32 C :    0.025380
  33 C :    0.057478
  34 F :   -0.032897
  35 F :   -0.034616
  36 F :   -0.028898
  37 F :   -0.036161
  38 F :   -0.032155
  39 C :   -0.010699
  40 N :    0.114583
  41 C :   -0.032450
  42 C :   -0.032271
  43 C :   -0.053863
  44 C :   -0.023512
  45 C :   -0.020783
  46 C :   -0.021832
  47 C :   -0.009381
  48 C :    0.035630
  49 C :   -0.058577
  50 C :   -0.035506
  51 C :   -0.036379
  52 N :   -0.246480
  53 Se:    0.574870
  54 N :   -0.238424
  55 C :    0.084517
  56 N :   -0.101746
  57 C :    0.045395
  58 C :   -0.042916
  59 C :    0.064152
  60 O :   -0.140585
  61 C :   -0.040250
  62 C :    0.020259
  63 N :   -0.098745
  64 C :    0.070366
  65 C :   -0.040213
  66 C :   -0.017509
  67 C :   -0.012429
  68 C :   -0.031712
  69 H :    0.026111
  70 H :    0.033209
  71 H :    0.030740
  72 H :    0.031332
  73 H :    0.024085
  74 H :    0.028609
  75 H :    0.016155
  76 H :    0.010455
  77 H :    0.015692
  78 H :    0.016226
  79 H :    0.029129
  80 H :    0.094353
  81 H :    0.031469
  82 H :    0.027909
  83 H :    0.039787
  84 H :    0.043437
  85 H :    0.022146
  86 H :    0.033032
  87 H :    0.039809
  88 H :    0.020530
  89 H :    0.025821

  Mayer bond orders larger than 0.100000
B(  0-C ,  1-C ) :   1.5534 B(  0-C , 14-S ) :   1.1640 B(  0-C , 69-H ) :   0.9707
B(  1-C ,  2-C ) :   1.2689 B(  1-C , 70-H ) :   1.0018 B(  2-C ,  3-C ) :   0.9806
B(  2-C , 13-C ) :   1.5315 B(  3-C ,  4-C ) :   1.3866 B(  3-C ,  8-C ) :   1.3118
B(  4-C ,  5-C ) :   1.3038 B(  4-C , 71-H ) :   1.0104 B(  5-C ,  6-C ) :   1.3132
B(  5-C , 11-O ) :   1.1496 B(  6-C ,  7-C ) :   1.3090 B(  6-C , 72-H ) :   1.0089
B(  7-C ,  8-C ) :   1.3241 B(  7-C ,  9-O ) :   1.1557 B(  8-C , 73-H ) :   0.9976
B(  9-O , 10-C ) :   0.9609 B( 10-C , 74-H ) :   0.9779 B( 10-C , 75-H ) :   0.9678
B( 10-C , 76-H ) :   0.9660 B( 11-O , 12-C ) :   0.9642 B( 12-C , 77-H ) :   0.9694
B( 12-C , 78-H ) :   0.9694 B( 12-C , 79-H ) :   0.9794 B( 13-C , 14-S ) :   1.1214
B( 13-C , 15-C ) :   1.0925 B( 15-C , 16-C ) :   0.9776 B( 15-C , 27-C ) :   1.7119
B( 16-C , 17-C ) :   1.3264 B( 16-C , 19-C ) :   0.1156 B( 16-C , 21-C ) :   1.3316
B( 17-C , 18-C ) :   1.3161 B( 17-C , 26-F ) :   1.1167 B( 18-C , 19-C ) :   1.2739
B( 18-C , 25-F ) :   1.1779 B( 19-C , 20-C ) :   1.2897 B( 19-C , 24-F ) :   1.1710
B( 20-C , 21-C ) :   1.2762 B( 20-C , 23-F ) :   1.1737 B( 21-C , 22-F ) :   1.1670
B( 27-C , 28-C ) :   0.9402 B( 27-C , 39-C ) :   1.0481 B( 28-C , 29-C ) :   1.3265
B( 28-C , 31-C ) :   0.1127 B( 28-C , 33-C ) :   1.3079 B( 29-C , 30-C ) :   1.2911
B( 29-C , 38-F ) :   1.1511 B( 30-C , 31-C ) :   1.2730 B( 30-C , 37-F ) :   1.1769
B( 31-C , 32-C ) :   1.2795 B( 31-C , 36-F ) :   1.1804 B( 32-C , 33-C ) :   1.2736
B( 32-C , 35-F ) :   1.1780 B( 33-C , 34-F ) :   1.1854 B( 39-C , 40-N ) :   1.2436
B( 39-C , 41-C ) :   0.1321 B( 39-C , 43-C ) :   1.4094 B( 40-N , 41-C ) :   1.2429
B( 40-N , 80-H ) :   0.9277 B( 41-C , 42-C ) :   1.4145 B( 41-C , 44-C ) :   0.8026
B( 42-C , 43-C ) :   1.3264 B( 42-C , 81-H ) :   1.0170 B( 43-C , 82-H ) :   1.0037
B( 44-C , 45-C ) :   2.2443 B( 45-C , 46-C ) :   0.9342 B( 46-C , 47-C ) :   1.4625
B( 46-C , 49-C ) :   0.1112 B( 46-C , 51-C ) :   1.1650 B( 47-C , 48-C ) :   1.1646
B( 47-C , 83-H ) :   1.0092 B( 48-C , 49-C ) :   1.4801 B( 48-C , 84-H ) :   1.0022
B( 49-C , 50-C ) :   1.1814 B( 49-C , 55-C ) :   1.0123 B( 50-C , 51-C ) :   1.1251
B( 50-C , 54-N ) :   1.6107 B( 51-C , 52-N ) :   1.6233 B( 52-N , 53-Se) :   1.2416
B( 52-N , 54-N ) :   0.1263 B( 53-Se, 54-N ) :   1.2380 B( 55-C , 56-N ) :   1.6439
B( 55-C , 57-C ) :   0.1174 B( 55-C , 66-C ) :   1.0359 B( 56-N , 57-C ) :   1.3334
B( 57-C , 58-C ) :   1.0366 B( 57-C , 62-C ) :   1.4331 B( 58-C , 59-C ) :   0.8842
B( 58-C , 66-C ) :   1.6084 B( 59-C , 60-O ) :   2.2960 B( 59-C , 61-C ) :   0.8959
B( 61-C , 62-C ) :   1.0530 B( 61-C , 65-C ) :   1.6153 B( 62-C , 63-N ) :   1.3051
B( 63-N , 64-C ) :   1.6620 B( 64-C , 65-C ) :   1.0747 B( 64-C , 85-H ) :   0.9889
B( 65-C , 86-H ) :   1.0090 B( 66-C , 67-C ) :   1.0943 B( 67-C , 68-C ) :   1.9375
B( 67-C , 87-H ) :   0.9532 B( 68-C , 88-H ) :   0.9522 B( 68-C , 89-H ) :   0.9522

-----------------------------------------------------------------------------
         ABSORPTION SPECTRUM VIA TRANSITION ELECTRIC DIPOLE MOMENTS
-----------------------------------------------------------------------------
State   Energy  Wavelength   fosc         T2         TX        TY        TZ
        (cm-1)    (nm)                  (au**2)     (au)      (au)      (au)
-----------------------------------------------------------------------------
   0   16300.8    613.5   1.302246511  26.30032   1.33070  -4.58808  -1.86523
   1   20291.8    492.8   0.123513958   2.00388   0.41927  -1.16372  -0.68836
   2   22127.0    451.9   0.009747092   0.14502   0.04623  -0.37440   0.05201
   3   23080.4    433.3   0.080965063   1.15486   0.41566  -0.98780  -0.07957
   4   24121.9    414.6   0.213600818   2.91519   0.37098  -1.37587  -0.94050
   5   25538.1    391.6   0.103260312   1.33113  -0.25267   0.85154   0.73632
   6   26336.5    379.7   0.011214687   0.14019  -0.10588   0.34808   0.08839
   7   26564.0    376.4   0.020535018   0.25449  -0.06269   0.41739   0.27631
   8   27487.8    363.8   0.005085584   0.06091  -0.03933  -0.21843  -0.10793
   9   27670.9    361.4   0.003742338   0.04452  -0.09554  -0.18257   0.04543
  10   28301.3    353.3   0.046502843   0.54094  -0.27956   0.57990   0.35567
  11   29489.1    339.1   0.044908481   0.50135   0.21106  -0.38968  -0.55223
  12   30900.6    323.6   0.006919470   0.07372  -0.03439  -0.15276  -0.22181
  13   31078.0    321.8   0.005842072   0.06189   0.00744  -0.22419  -0.10755
  14   31202.3    320.5   0.035665762   0.37631   0.28682   0.13579   0.52497
  15   31470.4    317.8   0.039464934   0.41284   0.33573   0.24897   0.48799
  16   31577.4    316.7   0.046325448   0.48297   0.26539  -0.54187  -0.34483
  17   32291.6    309.7   0.121379879   1.23747  -0.41351   0.98234   0.31856
  18   32803.5    304.8   0.072135614   0.72394   0.45124   0.63318   0.34556
  19   33002.3    303.0   0.132980517   1.32654   0.15700  -1.03683  -0.47630
  20   33551.1    298.1   0.140871884   1.38227  -0.34001  -0.47157  -1.02190
  21   33879.8    295.2   0.043829887   0.42590  -0.02136   0.62871  -0.17369
  22   34550.3    289.4   0.108412036   1.03300   0.48687  -0.79778  -0.39938
  23   35581.8    281.0   0.109291341   1.01119   0.16194   0.86901   0.47936
  24   35752.6    279.7   0.038750408   0.35682   0.14964  -0.13989  -0.56112
  25   35826.8    279.1   0.020935510   0.19238   0.40196   0.16958  -0.04525
  26   36090.0    277.1   0.089649266   0.81778  -0.03024  -0.77591  -0.46350
  27   36288.6    275.6   0.016607585   0.15066  -0.25004  -0.28342  -0.08842
  28   36719.2    272.3   0.091704251   0.82219   0.67541  -0.13697  -0.58928
  29   37193.0    268.9   0.151350216   1.33967   0.38230  -1.09053   0.06532
  30   37361.7    267.7   0.093444811   0.82339  -0.17037   0.79543   0.40207
  31   37468.2    266.9   0.021299059   0.18714  -0.05100  -0.30854  -0.29891
  32   37521.8    266.5   0.027497761   0.24126  -0.02621   0.30566   0.38360
  33   37994.3    263.2   0.190150707   1.64761   0.23585  -0.57701  -1.12207
  34   38452.4    260.1   0.043358818   0.37122  -0.34476  -0.03535   0.50111
  35   38652.9    258.7   0.021513959   0.18324   0.17664   0.35360  -0.16431
  36   38853.3    257.4   0.010050524   0.08516  -0.12357   0.11398  -0.23854
  37   39388.0    253.9   0.219869352   1.83771  -1.27597  -0.35563  -0.28832
  38   39519.2    253.0   0.149693085   1.24701   0.64867   0.58211   0.69812
  39   39729.3    251.7   0.051995334   0.43085   0.07114  -0.44193  -0.48009
  40   39826.0    251.1   0.021408874   0.17697   0.26046   0.02601   0.32932
  41   39984.0    250.1   0.027234341   0.22424   0.30381  -0.13191   0.33843
  42   40175.9    248.9   0.034079445   0.27926   0.52264  -0.07811  -0.00249

FINAL SINGLE POINT ENERGY     -6172.889547027220

DIPOLE MOMENT
-------------
                                X             Y             Z
Electronic contribution:     59.09666     -23.04327      -7.50035
Nuclear contribution   :    -59.35083      24.56920       9.01491
                        -----------------------------------------
Total Dipole Moment    :     -0.25417       1.52593       1.51457
                        -----------------------------------------
Magnitude (a.u.)       :      2.16494
Magnitude (Debye)      :      5.50284

Rotational constants in cm-1:     0.002059     0.000349     0.000325
Rotational constants in MHz :    61.730284    10.477015     9.753832

                             ****ORCA TERMINATED NORMALLY****
TOTAL RUN TIME: 0 days 0 hours 9 minutes 26 seconds 663 msec
