                         Program Version 4.2.0 -  RELEASE  -
|  1> # ORCA input file
|  2> # SCF done       -188.033655400776          0.000940604739
|  3> ! CAM-B3LYP def2-SVP def2/J RIJCOSX Grid4 TightSCF
|  4> %maxcore 5000
|  5> %tddft
|  6>     Mode sTDDFT
|  7>     Ethresh 5.0
|  8>     maxcore 5000
|  9> end
| 10>
| 11> %pal
| 12>   nprocs 6
| 13>   end
| 14> * xyz 0 1
| 15>    C        1.52679         0.08913         1.74751
| 16>    C        0.29552         0.29566         1.21456
| 17>    C       -0.44589        -0.89704         1.04238
| 18>    C       -1.83106        -0.93280         0.57561
| 19>    C       -2.19097        -0.19171        -0.54859
| 20>    C       -3.49015        -0.26212        -1.02550
| 21>    C       -4.44155        -1.03553        -0.35884
| 22>    C       -4.08717        -1.75020         0.77405
| 23>    C       -2.77455        -1.69770         1.24050
| 24>    O       -4.93582        -2.53377         1.49282
| 25>    C       -6.26497        -2.66393         1.05373
| 26>    O       -3.94498         0.38499        -2.13329
| 27>    C       -3.00450         1.04258        -2.94902
| 28>    C        0.26526        -2.01263         1.44722
| 29>    S        1.83311        -1.56689         2.06613
| 30>    C       -0.14386        -3.37304         1.29552
| 31>    C       -0.89281        -3.91443         0.25925
| 32>    C       -1.13307        -5.28554         0.56083
| 33>    C       -0.45133        -5.60752         1.79516
| 34>    O       -0.31573        -6.62945         2.42593
| 35>    N        0.13598        -4.37774         2.18246
| 36>    C        0.85787        -4.25822         3.41835
| 37>    C       -1.85896        -5.84129        -0.47589
| 38>    N       -2.05993        -4.86064        -1.41897
| 39>    C       -1.47756        -3.63311        -1.02676
| 40>    O       -1.50898        -2.64459        -1.73195
| 41>    C       -2.94374        -4.91291        -2.55257
| 42>    C       -2.31684        -7.19574        -0.49689
| 43>    C       -2.76736        -7.88020         0.61888
| 44>    C       -3.02038        -9.22778         0.24224
| 45>    C       -2.74765        -9.36233        -1.16971
| 46>    O       -2.84254       -10.28279        -1.94955
| 47>    N       -2.32403        -8.06690        -1.55936
| 48>    C       -1.72722        -7.86389        -2.85237
| 49>    C       -3.48267        -9.91118         1.35382
| 50>    N       -3.56397        -9.02027         2.39482
| 51>    C       -3.12232        -7.72679         2.01145
| 52>    O       -3.11845        -6.78629         2.77117
| 53>    C       -3.77951        -9.32658         3.78357
| 54>    C       -3.73922       -11.31771         1.36821
| 55>    C       -2.96709       -12.24923         0.69919
| 56>    C       -3.54551       -13.53546         0.88603
| 57>    C       -4.73635       -13.37061         1.67789
| 58>    O       -5.58959       -14.14870         2.06372
| 59>    N       -4.77984       -11.99067         1.96622
| 60>    C       -5.93598       -11.41298         2.59789
| 61>    C       -2.73551       -14.47256         0.24736
| 62>    N       -1.67655       -13.79884        -0.30263
| 63>    C       -1.74023       -12.40636        -0.04863
| 64>    O       -0.88201       -11.63305        -0.40370
| 65>    C       -0.59439       -14.34304        -1.07258
| 66>    C       -2.96319       -15.87361         0.19422
| 67>    C       -4.07089       -16.50980         0.70942
| 68>    C       -4.05482       -17.91041         0.54257
| 69>    C       -5.11464       -18.80741         1.00464
| 70>    C       -5.92716       -18.43370         2.06229
| 71>    C       -6.93622       -19.28797         2.51089
| 72>    C       -7.12332       -20.51425         1.89465
| 73>    C       -6.30627       -20.89076         0.82679
| 74>    C       -5.30633       -20.04348         0.38094
| 75>    O       -6.58244       -22.11694         0.29758
| 76>    C       -5.79715       -22.57951        -0.77307
| 77>    O       -7.67410       -18.82918         3.55530
| 78>    C       -8.72204       -19.63148         4.04209
| 79>    C       -2.91395       -18.32198        -0.10279
| 80>    S       -1.86793       -17.03703        -0.51251
| 81>    H        2.28087         0.81458         1.98127
| 82>    H       -0.09156         1.26782         0.96811
| 83>    H       -1.43374         0.37680        -1.06095
| 84>    H       -5.43830        -1.05672        -0.76747
| 85>    H       -2.52096        -2.26487         2.12141
| 86>    H       -6.74107        -3.34447         1.75789
| 87>    H       -6.31604        -3.09103         0.04680
| 88>    H       -6.78958        -1.70288         1.06619
| 89>    H       -3.55884         1.38564        -3.82153
| 90>    H       -2.21014         0.35962        -3.26378
| 91>    H       -2.56486         1.90686        -2.44000
| 92>    H        0.48297        -3.42112         4.00876
| 93>    H        1.92734        -4.12382         3.24110
| 94>    H        0.70184        -5.19018         3.96242
| 95>    H       -3.73191        -5.64441        -2.38141
| 96>    H       -2.40343        -5.15571        -3.47029
| 97>    H       -3.38056        -3.91983        -2.67324
| 98>    H       -1.31973        -8.82300        -3.17587
| 99>    H       -0.92706        -7.12839        -2.78819
|100>    H       -2.46936        -7.54580        -3.58824
|101>    H       -3.45804       -10.34405         4.00075
|102>    H       -4.82815        -9.19855         4.06196
|103>    H       -3.18588        -8.62105         4.36689
|104>    H       -5.80346       -11.33903         3.67944
|105>    H       -6.77896       -12.07915         2.40667
|106>    H       -6.14178       -10.42822         2.18102
|107>    H       -0.96157       -14.85627        -1.96290
|108>    H        0.00820       -15.03428        -0.47962
|109>    H        0.02313       -13.49555        -1.37363
|110>    H       -4.87254       -15.96818         1.17827
|111>    H       -5.79864       -17.49010         2.56519
|112>    H       -7.88693       -21.20868         2.20226
|113>    H       -4.68482       -20.31224        -0.45674
|114>    H       -6.18716       -23.56574        -1.02009
|115>    H       -4.74326       -22.66917        -0.48940
|116>    H       -5.88414       -21.92753        -1.64833
|117>    H       -9.17162       -19.06606         4.85672
|118>    H       -8.35179       -20.58752         4.42603
|119>    H       -9.47646       -19.81794         3.27116
|120>    H       -2.61136       -19.32233        -0.34191
|121> *
|122>
|123>                          ****END OF INPUT****

CARTESIAN COORDINATES (ANGSTROEM)
---------------------------------
  C      1.526790    0.089130    1.747510
  C      0.295520    0.295660    1.214560
  C     -0.445890   -0.897040    1.042380
  C     -1.831060   -0.932800    0.575610
  C     -2.190970   -0.191710   -0.548590
  C     -3.490150   -0.262120   -1.025500
  C     -4.441550   -1.035530   -0.358840
  C     -4.087170   -1.750200    0.774050
  C     -2.774550   -1.697700    1.240500
  O     -4.935820   -2.533770    1.492820
  C     -6.264970   -2.663930    1.053730
  O     -3.944980    0.384990   -2.133290
  C     -3.004500    1.042580   -2.949020
  C      0.265260   -2.012630    1.447220
  S      1.833110   -1.566890    2.066130
  C     -0.143860   -3.373040    1.295520
  C     -0.892810   -3.914430    0.259250
  C     -1.133070   -5.285540    0.560830
  C     -0.451330   -5.607520    1.795160
  O     -0.315730   -6.629450    2.425930
  N      0.135980   -4.377740    2.182460
  C      0.857870   -4.258220    3.418350
  C     -1.858960   -5.841290   -0.475890
  N     -2.059930   -4.860640   -1.418970
  C     -1.477560   -3.633110   -1.026760
  O     -1.508980   -2.644590   -1.731950
  C     -2.943740   -4.912910   -2.552570
  C     -2.316840   -7.195740   -0.496890
  C     -2.767360   -7.880200    0.618880
  C     -3.020380   -9.227780    0.242240
  C     -2.747650   -9.362330   -1.169710
  O     -2.842540  -10.282790   -1.949550
  N     -2.324030   -8.066900   -1.559360
  C     -1.727220   -7.863890   -2.852370
  C     -3.482670   -9.911180    1.353820
  N     -3.563970   -9.020270    2.394820
  C     -3.122320   -7.726790    2.011450
  O     -3.118450   -6.786290    2.771170
  C     -3.779510   -9.326580    3.783570
  C     -3.739220  -11.317710    1.368210
  C     -2.967090  -12.249230    0.699190
  C     -3.545510  -13.535460    0.886030
  C     -4.736350  -13.370610    1.677890
  O     -5.589590  -14.148700    2.063720
  N     -4.779840  -11.990670    1.966220
  C     -5.935980  -11.412980    2.597890
  C     -2.735510  -14.472560    0.247360
  N     -1.676550  -13.798840   -0.302630
  C     -1.740230  -12.406360   -0.048630
  O     -0.882010  -11.633050   -0.403700
  C     -0.594390  -14.343040   -1.072580
  C     -2.963190  -15.873610    0.194220
  C     -4.070890  -16.509800    0.709420
  C     -4.054820  -17.910410    0.542570
  C     -5.114640  -18.807410    1.004640
  C     -5.927160  -18.433700    2.062290
  C     -6.936220  -19.287970    2.510890
  C     -7.123320  -20.514250    1.894650
  C     -6.306270  -20.890760    0.826790
  C     -5.306330  -20.043480    0.380940
  O     -6.582440  -22.116940    0.297580
  C     -5.797150  -22.579510   -0.773070
  O     -7.674100  -18.829180    3.555300
  C     -8.722040  -19.631480    4.042090
  C     -2.913950  -18.321980   -0.102790
  S     -1.867930  -17.037030   -0.512510
  H      2.280870    0.814580    1.981270
  H     -0.091560    1.267820    0.968110
  H     -1.433740    0.376800   -1.060950
  H     -5.438300   -1.056720   -0.767470
  H     -2.520960   -2.264870    2.121410
  H     -6.741070   -3.344470    1.757890
  H     -6.316040   -3.091030    0.046800
  H     -6.789580   -1.702880    1.066190
  H     -3.558840    1.385640   -3.821530
  H     -2.210140    0.359620   -3.263780
  H     -2.564860    1.906860   -2.440000
  H      0.482970   -3.421120    4.008760
  H      1.927340   -4.123820    3.241100
  H      0.701840   -5.190180    3.962420
  H     -3.731910   -5.644410   -2.381410
  H     -2.403430   -5.155710   -3.470290
  H     -3.380560   -3.919830   -2.673240
  H     -1.319730   -8.823000   -3.175870
  H     -0.927060   -7.128390   -2.788190
  H     -2.469360   -7.545800   -3.588240
  H     -3.458040  -10.344050    4.000750
  H     -4.828150   -9.198550    4.061960
  H     -3.185880   -8.621050    4.366890
  H     -5.803460  -11.339030    3.679440
  H     -6.778960  -12.079150    2.406670
  H     -6.141780  -10.428220    2.181020
  H     -0.961570  -14.856270   -1.962900
  H      0.008200  -15.034280   -0.479620
  H      0.023130  -13.495550   -1.373630
  H     -4.872540  -15.968180    1.178270
  H     -5.798640  -17.490100    2.565190
  H     -7.886930  -21.208680    2.202260
  H     -4.684820  -20.312240   -0.456740
  H     -6.187160  -23.565740   -1.020090
  H     -4.743260  -22.669170   -0.489400
  H     -5.884140  -21.927530   -1.648330
  H     -9.171620  -19.066060    4.856720
  H     -8.351790  -20.587520    4.426030
  H     -9.476460  -19.817940    3.271160
  H     -2.611360  -19.322330   -0.341910

 Total Charge           Charge          ....    0
 Multiplicity           Mult            ....    1
 Number of Electrons    NEL             ....  482
 Basis Dimension        Dim             .... 1132

ORBITAL ENERGIES
----------------

  NO   OCC          E(Eh)            E(eV)
   0   2.0000     -88.963728     -2420.8261
   1   2.0000     -88.961020     -2420.7524
   2   2.0000     -19.236117      -523.4414
   3   2.0000     -19.232522      -523.3435
   4   2.0000     -19.226617      -523.1828
   5   2.0000     -19.226494      -523.1795
   6   2.0000     -19.186310      -522.0860
   7   2.0000     -19.182476      -521.9817
   8   2.0000     -19.177637      -521.8500
   9   2.0000     -19.177173      -521.8374
  10   2.0000     -19.177070      -521.8346
  11   2.0000     -19.172582      -521.7125
  12   2.0000     -14.452225      -393.2650
  13   2.0000     -14.448748      -393.1704
  14   2.0000     -14.447275      -393.1303
  15   2.0000     -14.445677      -393.0869
  16   2.0000     -14.445420      -393.0799
  17   2.0000     -14.444625      -393.0582
  18   2.0000     -10.367732      -282.1203
  19   2.0000     -10.363917      -282.0165
  20   2.0000     -10.363016      -281.9920
  21   2.0000     -10.360260      -281.9170
  22   2.0000     -10.360193      -281.9152
  23   2.0000     -10.357921      -281.8534
  24   2.0000     -10.345781      -281.5230
  25   2.0000     -10.338894      -281.3356
  26   2.0000     -10.333429      -281.1869
  27   2.0000     -10.332672      -281.1663
  28   2.0000     -10.329036      -281.0674
  29   2.0000     -10.328299      -281.0473
  30   2.0000     -10.323741      -280.9233
  31   2.0000     -10.321381      -280.8591
  32   2.0000     -10.317172      -280.7445
  33   2.0000     -10.313917      -280.6559
  34   2.0000     -10.313322      -280.6398
  35   2.0000     -10.312480      -280.6168
  36   2.0000     -10.308378      -280.5052
  37   2.0000     -10.307215      -280.4736
  38   2.0000     -10.307103      -280.4705
  39   2.0000     -10.303517      -280.3729
  40   2.0000     -10.300275      -280.2847
  41   2.0000     -10.299442      -280.2621
  42   2.0000     -10.298902      -280.2474
  43   2.0000     -10.298885      -280.2469
  44   2.0000     -10.297963      -280.2218
  45   2.0000     -10.297013      -280.1960
  46   2.0000     -10.296702      -280.1875
  47   2.0000     -10.295529      -280.1556
  48   2.0000     -10.285560      -279.8843
  49   2.0000     -10.280146      -279.7370
  50   2.0000     -10.275421      -279.6084
  51   2.0000     -10.274279      -279.5774
  52   2.0000     -10.272985      -279.5421
  53   2.0000     -10.267800      -279.4010
  54   2.0000     -10.258952      -279.1603
  55   2.0000     -10.255882      -279.0767
  56   2.0000     -10.253533      -279.0128
  57   2.0000     -10.253234      -279.0047
  58   2.0000     -10.253187      -279.0034
  59   2.0000     -10.251896      -278.9683
  60   2.0000     -10.251516      -278.9579
  61   2.0000     -10.249052      -278.8909
  62   2.0000     -10.247103      -278.8379
  63   2.0000     -10.245544      -278.7954
  64   2.0000     -10.245247      -278.7873
  65   2.0000     -10.242103      -278.7018
  66   2.0000      -8.058887      -219.2935
  67   2.0000      -8.056432      -219.2267
  68   2.0000      -6.028224      -164.0363
  69   2.0000      -6.025801      -163.9704
  70   2.0000      -6.023730      -163.9140
  71   2.0000      -6.021371      -163.8498
  72   2.0000      -6.021323      -163.8485
  73   2.0000      -6.018755      -163.7786
  74   2.0000      -1.140263       -31.0281
  75   2.0000      -1.137136       -30.9430
  76   2.0000      -1.132200       -30.8087
  77   2.0000      -1.130008       -30.7491
  78   2.0000      -1.127890       -30.6914
  79   2.0000      -1.124041       -30.5867
  80   2.0000      -1.119254       -30.4564
  81   2.0000      -1.117876       -30.4190
  82   2.0000      -1.114418       -30.3248
  83   2.0000      -1.111758       -30.2525
  84   2.0000      -1.059859       -28.8402
  85   2.0000      -1.056561       -28.7505
  86   2.0000      -1.053992       -28.6806
  87   2.0000      -1.051811       -28.6212
  88   2.0000      -1.040085       -28.3022
  89   2.0000      -1.034150       -28.1407
  90   2.0000      -0.986331       -26.8394
  91   2.0000      -0.985617       -26.8200
  92   2.0000      -0.936916       -25.4948
  93   2.0000      -0.930472       -25.3194
  94   2.0000      -0.918798       -25.0018
  95   2.0000      -0.914294       -24.8792
  96   2.0000      -0.908058       -24.7095
  97   2.0000      -0.874292       -23.7907
  98   2.0000      -0.869273       -23.6541
  99   2.0000      -0.863112       -23.4865
 100   2.0000      -0.856770       -23.3139
 101   2.0000      -0.849872       -23.1262
 102   2.0000      -0.840010       -22.8578
 103   2.0000      -0.836262       -22.7558
 104   2.0000      -0.831707       -22.6319
 105   2.0000      -0.830049       -22.5868
 106   2.0000      -0.826667       -22.4948
 107   2.0000      -0.825102       -22.4522
 108   2.0000      -0.813759       -22.1435
 109   2.0000      -0.805129       -21.9087
 110   2.0000      -0.777682       -21.1618
 111   2.0000      -0.772365       -21.0171
 112   2.0000      -0.768879       -20.9223
 113   2.0000      -0.767352       -20.8807
 114   2.0000      -0.766848       -20.8670
 115   2.0000      -0.761335       -20.7170
 116   2.0000      -0.758728       -20.6460
 117   2.0000      -0.757883       -20.6230
 118   2.0000      -0.752933       -20.4883
 119   2.0000      -0.742559       -20.2061
 120   2.0000      -0.723177       -19.6786
 121   2.0000      -0.695965       -18.9382
 122   2.0000      -0.688455       -18.7338
 123   2.0000      -0.683088       -18.5878
 124   2.0000      -0.675327       -18.3766
 125   2.0000      -0.672836       -18.3088
 126   2.0000      -0.668933       -18.2026
 127   2.0000      -0.666681       -18.1413
 128   2.0000      -0.663836       -18.0639
 129   2.0000      -0.658667       -17.9232
 130   2.0000      -0.654236       -17.8027
 131   2.0000      -0.651497       -17.7281
 132   2.0000      -0.649151       -17.6643
 133   2.0000      -0.628191       -17.0940
 134   2.0000      -0.626438       -17.0463
 135   2.0000      -0.626358       -17.0441
 136   2.0000      -0.619644       -16.8614
 137   2.0000      -0.616270       -16.7696
 138   2.0000      -0.608549       -16.5594
 139   2.0000      -0.585065       -15.9204
 140   2.0000      -0.580061       -15.7843
 141   2.0000      -0.576000       -15.6737
 142   2.0000      -0.573562       -15.6074
 143   2.0000      -0.571581       -15.5535
 144   2.0000      -0.569993       -15.5103
 145   2.0000      -0.568350       -15.4656
 146   2.0000      -0.564887       -15.3714
 147   2.0000      -0.562869       -15.3164
 148   2.0000      -0.561611       -15.2822
 149   2.0000      -0.558605       -15.2004
 150   2.0000      -0.554633       -15.0923
 151   2.0000      -0.554443       -15.0872
 152   2.0000      -0.553672       -15.0662
 153   2.0000      -0.551771       -15.0145
 154   2.0000      -0.549818       -14.9613
 155   2.0000      -0.548974       -14.9383
 156   2.0000      -0.548001       -14.9119
 157   2.0000      -0.545992       -14.8572
 158   2.0000      -0.542501       -14.7622
 159   2.0000      -0.541117       -14.7245
 160   2.0000      -0.540628       -14.7112
 161   2.0000      -0.539090       -14.6694
 162   2.0000      -0.534100       -14.5336
 163   2.0000      -0.531958       -14.4753
 164   2.0000      -0.529840       -14.4177
 165   2.0000      -0.512152       -13.9364
 166   2.0000      -0.510925       -13.9030
 167   2.0000      -0.507845       -13.8192
 168   2.0000      -0.506093       -13.7715
 169   2.0000      -0.504760       -13.7352
 170   2.0000      -0.501336       -13.6420
 171   2.0000      -0.500213       -13.6115
 172   2.0000      -0.498288       -13.5591
 173   2.0000      -0.495954       -13.4956
 174   2.0000      -0.493346       -13.4246
 175   2.0000      -0.491441       -13.3728
 176   2.0000      -0.490772       -13.3546
 177   2.0000      -0.488980       -13.3058
 178   2.0000      -0.487714       -13.2714
 179   2.0000      -0.486143       -13.2286
 180   2.0000      -0.484474       -13.1832
 181   2.0000      -0.481592       -13.1048
 182   2.0000      -0.480266       -13.0687
 183   2.0000      -0.477104       -12.9827
 184   2.0000      -0.473914       -12.8958
 185   2.0000      -0.472972       -12.8702
 186   2.0000      -0.471201       -12.8220
 187   2.0000      -0.470027       -12.7901
 188   2.0000      -0.469281       -12.7698
 189   2.0000      -0.468281       -12.7426
 190   2.0000      -0.467163       -12.7122
 191   2.0000      -0.464088       -12.6285
 192   2.0000      -0.461539       -12.5591
 193   2.0000      -0.460108       -12.5202
 194   2.0000      -0.456973       -12.4349
 195   2.0000      -0.455999       -12.4084
 196   2.0000      -0.452993       -12.3266
 197   2.0000      -0.449482       -12.2310
 198   2.0000      -0.447082       -12.1657
 199   2.0000      -0.444612       -12.0985
 200   2.0000      -0.442618       -12.0442
 201   2.0000      -0.440313       -11.9815
 202   2.0000      -0.437385       -11.9019
 203   2.0000      -0.436647       -11.8818
 204   2.0000      -0.435591       -11.8530
 205   2.0000      -0.421339       -11.4652
 206   2.0000      -0.418829       -11.3969
 207   2.0000      -0.417075       -11.3492
 208   2.0000      -0.413077       -11.2404
 209   2.0000      -0.412510       -11.2250
 210   2.0000      -0.405693       -11.0395
 211   2.0000      -0.404855       -11.0167
 212   2.0000      -0.399477       -10.8703
 213   2.0000      -0.397861       -10.8264
 214   2.0000      -0.395842       -10.7714
 215   2.0000      -0.392759       -10.6875
 216   2.0000      -0.386783       -10.5249
 217   2.0000      -0.382404       -10.4057
 218   2.0000      -0.378193       -10.2912
 219   2.0000      -0.377424       -10.2702
 220   2.0000      -0.366252        -9.9662
 221   2.0000      -0.340335        -9.2610
 222   2.0000      -0.336148        -9.1470
 223   2.0000      -0.334157        -9.0929
 224   2.0000      -0.326220        -8.8769
 225   2.0000      -0.325591        -8.8598
 226   2.0000      -0.322613        -8.7788
 227   2.0000      -0.321182        -8.7398
 228   2.0000      -0.317561        -8.6413
 229   2.0000      -0.316190        -8.6040
 230   2.0000      -0.311966        -8.4890
 231   2.0000      -0.309613        -8.4250
 232   2.0000      -0.306585        -8.3426
 233   2.0000      -0.303250        -8.2519
 234   2.0000      -0.278580        -7.5805
 235   2.0000      -0.276564        -7.5257
 236   2.0000      -0.271218        -7.3802
 237   2.0000      -0.266729        -7.2581
 238   2.0000      -0.257694        -7.0122
 239   2.0000      -0.241684        -6.5765
 240   2.0000      -0.222112        -6.0440
 241   0.0000      -0.080888        -2.2011
 242   0.0000      -0.052402        -1.4259
 243   0.0000      -0.020540        -0.5589
 244   0.0000       0.008716         0.2372
 245   0.0000       0.017832         0.4852

MULLIKEN ATOMIC CHARGES
-----------------------
   0 C :   -0.043292
   1 C :    0.001665
   2 C :    0.155230
   3 C :    0.024421
   4 C :   -0.078256
   5 C :    0.247786
   6 C :   -0.150577
   7 C :    0.234932
   8 C :   -0.028534
   9 O :   -0.305622
  10 C :    0.181499
  11 O :   -0.316320
  12 C :    0.177428
  13 C :   -0.236795
  14 S :    0.127131
  15 C :    0.107797
  16 C :   -0.040191
  17 C :   -0.026680
  18 C :    0.156461
  19 O :   -0.166907
  20 N :   -0.277110
  21 C :    0.113991
  22 C :    0.042692
  23 N :   -0.265356
  24 C :    0.141296
  25 O :   -0.193809
  26 C :    0.136138
  27 C :    0.056261
  28 C :   -0.026926
  29 C :   -0.030365
  30 C :    0.143811
  31 O :   -0.180869
  32 N :   -0.271052
  33 C :    0.133709
  34 C :    0.057194
  35 N :   -0.269545
  36 C :    0.142733
  37 O :   -0.174073
  38 C :    0.132181
  39 C :    0.037144
  40 C :   -0.002812
  41 C :   -0.108672
  42 C :    0.152724
  43 O :   -0.217793
  44 N :   -0.262262
  45 C :    0.131277
  46 C :    0.193669
  47 N :   -0.283537
  48 C :    0.154186
  49 O :   -0.165253
  50 C :    0.112431
  51 C :   -0.138893
  52 C :   -0.038445
  53 C :    0.120555
  54 C :    0.126636
  55 C :   -0.080676
  56 C :    0.257071
  57 C :   -0.154080
  58 C :    0.254065
  59 C :   -0.161652
  60 O :   -0.314358
  61 C :    0.181447
  62 O :   -0.306382
  63 C :    0.178585
  64 C :   -0.116179
  65 S :    0.120195
  66 H :    0.033172
  67 H :   -0.009102
  68 H :   -0.048366
  69 H :   -0.040812
  70 H :   -0.025747
  71 H :    0.036218
  72 H :    0.014914
  73 H :    0.019843
  74 H :    0.028384
  75 H :    0.036102
  76 H :    0.013603
  77 H :    0.038854
  78 H :    0.037221
  79 H :    0.060764
  80 H :    0.034851
  81 H :    0.026015
  82 H :    0.050089
  83 H :    0.054513
  84 H :    0.039219
  85 H :    0.025791
  86 H :    0.036939
  87 H :    0.026614
  88 H :    0.056152
  89 H :    0.030523
  90 H :    0.052639
  91 H :    0.036735
  92 H :    0.039303
  93 H :    0.039122
  94 H :    0.063657
  95 H :    0.019237
  96 H :   -0.016824
  97 H :   -0.035454
  98 H :   -0.053378
  99 H :    0.033590
 100 H :    0.017169
 101 H :    0.022894
 102 H :    0.035761
 103 H :    0.020903
 104 H :    0.022054
 105 H :    0.025765
Sum of atomic charges:   -0.0000000

LOEWDIN ATOMIC CHARGES
----------------------
   0 C :   -0.167159
   1 C :   -0.053784
   2 C :   -0.008378
   3 C :   -0.008051
   4 C :   -0.072362
   5 C :    0.069569
   6 C :   -0.100601
   7 C :    0.059421
   8 C :   -0.056293
   9 O :   -0.102024
  10 C :    0.075250
  11 O :   -0.107679
  12 C :    0.075145
  13 C :   -0.198733
  14 S :    0.451402
  15 C :    0.073380
  16 C :   -0.126226
  17 C :   -0.089402
  18 C :    0.090288
  19 O :   -0.165446
  20 N :   -0.007708
  21 C :    0.020347
  22 C :    0.041279
  23 N :   -0.010560
  24 C :    0.079902
  25 O :   -0.194756
  26 C :    0.030363
  27 C :    0.055786
  28 C :   -0.101228
  29 C :   -0.102539
  30 C :    0.084526
  31 O :   -0.180957
  32 N :   -0.011691
  33 C :    0.031112
  34 C :    0.055951
  35 N :   -0.011926
  36 C :    0.085000
  37 O :   -0.174980
  38 C :    0.030867
  39 C :    0.037493
  40 C :   -0.087115
  41 C :   -0.136765
  42 C :    0.077571
  43 O :   -0.212589
  44 N :   -0.007152
  45 C :    0.030475
  46 C :    0.084837
  47 N :   -0.009202
  48 C :    0.093037
  49 O :   -0.162749
  50 C :    0.015423
  51 C :   -0.194852
  52 C :    0.000009
  53 C :   -0.050001
  54 C :   -0.002295
  55 C :   -0.056892
  56 C :    0.067717
  57 C :   -0.102065
  58 C :    0.069667
  59 C :   -0.100202
  60 O :   -0.106921
  61 C :    0.074917
  62 O :   -0.100324
  63 C :    0.075885
  64 C :   -0.171036
  65 S :    0.459449
  66 H :    0.027117
  67 H :    0.033474
  68 H :    0.022824
  69 H :    0.028351
  70 H :    0.029741
  71 H :    0.028151
  72 H :    0.012137
  73 H :    0.013551
  74 H :    0.025115
  75 H :    0.020613
  76 H :    0.010814
  77 H :    0.026649
  78 H :    0.018712
  79 H :    0.041824
  80 H :    0.028974
  81 H :    0.023351
  82 H :    0.038336
  83 H :    0.040683
  84 H :    0.030361
  85 H :    0.023040
  86 H :    0.029761
  87 H :    0.022832
  88 H :    0.041399
  89 H :    0.024489
  90 H :    0.039385
  91 H :    0.029587
  92 H :    0.022384
  93 H :    0.020043
  94 H :    0.043534
  95 H :    0.037632
  96 H :    0.035945
  97 H :    0.029944
  98 H :    0.020056
  99 H :    0.027614
 100 H :    0.012792
 101 H :    0.014444
 102 H :    0.028089
 103 H :    0.014273
 104 H :    0.014974
 105 H :    0.023575

  Mayer bond orders larger than 0.100000
B(  0-C ,  1-C ) :   1.5489 B(  0-C , 14-S ) :   1.1674 B(  0-C , 66-H ) :   0.9712
B(  1-C ,  2-C ) :   1.2614 B(  1-C , 67-H ) :   0.9984 B(  2-C ,  3-C ) :   0.9893
B(  2-C , 13-C ) :   1.5177 B(  3-C ,  4-C ) :   1.3123 B(  3-C ,  8-C ) :   1.3938
B(  4-C ,  5-C ) :   1.3291 B(  4-C , 68-H ) :   0.9923 B(  5-C ,  6-C ) :   1.3124
B(  5-C , 11-O ) :   1.1427 B(  6-C ,  7-C ) :   1.3117 B(  6-C , 69-H ) :   1.0062
B(  7-C ,  8-C ) :   1.3278 B(  7-C ,  9-O ) :   1.1460 B(  8-C , 70-H ) :   1.0006
B(  9-O , 10-C ) :   0.9738 B( 10-C , 71-H ) :   0.9793 B( 10-C , 72-H ) :   0.9685
B( 10-C , 73-H ) :   0.9688 B( 11-O , 12-C ) :   0.9710 B( 12-C , 74-H ) :   0.9787
B( 12-C , 75-H ) :   0.9704 B( 12-C , 76-H ) :   0.9684 B( 13-C , 14-S ) :   1.1149
B( 13-C , 15-C ) :   1.0827 B( 15-C , 16-C ) :   1.4006 B( 15-C , 20-N ) :   1.2200
B( 16-C , 17-C ) :   1.2056 B( 16-C , 24-C ) :   0.9885 B( 17-C , 18-C ) :   0.9609
B( 17-C , 22-C ) :   1.4638 B( 18-C , 19-O ) :   2.1548 B( 18-C , 20-N ) :   1.0071
B( 20-N , 21-C ) :   0.9653 B( 21-C , 77-H ) :   0.9702 B( 21-C , 78-H ) :   0.9703
B( 21-C , 79-H ) :   0.9503 B( 22-C , 23-N ) :   1.1812 B( 22-C , 27-C ) :   1.0206
B( 23-N , 24-C ) :   1.0236 B( 23-N , 26-C ) :   0.9704 B( 24-C , 25-O ) :   2.1188
B( 26-C , 80-H ) :   0.9698 B( 26-C , 81-H ) :   0.9704 B( 26-C , 82-H ) :   0.9544
B( 27-C , 28-C ) :   1.4443 B( 27-C , 32-N ) :   1.1948 B( 28-C , 29-C ) :   1.1952
B( 28-C , 36-C ) :   0.9638 B( 29-C , 30-C ) :   0.9656 B( 29-C , 34-C ) :   1.4444
B( 30-C , 31-O ) :   2.1534 B( 30-C , 32-N ) :   1.0136 B( 32-N , 33-C ) :   0.9676
B( 33-C , 83-H ) :   0.9535 B( 33-C , 84-H ) :   0.9696 B( 33-C , 85-H ) :   0.9713
B( 34-C , 35-N ) :   1.1981 B( 34-C , 39-C ) :   1.0182 B( 35-N , 36-C ) :   1.0088
B( 35-N , 38-C ) :   0.9690 B( 36-C , 37-O ) :   2.1586 B( 38-C , 86-H ) :   0.9701
B( 38-C , 87-H ) :   0.9713 B( 38-C , 88-H ) :   0.9529 B( 39-C , 40-C ) :   1.4606
B( 39-C , 44-N ) :   1.1786 B( 40-C , 41-C ) :   1.2182 B( 40-C , 48-C ) :   0.9591
B( 41-C , 42-C ) :   1.0044 B( 41-C , 46-C ) :   1.3549 B( 42-C , 43-O ) :   2.0347
B( 42-C , 44-N ) :   1.0504 B( 43-O , 95-H ) :   0.1015 B( 44-N , 45-C ) :   0.9683
B( 45-C , 89-H ) :   0.9713 B( 45-C , 90-H ) :   0.9525 B( 45-C , 91-H ) :   0.9701
B( 46-C , 47-N ) :   1.2088 B( 46-C , 51-C ) :   1.1594 B( 47-N , 48-C ) :   1.0058
B( 47-N , 50-C ) :   0.9645 B( 48-C , 49-O ) :   2.1556 B( 50-C , 92-H ) :   0.9678
B( 50-C , 93-H ) :   0.9675 B( 50-C , 94-H ) :   0.9440 B( 51-C , 52-C ) :   1.4832
B( 51-C , 65-S ) :   1.0893 B( 52-C , 53-C ) :   1.2473 B( 52-C , 95-H ) :   0.9670
B( 53-C , 54-C ) :   0.9893 B( 53-C , 64-C ) :   1.5229 B( 54-C , 55-C ) :   1.3965
B( 54-C , 59-C ) :   1.2956 B( 55-C , 56-C ) :   1.3128 B( 55-C , 96-H ) :   1.0033
B( 56-C , 57-C ) :   1.3151 B( 56-C , 62-O ) :   1.1511 B( 57-C , 58-C ) :   1.3138
B( 57-C , 97-H ) :   1.0052 B( 58-C , 59-C ) :   1.3366 B( 58-C , 60-O ) :   1.1392
B( 59-C , 98-H ) :   0.9954 B( 60-O , 61-C ) :   0.9730 B( 61-C , 99-H ) :   0.9787
B( 61-C ,100-H ) :   0.9684 B( 61-C ,101-H ) :   0.9689 B( 62-O , 63-C ) :   0.9704
B( 63-C ,102-H ) :   0.9794 B( 63-C ,103-H ) :   0.9689 B( 63-C ,104-H ) :   0.9691
B( 64-C , 65-S ) :   1.1658 B( 64-C ,105-H ) :   0.9602

-----------------------------------------------------------------------------
         ABSORPTION SPECTRUM VIA TRANSITION ELECTRIC DIPOLE MOMENTS
-----------------------------------------------------------------------------
State   Energy  Wavelength   fosc         T2         TX        TY        TZ
        (cm-1)    (nm)                  (au**2)     (au)      (au)      (au)
-----------------------------------------------------------------------------
   0   14188.6    704.8   0.632255595  14.66990   0.84169   3.73539   0.09133
   1   18553.5    539.0   0.091507055   1.62370   0.90312  -0.69663   0.56814
   2   20736.3    482.2   0.087362699   1.38698   0.16577  -0.33694  -1.11623
   3   21208.4    471.5   0.078111364   1.21250  -0.93172   0.52568   0.26087
   4   23771.7    420.7   0.030958731   0.42875   0.42553   0.49727  -0.01987
   5   26000.3    384.6   0.139155463   1.76196  -0.74211   0.68654   0.86017
   6   26659.2    375.1   0.092558887   1.14300   0.07311   0.06236   1.06479
   7   27003.7    370.3   0.039219310   0.47814  -0.45353   0.26132  -0.45185
   8   27845.2    359.1   0.004201374   0.04967  -0.14556  -0.02080  -0.16749
   9   28257.9    353.9   0.028032173   0.32658   0.39320  -0.38985  -0.14138
  10   28523.6    350.6   0.014338655   0.16549  -0.02087  -0.17851   0.36495
  11   28540.6    350.4   0.021898893   0.25260   0.24929  -0.34979  -0.26096
  12   28796.4    347.3   0.059524128   0.68050  -0.16916   0.49531   0.63762
  13   29153.9    343.0   0.024517534   0.27686  -0.23390   0.02757  -0.47052
  14   29767.6    335.9   0.022757224   0.25168  -0.21814  -0.35627  -0.27780
  15   29939.2    334.0   0.055340060   0.60852  -0.14331  -0.76629  -0.02787
  16   30229.2    330.8   0.000863118   0.00940  -0.03838  -0.02717  -0.08479
  17   31569.6    316.8   0.004402671   0.04591  -0.03432  -0.05896   0.20312
  18   31826.3    314.2   0.031317583   0.32395  -0.02688   0.45897   0.33552
  19   32551.4    307.2   0.014860506   0.15029  -0.13781  -0.22589  -0.28333
  20   33464.9    298.8   0.003298758   0.03245  -0.02477  -0.17156  -0.04905
  21   33681.8    296.9   0.000105971   0.00104   0.01610  -0.02624  -0.00936
  22   34455.4    290.2   0.141743839   1.35432  -0.30871  -1.04027  -0.42055
  23   34624.9    288.8   0.060289097   0.57323   0.66154  -0.11101   0.35110
  24   35018.3    285.6   0.158894088   1.49378   0.41505   1.09301   0.35615
  25   35570.6    281.1   0.127957784   1.18427  -0.24168  -1.05603   0.10321
  26   36254.0    275.8   0.066687170   0.60557  -0.27396   0.61249  -0.39417
  27   36747.3    272.1   0.060133447   0.53872   0.48580   0.44590  -0.32233
  28   37266.9    268.3   0.186556372   1.64802  -0.42033  -1.16816   0.32674
  29   37491.3    266.7   0.122844580   1.07870  -0.08935  -1.02788  -0.11904
  30   37655.5    265.6   0.022037472   0.19267   0.38309   0.06698   0.20352
  31   37883.1    264.0   0.042750871   0.37151   0.04475  -0.60664   0.03870
  32   38221.3    261.6   0.024426599   0.21039  -0.30522   0.15833  -0.30359
  33   38557.7    259.4   0.046108161   0.39368  -0.23126  -0.54453   0.20901
  34   38956.6    256.7   0.010771106   0.09102  -0.00055  -0.05435   0.29676
  35   39463.3    253.4   0.074748591   0.62357  -0.10431   0.51327  -0.59097
  36   39727.4    251.7   0.000265213   0.00220  -0.02245  -0.01621   0.03783
  37   40294.9    248.2   0.020358353   0.16633   0.11223   0.38341  -0.08203

FINAL SINGLE POINT ENERGY     -3726.508388508349

DIPOLE MOMENT
-------------
                                X             Y             Z
Electronic contribution:     27.73238      10.34951       3.50461
Nuclear contribution   :    -27.56089     -10.68364      -3.98085
                        -----------------------------------------
Total Dipole Moment    :      0.17149      -0.33414      -0.47624
                        -----------------------------------------
Magnitude (a.u.)       :      0.60651
Magnitude (Debye)      :      1.54163

Rotational constants in cm-1:     0.002981     0.000352     0.000346
Rotational constants in MHz :    89.377730    10.552495    10.363568

                             ****ORCA TERMINATED NORMALLY****
TOTAL RUN TIME: 0 days 0 hours 19 minutes 26 seconds 737 msec
