                         Program Version 4.2.0 -  RELEASE  -
|  1> # ORCA input file
|  2> # SCF done       -157.378164014277          0.000886995753
|  3> ! CAM-B3LYP def2-SVP def2/J RIJCOSX Grid4 TightSCF
|  4> %maxcore 5000
|  5> %tddft
|  6>     Mode sTDDFT
|  7>     Ethresh 5.0
|  8>     maxcore 5000
|  9> end
| 10>
| 11> %pal
| 12>   nprocs 6
| 13>   end
| 14> * xyz 0 1
| 15>    C        3.28316         3.85443         3.11292
| 16>    C        2.31676         3.58521         4.00177
| 17>    C        0.97627         3.65546         3.47949
| 18>    S        1.01490         4.08477         1.76564
| 19>    C        2.81838         4.17294         1.76936
| 20>    O        3.45287         4.44967         0.79197
| 21>    C       -0.14662         3.50198         4.21420
| 22>    C       -1.49437         3.68616         3.72225
| 23>    C       -2.03824         3.21008         2.54487
| 24>    O       -1.54205         2.21628         1.79059
| 25>    C       -0.67842         1.25120         2.34802
| 26>    C       -3.29244         3.72656         1.99527
| 27>    O       -3.50698         3.23229         0.76961
| 28>    C       -4.49314         3.76260        -0.08454
| 29>    C       -4.07195         4.62508         2.69223
| 30>    C       -3.59381         5.00526         3.97634
| 31>    C       -2.33322         4.54515         4.48417
| 32>    N       -2.17522         5.06957         5.67980
| 33>    O       -3.26851         5.79668         5.91324
| 34>    N       -4.13393         5.77231         4.89905
| 35>    C       -5.35427         5.20648         2.30857
| 36>    O       -6.40086         4.42433         2.03053
| 37>    C       -7.49623         5.20917         1.84732
| 38>    C       -7.13680         6.54700         2.02274
| 39>    C       -5.74236         6.53651         2.31865
| 40>    C       -4.80603         7.68730         2.44252
| 41>    F       -3.51923         7.31031         2.39453
| 42>    F       -4.95160         8.56230         1.42306
| 43>    F       -4.95016         8.40423         3.56632
| 44>    O       -8.02558         7.53820         1.90364
| 45>    C       -7.76588         8.80758         2.48214
| 46>    C       -8.73090         4.58910         1.51034
| 47>    C       -9.86269         5.27732         1.23856
| 48>    C      -11.14935         4.73587         0.91189
| 49>    C      -11.45445         3.42841         0.53825
| 50>    O      -10.42244         2.52673         0.33530
| 51>    C       -9.77616         2.68359        -0.91608
| 52>    C      -12.79091         2.97048         0.30928
| 53>    O      -13.09229         1.70515        -0.05930
| 54>    C      -12.25833         0.59702         0.21953
| 55>    C      -13.88632         3.84346         0.34870
| 56>    C      -13.58241         5.20330         0.60159
| 57>    C      -12.25009         5.63515         0.91831
| 58>    N      -12.30010         6.93141         1.14806
| 59>    O      -13.57134         7.28714         0.98668
| 60>    N      -14.36298         6.26565         0.65966
| 61>    C      -15.25547         3.51877         0.04947
| 62>    C      -15.96223         2.40072         0.33688
| 63>    S      -17.61001         2.20869        -0.26524
| 64>    C      -17.80321         0.62332         0.56781
| 65>    O      -18.79597        -0.04508         0.48619
| 66>    C      -16.57890         0.36167         1.31003
| 67>    C      -15.61714         1.28810         1.17663
| 68>    H        4.34062         3.86323         3.30974
| 69>    H        2.48077         3.33844         5.03672
| 70>    H       -0.04881         3.40156         5.28777
| 71>    H        0.37139         1.52911         2.23151
| 72>    H       -0.86589         0.33419         1.78891
| 73>    H       -0.88980         1.08904         3.40815
| 74>    H       -5.49204         3.41975         0.19751
| 75>    H       -4.24631         3.38266        -1.07536
| 76>    H       -4.46827         4.85511        -0.09763
| 77>    H       -8.73225         9.30861         2.50707
| 78>    H       -7.07608         9.39379         1.87247
| 79>    H       -7.37864         8.71121         3.49812
| 80>    H       -8.71140         3.50924         1.50289
| 81>    H       -9.84592         6.35483         1.30496
| 82>    H       -8.98246         1.93895        -0.93949
| 83>    H       -9.34664         3.68378        -1.02306
| 84>    H      -10.47184         2.50400        -1.74293
| 85>    H      -12.92549        -0.26639         0.19818
| 86>    H      -11.78794         0.67671         1.20069
| 87>    H      -11.48644         0.46688        -0.54140
| 88>    H      -15.79020         4.32412        -0.43948
| 89>    H      -16.51910        -0.52793         1.91253
| 90>    H      -14.67187         1.25787         1.68674
| 91> *
| 92>
| 93>                          ****END OF INPUT****

CARTESIAN COORDINATES (ANGSTROEM)
---------------------------------
  C      3.283160    3.854430    3.112920
  C      2.316760    3.585210    4.001770
  C      0.976270    3.655460    3.479490
  S      1.014900    4.084770    1.765640
  C      2.818380    4.172940    1.769360
  O      3.452870    4.449670    0.791970
  C     -0.146620    3.501980    4.214200
  C     -1.494370    3.686160    3.722250
  C     -2.038240    3.210080    2.544870
  O     -1.542050    2.216280    1.790590
  C     -0.678420    1.251200    2.348020
  C     -3.292440    3.726560    1.995270
  O     -3.506980    3.232290    0.769610
  C     -4.493140    3.762600   -0.084540
  C     -4.071950    4.625080    2.692230
  C     -3.593810    5.005260    3.976340
  C     -2.333220    4.545150    4.484170
  N     -2.175220    5.069570    5.679800
  O     -3.268510    5.796680    5.913240
  N     -4.133930    5.772310    4.899050
  C     -5.354270    5.206480    2.308570
  O     -6.400860    4.424330    2.030530
  C     -7.496230    5.209170    1.847320
  C     -7.136800    6.547000    2.022740
  C     -5.742360    6.536510    2.318650
  C     -4.806030    7.687300    2.442520
  F     -3.519230    7.310310    2.394530
  F     -4.951600    8.562300    1.423060
  F     -4.950160    8.404230    3.566320
  O     -8.025580    7.538200    1.903640
  C     -7.765880    8.807580    2.482140
  C     -8.730900    4.589100    1.510340
  C     -9.862690    5.277320    1.238560
  C    -11.149350    4.735870    0.911890
  C    -11.454450    3.428410    0.538250
  O    -10.422440    2.526730    0.335300
  C     -9.776160    2.683590   -0.916080
  C    -12.790910    2.970480    0.309280
  O    -13.092290    1.705150   -0.059300
  C    -12.258330    0.597020    0.219530
  C    -13.886320    3.843460    0.348700
  C    -13.582410    5.203300    0.601590
  C    -12.250090    5.635150    0.918310
  N    -12.300100    6.931410    1.148060
  O    -13.571340    7.287140    0.986680
  N    -14.362980    6.265650    0.659660
  C    -15.255470    3.518770    0.049470
  C    -15.962230    2.400720    0.336880
  S    -17.610010    2.208690   -0.265240
  C    -17.803210    0.623320    0.567810
  O    -18.795970   -0.045080    0.486190
  C    -16.578900    0.361670    1.310030
  C    -15.617140    1.288100    1.176630
  H      4.340620    3.863230    3.309740
  H      2.480770    3.338440    5.036720
  H     -0.048810    3.401560    5.287770
  H      0.371390    1.529110    2.231510
  H     -0.865890    0.334190    1.788910
  H     -0.889800    1.089040    3.408150
  H     -5.492040    3.419750    0.197510
  H     -4.246310    3.382660   -1.075360
  H     -4.468270    4.855110   -0.097630
  H     -8.732250    9.308610    2.507070
  H     -7.076080    9.393790    1.872470
  H     -7.378640    8.711210    3.498120
  H     -8.711400    3.509240    1.502890
  H     -9.845920    6.354830    1.304960
  H     -8.982460    1.938950   -0.939490
  H     -9.346640    3.683780   -1.023060
  H    -10.471840    2.504000   -1.742930
  H    -12.925490   -0.266390    0.198180
  H    -11.787940    0.676710    1.200690
  H    -11.486440    0.466880   -0.541400
  H    -15.790200    4.324120   -0.439480
  H    -16.519100   -0.527930    1.912530
  H    -14.671870    1.257870    1.686740

 Total Charge           Charge          ....    0
 Multiplicity           Mult            ....    1
 Number of Electrons    NEL             ....  394
 Basis Dimension        Dim             ....  865

ORBITAL ENERGIES
----------------

  NO   OCC          E(Eh)            E(eV)
   0   2.0000     -88.943790     -2420.2836
   1   2.0000     -88.923763     -2419.7386
   2   2.0000     -24.806926      -675.0308
   3   2.0000     -24.803726      -674.9437
   4   2.0000     -24.802184      -674.9018
   5   2.0000     -19.348377      -526.4961
   6   2.0000     -19.345229      -526.4104
   7   2.0000     -19.316007      -525.6153
   8   2.0000     -19.275670      -524.5176
   9   2.0000     -19.273133      -524.4486
  10   2.0000     -19.269225      -524.3423
  11   2.0000     -19.265138      -524.2311
  12   2.0000     -19.258836      -524.0596
  13   2.0000     -19.219154      -522.9798
  14   2.0000     -19.201210      -522.4915
  15   2.0000     -14.476377      -393.9222
  16   2.0000     -14.475312      -393.8933
  17   2.0000     -14.474121      -393.8609
  18   2.0000     -14.470838      -393.7715
  19   2.0000     -10.529893      -286.5329
  20   2.0000     -10.383970      -282.5622
  21   2.0000     -10.379916      -282.4519
  22   2.0000     -10.376090      -282.3478
  23   2.0000     -10.369373      -282.1650
  24   2.0000     -10.366870      -282.0969
  25   2.0000     -10.366837      -282.0960
  26   2.0000     -10.359632      -281.8999
  27   2.0000     -10.356552      -281.8161
  28   2.0000     -10.338372      -281.3214
  29   2.0000     -10.338271      -281.3186
  30   2.0000     -10.337348      -281.2935
  31   2.0000     -10.334375      -281.2127
  32   2.0000     -10.333268      -281.1825
  33   2.0000     -10.328425      -281.0507
  34   2.0000     -10.327820      -281.0343
  35   2.0000     -10.327350      -281.0215
  36   2.0000     -10.327010      -281.0122
  37   2.0000     -10.321172      -280.8534
  38   2.0000     -10.320515      -280.8355
  39   2.0000     -10.315989      -280.7123
  40   2.0000     -10.315173      -280.6901
  41   2.0000     -10.313666      -280.6491
  42   2.0000     -10.312853      -280.6270
  43   2.0000     -10.311418      -280.5879
  44   2.0000     -10.308804      -280.5168
  45   2.0000     -10.307887      -280.4919
  46   2.0000     -10.300610      -280.2938
  47   2.0000     -10.297970      -280.2220
  48   2.0000     -10.296212      -280.1742
  49   2.0000     -10.295437      -280.1531
  50   2.0000     -10.294171      -280.1186
  51   2.0000     -10.283114      -279.8178
  52   2.0000     -10.281704      -279.7794
  53   2.0000      -8.041036      -218.8077
  54   2.0000      -8.021801      -218.2843
  55   2.0000      -6.010457      -163.5528
  56   2.0000      -6.006818      -163.4538
  57   2.0000      -6.001841      -163.3184
  58   2.0000      -5.991175      -163.0282
  59   2.0000      -5.987653      -162.9323
  60   2.0000      -5.982502      -162.7921
  61   2.0000      -1.395219       -37.9658
  62   2.0000      -1.301941       -35.4276
  63   2.0000      -1.300565       -35.3902
  64   2.0000      -1.297735       -35.3132
  65   2.0000      -1.293757       -35.2049
  66   2.0000      -1.237368       -33.6705
  67   2.0000      -1.195945       -32.5433
  68   2.0000      -1.177815       -32.0500
  69   2.0000      -1.171847       -31.8876
  70   2.0000      -1.168412       -31.7941
  71   2.0000      -1.152858       -31.3709
  72   2.0000      -1.141210       -31.0539
  73   2.0000      -1.123055       -30.5599
  74   2.0000      -1.009087       -27.4587
  75   2.0000      -1.006645       -27.3922
  76   2.0000      -1.005268       -27.3547
  77   2.0000      -0.997665       -27.1479
  78   2.0000      -0.981069       -26.6962
  79   2.0000      -0.964190       -26.2370
  80   2.0000      -0.935661       -25.4606
  81   2.0000      -0.928327       -25.2611
  82   2.0000      -0.921916       -25.0866
  83   2.0000      -0.914701       -24.8903
  84   2.0000      -0.909825       -24.7576
  85   2.0000      -0.894864       -24.3505
  86   2.0000      -0.870951       -23.6998
  87   2.0000      -0.852691       -23.2029
  88   2.0000      -0.843776       -22.9603
  89   2.0000      -0.836240       -22.7552
  90   2.0000      -0.834098       -22.6970
  91   2.0000      -0.823026       -22.3957
  92   2.0000      -0.818339       -22.2681
  93   2.0000      -0.813876       -22.1467
  94   2.0000      -0.807047       -21.9609
  95   2.0000      -0.797494       -21.7009
  96   2.0000      -0.795589       -21.6491
  97   2.0000      -0.764199       -20.7949
  98   2.0000      -0.749626       -20.3984
  99   2.0000      -0.739672       -20.1275
 100   2.0000      -0.730514       -19.8783
 101   2.0000      -0.725984       -19.7550
 102   2.0000      -0.724767       -19.7219
 103   2.0000      -0.723161       -19.6782
 104   2.0000      -0.715289       -19.4640
 105   2.0000      -0.693691       -18.8763
 106   2.0000      -0.688991       -18.7484
 107   2.0000      -0.677955       -18.4481
 108   2.0000      -0.668275       -18.1847
 109   2.0000      -0.664034       -18.0693
 110   2.0000      -0.662079       -18.0161
 111   2.0000      -0.656920       -17.8757
 112   2.0000      -0.650587       -17.7034
 113   2.0000      -0.643458       -17.5094
 114   2.0000      -0.640576       -17.4310
 115   2.0000      -0.634976       -17.2786
 116   2.0000      -0.630729       -17.1630
 117   2.0000      -0.627360       -17.0713
 118   2.0000      -0.624153       -16.9841
 119   2.0000      -0.617029       -16.7902
 120   2.0000      -0.608555       -16.5596
 121   2.0000      -0.602943       -16.4069
 122   2.0000      -0.602426       -16.3929
 123   2.0000      -0.598934       -16.2978
 124   2.0000      -0.590006       -16.0549
 125   2.0000      -0.588502       -16.0140
 126   2.0000      -0.587057       -15.9746
 127   2.0000      -0.583598       -15.8805
 128   2.0000      -0.582108       -15.8400
 129   2.0000      -0.573828       -15.6146
 130   2.0000      -0.571638       -15.5550
 131   2.0000      -0.565629       -15.3916
 132   2.0000      -0.560167       -15.2429
 133   2.0000      -0.559017       -15.2116
 134   2.0000      -0.558084       -15.1863
 135   2.0000      -0.552827       -15.0432
 136   2.0000      -0.550263       -14.9734
 137   2.0000      -0.548786       -14.9332
 138   2.0000      -0.548313       -14.9204
 139   2.0000      -0.546227       -14.8636
 140   2.0000      -0.541178       -14.7262
 141   2.0000      -0.538651       -14.6574
 142   2.0000      -0.534681       -14.5494
 143   2.0000      -0.529723       -14.4145
 144   2.0000      -0.525580       -14.3018
 145   2.0000      -0.521386       -14.1876
 146   2.0000      -0.517621       -14.0852
 147   2.0000      -0.513604       -13.9759
 148   2.0000      -0.511293       -13.9130
 149   2.0000      -0.510278       -13.8854
 150   2.0000      -0.505822       -13.7641
 151   2.0000      -0.503296       -13.6954
 152   2.0000      -0.501454       -13.6452
 153   2.0000      -0.497391       -13.5347
 154   2.0000      -0.495285       -13.4774
 155   2.0000      -0.491591       -13.3769
 156   2.0000      -0.490684       -13.3522
 157   2.0000      -0.487658       -13.2699
 158   2.0000      -0.485596       -13.2137
 159   2.0000      -0.480381       -13.0718
 160   2.0000      -0.479966       -13.0605
 161   2.0000      -0.473444       -12.8831
 162   2.0000      -0.465476       -12.6662
 163   2.0000      -0.462672       -12.5899
 164   2.0000      -0.457375       -12.4458
 165   2.0000      -0.449895       -12.2423
 166   2.0000      -0.447725       -12.1832
 167   2.0000      -0.446910       -12.1610
 168   2.0000      -0.439736       -11.9658
 169   2.0000      -0.431899       -11.7526
 170   2.0000      -0.429115       -11.6768
 171   2.0000      -0.428601       -11.6628
 172   2.0000      -0.427870       -11.6429
 173   2.0000      -0.422160       -11.4876
 174   2.0000      -0.415474       -11.3056
 175   2.0000      -0.414167       -11.2701
 176   2.0000      -0.412582       -11.2269
 177   2.0000      -0.406603       -11.0642
 178   2.0000      -0.403669       -10.9844
 179   2.0000      -0.400634       -10.9018
 180   2.0000      -0.400152       -10.8887
 181   2.0000      -0.394726       -10.7410
 182   2.0000      -0.387955       -10.5568
 183   2.0000      -0.386979       -10.5302
 184   2.0000      -0.371647       -10.1130
 185   2.0000      -0.357279        -9.7221
 186   2.0000      -0.351209        -9.5569
 187   2.0000      -0.339170        -9.2293
 188   2.0000      -0.338974        -9.2240
 189   2.0000      -0.333324        -9.0702
 190   2.0000      -0.327772        -8.9191
 191   2.0000      -0.322118        -8.7653
 192   2.0000      -0.321493        -8.7483
 193   2.0000      -0.316463        -8.6114
 194   2.0000      -0.293261        -7.9800
 195   2.0000      -0.280643        -7.6367
 196   2.0000      -0.247395        -6.7320
 197   0.0000      -0.082639        -2.2487
 198   0.0000      -0.071720        -1.9516
 199   0.0000      -0.038597        -1.0503
 200   0.0000      -0.032231        -0.8770
 201   0.0000      -0.009979        -0.2715

MULLIKEN ATOMIC CHARGES
-----------------------
   0 C :   -0.003762
   1 C :    0.096444
   2 C :   -0.090677
   3 S :    0.025434
   4 C :    0.079079
   5 O :   -0.152082
   6 C :   -0.052466
   7 C :   -0.033283
   8 C :    0.103841
   9 O :   -0.277280
  10 C :    0.181232
  11 C :    0.153126
  12 O :   -0.271315
  13 C :    0.186194
  14 C :   -0.012674
  15 C :   -0.070736
  16 C :   -0.041908
  17 N :    0.047886
  18 O :   -0.112160
  19 N :    0.059039
  20 C :    0.015063
  21 O :   -0.188006
  22 C :    0.125281
  23 C :    0.114613
  24 C :   -0.132140
  25 C :    0.524869
  26 F :   -0.151534
  27 F :   -0.169573
  28 F :   -0.150719
  29 O :   -0.296215
  30 C :    0.174139
  31 C :   -0.010743
  32 C :   -0.107894
  33 C :    0.116497
  34 C :    0.010728
  35 O :   -0.368376
  36 C :    0.188632
  37 C :    0.158132
  38 O :   -0.307756
  39 C :    0.199076
  40 C :   -0.041311
  41 C :   -0.032278
  42 C :   -0.068479
  43 N :    0.048473
  44 O :   -0.103978
  45 N :    0.048056
  46 C :    0.008682
  47 C :   -0.089326
  48 S :    0.016897
  49 C :    0.078930
  50 O :   -0.163179
  51 C :   -0.026799
  52 C :    0.116779
  53 H :    0.013824
  54 H :    0.010810
  55 H :    0.024843
  56 H :    0.044378
  57 H :    0.040442
  58 H :    0.032432
  59 H :    0.035166
  60 H :    0.042666
  61 H :    0.040961
  62 H :    0.048272
  63 H :    0.042428
  64 H :    0.037986
  65 H :    0.009836
  66 H :    0.019682
  67 H :    0.037145
  68 H :    0.038643
  69 H :    0.026618
  70 H :    0.035708
  71 H :    0.030864
  72 H :    0.020401
  73 H :    0.018701
  74 H :    0.004297
  75 H :   -0.006577
Sum of atomic charges:   -0.0000000

LOEWDIN ATOMIC CHARGES
----------------------
   0 C :   -0.069047
   1 C :    0.013868
   2 C :   -0.153072
   3 S :    0.314480
   4 C :   -0.054678
   5 O :   -0.139036
   6 C :   -0.016171
   7 C :   -0.093199
   8 C :    0.058788
   9 O :   -0.064570
  10 C :    0.080754
  11 C :    0.077886
  12 O :   -0.062363
  13 C :    0.079119
  14 C :   -0.114432
  15 C :   -0.052809
  16 C :   -0.050955
  17 N :   -0.035583
  18 O :    0.063127
  19 N :   -0.035375
  20 C :    0.054968
  21 O :    0.035812
  22 C :   -0.015973
  23 C :    0.037917
  24 C :   -0.148256
  25 C :    0.172219
  26 F :   -0.047445
  27 F :   -0.065794
  28 F :   -0.049563
  29 O :   -0.078384
  30 C :    0.079456
  31 C :   -0.015475
  32 C :   -0.032666
  33 C :   -0.031885
  34 C :    0.020678
  35 O :   -0.129729
  36 C :    0.077479
  37 C :    0.057503
  38 O :   -0.087365
  39 C :    0.080081
  40 C :   -0.076132
  41 C :   -0.051299
  42 C :   -0.057830
  43 N :   -0.025833
  44 O :    0.071423
  45 N :   -0.035145
  46 C :   -0.011154
  47 C :   -0.146316
  48 S :    0.303721
  49 C :   -0.060425
  50 O :   -0.151181
  51 C :   -0.071644
  52 C :    0.011233
  53 H :    0.040741
  54 H :    0.040962
  55 H :    0.043658
  56 H :    0.013592
  57 H :    0.029034
  58 H :    0.019876
  59 H :    0.017659
  60 H :    0.031765
  61 H :    0.024374
  62 H :    0.034207
  63 H :    0.017951
  64 H :    0.021323
  65 H :    0.036324
  66 H :    0.035966
  67 H :    0.025640
  68 H :    0.018480
  69 H :    0.017143
  70 H :    0.023703
  71 H :    0.019495
  72 H :    0.016551
  73 H :    0.041723
  74 H :    0.036465
  75 H :    0.033637

  Mayer bond orders larger than 0.100000
B(  0-C ,  1-C ) :   1.6860 B(  0-C ,  4-C ) :   0.9702 B(  0-C , 53-H ) :   0.9953
B(  1-C ,  2-C ) :   1.0604 B(  1-C , 54-H ) :   0.9974 B(  2-C ,  3-S ) :   1.0313
B(  2-C ,  6-C ) :   1.7359 B(  3-S ,  4-C ) :   0.9812 B(  3-S ,  5-O ) :   0.1088
B(  4-C ,  5-O ) :   2.1468 B(  6-C ,  7-C ) :   1.0229 B(  6-C , 55-H ) :   0.9571
B(  7-C ,  8-C ) :   1.4667 B(  7-C , 16-C ) :   1.1241 B(  8-C ,  9-O ) :   1.2617
B(  8-C , 11-C ) :   1.0640 B(  9-O , 10-C ) :   0.9334 B( 10-C , 56-H ) :   0.9627
B( 10-C , 57-H ) :   0.9771 B( 10-C , 58-H ) :   0.9608 B( 11-C , 12-O ) :   1.2871
B( 11-C , 14-C ) :   1.4834 B( 12-O , 13-C ) :   0.9288 B( 13-C , 59-H ) :   0.9671
B( 13-C , 60-H ) :   0.9743 B( 13-C , 61-H ) :   0.9603 B( 14-C , 15-C ) :   1.1749
B( 14-C , 20-C ) :   0.9090 B( 15-C , 16-C ) :   1.1389 B( 15-C , 19-N ) :   1.6567
B( 16-C , 17-N ) :   1.6576 B( 17-N , 18-O ) :   1.0485 B( 17-N , 19-N ) :   0.1673
B( 18-O , 19-N ) :   1.0502 B( 20-C , 21-O ) :   1.2197 B( 20-C , 22-C ) :   0.1295
B( 20-C , 24-C ) :   1.5381 B( 21-O , 22-C ) :   1.0703 B( 22-C , 23-C ) :   1.4224
B( 22-C , 31-C ) :   1.1337 B( 23-C , 24-C ) :   1.2064 B( 23-C , 29-O ) :   1.2142
B( 24-C , 25-C ) :   0.9424 B( 25-C , 26-F ) :   1.1457 B( 25-C , 27-F ) :   1.1477
B( 25-C , 28-F ) :   1.1657 B( 29-O , 30-C ) :   0.9121 B( 30-C , 62-H ) :   0.9770
B( 30-C , 63-H ) :   0.9660 B( 30-C , 64-H ) :   0.9669 B( 31-C , 32-C ) :   1.5994
B( 31-C , 65-H ) :   0.9611 B( 32-C , 33-C ) :   1.1382 B( 32-C , 66-H ) :   0.9716
B( 33-C , 34-C ) :   1.4260 B( 33-C , 40-C ) :   0.1178 B( 33-C , 42-C ) :   1.0942
B( 34-C , 35-O ) :   1.0933 B( 34-C , 37-C ) :   1.1348 B( 35-O , 36-C ) :   0.9201
B( 36-C , 67-H ) :   0.9822 B( 36-C , 68-H ) :   0.9661 B( 36-C , 69-H ) :   0.9662
B( 37-C , 38-O ) :   1.2238 B( 37-C , 40-C ) :   1.4355 B( 38-O , 39-C ) :   0.9216
B( 39-C , 70-H ) :   0.9744 B( 39-C , 71-H ) :   0.9724 B( 39-C , 72-H ) :   0.9768
B( 40-C , 41-C ) :   1.1551 B( 40-C , 46-C ) :   1.1061 B( 41-C , 42-C ) :   1.1295
B( 41-C , 45-N ) :   1.6324 B( 42-C , 43-N ) :   1.6238 B( 43-N , 44-O ) :   1.0639
B( 43-N , 45-N ) :   0.1817 B( 44-O , 45-N ) :   1.0499 B( 46-C , 47-C ) :   1.7060
B( 46-C , 73-H ) :   0.9464 B( 47-C , 48-S ) :   1.0248 B( 47-C , 52-C ) :   1.0829
B( 48-S , 49-C ) :   1.0003 B( 48-S , 50-O ) :   0.1142 B( 49-C , 50-O ) :   2.1327
B( 49-C , 51-C ) :   0.9786 B( 51-C , 52-C ) :   1.6874 B( 51-C , 74-H ) :   0.9921
B( 52-C , 75-H ) :   0.9836

-----------------------------------------------------------------------------
         ABSORPTION SPECTRUM VIA TRANSITION ELECTRIC DIPOLE MOMENTS
-----------------------------------------------------------------------------
State   Energy  Wavelength   fosc         T2         TX        TY        TZ
        (cm-1)    (nm)                  (au**2)     (au)      (au)      (au)
-----------------------------------------------------------------------------
   0   19908.4    502.3   1.356228079  22.42703  -4.49495  -1.36808  -0.59228
   1   25229.7    396.4   0.135107539   1.76296   1.12580  -0.69897   0.08358
   2   27029.4    370.0   0.013863269   0.16885  -0.22349   0.06045  -0.33948
   3   29339.3    340.8   0.054201097   0.60818  -0.28347  -0.66831   0.28493
   4   29407.8    340.0   0.338910767   3.79402  -1.92310  -0.21344   0.22391
   5   30434.9    328.6   0.000422704   0.00457   0.04257  -0.04951   0.01758
   6   31458.5    317.9   0.010065485   0.10533   0.31421  -0.03487  -0.07342
   7   32587.2    306.9   0.003220621   0.03254  -0.03623   0.09621  -0.14821
   8   33050.7    302.6   0.062633506   0.62388   0.58009  -0.51390   0.15258
   9   34011.0    294.0   0.054786129   0.53031   0.64142  -0.33512   0.08117
  10   34040.5    293.8   0.066446203   0.64261   0.64425  -0.03341   0.47585
  11   34553.5    289.4   0.203903143   1.94271   0.36567   1.19689   0.61355
  12   35157.6    284.4   0.175891613   1.64703   1.15290   0.56113  -0.05462
  13   35738.3    279.8   0.007291517   0.06717  -0.15084   0.17294   0.12044
  14   36842.0    271.4   0.064380386   0.57529  -0.19381  -0.19452  -0.70703
  15   37098.4    269.6   0.033756040   0.29955  -0.08519   0.44492   0.30714
  16   38532.3    259.5   0.004707807   0.04022   0.14081   0.10564   0.09610
  17   38940.1    256.8   0.009493909   0.08026  -0.02694   0.05522   0.27657

FINAL SINGLE POINT ENERGY     -3373.029399957452

DIPOLE MOMENT
-------------
                                X             Y             Z
Electronic contribution:      6.40852      30.21814      11.11594
Nuclear contribution   :     -3.25063     -32.14792     -10.95486
                        -----------------------------------------
Total Dipole Moment    :      3.15789      -1.92978       0.16107
                        -----------------------------------------
Magnitude (a.u.)       :      3.70436
Magnitude (Debye)      :      9.41573

Rotational constants in cm-1:     0.003731     0.000533     0.000494
Rotational constants in MHz :   111.864457    15.978732    14.813853

                             ****ORCA TERMINATED NORMALLY****
TOTAL RUN TIME: 0 days 0 hours 5 minutes 33 seconds 277 msec
