                         Program Version 4.2.0 -  RELEASE  -
|  1> # ORCA input file
|  2> # SCF done       -183.206559449357          0.000495747083
|  3> ! CAM-B3LYP def2-SVP def2/J RIJCOSX Grid4 TightSCF
|  4> %maxcore 5000
|  5> %tddft
|  6>     Mode sTDDFT
|  7>     Ethresh 5.0
|  8>     maxcore 5000
|  9> end
| 10>
| 11> %pal
| 12>   nprocs 6
| 13>   end
| 14> * xyz 0 1
| 15>    C        4.66643        -3.19250        16.43737
| 16>    O        4.67340        -3.36469        15.04299
| 17>    C        3.93443        -4.38572        14.49959
| 18>    C        3.20404        -5.28321        15.26662
| 19>    C        2.50720        -6.32237        14.67399
| 20>    C        2.53554        -6.47640        13.30594
| 21>    C        3.24964        -5.58641        12.50815
| 22>    C        3.25514        -5.78290        11.04914
| 23>    C        4.44609        -5.75405        10.32354
| 24>    C        4.46086        -5.98258         8.96068
| 25>    C        3.26246        -6.24396         8.31233
| 26>    C        2.05754        -6.26891         9.03328
| 27>    C        2.05064        -6.04291        10.38938
| 28>    C        0.89097        -6.57120         8.11882
| 29>    C        0.17616        -7.85875         8.53908
| 30>    C       -0.09410        -5.39873         8.07819
| 31>    C        1.58864        -6.74129         6.78731
| 32>    C        1.04946        -7.05756         5.56917
| 33>    C        1.88528        -7.19391         4.44040
| 34>    C        1.27330        -7.57535         3.20642
| 35>    C        1.82027        -7.90900         2.00142
| 36>    C        1.05655        -8.33197         0.87382
| 37>    C        1.79003        -8.67801        -0.21351
| 38>    C        3.18896        -8.54204        -0.02863
| 39>    C        4.20018        -8.82602        -0.92122
| 40>    C        4.07521        -9.37257        -2.21872
| 41>    C        5.26997        -9.57578        -2.83792
| 42>    C        6.39151        -9.18755        -2.06248
| 43>    C        7.71914        -9.27781        -2.40557
| 44>    C        8.69388        -8.81747        -1.51050
| 45>    N        8.42101        -8.26090        -0.35051
| 46>    C        9.62100        -7.94269         0.19372
| 47>    C        9.96908        -7.31573         1.38699
| 48>    C       11.30597        -7.11833         1.63751
| 49>    C       12.31492        -7.54946         0.75157
| 50>    C       13.69349        -7.32552         1.10782
| 51>    C       14.20979        -6.25398         1.78524
| 52>    C       13.52356        -5.09534         2.18455
| 53>    N       12.94253        -4.15221         2.48067
| 54>    C       15.63007        -6.46688         1.95065
| 55>    C       16.55394        -5.65694         2.55199
| 56>    C       16.23474        -4.41556         3.13126
| 57>    N       16.03578        -3.39861         3.62352
| 58>    C       17.90461        -6.05283         2.63251
| 59>    N       19.00128        -6.37992         2.70813
| 60>    O       15.98143        -7.64014         1.40679
| 61>    C       14.82522        -8.30837         0.87952
| 62>    C       15.14763        -8.60825        -0.57558
| 63>    C       15.61669        -9.85345        -0.96751
| 64>    C       15.96636       -10.07638        -2.28839
| 65>    C       15.86521        -9.05787        -3.21997
| 66>    C       15.42199        -7.80643        -2.82621
| 67>    C       15.06993        -7.57927        -1.50840
| 68>    C       14.52179        -9.55015         1.71305
| 69>    C       15.20104        -9.78046         2.90103
| 70>    C       14.89363       -10.88537         3.67639
| 71>    C       13.90303       -11.76389         3.27689
| 72>    C       13.22554       -11.53808         2.09035
| 73>    C       13.53110       -10.43797         1.31055
| 74>    C       11.97310        -8.18810        -0.44939
| 75>    C       10.63570        -8.35483        -0.70733
| 76>    O       10.03027        -8.90672        -1.78846
| 77>    S        5.89530        -8.55024        -0.52147
| 78>    S        3.53047        -7.95025         1.57689
| 79>    C        3.26310        -6.96638         4.59526
| 80>    C        3.80723        -6.63968         5.81865
| 81>    C        2.97424        -6.53575         6.92514
| 82>    C        3.94717        -4.52176        13.09734
| 83>    O        4.60904        -3.69489        12.23586
| 84>    C        4.82553        -2.34061        12.56556
| 85>    H        5.07993        -4.06427        16.95472
| 86>    H        3.65971        -2.98639        16.81562
| 87>    H        5.30350        -2.32926        16.62564
| 88>    H        3.18342        -5.18656        16.33987
| 89>    H        1.95299        -7.01200        15.29204
| 90>    H        2.01665        -7.29892        12.83792
| 91>    H        5.36951        -5.56132        10.84554
| 92>    H        5.39086        -5.96387         8.41242
| 93>    H        1.12661        -6.04966        10.94939
| 94>    H       -0.26005        -7.74153         9.52815
| 95>    H        0.88007        -8.68791         8.56536
| 96>    H       -0.61766        -8.09880         7.83554
| 97>    H       -0.53033        -5.23968         9.06139
| 98>    H       -0.89435        -5.60059         7.36987
| 99>    H        0.41826        -4.48841         7.77442
|100>    H       -0.01382        -7.21996         5.46077
|101>    H        0.19124        -7.64509         3.24169
|102>    H       -0.01800        -8.37211         0.91759
|103>    H        1.37255        -9.02496        -1.14148
|104>    H        3.12104        -9.61043        -2.65471
|105>    H        5.38780        -9.99020        -3.82360
|106>    H        8.02667        -9.69178        -3.35115
|107>    H        9.20916        -6.99644         2.07999
|108>    H       11.60093        -6.64325         2.56035
|109>    H       15.71068       -10.64748        -0.24260
|110>    H       16.32515       -11.05000        -2.58651
|111>    H       16.13831        -9.23543        -4.24920
|112>    H       15.35137        -7.00306        -3.54389
|113>    H       14.72494        -6.59999        -1.20574
|114>    H       15.98418        -9.10874         3.21816
|115>    H       15.43317       -11.05455         4.59597
|116>    H       13.66088       -12.62260         3.88463
|117>    H       12.45402       -12.22068         1.76708
|118>    H       12.99991       -10.27574         0.38589
|119>    H       12.71877        -8.49284        -1.16550
|120>    H        3.91344        -7.04180         3.73936
|121>    H        4.86915        -6.47097         5.91319
|122>    H        3.93301        -1.88422        12.99996
|123>    H        5.05731        -1.85095        11.61912
|124>    H        5.66408        -2.21824        13.25407
|125> *
|126>
|127>                          ****END OF INPUT****

CARTESIAN COORDINATES (ANGSTROEM)
---------------------------------
  C      4.666430   -3.192500   16.437370
  O      4.673400   -3.364690   15.042990
  C      3.934430   -4.385720   14.499590
  C      3.204040   -5.283210   15.266620
  C      2.507200   -6.322370   14.673990
  C      2.535540   -6.476400   13.305940
  C      3.249640   -5.586410   12.508150
  C      3.255140   -5.782900   11.049140
  C      4.446090   -5.754050   10.323540
  C      4.460860   -5.982580    8.960680
  C      3.262460   -6.243960    8.312330
  C      2.057540   -6.268910    9.033280
  C      2.050640   -6.042910   10.389380
  C      0.890970   -6.571200    8.118820
  C      0.176160   -7.858750    8.539080
  C     -0.094100   -5.398730    8.078190
  C      1.588640   -6.741290    6.787310
  C      1.049460   -7.057560    5.569170
  C      1.885280   -7.193910    4.440400
  C      1.273300   -7.575350    3.206420
  C      1.820270   -7.909000    2.001420
  C      1.056550   -8.331970    0.873820
  C      1.790030   -8.678010   -0.213510
  C      3.188960   -8.542040   -0.028630
  C      4.200180   -8.826020   -0.921220
  C      4.075210   -9.372570   -2.218720
  C      5.269970   -9.575780   -2.837920
  C      6.391510   -9.187550   -2.062480
  C      7.719140   -9.277810   -2.405570
  C      8.693880   -8.817470   -1.510500
  N      8.421010   -8.260900   -0.350510
  C      9.621000   -7.942690    0.193720
  C      9.969080   -7.315730    1.386990
  C     11.305970   -7.118330    1.637510
  C     12.314920   -7.549460    0.751570
  C     13.693490   -7.325520    1.107820
  C     14.209790   -6.253980    1.785240
  C     13.523560   -5.095340    2.184550
  N     12.942530   -4.152210    2.480670
  C     15.630070   -6.466880    1.950650
  C     16.553940   -5.656940    2.551990
  C     16.234740   -4.415560    3.131260
  N     16.035780   -3.398610    3.623520
  C     17.904610   -6.052830    2.632510
  N     19.001280   -6.379920    2.708130
  O     15.981430   -7.640140    1.406790
  C     14.825220   -8.308370    0.879520
  C     15.147630   -8.608250   -0.575580
  C     15.616690   -9.853450   -0.967510
  C     15.966360  -10.076380   -2.288390
  C     15.865210   -9.057870   -3.219970
  C     15.421990   -7.806430   -2.826210
  C     15.069930   -7.579270   -1.508400
  C     14.521790   -9.550150    1.713050
  C     15.201040   -9.780460    2.901030
  C     14.893630  -10.885370    3.676390
  C     13.903030  -11.763890    3.276890
  C     13.225540  -11.538080    2.090350
  C     13.531100  -10.437970    1.310550
  C     11.973100   -8.188100   -0.449390
  C     10.635700   -8.354830   -0.707330
  O     10.030270   -8.906720   -1.788460
  S      5.895300   -8.550240   -0.521470
  S      3.530470   -7.950250    1.576890
  C      3.263100   -6.966380    4.595260
  C      3.807230   -6.639680    5.818650
  C      2.974240   -6.535750    6.925140
  C      3.947170   -4.521760   13.097340
  O      4.609040   -3.694890   12.235860
  C      4.825530   -2.340610   12.565560
  H      5.079930   -4.064270   16.954720
  H      3.659710   -2.986390   16.815620
  H      5.303500   -2.329260   16.625640
  H      3.183420   -5.186560   16.339870
  H      1.952990   -7.012000   15.292040
  H      2.016650   -7.298920   12.837920
  H      5.369510   -5.561320   10.845540
  H      5.390860   -5.963870    8.412420
  H      1.126610   -6.049660   10.949390
  H     -0.260050   -7.741530    9.528150
  H      0.880070   -8.687910    8.565360
  H     -0.617660   -8.098800    7.835540
  H     -0.530330   -5.239680    9.061390
  H     -0.894350   -5.600590    7.369870
  H      0.418260   -4.488410    7.774420
  H     -0.013820   -7.219960    5.460770
  H      0.191240   -7.645090    3.241690
  H     -0.018000   -8.372110    0.917590
  H      1.372550   -9.024960   -1.141480
  H      3.121040   -9.610430   -2.654710
  H      5.387800   -9.990200   -3.823600
  H      8.026670   -9.691780   -3.351150
  H      9.209160   -6.996440    2.079990
  H     11.600930   -6.643250    2.560350
  H     15.710680  -10.647480   -0.242600
  H     16.325150  -11.050000   -2.586510
  H     16.138310   -9.235430   -4.249200
  H     15.351370   -7.003060   -3.543890
  H     14.724940   -6.599990   -1.205740
  H     15.984180   -9.108740    3.218160
  H     15.433170  -11.054550    4.595970
  H     13.660880  -12.622600    3.884630
  H     12.454020  -12.220680    1.767080
  H     12.999910  -10.275740    0.385890
  H     12.718770   -8.492840   -1.165500
  H      3.913440   -7.041800    3.739360
  H      4.869150   -6.470970    5.913190
  H      3.933010   -1.884220   12.999960
  H      5.057310   -1.850950   11.619120
  H      5.664080   -2.218240   13.254070

 Total Charge           Charge          ....    0
 Multiplicity           Mult            ....    1
 Number of Electrons    NEL             ....  492
 Basis Dimension        Dim             .... 1188

ORBITAL ENERGIES
----------------

  NO   OCC          E(Eh)            E(eV)
   0   2.0000     -88.952190     -2420.5122
   1   2.0000     -88.943896     -2420.2865
   2   2.0000     -19.295232      -525.0500
   3   2.0000     -19.287077      -524.8280
   4   2.0000     -19.241639      -523.5916
   5   2.0000     -19.228530      -523.2349
   6   2.0000     -14.409608      -392.1054
   7   2.0000     -14.401609      -391.8877
   8   2.0000     -14.390022      -391.5724
   9   2.0000     -14.389652      -391.5623
  10   2.0000     -10.387481      -282.6577
  11   2.0000     -10.372641      -282.2539
  12   2.0000     -10.369537      -282.1695
  13   2.0000     -10.338260      -281.3183
  14   2.0000     -10.336964      -281.2831
  15   2.0000     -10.328716      -281.0587
  16   2.0000     -10.325929      -280.9828
  17   2.0000     -10.322717      -280.8954
  18   2.0000     -10.322440      -280.8879
  19   2.0000     -10.321668      -280.8669
  20   2.0000     -10.320761      -280.8422
  21   2.0000     -10.317895      -280.7642
  22   2.0000     -10.311941      -280.6022
  23   2.0000     -10.311427      -280.5882
  24   2.0000     -10.309687      -280.5408
  25   2.0000     -10.302850      -280.3548
  26   2.0000     -10.299951      -280.2759
  27   2.0000     -10.299515      -280.2640
  28   2.0000     -10.296451      -280.1807
  29   2.0000     -10.294644      -280.1315
  30   2.0000     -10.293987      -280.1136
  31   2.0000     -10.293354      -280.0964
  32   2.0000     -10.293138      -280.0905
  33   2.0000     -10.292889      -280.0838
  34   2.0000     -10.292224      -280.0656
  35   2.0000     -10.291462      -280.0449
  36   2.0000     -10.291360      -280.0421
  37   2.0000     -10.285523      -279.8833
  38   2.0000     -10.282963      -279.8136
  39   2.0000     -10.282944      -279.8131
  40   2.0000     -10.281707      -279.7795
  41   2.0000     -10.280647      -279.7506
  42   2.0000     -10.280446      -279.7451
  43   2.0000     -10.280238      -279.7395
  44   2.0000     -10.279817      -279.7280
  45   2.0000     -10.279150      -279.7099
  46   2.0000     -10.279103      -279.7086
  47   2.0000     -10.277397      -279.6622
  48   2.0000     -10.275413      -279.6082
  49   2.0000     -10.275362      -279.6068
  50   2.0000     -10.275060      -279.5986
  51   2.0000     -10.274123      -279.5731
  52   2.0000     -10.273465      -279.5552
  53   2.0000     -10.273290      -279.5504
  54   2.0000     -10.272214      -279.5211
  55   2.0000     -10.272089      -279.5178
  56   2.0000     -10.270285      -279.4687
  57   2.0000     -10.268518      -279.4206
  58   2.0000     -10.266995      -279.3791
  59   2.0000     -10.266490      -279.3654
  60   2.0000     -10.263111      -279.2735
  61   2.0000     -10.262783      -279.2645
  62   2.0000     -10.261842      -279.2389
  63   2.0000     -10.261333      -279.2251
  64   2.0000     -10.260353      -279.1984
  65   2.0000     -10.259733      -279.1815
  66   2.0000     -10.258563      -279.1497
  67   2.0000     -10.258024      -279.1350
  68   2.0000     -10.256676      -279.0983
  69   2.0000     -10.256157      -279.0842
  70   2.0000      -8.048030      -218.9980
  71   2.0000      -8.038187      -218.7302
  72   2.0000      -6.017750      -163.7513
  73   2.0000      -6.013701      -163.6411
  74   2.0000      -6.008986      -163.5128
  75   2.0000      -6.008163      -163.4904
  76   2.0000      -6.003521      -163.3641
  77   2.0000      -5.999292      -163.2490
  78   2.0000      -1.223478       -33.2925
  79   2.0000      -1.210139       -32.9296
  80   2.0000      -1.149541       -31.2806
  81   2.0000      -1.125201       -30.6183
  82   2.0000      -1.022333       -27.8191
  83   2.0000      -0.999446       -27.1963
  84   2.0000      -0.998151       -27.1611
  85   2.0000      -0.989394       -26.9228
  86   2.0000      -0.983341       -26.7581
  87   2.0000      -0.979253       -26.6468
  88   2.0000      -0.975478       -26.5441
  89   2.0000      -0.968144       -26.3445
  90   2.0000      -0.964355       -26.2414
  91   2.0000      -0.955280       -25.9945
  92   2.0000      -0.948096       -25.7990
  93   2.0000      -0.937560       -25.5123
  94   2.0000      -0.934833       -25.4381
  95   2.0000      -0.923509       -25.1300
  96   2.0000      -0.909062       -24.7368
  97   2.0000      -0.896873       -24.4051
  98   2.0000      -0.882591       -24.0165
  99   2.0000      -0.876830       -23.8598
 100   2.0000      -0.866879       -23.5890
 101   2.0000      -0.854105       -23.2414
 102   2.0000      -0.853133       -23.2149
 103   2.0000      -0.846492       -23.0342
 104   2.0000      -0.842960       -22.9381
 105   2.0000      -0.841180       -22.8897
 106   2.0000      -0.839214       -22.8362
 107   2.0000      -0.837082       -22.7782
 108   2.0000      -0.834265       -22.7015
 109   2.0000      -0.828952       -22.5569
 110   2.0000      -0.822717       -22.3873
 111   2.0000      -0.815030       -22.1781
 112   2.0000      -0.807868       -21.9832
 113   2.0000      -0.799255       -21.7488
 114   2.0000      -0.789437       -21.4817
 115   2.0000      -0.781070       -21.2540
 116   2.0000      -0.770323       -20.9615
 117   2.0000      -0.756246       -20.5785
 118   2.0000      -0.752047       -20.4642
 119   2.0000      -0.748289       -20.3620
 120   2.0000      -0.731530       -19.9059
 121   2.0000      -0.727957       -19.8087
 122   2.0000      -0.721590       -19.6355
 123   2.0000      -0.715144       -19.4601
 124   2.0000      -0.707027       -19.2392
 125   2.0000      -0.702080       -19.1046
 126   2.0000      -0.696955       -18.9651
 127   2.0000      -0.691407       -18.8141
 128   2.0000      -0.686684       -18.6856
 129   2.0000      -0.686141       -18.6708
 130   2.0000      -0.678537       -18.4639
 131   2.0000      -0.673968       -18.3396
 132   2.0000      -0.670061       -18.2333
 133   2.0000      -0.665979       -18.1222
 134   2.0000      -0.652923       -17.7669
 135   2.0000      -0.651262       -17.7217
 136   2.0000      -0.645827       -17.5738
 137   2.0000      -0.636718       -17.3260
 138   2.0000      -0.630455       -17.1555
 139   2.0000      -0.627714       -17.0810
 140   2.0000      -0.626127       -17.0378
 141   2.0000      -0.617505       -16.8032
 142   2.0000      -0.612914       -16.6782
 143   2.0000      -0.609560       -16.5870
 144   2.0000      -0.602273       -16.3887
 145   2.0000      -0.597633       -16.2624
 146   2.0000      -0.594251       -16.1704
 147   2.0000      -0.589693       -16.0464
 148   2.0000      -0.586037       -15.9469
 149   2.0000      -0.580958       -15.8087
 150   2.0000      -0.579302       -15.7636
 151   2.0000      -0.574573       -15.6349
 152   2.0000      -0.568011       -15.4564
 153   2.0000      -0.566716       -15.4211
 154   2.0000      -0.560969       -15.2647
 155   2.0000      -0.556203       -15.1351
 156   2.0000      -0.555639       -15.1197
 157   2.0000      -0.550933       -14.9917
 158   2.0000      -0.540157       -14.6984
 159   2.0000      -0.538010       -14.6400
 160   2.0000      -0.537474       -14.6254
 161   2.0000      -0.535680       -14.5766
 162   2.0000      -0.534188       -14.5360
 163   2.0000      -0.532316       -14.4851
 164   2.0000      -0.530459       -14.4345
 165   2.0000      -0.528515       -14.3816
 166   2.0000      -0.523362       -14.2414
 167   2.0000      -0.518418       -14.1069
 168   2.0000      -0.516325       -14.0499
 169   2.0000      -0.514779       -14.0078
 170   2.0000      -0.514198       -13.9920
 171   2.0000      -0.513040       -13.9605
 172   2.0000      -0.510958       -13.9039
 173   2.0000      -0.508799       -13.8451
 174   2.0000      -0.507865       -13.8197
 175   2.0000      -0.505310       -13.7502
 176   2.0000      -0.502408       -13.6712
 177   2.0000      -0.500465       -13.6183
 178   2.0000      -0.500019       -13.6062
 179   2.0000      -0.498668       -13.5694
 180   2.0000      -0.495846       -13.4927
 181   2.0000      -0.491716       -13.3803
 182   2.0000      -0.488756       -13.2997
 183   2.0000      -0.487540       -13.2666
 184   2.0000      -0.483561       -13.1584
 185   2.0000      -0.476065       -12.9544
 186   2.0000      -0.473517       -12.8850
 187   2.0000      -0.469357       -12.7718
 188   2.0000      -0.468940       -12.7605
 189   2.0000      -0.466673       -12.6988
 190   2.0000      -0.465714       -12.6727
 191   2.0000      -0.458756       -12.4834
 192   2.0000      -0.458071       -12.4648
 193   2.0000      -0.454703       -12.3731
 194   2.0000      -0.454354       -12.3636
 195   2.0000      -0.453267       -12.3340
 196   2.0000      -0.451177       -12.2771
 197   2.0000      -0.449690       -12.2367
 198   2.0000      -0.448551       -12.2057
 199   2.0000      -0.441727       -12.0200
 200   2.0000      -0.439599       -11.9621
 201   2.0000      -0.438932       -11.9440
 202   2.0000      -0.436766       -11.8850
 203   2.0000      -0.435812       -11.8591
 204   2.0000      -0.434833       -11.8324
 205   2.0000      -0.431096       -11.7307
 206   2.0000      -0.430233       -11.7072
 207   2.0000      -0.426993       -11.6191
 208   2.0000      -0.425424       -11.5764
 209   2.0000      -0.424101       -11.5404
 210   2.0000      -0.421439       -11.4679
 211   2.0000      -0.420220       -11.4348
 212   2.0000      -0.419307       -11.4099
 213   2.0000      -0.418206       -11.3800
 214   2.0000      -0.416343       -11.3293
 215   2.0000      -0.414808       -11.2875
 216   2.0000      -0.412720       -11.2307
 217   2.0000      -0.405907       -11.0453
 218   2.0000      -0.403311       -10.9747
 219   2.0000      -0.401597       -10.9280
 220   2.0000      -0.398897       -10.8545
 221   2.0000      -0.396928       -10.8010
 222   2.0000      -0.390498       -10.6260
 223   2.0000      -0.388678       -10.5765
 224   2.0000      -0.384749       -10.4696
 225   2.0000      -0.384157       -10.4534
 226   2.0000      -0.378300       -10.2941
 227   2.0000      -0.368829       -10.0363
 228   2.0000      -0.360263        -9.8033
 229   2.0000      -0.342849        -9.3294
 230   2.0000      -0.342130        -9.3098
 231   2.0000      -0.337426        -9.1818
 232   2.0000      -0.335578        -9.1315
 233   2.0000      -0.329886        -8.9767
 234   2.0000      -0.326831        -8.8935
 235   2.0000      -0.325504        -8.8574
 236   2.0000      -0.322663        -8.7801
 237   2.0000      -0.321290        -8.7428
 238   2.0000      -0.317111        -8.6290
 239   2.0000      -0.310431        -8.4473
 240   2.0000      -0.306613        -8.3434
 241   2.0000      -0.297708        -8.1011
 242   2.0000      -0.282440        -7.6856
 243   2.0000      -0.270411        -7.3582
 244   2.0000      -0.261136        -7.1059
 245   2.0000      -0.222144        -6.0448
 246   0.0000      -0.087792        -2.3890
 247   0.0000      -0.062177        -1.6919
 248   0.0000      -0.020678        -0.5627
 249   0.0000       0.001264         0.0344
 250   0.0000       0.008050         0.2190

MULLIKEN ATOMIC CHARGES
-----------------------
   0 C :    0.181878
   1 O :   -0.335144
   2 C :    0.180106
   3 C :   -0.100205
   4 C :    0.028792
   5 C :   -0.020818
   6 C :   -0.000749
   7 C :    0.070131
   8 C :    0.034543
   9 C :   -0.058510
  10 C :    0.099024
  11 C :    0.029054
  12 C :   -0.101318
  13 C :   -0.149324
  14 C :    0.107423
  15 C :    0.112382
  16 C :    0.038175
  17 C :   -0.113649
  18 C :    0.113000
  19 C :   -0.025815
  20 C :   -0.015728
  21 C :    0.044669
  22 C :    0.024289
  23 C :   -0.022464
  24 C :   -0.056920
  25 C :    0.039640
  26 C :    0.028688
  27 C :    0.003572
  28 C :   -0.091342
  29 C :    0.193132
  30 N :   -0.121207
  31 C :    0.057546
  32 C :   -0.065393
  33 C :    0.016974
  34 C :   -0.009863
  35 C :    0.120921
  36 C :   -0.156752
  37 C :   -0.283165
  38 N :    0.251551
  39 C :    0.345820
  40 C :   -0.415679
  41 C :   -0.208582
  42 N :    0.189323
  43 C :   -0.169361
  44 N :    0.158629
  45 O :   -0.243367
  46 C :    0.138440
  47 C :    0.050110
  48 C :    0.002819
  49 C :    0.023656
  50 C :    0.036253
  51 C :    0.029228
  52 C :   -0.028566
  53 C :    0.019490
  54 C :   -0.010842
  55 C :    0.032306
  56 C :    0.033974
  57 C :    0.017111
  58 C :   -0.001547
  59 C :   -0.133864
  60 C :    0.229647
  61 O :   -0.203523
  62 S :    0.141562
  63 S :    0.074574
  64 C :   -0.017771
  65 C :   -0.049971
  66 C :    0.101700
  67 C :    0.135458
  68 O :   -0.322478
  69 C :    0.207387
  70 H :    0.024095
  71 H :    0.021912
  72 H :    0.033992
  73 H :   -0.032042
  74 H :   -0.023057
  75 H :   -0.029684
  76 H :   -0.019912
  77 H :   -0.036781
  78 H :   -0.039807
  79 H :    0.006405
  80 H :    0.019760
  81 H :    0.003691
  82 H :    0.007924
  83 H :    0.003237
  84 H :    0.018858
  85 H :   -0.041335
  86 H :   -0.017149
  87 H :   -0.006453
  88 H :   -0.012842
  89 H :   -0.013928
  90 H :   -0.014667
  91 H :   -0.011650
  92 H :   -0.014531
  93 H :    0.003212
  94 H :    0.007867
  95 H :   -0.009345
  96 H :   -0.006376
  97 H :   -0.005335
  98 H :   -0.001373
  99 H :    0.002381
 100 H :   -0.008788
 101 H :   -0.009935
 102 H :   -0.012558
 103 H :   -0.018428
 104 H :    0.008766
 105 H :   -0.013914
 106 H :   -0.030456
 107 H :    0.009221
 108 H :    0.024001
 109 H :    0.025961
Sum of atomic charges:   -0.0000000

LOEWDIN ATOMIC CHARGES
----------------------
   0 C :    0.075824
   1 O :   -0.109255
   2 C :    0.027441
   3 C :   -0.071085
   4 C :   -0.033974
   5 C :   -0.033008
   6 C :   -0.035581
   7 C :   -0.004950
   8 C :   -0.004759
   9 C :   -0.019116
  10 C :   -0.026099
  11 C :    0.000409
  12 C :   -0.022888
  13 C :   -0.037862
  14 C :   -0.027089
  15 C :   -0.025938
  16 C :   -0.001068
  17 C :   -0.012233
  18 C :   -0.038971
  19 C :   -0.019994
  20 C :   -0.157444
  21 C :   -0.009302
  22 C :   -0.046304
  23 C :   -0.146612
  24 C :   -0.208317
  25 C :   -0.012235
  26 C :   -0.052300
  27 C :   -0.100915
  28 C :   -0.127679
  29 C :    0.078350
  30 N :   -0.147476
  31 C :   -0.005317
  32 C :   -0.024104
  33 C :    0.007576
  34 C :   -0.053029
  35 C :    0.077690
  36 C :   -0.104888
  37 C :   -0.039814
  38 N :   -0.019607
  39 C :    0.134425
  40 C :   -0.185709
  41 C :   -0.035133
  42 N :   -0.044008
  43 C :   -0.024303
  44 N :   -0.055392
  45 O :   -0.032941
  46 C :    0.080480
  47 C :   -0.038360
  48 C :   -0.007827
  49 C :   -0.016011
  50 C :   -0.011668
  51 C :   -0.016676
  52 C :   -0.016326
  53 C :   -0.030546
  54 C :   -0.017000
  55 C :   -0.015667
  56 C :   -0.017122
  57 C :   -0.018636
  58 C :   -0.018020
  59 C :   -0.028293
  60 C :    0.027657
  61 O :   -0.015970
  62 S :    0.436439
  63 S :    0.395268
  64 C :   -0.016821
  65 C :   -0.017921
  66 C :   -0.002687
  67 C :    0.038182
  68 O :   -0.106421
  69 C :    0.076836
  70 H :    0.015293
  71 H :    0.014057
  72 H :    0.027680
  73 H :    0.027751
  74 H :    0.026701
  75 H :    0.026234
  76 H :    0.028745
  77 H :    0.025899
  78 H :    0.023582
  79 H :    0.022154
  80 H :    0.028964
  81 H :    0.020448
  82 H :    0.022810
  83 H :    0.020355
  84 H :    0.029328
  85 H :    0.022998
  86 H :    0.035495
  87 H :    0.035482
  88 H :    0.032285
  89 H :    0.030549
  90 H :    0.032340
  91 H :    0.037367
  92 H :    0.039710
  93 H :    0.038496
  94 H :    0.036271
  95 H :    0.031579
  96 H :    0.031554
  97 H :    0.032878
  98 H :    0.031858
  99 H :    0.033307
 100 H :    0.031967
 101 H :    0.029972
 102 H :    0.030537
 103 H :    0.029083
 104 H :    0.040660
 105 H :    0.012228
 106 H :    0.029360
 107 H :    0.012565
 108 H :    0.020618
 109 H :    0.012935

  Mayer bond orders larger than 0.100000
B(  0-C ,  1-O ) :   0.9685 B(  0-C , 70-H ) :   0.9689 B(  0-C , 71-H ) :   0.9685
B(  0-C , 72-H ) :   0.9783 B(  1-O ,  2-C ) :   1.1102 B(  2-C ,  3-C ) :   1.3371
B(  2-C , 67-C ) :   1.3023 B(  3-C ,  4-C ) :   1.3317 B(  3-C , 73-H ) :   1.0013
B(  4-C ,  5-C ) :   1.3761 B(  4-C , 74-H ) :   0.9927 B(  5-C ,  6-C ) :   1.3871
B(  5-C , 75-H ) :   0.9982 B(  6-C ,  7-C ) :   0.9353 B(  6-C , 67-C ) :   1.4190
B(  7-C ,  8-C ) :   1.3909 B(  7-C , 12-C ) :   1.3516 B(  8-C ,  9-C ) :   1.3830
B(  8-C , 76-H ) :   0.9849 B(  9-C , 10-C ) :   1.3318 B(  9-C , 77-H ) :   0.9949
B( 10-C , 11-C ) :   1.3904 B( 10-C , 66-C ) :   0.9970 B( 11-C , 12-C ) :   1.3750
B( 11-C , 13-C ) :   0.9354 B( 12-C , 78-H ) :   1.0041 B( 13-C , 14-C ) :   1.0324
B( 13-C , 15-C ) :   1.0320 B( 13-C , 16-C ) :   0.9335 B( 14-C , 79-H ) :   0.9629
B( 14-C , 80-H ) :   0.9651 B( 14-C , 81-H ) :   0.9624 B( 15-C , 82-H ) :   0.9631
B( 15-C , 83-H ) :   0.9626 B( 15-C , 84-H ) :   0.9638 B( 16-C , 17-C ) :   1.3976
B( 16-C , 66-C ) :   1.3733 B( 17-C , 18-C ) :   1.2600 B( 17-C , 85-H ) :   1.0093
B( 18-C , 19-C ) :   1.1108 B( 18-C , 64-C ) :   1.3169 B( 19-C , 20-C ) :   1.5968
B( 19-C , 86-H ) :   0.9710 B( 20-C , 21-C ) :   1.1265 B( 20-C , 63-S ) :   1.0150
B( 21-C , 22-C ) :   1.6053 B( 21-C , 87-H ) :   0.9996 B( 22-C , 23-C ) :   1.1708
B( 22-C , 88-H ) :   0.9926 B( 23-C , 24-C ) :   1.5202 B( 23-C , 63-S ) :   1.0650
B( 24-C , 25-C ) :   1.1913 B( 24-C , 62-S ) :   0.9819 B( 25-C , 26-C ) :   1.5788
B( 25-C , 89-H ) :   0.9950 B( 26-C , 27-C ) :   1.1581 B( 26-C , 90-H ) :   0.9988
B( 27-C , 28-C ) :   1.4899 B( 27-C , 62-S ) :   1.1163 B( 28-C , 29-C ) :   1.2058
B( 28-C , 91-H ) :   0.9741 B( 29-C , 30-N ) :   1.5693 B( 29-C , 61-O ) :   1.1196
B( 30-N , 31-C ) :   1.3411 B( 31-C , 32-C ) :   1.2841 B( 31-C , 60-C ) :   1.2460
B( 32-C , 33-C ) :   1.4025 B( 32-C , 92-H ) :   1.0211 B( 33-C , 34-C ) :   1.3198
B( 33-C , 93-H ) :   0.9844 B( 34-C , 35-C ) :   1.0718 B( 34-C , 59-C ) :   1.2794
B( 35-C , 36-C ) :   1.6545 B( 35-C , 46-C ) :   0.9544 B( 36-C , 37-C ) :   1.1631
B( 36-C , 39-C ) :   1.0376 B( 37-C , 38-N ) :   3.0138 B( 39-C , 40-C ) :   1.6232
B( 39-C , 45-O ) :   1.1972 B( 40-C , 41-C ) :   1.1768 B( 40-C , 43-C ) :   1.1188
B( 41-C , 42-N ) :   3.0280 B( 43-C , 44-N ) :   3.0533 B( 45-O , 46-C ) :   1.0047
B( 46-C , 47-C ) :   0.9149 B( 46-C , 53-C ) :   0.9086 B( 47-C , 48-C ) :   1.4312
B( 47-C , 52-C ) :   1.3711 B( 48-C , 49-C ) :   1.3688 B( 48-C , 94-H ) :   0.9875
B( 49-C , 50-C ) :   1.3950 B( 49-C , 95-H ) :   0.9875 B( 50-C , 51-C ) :   1.3796
B( 50-C , 96-H ) :   0.9931 B( 51-C , 52-C ) :   1.3886 B( 51-C , 97-H ) :   0.9902
B( 52-C , 98-H ) :   0.9929 B( 53-C , 54-C ) :   1.4202 B( 53-C , 58-C ) :   1.3731
B( 54-C , 55-C ) :   1.3714 B( 54-C , 99-H ) :   0.9919 B( 55-C , 56-C ) :   1.3932
B( 55-C ,100-H ) :   0.9899 B( 56-C , 57-C ) :   1.3774 B( 56-C ,101-H ) :   0.9939
B( 57-C , 58-C ) :   1.4039 B( 57-C ,102-H ) :   0.9910 B( 58-C ,103-H ) :   0.9898
B( 59-C , 60-C ) :   1.3574 B( 59-C ,104-H ) :   1.0028 B( 60-C , 61-O ) :   1.1075
B( 64-C , 65-C ) :   1.4177 B( 64-C ,105-H ) :   0.9711 B( 65-C , 66-C ) :   1.3293
B( 65-C ,106-H ) :   0.9915 B( 67-C , 68-O ) :   1.1797 B( 68-O , 69-C ) :   0.9423
B( 69-C ,107-H ) :   0.9728 B( 69-C ,108-H ) :   0.9778 B( 69-C ,109-H ) :   0.9737

-----------------------------------------------------------------------------
         ABSORPTION SPECTRUM VIA TRANSITION ELECTRIC DIPOLE MOMENTS
-----------------------------------------------------------------------------
State   Energy  Wavelength   fosc         T2         TX        TY        TZ
        (cm-1)    (nm)                  (au**2)     (au)      (au)      (au)
-----------------------------------------------------------------------------
   0   15018.7    665.8   1.264729988  27.72297  -4.29436   0.46866   3.01028
   1   22762.7    439.3   0.665177811   9.62032   1.15632   1.18697   2.62190
   2   24914.9    401.4   0.640963880   8.46934  -1.97268  -0.89083  -1.94533
   3   28903.5    346.0   0.205307011   2.33846  -0.81079  -0.10744  -1.29211
   4   29548.3    338.4   0.781132001   8.70296  -1.68780  -1.34055  -2.01425
   5   30817.4    324.5   0.036065233   0.38527  -0.07195  -0.31017   0.53282
   6   31273.8    319.8   0.004236507   0.04460   0.20247  -0.04543   0.03921
   7   31877.8    313.7   0.080072477   0.82693  -0.39040  -0.21960   0.79139
   8   33435.9    299.1   0.028049333   0.27618   0.14105   0.49828  -0.08940
   9   33528.9    298.2   0.006254912   0.06142  -0.22959  -0.01213  -0.09249
  10   34239.0    292.1   0.002448002   0.02354   0.07270   0.12691  -0.04633
  11   34506.1    289.8   0.023689799   0.22602   0.17203  -0.03583  -0.44175
  12   35296.4    283.3   0.078605095   0.73315  -0.40302  -0.19953  -0.72864
  13   35596.8    280.9   0.047719863   0.44133   0.06956  -0.47870  -0.45535
  14   35666.4    280.4   0.011569273   0.10679   0.18091   0.21708  -0.16412
  15   35956.4    278.1   0.111075559   1.01699  -0.87388  -0.49997  -0.05797
  16   36071.1    277.2   0.001627746   0.01486  -0.11524  -0.02360  -0.03192
  17   36425.1    274.5   0.108894966   0.98420   0.72860   0.04778   0.67161
  18   37383.3    267.5   0.016277562   0.14335  -0.24677  -0.12488   0.25857
  19   37665.4    265.5   0.064427271   0.56312   0.43794  -0.27454  -0.54402
  20   37761.8    264.8   0.113448562   0.98906   0.19417   0.47183   0.85366
  21   38141.7    262.2   0.008601903   0.07425   0.17264   0.19912   0.06923
  22   38916.8    257.0   0.047075503   0.39823   0.37064   0.19331   0.47275
  23   39003.1    256.4   0.009076857   0.07661   0.03271   0.23092  -0.14906
  24   39377.0    254.0   0.027229035   0.22765   0.04227   0.23965  -0.41040
  25   39563.1    252.8   0.156563335   1.30279  -0.29660  -0.37502  -1.03643
  26   39641.8    252.3   0.019919396   0.16542  -0.35435  -0.07929  -0.18323
  27   39938.6    250.4   0.035958967   0.29641   0.22637   0.28103   0.40766
  28   40039.8    249.8   0.066558398   0.54725   0.39690  -0.40488  -0.47518

FINAL SINGLE POINT ENERGY     -3622.837984091714

DIPOLE MOMENT
-------------
                                X             Y             Z
Electronic contribution:     57.23230      -3.40676     -64.01668
Nuclear contribution   :    -62.67799       0.55342      63.73641
                        -----------------------------------------
Total Dipole Moment    :     -5.44568      -2.85334      -0.28027
                        -----------------------------------------
Magnitude (a.u.)       :      6.15431
Magnitude (Debye)      :     15.64302

Rotational constants in cm-1:     0.000980     0.000366     0.000282
Rotational constants in MHz :    29.370561    10.968882     8.459262

                             ****ORCA TERMINATED NORMALLY****
TOTAL RUN TIME: 0 days 0 hours 10 minutes 54 seconds 915 msec
