                         Program Version 4.2.0 -  RELEASE  -
|  1> # ORCA input file
|  2> # SCF done       -184.566149881462          0.000219247346
|  3> ! CAM-B3LYP def2-SVP def2/J RIJCOSX Grid4 TightSCF
|  4> %maxcore 5000
|  5> %tddft
|  6>     Mode sTDDFT
|  7>     Ethresh 5.0
|  8>     maxcore 5000
|  9> end
| 10>
| 11> %pal
| 12>   nprocs 6
| 13>   end
| 14> * xyz 0 1
| 15>    C        5.23625         0.71327        -2.18935
| 16>    C        5.55904        -0.58858        -2.43237
| 17>    C        4.43055        -1.39915        -2.06050
| 18>    C        3.38793        -0.52297        -1.57401
| 19>    O        2.27005        -0.73005        -1.15524
| 20>    N        3.96717         0.75354        -1.68797
| 21>    C        4.77200        -2.70680        -2.30389
| 22>    O        6.03955        -2.77139        -2.80606
| 23>    C        6.58876        -1.48792        -2.91297
| 24>    O        7.69564        -1.31274        -3.33281
| 25>    C        4.03597        -3.89231        -2.10734
| 26>    C        2.74024        -3.99534        -1.63274
| 27>    C        2.28428        -5.31354        -1.55617
| 28>    C        0.91505        -5.68196        -1.17704
| 29>    C        0.34600        -5.16133        -0.03049
| 30>    C       -0.95340        -5.52775         0.33305
| 31>    C       -1.66640        -6.40612        -0.46559
| 32>    C       -1.09635        -6.91387        -1.63592
| 33>    C        0.19041        -6.55034        -1.99582
| 34>    O       -1.89008        -7.76030        -2.34508
| 35>    C       -1.37182        -8.34961        -3.51262
| 36>    O       -1.41904        -4.97844         1.48366
| 37>    C       -2.72439        -5.29987         1.90149
| 38>    C        3.25642        -6.23152        -1.95324
| 39>    S        4.71783        -5.44992        -2.46062
| 40>    C        3.17188        -7.65426        -1.91169
| 41>    C        2.40293        -8.43125        -1.07601
| 42>    C        2.55619        -9.81300        -1.26842
| 43>    C        1.80044       -10.76768        -0.44700
| 44>    C        0.42365       -10.63993        -0.38691
| 45>    C       -0.32166       -11.49251         0.42909
| 46>    C        0.32894       -12.43902         1.20136
| 47>    C        1.72071       -12.55296         1.15866
| 48>    C        2.45866       -11.72242         0.32558
| 49>    O        2.24633       -13.47368         1.99786
| 50>    C        3.61246       -13.78953         1.87576
| 51>    O       -1.66781       -11.30390         0.40261
| 52>    C       -2.47724       -12.15008         1.18372
| 53>    C        3.44967       -10.10981        -2.28819
| 54>    S        4.12032        -8.64811        -2.97394
| 55>    C        3.79825       -11.35199        -2.88492
| 56>    C        4.58056       -11.49394        -4.01892
| 57>    C        4.74425       -12.81242        -4.44255
| 58>    C        5.55929       -13.15522        -5.61395
| 59>    C        6.57242       -14.11330        -5.51772
| 60>    C        7.34248       -14.40806        -6.63404
| 61>    C        7.10456       -13.74872        -7.84312
| 62>    C        6.10857       -12.79015        -7.93271
| 63>    C        5.33592       -12.49190        -6.80686
| 64>    O        5.80272       -12.09383        -9.05479
| 65>    C        6.54510       -12.34107       -10.22604
| 66>    O        8.34587       -15.32082        -6.66449
| 67>    C        8.60432       -16.08345        -5.50881
| 68>    C        4.06114       -13.70991        -3.62005
| 69>    S        3.24291       -12.88821        -2.30845
| 70>    C        3.89403       -15.10738        -3.72219
| 71>    C        3.26949       -15.95084        -2.82008
| 72>    C        3.33390       -17.29713        -3.31997
| 73>    C        4.03409       -17.25347        -4.60385
| 74>    O        4.34488       -18.11249        -5.39077
| 75>    N        4.32655       -15.89650        -4.76868
| 76>    C        2.72569       -18.08005        -2.39813
| 77>    O        2.28141       -17.34593        -1.35464
| 78>    C        2.59435       -15.99304        -1.55995
| 79>    O        2.30625       -15.13749        -0.75892
| 80>    H        5.81128         1.60787        -2.33478
| 81>    H        3.47911         1.59445        -1.42098
| 82>    H        2.14947        -3.13388        -1.37479
| 83>    H        0.89276        -4.48515         0.60564
| 84>    H       -2.66636        -6.72573        -0.22601
| 85>    H        0.64707        -6.91843        -2.89965
| 86>    H       -2.15627        -9.00775        -3.88241
| 87>    H       -0.47437        -8.94138        -3.30283
| 88>    H       -1.14054        -7.59779        -4.27416
| 89>    H       -2.88046        -4.74961         2.82793
| 90>    H       -2.83104        -6.37208         2.09364
| 91>    H       -3.46958        -4.98655         1.16377
| 92>    H        1.76427        -8.01947        -0.31655
| 93>    H       -0.09630        -9.89613        -0.96846
| 94>    H       -0.19808       -13.11306         1.85509
| 95>    H        3.53437       -11.77571         0.29141
| 96>    H        3.78762       -14.61027         2.56935
| 97>    H        4.24934       -12.94171         2.15135
| 98>    H        3.84265       -14.11560         0.85842
| 99>    H       -3.50254       -11.83988         0.98751
|100>    H       -2.26243       -12.03803         2.25121
|101>    H       -2.35343       -13.19876         0.89698
|102>    H        5.03270       -10.65702        -4.52157
|103>    H        6.76072       -14.58303        -4.56545
|104>    H        7.72690       -14.01587        -8.68020
|105>    H        4.55680       -11.75276        -6.89377
|106>    H        6.13042       -11.67638       -10.98194
|107>    H        6.43742       -13.37852       -10.55689
|108>    H        7.60549       -12.11187       -10.08367
|109>    H        9.42219       -16.75029        -5.77562
|110>    H        7.73337       -16.67988        -5.21887
|111>    H        8.91310       -15.45150        -4.67020
|112>    H        4.80773       -15.53153        -5.57912
|113>    H        2.54385       -19.13725        -2.35419
|114> *
|115>
|116>                          ****END OF INPUT****

CARTESIAN COORDINATES (ANGSTROEM)
---------------------------------
  C      5.236250    0.713270   -2.189350
  C      5.559040   -0.588580   -2.432370
  C      4.430550   -1.399150   -2.060500
  C      3.387930   -0.522970   -1.574010
  O      2.270050   -0.730050   -1.155240
  N      3.967170    0.753540   -1.687970
  C      4.772000   -2.706800   -2.303890
  O      6.039550   -2.771390   -2.806060
  C      6.588760   -1.487920   -2.912970
  O      7.695640   -1.312740   -3.332810
  C      4.035970   -3.892310   -2.107340
  C      2.740240   -3.995340   -1.632740
  C      2.284280   -5.313540   -1.556170
  C      0.915050   -5.681960   -1.177040
  C      0.346000   -5.161330   -0.030490
  C     -0.953400   -5.527750    0.333050
  C     -1.666400   -6.406120   -0.465590
  C     -1.096350   -6.913870   -1.635920
  C      0.190410   -6.550340   -1.995820
  O     -1.890080   -7.760300   -2.345080
  C     -1.371820   -8.349610   -3.512620
  O     -1.419040   -4.978440    1.483660
  C     -2.724390   -5.299870    1.901490
  C      3.256420   -6.231520   -1.953240
  S      4.717830   -5.449920   -2.460620
  C      3.171880   -7.654260   -1.911690
  C      2.402930   -8.431250   -1.076010
  C      2.556190   -9.813000   -1.268420
  C      1.800440  -10.767680   -0.447000
  C      0.423650  -10.639930   -0.386910
  C     -0.321660  -11.492510    0.429090
  C      0.328940  -12.439020    1.201360
  C      1.720710  -12.552960    1.158660
  C      2.458660  -11.722420    0.325580
  O      2.246330  -13.473680    1.997860
  C      3.612460  -13.789530    1.875760
  O     -1.667810  -11.303900    0.402610
  C     -2.477240  -12.150080    1.183720
  C      3.449670  -10.109810   -2.288190
  S      4.120320   -8.648110   -2.973940
  C      3.798250  -11.351990   -2.884920
  C      4.580560  -11.493940   -4.018920
  C      4.744250  -12.812420   -4.442550
  C      5.559290  -13.155220   -5.613950
  C      6.572420  -14.113300   -5.517720
  C      7.342480  -14.408060   -6.634040
  C      7.104560  -13.748720   -7.843120
  C      6.108570  -12.790150   -7.932710
  C      5.335920  -12.491900   -6.806860
  O      5.802720  -12.093830   -9.054790
  C      6.545100  -12.341070  -10.226040
  O      8.345870  -15.320820   -6.664490
  C      8.604320  -16.083450   -5.508810
  C      4.061140  -13.709910   -3.620050
  S      3.242910  -12.888210   -2.308450
  C      3.894030  -15.107380   -3.722190
  C      3.269490  -15.950840   -2.820080
  C      3.333900  -17.297130   -3.319970
  C      4.034090  -17.253470   -4.603850
  O      4.344880  -18.112490   -5.390770
  N      4.326550  -15.896500   -4.768680
  C      2.725690  -18.080050   -2.398130
  O      2.281410  -17.345930   -1.354640
  C      2.594350  -15.993040   -1.559950
  O      2.306250  -15.137490   -0.758920
  H      5.811280    1.607870   -2.334780
  H      3.479110    1.594450   -1.420980
  H      2.149470   -3.133880   -1.374790
  H      0.892760   -4.485150    0.605640
  H     -2.666360   -6.725730   -0.226010
  H      0.647070   -6.918430   -2.899650
  H     -2.156270   -9.007750   -3.882410
  H     -0.474370   -8.941380   -3.302830
  H     -1.140540   -7.597790   -4.274160
  H     -2.880460   -4.749610    2.827930
  H     -2.831040   -6.372080    2.093640
  H     -3.469580   -4.986550    1.163770
  H      1.764270   -8.019470   -0.316550
  H     -0.096300   -9.896130   -0.968460
  H     -0.198080  -13.113060    1.855090
  H      3.534370  -11.775710    0.291410
  H      3.787620  -14.610270    2.569350
  H      4.249340  -12.941710    2.151350
  H      3.842650  -14.115600    0.858420
  H     -3.502540  -11.839880    0.987510
  H     -2.262430  -12.038030    2.251210
  H     -2.353430  -13.198760    0.896980
  H      5.032700  -10.657020   -4.521570
  H      6.760720  -14.583030   -4.565450
  H      7.726900  -14.015870   -8.680200
  H      4.556800  -11.752760   -6.893770
  H      6.130420  -11.676380  -10.981940
  H      6.437420  -13.378520  -10.556890
  H      7.605490  -12.111870  -10.083670
  H      9.422190  -16.750290   -5.775620
  H      7.733370  -16.679880   -5.218870
  H      8.913100  -15.451500   -4.670200
  H      4.807730  -15.531530   -5.579120
  H      2.543850  -19.137250   -2.354190

 Total Charge           Charge          ....    0
 Multiplicity           Mult            ....    1
 Number of Electrons    NEL             ....  480
 Basis Dimension        Dim             .... 1092

ORBITAL ENERGIES
----------------

  NO   OCC          E(Eh)            E(eV)
   0   2.0000     -88.967539     -2420.9298
   1   2.0000     -88.962769     -2420.8000
   2   2.0000     -88.962230     -2420.7854
   3   2.0000     -19.278224      -524.5871
   4   2.0000     -19.271352      -524.4002
   5   2.0000     -19.248120      -523.7680
   6   2.0000     -19.248027      -523.7654
   7   2.0000     -19.236972      -523.4646
   8   2.0000     -19.235889      -523.4352
   9   2.0000     -19.231711      -523.3215
  10   2.0000     -19.225400      -523.1497
  11   2.0000     -19.203972      -522.5666
  12   2.0000     -19.196215      -522.3556
  13   2.0000     -19.193125      -522.2715
  14   2.0000     -19.191961      -522.2398
  15   2.0000     -14.461275      -393.5113
  16   2.0000     -14.453257      -393.2931
  17   2.0000     -10.404692      -283.1261
  18   2.0000     -10.394120      -282.8384
  19   2.0000     -10.384420      -282.5744
  20   2.0000     -10.381033      -282.4823
  21   2.0000     -10.370766      -282.2029
  22   2.0000     -10.354526      -281.7610
  23   2.0000     -10.348011      -281.5837
  24   2.0000     -10.341029      -281.3937
  25   2.0000     -10.339487      -281.3517
  26   2.0000     -10.338842      -281.3342
  27   2.0000     -10.324954      -280.9563
  28   2.0000     -10.324729      -280.9502
  29   2.0000     -10.324090      -280.9328
  30   2.0000     -10.323286      -280.9109
  31   2.0000     -10.319020      -280.7948
  32   2.0000     -10.318953      -280.7930
  33   2.0000     -10.318622      -280.7840
  34   2.0000     -10.318472      -280.7799
  35   2.0000     -10.314532      -280.6727
  36   2.0000     -10.314313      -280.6667
  37   2.0000     -10.312523      -280.6180
  38   2.0000     -10.311953      -280.6025
  39   2.0000     -10.311292      -280.5845
  40   2.0000     -10.311225      -280.5827
  41   2.0000     -10.309378      -280.5324
  42   2.0000     -10.300373      -280.2874
  43   2.0000     -10.299203      -280.2556
  44   2.0000     -10.294396      -280.1247
  45   2.0000     -10.287071      -279.9254
  46   2.0000     -10.286973      -279.9228
  47   2.0000     -10.284350      -279.8514
  48   2.0000     -10.279702      -279.7249
  49   2.0000     -10.278586      -279.6945
  50   2.0000     -10.275020      -279.5975
  51   2.0000     -10.274905      -279.5944
  52   2.0000     -10.273328      -279.5515
  53   2.0000     -10.271429      -279.4998
  54   2.0000     -10.270621      -279.4778
  55   2.0000     -10.270347      -279.4704
  56   2.0000     -10.267702      -279.3984
  57   2.0000     -10.266707      -279.3713
  58   2.0000     -10.264825      -279.3201
  59   2.0000     -10.254214      -279.0313
  60   2.0000     -10.253849      -279.0214
  61   2.0000     -10.253018      -278.9988
  62   2.0000     -10.250036      -278.9176
  63   2.0000     -10.247699      -278.8541
  64   2.0000     -10.247667      -278.8532
  65   2.0000      -8.062749      -219.3985
  66   2.0000      -8.057605      -219.2586
  67   2.0000      -8.056150      -219.2190
  68   2.0000      -6.031969      -164.1382
  69   2.0000      -6.027843      -164.0259
  70   2.0000      -6.026972      -164.0022
  71   2.0000      -6.025645      -163.9661
  72   2.0000      -6.024968      -163.9477
  73   2.0000      -6.022838      -163.8897
  74   2.0000      -6.021149      -163.8438
  75   2.0000      -6.019593      -163.8015
  76   2.0000      -6.018219      -163.7641
  77   2.0000      -1.207606       -32.8606
  78   2.0000      -1.199117       -32.6296
  79   2.0000      -1.154247       -31.4087
  80   2.0000      -1.152098       -31.3502
  81   2.0000      -1.141936       -31.0737
  82   2.0000      -1.139842       -31.0167
  83   2.0000      -1.136257       -30.9191
  84   2.0000      -1.132487       -30.8165
  85   2.0000      -1.131504       -30.7898
  86   2.0000      -1.130149       -30.7529
  87   2.0000      -1.114309       -30.3219
  88   2.0000      -1.104275       -30.0489
  89   2.0000      -1.059808       -28.8388
  90   2.0000      -1.057671       -28.7807
  91   2.0000      -1.008282       -27.4367
  92   2.0000      -0.996704       -27.1217
  93   2.0000      -0.978961       -26.6389
  94   2.0000      -0.953409       -25.9436
  95   2.0000      -0.941193       -25.6112
  96   2.0000      -0.935699       -25.4617
  97   2.0000      -0.910367       -24.7723
  98   2.0000      -0.904807       -24.6211
  99   2.0000      -0.895123       -24.3575
 100   2.0000      -0.879838       -23.9416
 101   2.0000      -0.873720       -23.7751
 102   2.0000      -0.870215       -23.6798
 103   2.0000      -0.855440       -23.2777
 104   2.0000      -0.852196       -23.1894
 105   2.0000      -0.840325       -22.8664
 106   2.0000      -0.838120       -22.8064
 107   2.0000      -0.833534       -22.6816
 108   2.0000      -0.823304       -22.4032
 109   2.0000      -0.820163       -22.3178
 110   2.0000      -0.811809       -22.0905
 111   2.0000      -0.809733       -22.0339
 112   2.0000      -0.799261       -21.7490
 113   2.0000      -0.788522       -21.4568
 114   2.0000      -0.781991       -21.2791
 115   2.0000      -0.779693       -21.2165
 116   2.0000      -0.775175       -21.0936
 117   2.0000      -0.770734       -20.9727
 118   2.0000      -0.769953       -20.9515
 119   2.0000      -0.762133       -20.7387
 120   2.0000      -0.757201       -20.6045
 121   2.0000      -0.754628       -20.5345
 122   2.0000      -0.750843       -20.4315
 123   2.0000      -0.715683       -19.4747
 124   2.0000      -0.705234       -19.1904
 125   2.0000      -0.703486       -19.1428
 126   2.0000      -0.691459       -18.8156
 127   2.0000      -0.683656       -18.6032
 128   2.0000      -0.679895       -18.5009
 129   2.0000      -0.675757       -18.3883
 130   2.0000      -0.666571       -18.1383
 131   2.0000      -0.664410       -18.0795
 132   2.0000      -0.656774       -17.8717
 133   2.0000      -0.651284       -17.7223
 134   2.0000      -0.643409       -17.5081
 135   2.0000      -0.636938       -17.3320
 136   2.0000      -0.627396       -17.0723
 137   2.0000      -0.623782       -16.9740
 138   2.0000      -0.609218       -16.5777
 139   2.0000      -0.603756       -16.4290
 140   2.0000      -0.602065       -16.3830
 141   2.0000      -0.598078       -16.2745
 142   2.0000      -0.590014       -16.0551
 143   2.0000      -0.588138       -16.0040
 144   2.0000      -0.583648       -15.8819
 145   2.0000      -0.582564       -15.8524
 146   2.0000      -0.580749       -15.8030
 147   2.0000      -0.578146       -15.7322
 148   2.0000      -0.576318       -15.6824
 149   2.0000      -0.575438       -15.6585
 150   2.0000      -0.573765       -15.6129
 151   2.0000      -0.572085       -15.5672
 152   2.0000      -0.571554       -15.5528
 153   2.0000      -0.566363       -15.4115
 154   2.0000      -0.563884       -15.3441
 155   2.0000      -0.562657       -15.3107
 156   2.0000      -0.558825       -15.2064
 157   2.0000      -0.558364       -15.1939
 158   2.0000      -0.557487       -15.1700
 159   2.0000      -0.554930       -15.1004
 160   2.0000      -0.552008       -15.0209
 161   2.0000      -0.547908       -14.9093
 162   2.0000      -0.545480       -14.8433
 163   2.0000      -0.543225       -14.7819
 164   2.0000      -0.540940       -14.7197
 165   2.0000      -0.536412       -14.5965
 166   2.0000      -0.530172       -14.4267
 167   2.0000      -0.526180       -14.3181
 168   2.0000      -0.523633       -14.2488
 169   2.0000      -0.523600       -14.2479
 170   2.0000      -0.518141       -14.0993
 171   2.0000      -0.511844       -13.9280
 172   2.0000      -0.510237       -13.8843
 173   2.0000      -0.507130       -13.7997
 174   2.0000      -0.506091       -13.7714
 175   2.0000      -0.504732       -13.7345
 176   2.0000      -0.502547       -13.6750
 177   2.0000      -0.501736       -13.6529
 178   2.0000      -0.500986       -13.6325
 179   2.0000      -0.496274       -13.5043
 180   2.0000      -0.490455       -13.3459
 181   2.0000      -0.489310       -13.3148
 182   2.0000      -0.487473       -13.2648
 183   2.0000      -0.480894       -13.0858
 184   2.0000      -0.478786       -13.0284
 185   2.0000      -0.474787       -12.9196
 186   2.0000      -0.473516       -12.8850
 187   2.0000      -0.472719       -12.8633
 188   2.0000      -0.470147       -12.7934
 189   2.0000      -0.468322       -12.7437
 190   2.0000      -0.464478       -12.6391
 191   2.0000      -0.462646       -12.5892
 192   2.0000      -0.461717       -12.5640
 193   2.0000      -0.458234       -12.4692
 194   2.0000      -0.457360       -12.4454
 195   2.0000      -0.452570       -12.3151
 196   2.0000      -0.451302       -12.2805
 197   2.0000      -0.446743       -12.1565
 198   2.0000      -0.445104       -12.1119
 199   2.0000      -0.443624       -12.0716
 200   2.0000      -0.440431       -11.9847
 201   2.0000      -0.437372       -11.9015
 202   2.0000      -0.431937       -11.7536
 203   2.0000      -0.429285       -11.6815
 204   2.0000      -0.426442       -11.6041
 205   2.0000      -0.424127       -11.5411
 206   2.0000      -0.419933       -11.4270
 207   2.0000      -0.418248       -11.3811
 208   2.0000      -0.414387       -11.2760
 209   2.0000      -0.413533       -11.2528
 210   2.0000      -0.412709       -11.2304
 211   2.0000      -0.407829       -11.0976
 212   2.0000      -0.405384       -11.0311
 213   2.0000      -0.401547       -10.9266
 214   2.0000      -0.397967       -10.8292
 215   2.0000      -0.396332       -10.7847
 216   2.0000      -0.389786       -10.6066
 217   2.0000      -0.386316       -10.5122
 218   2.0000      -0.376216       -10.2374
 219   2.0000      -0.371259       -10.1025
 220   2.0000      -0.364199        -9.9104
 221   2.0000      -0.360217        -9.8020
 222   2.0000      -0.355410        -9.6712
 223   2.0000      -0.353258        -9.6126
 224   2.0000      -0.351061        -9.5528
 225   2.0000      -0.337277        -9.1778
 226   2.0000      -0.335028        -9.1166
 227   2.0000      -0.332921        -9.0592
 228   2.0000      -0.330791        -9.0013
 229   2.0000      -0.325227        -8.8499
 230   2.0000      -0.323122        -8.7926
 231   2.0000      -0.300745        -8.1837
 232   2.0000      -0.295196        -8.0327
 233   2.0000      -0.288856        -7.8602
 234   2.0000      -0.284571        -7.7436
 235   2.0000      -0.279866        -7.6156
 236   2.0000      -0.273099        -7.4314
 237   2.0000      -0.265936        -7.2365
 238   2.0000      -0.259398        -7.0586
 239   2.0000      -0.237278        -6.4567
 240   0.0000      -0.080786        -2.1983
 241   0.0000      -0.061613        -1.6766
 242   0.0000      -0.022418        -0.6100
 243   0.0000       0.002847         0.0775
 244   0.0000       0.012181         0.3314

MULLIKEN ATOMIC CHARGES
-----------------------
   0 C :    0.047039
   1 C :   -0.063621
   2 C :   -0.107159
   3 C :    0.153517
   4 O :   -0.177215
   5 N :   -0.126369
   6 C :    0.206485
   7 O :   -0.257292
   8 C :    0.231180
   9 O :   -0.128159
  10 C :   -0.135425
  11 C :   -0.031384
  12 C :    0.113077
  13 C :    0.009289
  14 C :   -0.050679
  15 C :    0.258237
  16 C :   -0.137475
  17 C :    0.235853
  18 C :   -0.110541
  19 O :   -0.313724
  20 C :    0.174668
  21 O :   -0.308117
  22 C :    0.177368
  23 C :   -0.076916
  24 S :    0.193552
  25 C :   -0.105432
  26 C :    0.015671
  27 C :    0.061642
  28 C :    0.012815
  29 C :   -0.055736
  30 C :    0.262056
  31 C :   -0.145826
  32 C :    0.266217
  33 C :   -0.106271
  34 O :   -0.304258
  35 C :    0.182233
  36 O :   -0.309410
  37 C :    0.175834
  38 C :   -0.079773
  39 S :    0.124138
  40 C :   -0.015586
  41 C :   -0.087292
  42 C :    0.149736
  43 C :   -0.013310
  44 C :   -0.180437
  45 C :    0.258807
  46 C :   -0.143047
  47 C :    0.264525
  48 C :   -0.049605
  49 O :   -0.307445
  50 C :    0.173547
  51 O :   -0.303912
  52 C :    0.174025
  53 C :   -0.159145
  54 S :    0.182735
  55 C :    0.149338
  56 C :   -0.183607
  57 C :   -0.012019
  58 C :    0.160226
  59 O :   -0.160866
  60 N :   -0.125868
  61 C :    0.080773
  62 O :   -0.241498
  63 C :    0.216328
  64 O :   -0.168772
  65 H :    0.023752
  66 H :    0.134443
  67 H :    0.006617
  68 H :   -0.027350
  69 H :   -0.033563
  70 H :   -0.030507
  71 H :    0.037026
  72 H :    0.026606
  73 H :    0.023410
  74 H :    0.035103
  75 H :    0.024536
  76 H :    0.022919
  77 H :    0.009527
  78 H :   -0.045038
  79 H :   -0.033437
  80 H :   -0.034040
  81 H :    0.028317
  82 H :    0.011748
  83 H :    0.027342
  84 H :    0.032891
  85 H :    0.021863
  86 H :    0.026285
  87 H :   -0.003829
  88 H :   -0.023398
  89 H :   -0.028441
  90 H :   -0.025184
  91 H :    0.039925
  92 H :    0.026819
  93 H :    0.026482
  94 H :    0.040090
  95 H :    0.029402
  96 H :    0.024870
  97 H :    0.149254
  98 H :    0.027843
Sum of atomic charges:   -0.0000000

LOEWDIN ATOMIC CHARGES
----------------------
   0 C :    0.083680
   1 C :   -0.136593
   2 C :   -0.133246
   3 C :    0.071949
   4 O :   -0.191907
   5 N :    0.031198
   6 C :    0.098819
   7 O :   -0.064344
   8 C :    0.106947
   9 O :   -0.134718
  10 C :   -0.203338
  11 C :    0.002517
  12 C :   -0.042593
  13 C :   -0.011964
  14 C :   -0.059281
  15 C :    0.066074
  16 C :   -0.097520
  17 C :    0.065357
  18 C :   -0.091308
  19 O :   -0.101337
  20 C :    0.075691
  21 O :   -0.100736
  22 C :    0.076290
  23 C :   -0.170132
  24 S :    0.470220
  25 C :   -0.188510
  26 C :   -0.027027
  27 C :   -0.034208
  28 C :   -0.022897
  29 C :   -0.064954
  30 C :    0.066193
  31 C :   -0.092318
  32 C :    0.079633
  33 C :   -0.102723
  34 O :   -0.092684
  35 C :    0.075110
  36 O :   -0.103810
  37 C :    0.075468
  38 C :   -0.185163
  39 S :    0.435820
  40 C :   -0.164416
  41 C :   -0.064808
  42 C :   -0.019158
  43 C :   -0.018154
  44 C :   -0.109259
  45 C :    0.069223
  46 C :   -0.096373
  47 C :    0.068522
  48 C :   -0.057931
  49 O :   -0.098649
  50 C :    0.077442
  51 O :   -0.098655
  52 C :    0.077317
  53 C :   -0.204328
  54 S :    0.534047
  55 C :    0.073066
  56 C :   -0.162647
  57 C :   -0.121102
  58 C :    0.080185
  59 O :   -0.175129
  60 N :    0.027369
  61 C :    0.110616
  62 O :   -0.050306
  63 C :    0.091736
  64 O :   -0.169030
  65 H :    0.035706
  66 H :    0.091887
  67 H :    0.041016
  68 H :    0.032634
  69 H :    0.031472
  70 H :    0.025963
  71 H :    0.029216
  72 H :    0.013679
  73 H :    0.014402
  74 H :    0.028013
  75 H :    0.015768
  76 H :    0.015532
  77 H :    0.041406
  78 H :    0.029282
  79 H :    0.031476
  80 H :    0.020241
  81 H :    0.026013
  82 H :    0.008962
  83 H :    0.013134
  84 H :    0.026666
  85 H :    0.014562
  86 H :    0.016728
  87 H :    0.026027
  88 H :    0.026671
  89 H :    0.033400
  90 H :    0.033127
  91 H :    0.030034
  92 H :    0.017015
  93 H :    0.016951
  94 H :    0.030791
  95 H :    0.018520
  96 H :    0.015777
  97 H :    0.087637
  98 H :    0.033063

  Mayer bond orders larger than 0.100000
B(  0-C ,  1-C ) :   1.5089 B(  0-C ,  5-N ) :   1.1966 B(  0-C , 65-H ) :   0.9833
B(  1-C ,  2-C ) :   1.1531 B(  1-C ,  8-C ) :   0.9590 B(  2-C ,  3-C ) :   0.9589
B(  2-C ,  6-C ) :   1.4576 B(  3-C ,  4-O ) :   2.1439 B(  3-C ,  5-N ) :   1.0763
B(  5-N , 66-H ) :   0.9283 B(  6-C ,  7-O ) :   1.1815 B(  6-C , 10-C ) :   1.1719
B(  7-O ,  8-C ) :   0.9766 B(  8-C ,  9-O ) :   2.2760 B( 10-C , 11-C ) :   1.4571
B( 10-C , 23-C ) :   0.1140 B( 10-C , 24-S ) :   1.0884 B( 11-C , 12-C ) :   1.2924
B( 11-C , 67-H ) :   0.9873 B( 12-C , 13-C ) :   0.9545 B( 12-C , 23-C ) :   1.4940
B( 13-C , 14-C ) :   1.4113 B( 13-C , 18-C ) :   1.3072 B( 14-C , 15-C ) :   1.3010
B( 14-C , 68-H ) :   1.0072 B( 15-C , 16-C ) :   1.3214 B( 15-C , 21-O ) :   1.1434
B( 16-C , 17-C ) :   1.3110 B( 16-C , 69-H ) :   1.0056 B( 17-C , 18-C ) :   1.3479
B( 17-C , 19-O ) :   1.1376 B( 18-C , 70-H ) :   0.9944 B( 19-O , 20-C ) :   0.9673
B( 20-C , 71-H ) :   0.9783 B( 20-C , 72-H ) :   0.9636 B( 20-C , 73-H ) :   0.9712
B( 21-O , 22-C ) :   0.9692 B( 22-C , 74-H ) :   0.9792 B( 22-C , 75-H ) :   0.9692
B( 22-C , 76-H ) :   0.9694 B( 23-C , 24-S ) :   1.1419 B( 23-C , 25-C ) :   1.0705
B( 25-C , 26-C ) :   1.5070 B( 25-C , 38-C ) :   0.1039 B( 25-C , 39-S ) :   1.1193
B( 26-C , 27-C ) :   1.2883 B( 26-C , 77-H ) :   0.9945 B( 27-C , 28-C ) :   0.9546
B( 27-C , 38-C ) :   1.4946 B( 28-C , 29-C ) :   1.4007 B( 28-C , 33-C ) :   1.3104
B( 29-C , 30-C ) :   1.3146 B( 29-C , 78-H ) :   1.0061 B( 30-C , 31-C ) :   1.3113
B( 30-C , 36-O ) :   1.1445 B( 31-C , 32-C ) :   1.3171 B( 31-C , 79-H ) :   1.0060
B( 32-C , 33-C ) :   1.3309 B( 32-C , 34-O ) :   1.1631 B( 33-C , 80-H ) :   0.9892
B( 34-O , 35-C ) :   0.9640 B( 35-C , 81-H ) :   0.9787 B( 35-C , 82-H ) :   0.9669
B( 35-C , 83-H ) :   0.9633 B( 36-O , 37-C ) :   0.9699 B( 37-C , 84-H ) :   0.9794
B( 37-C , 85-H ) :   0.9694 B( 37-C , 86-H ) :   0.9696 B( 38-C , 39-S ) :   1.1107
B( 38-C , 40-C ) :   1.1474 B( 40-C , 41-C ) :   1.4159 B( 40-C , 53-C ) :   0.1034
B( 40-C , 54-S ) :   1.1419 B( 41-C , 42-C ) :   1.3220 B( 41-C , 87-H ) :   0.9954
B( 42-C , 43-C ) :   0.9492 B( 42-C , 53-C ) :   1.4054 B( 43-C , 44-C ) :   1.2879
B( 43-C , 48-C ) :   1.4150 B( 44-C , 45-C ) :   1.3056 B( 44-C , 88-H ) :   1.0065
B( 45-C , 46-C ) :   1.3164 B( 45-C , 51-O ) :   1.1676 B( 46-C , 47-C ) :   1.3128
B( 46-C , 89-H ) :   1.0079 B( 47-C , 48-C ) :   1.2987 B( 47-C , 49-O ) :   1.1506
B( 48-C , 90-H ) :   1.0090 B( 49-O , 50-C ) :   0.9628 B( 50-C , 91-H ) :   0.9791
B( 50-C , 92-H ) :   0.9699 B( 50-C , 93-H ) :   0.9701 B( 51-O , 52-C ) :   0.9597
B( 52-C , 94-H ) :   0.9786 B( 52-C , 95-H ) :   0.9699 B( 52-C , 96-H ) :   0.9684
B( 53-C , 54-S ) :   1.1070 B( 53-C , 55-C ) :   1.1757 B( 55-C , 56-C ) :   1.3779
B( 55-C , 60-N ) :   1.2267 B( 56-C , 57-C ) :   1.1533 B( 56-C , 63-C ) :   1.0275
B( 57-C , 58-C ) :   0.8988 B( 57-C , 61-C ) :   1.5605 B( 58-C , 59-O ) :   2.2401
B( 58-C , 60-N ) :   1.0529 B( 60-N , 97-H ) :   0.9027 B( 61-C , 62-O ) :   1.1350
B( 61-C , 98-H ) :   1.0012 B( 62-O , 63-C ) :   1.0195 B( 63-C , 64-O ) :   2.1164

-----------------------------------------------------------------------------
         ABSORPTION SPECTRUM VIA TRANSITION ELECTRIC DIPOLE MOMENTS
-----------------------------------------------------------------------------
State   Energy  Wavelength   fosc         T2         TX        TY        TZ
        (cm-1)    (nm)                  (au**2)     (au)      (au)      (au)
-----------------------------------------------------------------------------
   0   19081.0    524.1   1.573655418  27.15091  -0.16750  -5.20389  -0.20576
   1   23408.2    427.2   0.057116767   0.80329   0.00894  -0.83585  -0.32336
   2   23787.3    420.4   0.024157777   0.33434   0.32451  -0.31174  -0.36311
   3   25557.0    391.3   0.062153035   0.80062  -0.50126   0.41898   0.61140
   4   26061.8    383.7   0.018333333   0.23159   0.13821  -0.42755  -0.17228
   5   27493.6    363.7   0.109641574   1.31286   0.51691   0.40802  -0.93765
   6   28312.7    353.2   0.007232413   0.08410  -0.03316  -0.28018   0.06704
   7   29407.8    340.0   0.006456001   0.07227   0.10634   0.10620   0.22291
   8   30025.7    333.0   0.060160804   0.65962   0.42034   0.02524  -0.69448
   9   30784.7    324.8   0.129939848   1.38958  -0.82142  -0.65828   0.53057
  10   30843.9    324.2   0.042716985   0.45594  -0.35294  -0.57552  -0.01218
  11   31859.1    313.9   0.037288299   0.38531   0.27474   0.05903  -0.55349
  12   32519.4    307.5   0.018075388   0.18299  -0.30743   0.24478   0.16899
  13   32650.0    306.3   0.001435507   0.01447   0.04704   0.01372   0.10988
  14   33452.6    298.9   0.103792978   1.02144   0.03670  -0.99682  -0.16263
  15   33869.2    295.3   0.152066763   1.47811  -0.80465   0.21710   0.88516
  16   34018.7    294.0   0.094463601   0.91416   0.52769  -0.46267  -0.64934
  17   34438.8    290.4   0.020754168   0.19840   0.34657   0.25258   0.12036
  18   35278.8    283.5   0.092274323   0.86108  -0.64285   0.11928   0.65848
  19   36105.9    277.0   0.030962191   0.28231  -0.19040   0.14883   0.47319
  20   36815.7    271.6   0.008830646   0.07896  -0.13349  -0.21460   0.12284
  21   37322.2    267.9   0.032274884   0.28469   0.16824  -0.18745  -0.47037
  22   37505.6    266.6   0.107749914   0.94579  -0.65082   0.04078   0.72151
  23   37564.4    266.2   0.009187522   0.08052   0.23792  -0.12617   0.08940
  24   37976.0    263.3   0.009060335   0.07854   0.19431   0.17027   0.10859
  25   38133.2    262.2   0.014030614   0.12113   0.21315   0.17252  -0.21432
  26   38542.6    259.5   0.074097946   0.63291  -0.37347  -0.36927   0.59755
  27   38711.2    258.3   0.029238223   0.24865  -0.24668  -0.43265  -0.02480
  28   39233.7    254.9   0.024285433   0.20378  -0.26858  -0.06856   0.35629
  29   39282.7    254.6   0.011434266   0.09583  -0.12000  -0.28487   0.01653
  30   39689.6    252.0   0.083418198   0.69193   0.46552  -0.55036  -0.41512
  31   39850.9    250.9   0.115369347   0.95308  -0.56949   0.26233   0.74829
  32   40087.8    249.5   0.002284050   0.01876  -0.04916   0.09155   0.08921
  33   40273.1    248.3   0.052072441   0.42567  -0.54704  -0.30625  -0.18061

FINAL SINGLE POINT ENERGY     -4052.469198175162

DIPOLE MOMENT
-------------
                                X             Y             Z
Electronic contribution:     21.50430      23.93872      -2.40175
Nuclear contribution   :    -21.75548     -23.49085       1.99940
                        -----------------------------------------
Total Dipole Moment    :     -0.25119       0.44787      -0.40235
                        -----------------------------------------
Magnitude (a.u.)       :      0.65235
Magnitude (Debye)      :      1.65815

Rotational constants in cm-1:     0.001347     0.000608     0.000461
Rotational constants in MHz :    40.394615    18.222133    13.807647

                             ****ORCA TERMINATED NORMALLY****
TOTAL RUN TIME: 0 days 0 hours 8 minutes 4 seconds 853 msec
