                         Program Version 4.2.0 -  RELEASE  -
|  1> # ORCA input file
|  2> # SCF done       -127.282610793126          0.000916608992
|  3> ! CAM-B3LYP def2-SVP def2/J RIJCOSX Grid4 TightSCF
|  4> %maxcore 5000
|  5> %tddft
|  6>     Mode sTDDFT
|  7>     Ethresh 5.0
|  8>     maxcore 5000
|  9> end
| 10>
| 11> %pal
| 12>   nprocs 6
| 13>   end
| 14> * xyz 0 1
| 15>    C       -1.76142         0.92563        -0.14627
| 16>    N       -0.71292         1.78108        -0.08271
| 17>    C        0.45360         1.06639        -0.02633
| 18>    C        0.12186        -0.27801        -0.05625
| 19>    C       -1.27525        -0.35791        -0.13118
| 20>    C        1.70754         1.66864         0.04624
| 21>    C        2.80594         2.17817         0.10708
| 22>    C        4.08469         2.72424         0.17638
| 23>    N        4.32426         4.06643         0.18301
| 24>    C        5.67236         4.28977         0.25373
| 25>    C        6.30356         3.04876         0.29429
| 26>    C        5.31341         2.07287         0.24564
| 27>    C        6.23343         5.55718         0.27263
| 28>    C        6.72024         6.67067         0.28710
| 29>    C        7.32559         7.91290         0.29673
| 30>    C        6.71337         9.15260         0.27802
| 31>    C        7.64594        10.19112         0.28903
| 32>    C        8.97405         9.73752         0.31686
| 33>    S        9.08470         8.03053         0.33056
| 34>    C        9.83514        10.86269         0.32199
| 35>    C        9.05409        12.02970         0.29813
| 36>    C        7.65257        11.64740         0.27760
| 37>    C        6.56839        12.47610         0.25164
| 38>    C        5.24776        11.98281         0.23096
| 39>    N        4.17185        11.58482         0.21478
| 40>    C        6.69558        13.88059         0.24439
| 41>    N        6.79381        15.02312         0.23944
| 42>    C        9.82058        13.19761         0.29624
| 43>    C       11.17509        12.93037         0.31766
| 44>    S       11.50953        11.20051         0.34290
| 45>    C       12.25161        13.85272         0.31631
| 46>    C       13.60545        13.57209         0.33549
| 47>    C       14.41594        14.70627         0.32145
| 48>    C       13.64845        15.87685         0.29071
| 49>    S       11.95351        15.57370         0.28069
| 50>    C       14.37598        17.08919         0.26852
| 51>    C       15.77464        16.95879         0.28338
| 52>   Si       16.23793        15.14296         0.32407
| 53>    C       17.11318        14.63593         1.89990
| 54>    C       17.13446        14.57332        -1.21780
| 55>    C       16.40018        18.20021         0.25923
| 56>    C       15.52721        19.27978         0.22702
| 57>    S       13.85999        18.72116         0.21128
| 58>    C       15.73538        20.67553         0.16965
| 59>    C       16.88146        21.39356         0.34366
| 60>    S       16.85474        23.14167         0.09869
| 61>    C       18.60734        23.29562         0.49627
| 62>    O       19.19259        24.34451         0.47427
| 63>    C       19.09825        21.97256         0.82331
| 64>    C       18.19005        20.98099         0.74017
| 65>    H       -2.77161         1.28146        -0.19703
| 66>    H       -0.77123         2.78576        -0.07653
| 67>    H        0.81592        -1.09398        -0.02646
| 68>    H       -1.85831        -1.25647        -0.16992
| 69>    H        3.62041         4.78492         0.14088
| 70>    H        7.36257         2.89303         0.35244
| 71>    H        5.45229         1.01024         0.25847
| 72>    H        5.64552         9.27211         0.25700
| 73>    H        9.42772        14.19838         0.27918
| 74>    H       13.97978        12.56338         0.35768
| 75>    H       16.59019        14.97809         2.79088
| 76>    H       18.12258        15.03938         1.94698
| 77>    H       17.20193        13.55421         1.97763
| 78>    H       16.62035        14.87427        -2.12854
| 79>    H       17.23010        13.48981        -1.24811
| 80>    H       18.14194        14.98077        -1.27036
| 81>    H       17.46812        18.30896         0.22699
| 82>    H       14.84583        21.25573        -0.04306
| 83>    H       20.12771        21.85643         1.11373
| 84>    H       18.40563        19.95665         0.98401
| 85> *
| 86>
| 87>                          ****END OF INPUT****

CARTESIAN COORDINATES (ANGSTROEM)
---------------------------------
  C     -1.761420    0.925630   -0.146270
  N     -0.712920    1.781080   -0.082710
  C      0.453600    1.066390   -0.026330
  C      0.121860   -0.278010   -0.056250
  C     -1.275250   -0.357910   -0.131180
  C      1.707540    1.668640    0.046240
  C      2.805940    2.178170    0.107080
  C      4.084690    2.724240    0.176380
  N      4.324260    4.066430    0.183010
  C      5.672360    4.289770    0.253730
  C      6.303560    3.048760    0.294290
  C      5.313410    2.072870    0.245640
  C      6.233430    5.557180    0.272630
  C      6.720240    6.670670    0.287100
  C      7.325590    7.912900    0.296730
  C      6.713370    9.152600    0.278020
  C      7.645940   10.191120    0.289030
  C      8.974050    9.737520    0.316860
  S      9.084700    8.030530    0.330560
  C      9.835140   10.862690    0.321990
  C      9.054090   12.029700    0.298130
  C      7.652570   11.647400    0.277600
  C      6.568390   12.476100    0.251640
  C      5.247760   11.982810    0.230960
  N      4.171850   11.584820    0.214780
  C      6.695580   13.880590    0.244390
  N      6.793810   15.023120    0.239440
  C      9.820580   13.197610    0.296240
  C     11.175090   12.930370    0.317660
  S     11.509530   11.200510    0.342900
  C     12.251610   13.852720    0.316310
  C     13.605450   13.572090    0.335490
  C     14.415940   14.706270    0.321450
  C     13.648450   15.876850    0.290710
  S     11.953510   15.573700    0.280690
  C     14.375980   17.089190    0.268520
  C     15.774640   16.958790    0.283380
  Si    16.237930   15.142960    0.324070
  C     17.113180   14.635930    1.899900
  C     17.134460   14.573320   -1.217800
  C     16.400180   18.200210    0.259230
  C     15.527210   19.279780    0.227020
  S     13.859990   18.721160    0.211280
  C     15.735380   20.675530    0.169650
  C     16.881460   21.393560    0.343660
  S     16.854740   23.141670    0.098690
  C     18.607340   23.295620    0.496270
  O     19.192590   24.344510    0.474270
  C     19.098250   21.972560    0.823310
  C     18.190050   20.980990    0.740170
  H     -2.771610    1.281460   -0.197030
  H     -0.771230    2.785760   -0.076530
  H      0.815920   -1.093980   -0.026460
  H     -1.858310   -1.256470   -0.169920
  H      3.620410    4.784920    0.140880
  H      7.362570    2.893030    0.352440
  H      5.452290    1.010240    0.258470
  H      5.645520    9.272110    0.257000
  H      9.427720   14.198380    0.279180
  H     13.979780   12.563380    0.357680
  H     16.590190   14.978090    2.790880
  H     18.122580   15.039380    1.946980
  H     17.201930   13.554210    1.977630
  H     16.620350   14.874270   -2.128540
  H     17.230100   13.489810   -1.248110
  H     18.141940   14.980770   -1.270360
  H     17.468120   18.308960    0.226990
  H     14.845830   21.255730   -0.043060
  H     20.127710   21.856430    1.113730
  H     18.405630   19.956650    0.984010

 Total Charge           Charge          ....    0
 Multiplicity           Mult            ....    1
 Number of Electrons    NEL             ....  384
 Basis Dimension        Dim             ....  824

ORBITAL ENERGIES
----------------

  NO   OCC          E(Eh)            E(eV)
   0   2.0000     -88.986560     -2421.4474
   1   2.0000     -88.985838     -2421.4277
   2   2.0000     -88.971015     -2421.0244
   3   2.0000     -88.968989     -2420.9693
   4   2.0000     -88.924195     -2419.7504
   5   2.0000     -66.203103     -1801.4780
   6   2.0000     -19.198369      -522.4142
   7   2.0000     -14.467731      -393.6870
   8   2.0000     -14.460206      -393.4822
   9   2.0000     -14.428144      -392.6098
  10   2.0000     -14.427818      -392.6009
  11   2.0000     -10.365216      -282.0519
  12   2.0000     -10.361550      -281.9521
  13   2.0000     -10.349173      -281.6153
  14   2.0000     -10.329358      -281.0761
  15   2.0000     -10.328635      -281.0565
  16   2.0000     -10.328248      -281.0459
  17   2.0000     -10.327744      -281.0322
  18   2.0000     -10.326927      -281.0100
  19   2.0000     -10.324610      -280.9469
  20   2.0000     -10.317451      -280.7521
  21   2.0000     -10.316820      -280.7349
  22   2.0000     -10.316790      -280.7341
  23   2.0000     -10.314892      -280.6825
  24   2.0000     -10.314778      -280.6794
  25   2.0000     -10.311065      -280.5784
  26   2.0000     -10.309088      -280.5245
  27   2.0000     -10.303890      -280.3831
  28   2.0000     -10.302969      -280.3580
  29   2.0000     -10.299937      -280.2755
  30   2.0000     -10.299222      -280.2561
  31   2.0000     -10.298353      -280.2324
  32   2.0000     -10.297395      -280.2064
  33   2.0000     -10.297026      -280.1963
  34   2.0000     -10.290539      -280.0198
  35   2.0000     -10.287881      -279.9475
  36   2.0000     -10.286509      -279.9101
  37   2.0000     -10.285863      -279.8926
  38   2.0000     -10.282740      -279.8076
  39   2.0000     -10.281540      -279.7749
  40   2.0000     -10.275719      -279.6165
  41   2.0000     -10.271733      -279.5081
  42   2.0000     -10.264870      -279.3213
  43   2.0000     -10.264352      -279.3072
  44   2.0000     -10.263890      -279.2947
  45   2.0000     -10.260911      -279.2136
  46   2.0000     -10.257999      -279.1344
  47   2.0000     -10.257768      -279.1280
  48   2.0000     -10.253285      -279.0061
  49   2.0000     -10.249070      -278.8914
  50   2.0000      -8.081141      -219.8990
  51   2.0000      -8.080345      -219.8774
  52   2.0000      -8.066265      -219.4942
  53   2.0000      -8.064653      -219.4504
  54   2.0000      -8.022141      -218.2935
  55   2.0000      -6.050430      -164.6406
  56   2.0000      -6.049680      -164.6202
  57   2.0000      -6.046306      -164.5284
  58   2.0000      -6.045446      -164.5050
  59   2.0000      -6.043373      -164.4485
  60   2.0000      -6.042604      -164.4276
  61   2.0000      -6.035508      -164.2345
  62   2.0000      -6.033701      -164.1854
  63   2.0000      -6.031515      -164.1259
  64   2.0000      -6.029797      -164.0791
  65   2.0000      -6.028344      -164.0396
  66   2.0000      -6.026961      -164.0019
  67   2.0000      -5.991497      -163.0369
  68   2.0000      -5.987971      -162.9410
  69   2.0000      -5.982915      -162.8034
  70   2.0000      -5.369540      -146.1126
  71   2.0000      -3.733020      -101.5806
  72   2.0000      -3.731606      -101.5422
  73   2.0000      -3.730558      -101.5136
  74   2.0000      -1.119922       -30.4746
  75   2.0000      -1.084589       -29.5132
  76   2.0000      -1.074224       -29.2311
  77   2.0000      -1.040495       -28.3133
  78   2.0000      -1.019396       -27.7392
  79   2.0000      -1.007568       -27.4173
  80   2.0000      -1.005317       -27.3561
  81   2.0000      -0.994304       -27.0564
  82   2.0000      -0.979386       -26.6505
  83   2.0000      -0.964044       -26.2330
  84   2.0000      -0.953930       -25.9577
  85   2.0000      -0.914668       -24.8894
  86   2.0000      -0.895726       -24.3740
  87   2.0000      -0.888768       -24.1846
  88   2.0000      -0.875381       -23.8203
  89   2.0000      -0.869536       -23.6613
  90   2.0000      -0.866297       -23.5731
  91   2.0000      -0.863395       -23.4942
  92   2.0000      -0.855600       -23.2821
  93   2.0000      -0.853680       -23.2298
  94   2.0000      -0.847038       -23.0491
  95   2.0000      -0.837821       -22.7983
  96   2.0000      -0.830784       -22.6068
  97   2.0000      -0.824627       -22.4392
  98   2.0000      -0.808098       -21.9895
  99   2.0000      -0.800772       -21.7901
 100   2.0000      -0.790900       -21.5215
 101   2.0000      -0.776507       -21.1298
 102   2.0000      -0.773215       -21.0402
 103   2.0000      -0.768009       -20.8986
 104   2.0000      -0.748118       -20.3573
 105   2.0000      -0.722144       -19.6505
 106   2.0000      -0.705024       -19.1847
 107   2.0000      -0.699386       -19.0313
 108   2.0000      -0.685937       -18.6653
 109   2.0000      -0.684052       -18.6140
 110   2.0000      -0.678700       -18.4684
 111   2.0000      -0.676028       -18.3957
 112   2.0000      -0.672546       -18.3009
 113   2.0000      -0.668233       -18.1836
 114   2.0000      -0.657337       -17.8871
 115   2.0000      -0.652347       -17.7513
 116   2.0000      -0.649223       -17.6663
 117   2.0000      -0.634982       -17.2787
 118   2.0000      -0.622490       -16.9388
 119   2.0000      -0.622108       -16.9284
 120   2.0000      -0.615178       -16.7399
 121   2.0000      -0.612103       -16.6562
 122   2.0000      -0.606270       -16.4974
 123   2.0000      -0.590922       -16.0798
 124   2.0000      -0.583268       -15.8715
 125   2.0000      -0.568567       -15.4715
 126   2.0000      -0.559992       -15.2382
 127   2.0000      -0.552816       -15.0429
 128   2.0000      -0.543697       -14.7948
 129   2.0000      -0.535918       -14.5831
 130   2.0000      -0.530421       -14.4335
 131   2.0000      -0.529221       -14.4008
 132   2.0000      -0.526848       -14.3363
 133   2.0000      -0.522750       -14.2247
 134   2.0000      -0.520230       -14.1562
 135   2.0000      -0.516581       -14.0569
 136   2.0000      -0.513656       -13.9773
 137   2.0000      -0.512556       -13.9474
 138   2.0000      -0.506725       -13.7887
 139   2.0000      -0.502838       -13.6829
 140   2.0000      -0.500685       -13.6243
 141   2.0000      -0.500131       -13.6093
 142   2.0000      -0.497375       -13.5343
 143   2.0000      -0.495443       -13.4817
 144   2.0000      -0.493751       -13.4356
 145   2.0000      -0.492138       -13.3918
 146   2.0000      -0.489377       -13.3166
 147   2.0000      -0.486300       -13.2329
 148   2.0000      -0.483044       -13.1443
 149   2.0000      -0.482203       -13.1214
 150   2.0000      -0.479953       -13.0602
 151   2.0000      -0.476677       -12.9710
 152   2.0000      -0.473327       -12.8799
 153   2.0000      -0.471847       -12.8396
 154   2.0000      -0.467485       -12.7209
 155   2.0000      -0.465207       -12.6589
 156   2.0000      -0.463133       -12.6025
 157   2.0000      -0.461308       -12.5528
 158   2.0000      -0.459358       -12.4998
 159   2.0000      -0.455927       -12.4064
 160   2.0000      -0.453274       -12.3342
 161   2.0000      -0.442164       -12.0319
 162   2.0000      -0.438239       -11.9251
 163   2.0000      -0.437590       -11.9074
 164   2.0000      -0.436487       -11.8774
 165   2.0000      -0.435142       -11.8408
 166   2.0000      -0.430003       -11.7010
 167   2.0000      -0.424527       -11.5520
 168   2.0000      -0.422598       -11.4995
 169   2.0000      -0.411561       -11.1991
 170   2.0000      -0.407538       -11.0897
 171   2.0000      -0.402984       -10.9658
 172   2.0000      -0.393068       -10.6959
 173   2.0000      -0.390916       -10.6374
 174   2.0000      -0.384502       -10.4628
 175   2.0000      -0.379719       -10.3327
 176   2.0000      -0.359504        -9.7826
 177   2.0000      -0.354322        -9.6416
 178   2.0000      -0.351211        -9.5569
 179   2.0000      -0.346026        -9.4158
 180   2.0000      -0.335639        -9.1332
 181   2.0000      -0.332980        -9.0609
 182   2.0000      -0.332575        -9.0498
 183   2.0000      -0.331387        -9.0175
 184   2.0000      -0.321313        -8.7434
 185   2.0000      -0.320594        -8.7238
 186   2.0000      -0.319338        -8.6896
 187   2.0000      -0.317093        -8.6285
 188   2.0000      -0.293820        -7.9952
 189   2.0000      -0.269046        -7.3211
 190   2.0000      -0.240194        -6.5360
 191   2.0000      -0.222999        -6.0681
 192   0.0000      -0.102088        -2.7780
 193   0.0000      -0.073238        -1.9929
 194   0.0000      -0.039192        -1.0665
 195   0.0000      -0.022158        -0.6029
 196   0.0000       0.007537         0.2051

MULLIKEN ATOMIC CHARGES
-----------------------
   0 C :    0.046486
   1 N :   -0.050308
   2 C :   -0.042760
   3 C :   -0.015964
   4 C :   -0.001815
   5 C :    0.021507
   6 C :    0.009347
   7 C :   -0.001383
   8 N :   -0.048144
   9 C :   -0.008349
  10 C :   -0.001279
  11 C :   -0.008709
  12 C :    0.047915
  13 C :   -0.038959
  14 C :   -0.148529
  15 C :   -0.001064
  16 C :    0.000058
  17 C :   -0.100196
  18 S :    0.210964
  19 C :   -0.099557
  20 C :    0.013483
  21 C :    0.295767
  22 C :   -0.294337
  23 C :   -0.187187
  24 N :    0.170021
  25 C :   -0.190967
  26 N :    0.170836
  27 C :   -0.066012
  28 C :   -0.034713
  29 S :    0.173444
  30 C :   -0.051190
  31 C :   -0.062979
  32 C :   -0.116326
  33 C :   -0.078363
  34 S :    0.160255
  35 C :   -0.085974
  36 C :   -0.131604
  37 Si:    0.524260
  38 C :   -0.198676
  39 C :   -0.198480
  40 C :   -0.023458
  41 C :   -0.102960
  42 S :    0.156798
  43 C :    0.117201
  44 C :   -0.119198
  45 S :    0.008673
  46 C :    0.079196
  47 O :   -0.167998
  48 C :   -0.016874
  49 C :    0.080207
  50 H :   -0.003292
  51 H :    0.122276
  52 H :   -0.028189
  53 H :   -0.020307
  54 H :    0.124544
  55 H :   -0.025696
  56 H :   -0.024992
  57 H :    0.008675
  58 H :    0.010349
  59 H :   -0.016260
  60 H :    0.056114
  61 H :    0.042856
  62 H :    0.044717
  63 H :    0.056449
  64 H :    0.044624
  65 H :    0.043797
  66 H :   -0.022994
  67 H :   -0.001889
  68 H :    0.004428
  69 H :   -0.007320
Sum of atomic charges:   -0.0000000

LOEWDIN ATOMIC CHARGES
----------------------
   0 C :   -0.012504
   1 N :    0.100001
   2 C :   -0.048379
   3 C :   -0.049550
   4 C :   -0.078783
   5 C :   -0.034831
   6 C :   -0.060376
   7 C :   -0.021979
   8 N :    0.108799
   9 C :   -0.040226
  10 C :   -0.041563
  11 C :   -0.051222
  12 C :   -0.027018
  13 C :   -0.069786
  14 C :   -0.177318
  15 C :   -0.018906
  16 C :   -0.073483
  17 C :   -0.184133
  18 S :    0.482258
  19 C :   -0.181525
  20 C :   -0.070808
  21 C :    0.084833
  22 C :   -0.103615
  23 C :   -0.015470
  24 N :   -0.035744
  25 C :   -0.016681
  26 N :   -0.033980
  27 C :   -0.040297
  28 C :   -0.174717
  29 S :    0.469053
  30 C :   -0.187285
  31 C :   -0.063647
  32 C :   -0.196741
  33 C :   -0.193111
  34 S :    0.450212
  35 C :   -0.186565
  36 C :   -0.203220
  37 Si:    0.665760
  38 C :   -0.242815
  39 C :   -0.242460
  40 C :   -0.046195
  41 C :   -0.177228
  42 S :    0.450674
  43 C :   -0.037857
  44 C :   -0.163905
  45 S :    0.298630
  46 C :   -0.062363
  47 O :   -0.156647
  48 C :   -0.069965
  49 C :   -0.001668
  50 H :    0.020244
  51 H :    0.091766
  52 H :    0.027161
  53 H :    0.024583
  54 H :    0.096201
  55 H :    0.029366
  56 H :    0.030057
  57 H :    0.043286
  58 H :    0.036107
  59 H :    0.022583
  60 H :    0.042488
  61 H :    0.036764
  62 H :    0.037432
  63 H :    0.042694
  64 H :    0.037360
  65 H :    0.037183
  66 H :    0.025694
  67 H :    0.034076
  68 H :    0.036858
  69 H :    0.032441

  Mayer bond orders larger than 0.100000
B(  0-C ,  1-N ) :   1.2283 B(  0-C ,  2-C ) :   0.1093 B(  0-C ,  4-C ) :   1.4772
B(  0-C , 50-H ) :   0.9924 B(  1-N ,  2-C ) :   1.2410 B(  1-N , 51-H ) :   0.9439
B(  2-C ,  3-C ) :   1.4829 B(  2-C ,  5-C ) :   0.8309 B(  3-C ,  4-C ) :   1.3123
B(  3-C , 52-H ) :   1.0158 B(  4-C , 53-H ) :   1.0042 B(  5-C ,  6-C ) :   2.2556
B(  6-C ,  7-C ) :   0.8078 B(  7-C ,  8-N ) :   1.2463 B(  7-C ,  9-C ) :   0.1338
B(  7-C , 11-C ) :   1.4456 B(  8-N ,  9-C ) :   1.2228 B(  8-N , 54-H ) :   0.9406
B(  9-C , 10-C ) :   1.4364 B(  9-C , 12-C ) :   0.8308 B( 10-C , 11-C ) :   1.3152
B( 10-C , 55-H ) :   1.0111 B( 11-C , 56-H ) :   1.0120 B( 12-C , 13-C ) :   2.2674
B( 13-C , 14-C ) :   0.9776 B( 14-C , 15-C ) :   1.4660 B( 14-C , 18-S ) :   1.0834
B( 15-C , 16-C ) :   1.2827 B( 15-C , 57-H ) :   1.0030 B( 16-C , 17-C ) :   1.4428
B( 16-C , 21-C ) :   0.9928 B( 17-C , 18-S ) :   1.1183 B( 17-C , 19-C ) :   1.1912
B( 19-C , 20-C ) :   1.4500 B( 19-C , 29-S ) :   1.1151 B( 20-C , 21-C ) :   1.0006
B( 20-C , 27-C ) :   1.2863 B( 21-C , 22-C ) :   1.7105 B( 22-C , 23-C ) :   1.1333
B( 22-C , 25-C ) :   1.1340 B( 23-C , 24-N ) :   2.9923 B( 25-C , 26-N ) :   2.9930
B( 27-C , 28-C ) :   1.4669 B( 27-C , 58-H ) :   0.9904 B( 28-C , 29-S ) :   1.0997
B( 28-C , 30-C ) :   1.1647 B( 30-C , 31-C ) :   1.4780 B( 30-C , 34-S ) :   1.1152
B( 31-C , 32-C ) :   1.2684 B( 31-C , 59-H ) :   0.9927 B( 32-C , 33-C ) :   1.5174
B( 32-C , 37-Si) :   0.8788 B( 33-C , 34-S ) :   1.1074 B( 33-C , 35-C ) :   1.1601
B( 35-C , 36-C ) :   1.4869 B( 35-C , 42-S ) :   1.1359 B( 36-C , 37-Si) :   0.8784
B( 36-C , 40-C ) :   1.3007 B( 37-Si, 38-C ) :   1.0566 B( 37-Si, 39-C ) :   1.0581
B( 38-C , 60-H ) :   0.9504 B( 38-C , 61-H ) :   0.9531 B( 38-C , 62-H ) :   0.9537
B( 39-C , 63-H ) :   0.9502 B( 39-C , 64-H ) :   0.9535 B( 39-C , 65-H ) :   0.9530
B( 40-C , 41-C ) :   1.4395 B( 40-C , 66-H ) :   0.9945 B( 41-C , 42-S ) :   1.0952
B( 41-C , 43-C ) :   1.1658 B( 43-C , 44-C ) :   1.6768 B( 43-C , 67-H ) :   0.9325
B( 44-C , 45-S ) :   1.0226 B( 44-C , 49-C ) :   1.0945 B( 45-S , 46-C ) :   0.9992
B( 45-S , 47-O ) :   0.1168 B( 46-C , 47-O ) :   2.1227 B( 46-C , 48-C ) :   0.9923
B( 48-C , 49-C ) :   1.6658 B( 48-C , 68-H ) :   0.9914 B( 49-C , 69-H ) :   0.9888

-----------------------------------------------------------------------------
         ABSORPTION SPECTRUM VIA TRANSITION ELECTRIC DIPOLE MOMENTS
-----------------------------------------------------------------------------
State   Energy  Wavelength   fosc         T2         TX        TY        TZ
        (cm-1)    (nm)                  (au**2)     (au)      (au)      (au)
-----------------------------------------------------------------------------
   0   10108.4    989.3   0.226504479   7.37687   1.62929   2.17294   0.02416
   1   17782.4    562.4   0.000023068   0.00043   0.00909  -0.01236   0.01385
   2   19436.0    514.5   2.401731611  40.68117  -3.92434  -5.02668  -0.11497
   3   23089.0    433.1   0.027774645   0.39602  -0.40165  -0.48445  -0.00200
   4   25296.5    395.3   0.246156080   3.20351  -1.09813  -1.41293   0.03552
   5   27284.8    366.5   0.558550161   6.73934  -1.63544  -2.01582  -0.03377
   6   28675.9    348.7   0.320383587   3.67815   0.77549   1.74814   0.14410
   7   29559.7    338.3   0.058601763   0.65266   0.21294  -0.77699  -0.05997
   8   29988.1    333.5   0.007460292   0.08190   0.05978   0.27984  -0.00399
   9   30562.7    327.2   0.024303461   0.26179  -0.24753  -0.44509   0.04910
  10   31604.1    316.4   0.670553023   6.98497  -2.36420   1.17862  -0.07989
  11   32216.2    310.4   0.144178267   1.47334  -0.50710  -1.10276   0.00985
  12   33292.4    300.4   0.027772757   0.27463   0.46596  -0.23720   0.03535
  13   34149.0    292.8   0.050746385   0.48922  -0.64145  -0.27829  -0.01790
  14   34800.8    287.3   0.011562380   0.10938   0.33017  -0.01922   0.00033
  15   35104.3    284.9   0.025373980   0.23796  -0.21746   0.43632  -0.01715
  16   35684.5    280.2   0.050040686   0.46166   0.67165   0.10258   0.00411
  17   36392.0    274.8   0.001121699   0.01015  -0.08713  -0.01872  -0.04695
  18   37193.3    268.9   0.013761053   0.12180   0.09625  -0.33540  -0.00685
  19   37931.9    263.6   0.019165388   0.16634   0.39598   0.09428   0.02545
  20   38055.7    262.8   0.006560322   0.05675   0.23621  -0.03085   0.00193
  21   38347.7    260.8   0.325347460   2.79308  -1.62943   0.36202  -0.08357
  22   38675.0    258.6   0.132514081   1.12799   0.70898   0.78612   0.08578
  23   38923.2    256.9   0.005629784   0.04762  -0.16292  -0.14246  -0.02792
  24   39554.3    252.8   0.030250977   0.25178  -0.05954  -0.49810   0.01151
  25   39615.8    252.4   0.002607191   0.02167  -0.10628  -0.10141   0.00927
  26   39880.2    250.8   0.012312563   0.10164   0.19912   0.24876   0.01058
  27   40100.5    249.4   0.015356177   0.12607   0.16951   0.31198   0.00149

FINAL SINGLE POINT ENERGY     -4069.741400382359

DIPOLE MOMENT
-------------
                                X             Y             Z
Electronic contribution:     -8.89271      24.73001      -0.23092
Nuclear contribution   :      9.25008     -28.04664       0.31546
                        -----------------------------------------
Total Dipole Moment    :      0.35736      -3.31664       0.08454
                        -----------------------------------------
Magnitude (a.u.)       :      3.33691
Magnitude (Debye)      :      8.48174

Rotational constants in cm-1:     0.006084     0.000297     0.000284
Rotational constants in MHz :   182.394899     8.891881     8.504860

                             ****ORCA TERMINATED NORMALLY****
TOTAL RUN TIME: 0 days 0 hours 4 minutes 31 seconds 614 msec
