                         Program Version 4.2.0 -  RELEASE  -
|  1> # ORCA input file
|  2> # SCF done       -152.291931237759          0.000512853134
|  3> ! CAM-B3LYP def2-SVP def2/J RIJCOSX Grid4 TightSCF
|  4> %maxcore 5000
|  5> %tddft
|  6>     Mode sTDDFT
|  7>     Ethresh 5.0
|  8>     maxcore 5000
|  9> end
| 10>
| 11> %pal
| 12>   nprocs 6
| 13>   end
| 14> * xyz 0 1
| 15>    C        3.39128        -1.34826        -2.08023
| 16>    C        2.35985        -1.50659        -1.24754
| 17>    C        1.17780        -0.67884        -1.36754
| 18>    C       -0.02972        -0.80058        -0.71884
| 19>    C       -0.95396         0.17595        -1.11393
| 20>    C       -0.43744         1.05468        -2.07464
| 21>    S        1.17218         0.67851        -2.49298
| 22>    C       -1.44281         2.00276        -2.40713
| 23>    S       -1.65585         3.35062        -3.43548
| 24>    C       -3.30586         3.54770        -2.85913
| 25>    C       -4.11781         4.58931        -3.37437
| 26>    C       -3.78544         5.53249        -4.32942
| 27>    C       -4.81731         6.42175        -4.62584
| 28>    C       -5.96149         6.13887        -3.86916
| 29>    S       -5.75889         4.79635        -2.81173
| 30>    C       -7.07178         6.98381        -4.09536
| 31>    S       -8.64186         6.99583        -3.40246
| 32>    C       -9.09452         8.37445        -4.38368
| 33>    C      -10.35305         9.01123        -4.36552
| 34>    C      -11.46471         8.73528        -3.62739
| 35>    C      -11.69520         7.71818        -2.64963
| 36>    C      -12.92511         7.72912        -2.10185
| 37>    C      -13.81516         8.76495        -2.58783
| 38>    O      -14.95015         9.00592        -2.27984
| 39>    S      -12.91213         9.72338        -3.82299
| 40>    C       -8.03253         8.76385        -5.19415
| 41>    C       -6.88371         7.99613        -5.04888
| 42>   Si       -5.14457         7.89283        -5.74123
| 43>    C       -4.09164         9.38201        -5.31936
| 44>    C       -5.10144         7.45833        -7.56165
| 45>    C       -3.64387         2.59823        -1.91291
| 46>    C       -2.59087         1.72003        -1.65401
| 47>    C       -2.32129         0.55856        -0.81513
| 48>    C       -3.17693        -0.04183         0.06209
| 49>    C       -4.49052         0.42588         0.27270
| 50>    N       -5.55904         0.80357         0.44802
| 51>    C       -2.80025        -1.17405         0.81372
| 52>    N       -2.48726        -2.09516         1.42141
| 53>    C        2.30910        -2.59878        -0.19732
| 54>    C        3.69346        -2.95986         0.38218
| 55>    C        4.27292        -4.29586        -0.12151
| 56>    C        3.88790        -4.55430        -1.53789
| 57>    C        4.65436        -4.99631        -2.56484
| 58>    S        3.74454        -5.15860        -4.01768
| 59>    C        2.29219        -4.58028        -3.23411
| 60>    C        1.07390        -4.42782        -4.01556
| 61>    C        0.30427        -3.34829        -3.89816
| 62>    C        0.73208        -5.55154        -4.97059
| 63>    C        0.54684        -5.05088        -6.42443
| 64>    C       -0.79118        -5.44571        -7.06698
| 65>    C       -1.06767        -6.88184        -6.78435
| 66>    C       -1.42604        -7.88330        -7.62272
| 67>    S       -1.60270        -9.38343        -6.78795
| 68>    C       -1.17302        -8.64346        -5.28978
| 69>    C       -0.92237        -7.32040        -5.43751
| 70>    C       -0.49923        -6.30954        -4.43007
| 71>    C        2.53703        -4.32284        -1.91602
| 72>    C        1.63121        -3.82765        -0.84210
| 73>    H        3.38147        -0.59472        -2.85059
| 74>    H        4.27021        -1.96340        -2.03527
| 75>    H       -0.25050        -1.56502         0.00265
| 76>    H       -2.81368         5.56008        -4.79096
| 77>    H      -10.43072         9.84728        -5.05011
| 78>    H      -10.93020         7.00903        -2.38691
| 79>    H      -13.28288         7.04550        -1.35224
| 80>    H       -8.11477         9.59524        -5.87183
| 81>    H       -4.11590         9.61737        -4.25700
| 82>    H       -4.42414        10.27116        -5.85104
| 83>    H       -3.04905         9.22459        -5.58813
| 84>    H       -5.72306         6.59599        -7.79524
| 85>    H       -4.09220         7.22427        -7.89427
| 86>    H       -5.45407         8.28252        -8.17828
| 87>    H       -4.61250         2.56280        -1.44750
| 88>    H        1.68241        -2.25002         0.62712
| 89>    H        3.61723        -3.01626         1.46940
| 90>    H        4.39243        -2.15438         0.15520
| 91>    H        3.87076        -5.10946         0.49061
| 92>    H        5.35733        -4.30203        -0.00402
| 93>    H        5.69709        -5.24489        -2.56828
| 94>    H        0.56219        -2.53010        -3.25020
| 95>    H       -0.60266        -3.23795        -4.46790
| 96>    H        1.56146        -6.26554        -4.96603
| 97>    H        1.35132        -5.46505        -7.03469
| 98>    H        0.64490        -3.96470        -6.45426
| 99>    H       -1.59615        -4.84174        -6.63678
|100>    H       -0.76075        -5.25060        -8.13971
|101>    H       -1.60297        -7.84699        -8.67916
|102>    H       -1.14017        -9.23966        -4.39981
|103>    H       -0.25526        -6.77527        -3.47399
|104>    H       -1.31541        -5.60113        -4.26263
|105>    H        1.51214        -4.60353        -0.08033
|106>    H        0.64481        -3.57449        -1.22633
|107> *
|108>
|109>                          ****END OF INPUT****

CARTESIAN COORDINATES (ANGSTROEM)
---------------------------------
  C      3.391280   -1.348260   -2.080230
  C      2.359850   -1.506590   -1.247540
  C      1.177800   -0.678840   -1.367540
  C     -0.029720   -0.800580   -0.718840
  C     -0.953960    0.175950   -1.113930
  C     -0.437440    1.054680   -2.074640
  S      1.172180    0.678510   -2.492980
  C     -1.442810    2.002760   -2.407130
  S     -1.655850    3.350620   -3.435480
  C     -3.305860    3.547700   -2.859130
  C     -4.117810    4.589310   -3.374370
  C     -3.785440    5.532490   -4.329420
  C     -4.817310    6.421750   -4.625840
  C     -5.961490    6.138870   -3.869160
  S     -5.758890    4.796350   -2.811730
  C     -7.071780    6.983810   -4.095360
  S     -8.641860    6.995830   -3.402460
  C     -9.094520    8.374450   -4.383680
  C    -10.353050    9.011230   -4.365520
  C    -11.464710    8.735280   -3.627390
  C    -11.695200    7.718180   -2.649630
  C    -12.925110    7.729120   -2.101850
  C    -13.815160    8.764950   -2.587830
  O    -14.950150    9.005920   -2.279840
  S    -12.912130    9.723380   -3.822990
  C     -8.032530    8.763850   -5.194150
  C     -6.883710    7.996130   -5.048880
  Si    -5.144570    7.892830   -5.741230
  C     -4.091640    9.382010   -5.319360
  C     -5.101440    7.458330   -7.561650
  C     -3.643870    2.598230   -1.912910
  C     -2.590870    1.720030   -1.654010
  C     -2.321290    0.558560   -0.815130
  C     -3.176930   -0.041830    0.062090
  C     -4.490520    0.425880    0.272700
  N     -5.559040    0.803570    0.448020
  C     -2.800250   -1.174050    0.813720
  N     -2.487260   -2.095160    1.421410
  C      2.309100   -2.598780   -0.197320
  C      3.693460   -2.959860    0.382180
  C      4.272920   -4.295860   -0.121510
  C      3.887900   -4.554300   -1.537890
  C      4.654360   -4.996310   -2.564840
  S      3.744540   -5.158600   -4.017680
  C      2.292190   -4.580280   -3.234110
  C      1.073900   -4.427820   -4.015560
  C      0.304270   -3.348290   -3.898160
  C      0.732080   -5.551540   -4.970590
  C      0.546840   -5.050880   -6.424430
  C     -0.791180   -5.445710   -7.066980
  C     -1.067670   -6.881840   -6.784350
  C     -1.426040   -7.883300   -7.622720
  S     -1.602700   -9.383430   -6.787950
  C     -1.173020   -8.643460   -5.289780
  C     -0.922370   -7.320400   -5.437510
  C     -0.499230   -6.309540   -4.430070
  C      2.537030   -4.322840   -1.916020
  C      1.631210   -3.827650   -0.842100
  H      3.381470   -0.594720   -2.850590
  H      4.270210   -1.963400   -2.035270
  H     -0.250500   -1.565020    0.002650
  H     -2.813680    5.560080   -4.790960
  H    -10.430720    9.847280   -5.050110
  H    -10.930200    7.009030   -2.386910
  H    -13.282880    7.045500   -1.352240
  H     -8.114770    9.595240   -5.871830
  H     -4.115900    9.617370   -4.257000
  H     -4.424140   10.271160   -5.851040
  H     -3.049050    9.224590   -5.588130
  H     -5.723060    6.595990   -7.795240
  H     -4.092200    7.224270   -7.894270
  H     -5.454070    8.282520   -8.178280
  H     -4.612500    2.562800   -1.447500
  H      1.682410   -2.250020    0.627120
  H      3.617230   -3.016260    1.469400
  H      4.392430   -2.154380    0.155200
  H      3.870760   -5.109460    0.490610
  H      5.357330   -4.302030   -0.004020
  H      5.697090   -5.244890   -2.568280
  H      0.562190   -2.530100   -3.250200
  H     -0.602660   -3.237950   -4.467900
  H      1.561460   -6.265540   -4.966030
  H      1.351320   -5.465050   -7.034690
  H      0.644900   -3.964700   -6.454260
  H     -1.596150   -4.841740   -6.636780
  H     -0.760750   -5.250600   -8.139710
  H     -1.602970   -7.846990   -8.679160
  H     -1.140170   -9.239660   -4.399810
  H     -0.255260   -6.775270   -3.473990
  H     -1.315410   -5.601130   -4.262630
  H      1.512140   -4.603530   -0.080330
  H      0.644810   -3.574490   -1.226330

 Total Charge           Charge          ....    0
 Multiplicity           Mult            ....    1
 Number of Electrons    NEL             ....  464
 Basis Dimension        Dim             .... 1014

ORBITAL ENERGIES
----------------

  NO   OCC          E(Eh)            E(eV)
   0   2.0000     -88.987483     -2421.4725
   1   2.0000     -88.981406     -2421.3071
   2   2.0000     -88.972006     -2421.0514
   3   2.0000     -88.971016     -2421.0244
   4   2.0000     -88.940248     -2420.1872
   5   2.0000     -88.933727     -2420.0097
   6   2.0000     -88.922345     -2419.7000
   7   2.0000     -66.203517     -1801.4893
   8   2.0000     -19.197022      -522.3775
   9   2.0000     -14.428190      -392.6110
  10   2.0000     -14.427553      -392.5937
  11   2.0000     -10.363667      -282.0097
  12   2.0000     -10.360907      -281.9346
  13   2.0000     -10.348559      -281.5986
  14   2.0000     -10.328878      -281.0630
  15   2.0000     -10.328143      -281.0430
  16   2.0000     -10.327207      -281.0176
  17   2.0000     -10.326874      -281.0085
  18   2.0000     -10.325346      -280.9670
  19   2.0000     -10.318385      -280.7775
  20   2.0000     -10.317688      -280.7586
  21   2.0000     -10.315541      -280.7001
  22   2.0000     -10.314666      -280.6763
  23   2.0000     -10.310493      -280.5628
  24   2.0000     -10.306627      -280.4576
  25   2.0000     -10.301130      -280.3080
  26   2.0000     -10.299743      -280.2702
  27   2.0000     -10.297360      -280.2054
  28   2.0000     -10.297303      -280.2038
  29   2.0000     -10.294891      -280.1382
  30   2.0000     -10.293001      -280.0868
  31   2.0000     -10.287827      -279.9460
  32   2.0000     -10.287786      -279.9449
  33   2.0000     -10.287415      -279.9348
  34   2.0000     -10.284638      -279.8592
  35   2.0000     -10.280823      -279.7554
  36   2.0000     -10.279825      -279.7283
  37   2.0000     -10.279231      -279.7121
  38   2.0000     -10.275044      -279.5981
  39   2.0000     -10.272444      -279.5274
  40   2.0000     -10.272328      -279.5243
  41   2.0000     -10.269530      -279.4481
  42   2.0000     -10.269223      -279.4398
  43   2.0000     -10.267497      -279.3928
  44   2.0000     -10.265895      -279.3492
  45   2.0000     -10.265827      -279.3473
  46   2.0000     -10.265276      -279.3324
  47   2.0000     -10.263237      -279.2769
  48   2.0000     -10.263120      -279.2737
  49   2.0000     -10.263008      -279.2706
  50   2.0000     -10.262286      -279.2510
  51   2.0000     -10.262045      -279.2444
  52   2.0000     -10.258062      -279.1361
  53   2.0000     -10.257998      -279.1343
  54   2.0000     -10.256628      -279.0970
  55   2.0000     -10.255475      -279.0657
  56   2.0000     -10.255033      -279.0536
  57   2.0000     -10.252917      -278.9961
  58   2.0000      -8.081927      -219.9204
  59   2.0000      -8.075778      -219.7531
  60   2.0000      -8.067181      -219.5191
  61   2.0000      -8.066179      -219.4919
  62   2.0000      -8.035996      -218.6706
  63   2.0000      -8.029856      -218.5035
  64   2.0000      -8.020360      -218.2451
  65   2.0000      -6.051204      -164.6616
  66   2.0000      -6.047080      -164.5494
  67   2.0000      -6.045079      -164.4950
  68   2.0000      -6.044234      -164.4720
  69   2.0000      -6.040798      -164.3785
  70   2.0000      -6.038205      -164.3079
  71   2.0000      -6.036419      -164.2593
  72   2.0000      -6.035339      -164.2299
  73   2.0000      -6.032414      -164.1503
  74   2.0000      -6.031387      -164.1224
  75   2.0000      -6.029305      -164.0657
  76   2.0000      -6.028400      -164.0411
  77   2.0000      -6.005386      -163.4149
  78   2.0000      -6.000996      -163.2954
  79   2.0000      -5.999264      -163.2483
  80   2.0000      -5.998213      -163.2197
  81   2.0000      -5.994784      -163.1264
  82   2.0000      -5.992107      -163.0535
  83   2.0000      -5.989742      -162.9892
  84   2.0000      -5.986212      -162.8931
  85   2.0000      -5.981074      -162.7533
  86   2.0000      -5.369891      -146.1222
  87   2.0000      -3.733370      -101.5902
  88   2.0000      -3.732000      -101.5529
  89   2.0000      -3.730873      -101.5222
  90   2.0000      -1.118811       -30.4444
  91   2.0000      -1.040106       -28.3027
  92   2.0000      -1.019390       -27.7390
  93   2.0000      -1.008280       -27.4367
  94   2.0000      -1.005501       -27.3611
  95   2.0000      -0.994877       -27.0720
  96   2.0000      -0.981512       -26.7083
  97   2.0000      -0.978193       -26.6180
  98   2.0000      -0.967557       -26.3286
  99   2.0000      -0.962282       -26.1850
 100   2.0000      -0.954690       -25.9784
 101   2.0000      -0.932335       -25.3701
 102   2.0000      -0.917615       -24.9696
 103   2.0000      -0.908533       -24.7224
 104   2.0000      -0.893784       -24.3211
 105   2.0000      -0.876513       -23.8511
 106   2.0000      -0.867296       -23.6003
 107   2.0000      -0.866099       -23.5677
 108   2.0000      -0.853709       -23.2306
 109   2.0000      -0.851518       -23.1710
 110   2.0000      -0.847262       -23.0552
 111   2.0000      -0.840330       -22.8665
 112   2.0000      -0.832210       -22.6456
 113   2.0000      -0.831191       -22.6178
 114   2.0000      -0.824816       -22.4444
 115   2.0000      -0.811519       -22.0826
 116   2.0000      -0.805267       -21.9124
 117   2.0000      -0.799688       -21.7606
 118   2.0000      -0.797815       -21.7096
 119   2.0000      -0.776680       -21.1345
 120   2.0000      -0.774898       -21.0860
 121   2.0000      -0.770783       -20.9741
 122   2.0000      -0.769450       -20.9378
 123   2.0000      -0.767938       -20.8967
 124   2.0000      -0.744684       -20.2639
 125   2.0000      -0.721375       -19.6296
 126   2.0000      -0.716733       -19.5033
 127   2.0000      -0.712737       -19.3946
 128   2.0000      -0.701260       -19.0823
 129   2.0000      -0.691916       -18.8280
 130   2.0000      -0.685195       -18.6451
 131   2.0000      -0.677243       -18.4287
 132   2.0000      -0.674706       -18.3597
 133   2.0000      -0.659020       -17.9329
 134   2.0000      -0.651509       -17.7284
 135   2.0000      -0.648655       -17.6508
 136   2.0000      -0.641592       -17.4586
 137   2.0000      -0.632197       -17.2030
 138   2.0000      -0.623319       -16.9614
 139   2.0000      -0.622432       -16.9372
 140   2.0000      -0.615709       -16.7543
 141   2.0000      -0.614364       -16.7177
 142   2.0000      -0.611574       -16.6418
 143   2.0000      -0.603521       -16.4226
 144   2.0000      -0.599556       -16.3147
 145   2.0000      -0.590146       -16.0587
 146   2.0000      -0.586003       -15.9459
 147   2.0000      -0.580753       -15.8031
 148   2.0000      -0.571757       -15.5583
 149   2.0000      -0.571136       -15.5414
 150   2.0000      -0.567001       -15.4289
 151   2.0000      -0.563361       -15.3298
 152   2.0000      -0.552477       -15.0337
 153   2.0000      -0.543747       -14.7961
 154   2.0000      -0.541620       -14.7382
 155   2.0000      -0.537799       -14.6342
 156   2.0000      -0.529538       -14.4095
 157   2.0000      -0.525656       -14.3038
 158   2.0000      -0.522755       -14.2249
 159   2.0000      -0.521093       -14.1797
 160   2.0000      -0.514097       -13.9893
 161   2.0000      -0.512218       -13.9382
 162   2.0000      -0.510589       -13.8938
 163   2.0000      -0.505141       -13.7456
 164   2.0000      -0.503378       -13.6976
 165   2.0000      -0.502188       -13.6652
 166   2.0000      -0.498532       -13.5657
 167   2.0000      -0.497615       -13.5408
 168   2.0000      -0.495219       -13.4756
 169   2.0000      -0.493341       -13.4245
 170   2.0000      -0.491453       -13.3731
 171   2.0000      -0.490707       -13.3528
 172   2.0000      -0.486167       -13.2293
 173   2.0000      -0.482950       -13.1417
 174   2.0000      -0.481961       -13.1148
 175   2.0000      -0.479955       -13.0602
 176   2.0000      -0.479295       -13.0423
 177   2.0000      -0.477064       -12.9816
 178   2.0000      -0.476773       -12.9737
 179   2.0000      -0.473471       -12.8838
 180   2.0000      -0.472412       -12.8550
 181   2.0000      -0.469142       -12.7660
 182   2.0000      -0.465721       -12.6729
 183   2.0000      -0.464527       -12.6404
 184   2.0000      -0.462107       -12.5746
 185   2.0000      -0.460326       -12.5261
 186   2.0000      -0.459356       -12.4997
 187   2.0000      -0.458946       -12.4886
 188   2.0000      -0.455717       -12.4007
 189   2.0000      -0.454795       -12.3756
 190   2.0000      -0.451425       -12.2839
 191   2.0000      -0.449118       -12.2211
 192   2.0000      -0.440224       -11.9791
 193   2.0000      -0.438404       -11.9296
 194   2.0000      -0.436364       -11.8741
 195   2.0000      -0.435785       -11.8583
 196   2.0000      -0.434462       -11.8223
 197   2.0000      -0.432960       -11.7814
 198   2.0000      -0.429965       -11.6999
 199   2.0000      -0.429676       -11.6921
 200   2.0000      -0.426856       -11.6153
 201   2.0000      -0.422762       -11.5039
 202   2.0000      -0.417806       -11.3691
 203   2.0000      -0.409602       -11.1458
 204   2.0000      -0.408744       -11.1225
 205   2.0000      -0.403885       -10.9903
 206   2.0000      -0.403092       -10.9687
 207   2.0000      -0.401839       -10.9346
 208   2.0000      -0.398219       -10.8361
 209   2.0000      -0.393402       -10.7050
 210   2.0000      -0.391727       -10.6594
 211   2.0000      -0.389818       -10.6075
 212   2.0000      -0.385930       -10.5017
 213   2.0000      -0.385516       -10.4904
 214   2.0000      -0.381993       -10.3946
 215   2.0000      -0.377883       -10.2827
 216   2.0000      -0.368659       -10.0317
 217   2.0000      -0.345188        -9.3930
 218   2.0000      -0.343503        -9.3472
 219   2.0000      -0.336764        -9.1638
 220   2.0000      -0.335082        -9.1180
 221   2.0000      -0.333206        -9.0670
 222   2.0000      -0.326913        -8.8958
 223   2.0000      -0.318960        -8.6793
 224   2.0000      -0.318714        -8.6726
 225   2.0000      -0.301426        -8.2022
 226   2.0000      -0.295532        -8.0418
 227   2.0000      -0.290290        -7.8992
 228   2.0000      -0.286504        -7.7962
 229   2.0000      -0.273174        -7.4334
 230   2.0000      -0.264105        -7.1867
 231   2.0000      -0.231133        -6.2895
 232   0.0000      -0.101450        -2.7606
 233   0.0000      -0.073591        -2.0025
 234   0.0000      -0.032647        -0.8884
 235   0.0000      -0.010345        -0.2815
 236   0.0000       0.009977         0.2715

MULLIKEN ATOMIC CHARGES
-----------------------
   0 C :   -0.046737
   1 C :   -0.010507
   2 C :   -0.098312
   3 C :   -0.041450
   4 C :    0.004598
   5 C :   -0.095443
   6 S :    0.167671
   7 C :   -0.106116
   8 S :    0.176277
   9 C :   -0.035460
  10 C :   -0.055374
  11 C :   -0.058209
  12 C :   -0.112558
  13 C :   -0.080429
  14 S :    0.159122
  15 C :   -0.069682
  16 S :    0.121481
  17 C :   -0.065432
  18 C :    0.065860
  19 C :   -0.120317
  20 C :    0.077202
  21 C :   -0.020610
  22 C :    0.078604
  23 O :   -0.166091
  24 S :    0.005601
  25 C :   -0.030662
  26 C :   -0.109905
  27 Si:    0.525226
  28 C :   -0.199683
  29 C :   -0.196904
  30 C :   -0.065881
  31 C :    0.016458
  32 C :    0.304333
  33 C :   -0.299039
  34 C :   -0.188580
  35 N :    0.172043
  36 C :   -0.185341
  37 N :    0.163962
  38 C :   -0.112337
  39 C :    0.072276
  40 C :    0.194302
  41 C :   -0.086515
  42 C :   -0.151728
  43 S :    0.098794
  44 C :   -0.192355
  45 C :   -0.029651
  46 C :   -0.032583
  47 C :   -0.122789
  48 C :    0.073629
  49 C :    0.185318
  50 C :   -0.058059
  51 C :   -0.162219
  52 S :    0.081541
  53 C :   -0.161382
  54 C :   -0.036026
  55 C :    0.268087
  56 C :   -0.039611
  57 C :    0.272987
  58 H :    0.017001
  59 H :    0.028509
  60 H :    0.013112
  61 H :   -0.017923
  62 H :   -0.003469
  63 H :    0.009730
  64 H :    0.006331
  65 H :   -0.016765
  66 H :    0.057270
  67 H :    0.044689
  68 H :    0.043525
  69 H :    0.056213
  70 H :    0.043107
  71 H :    0.044693
  72 H :    0.009884
  73 H :    0.004957
  74 H :   -0.002566
  75 H :    0.006964
  76 H :    0.005531
  77 H :   -0.005819
  78 H :    0.005342
  79 H :    0.021412
  80 H :    0.007265
  81 H :    0.000172
  82 H :    0.001822
  83 H :   -0.000034
  84 H :   -0.000572
  85 H :   -0.009193
  86 H :    0.005283
  87 H :    0.006212
  88 H :   -0.010593
  89 H :   -0.007417
  90 H :    0.005515
  91 H :   -0.011584
Sum of atomic charges:   -0.0000000

LOEWDIN ATOMIC CHARGES
----------------------
   0 C :   -0.048257
   1 C :   -0.036405
   2 C :   -0.154940
   3 C :   -0.039607
   4 C :   -0.078597
   5 C :   -0.177221
   6 S :    0.475351
   7 C :   -0.184752
   8 S :    0.471188
   9 C :   -0.175726
  10 C :   -0.186656
  11 C :   -0.062810
  12 C :   -0.195432
  13 C :   -0.193841
  14 S :    0.450350
  15 C :   -0.181092
  16 S :    0.446800
  17 C :   -0.179912
  18 C :   -0.032854
  19 C :   -0.171725
  20 C :   -0.007470
  21 C :   -0.068848
  22 C :   -0.061415
  23 O :   -0.155436
  24 S :    0.294760
  25 C :   -0.036857
  26 C :   -0.207434
  27 Si:    0.666840
  28 C :   -0.242559
  29 C :   -0.242149
  30 C :   -0.040798
  31 C :   -0.067969
  32 C :    0.085053
  33 C :   -0.105805
  34 C :   -0.017170
  35 N :   -0.035156
  36 C :   -0.014701
  37 N :   -0.037626
  38 C :   -0.017874
  39 C :   -0.021265
  40 C :   -0.022760
  41 C :   -0.069642
  42 C :   -0.199003
  43 S :    0.418752
  44 C :   -0.169970
  45 C :   -0.025151
  46 C :   -0.057047
  47 C :   -0.027206
  48 C :   -0.020897
  49 C :   -0.022620
  50 C :   -0.068447
  51 C :   -0.199294
  52 S :    0.410405
  53 C :   -0.197461
  54 C :   -0.068865
  55 C :   -0.007091
  56 C :   -0.058613
  57 C :   -0.008049
  58 H :    0.012763
  59 H :    0.025763
  60 H :    0.037452
  61 H :    0.022745
  62 H :    0.041187
  63 H :    0.022018
  64 H :    0.037878
  65 H :    0.029746
  66 H :    0.042976
  67 H :    0.037542
  68 H :    0.037072
  69 H :    0.042745
  70 H :    0.036946
  71 H :    0.037581
  72 H :    0.035603
  73 H :    0.028340
  74 H :    0.027593
  75 H :    0.025707
  76 H :    0.033546
  77 H :    0.030466
  78 H :    0.018846
  79 H :    0.020577
  80 H :    0.017525
  81 H :    0.018446
  82 H :    0.025998
  83 H :    0.023048
  84 H :    0.028110
  85 H :    0.028673
  86 H :    0.017934
  87 H :    0.018631
  88 H :    0.030931
  89 H :    0.028973
  90 H :    0.033022
  91 H :    0.026590

  Mayer bond orders larger than 0.100000
B(  0-C ,  1-C ) :   1.9471 B(  0-C , 58-H ) :   0.9386 B(  0-C , 59-H ) :   0.9265
B(  1-C ,  2-C ) :   1.0760 B(  1-C , 38-C ) :   0.9876 B(  2-C ,  3-C ) :   1.5067
B(  2-C ,  6-S ) :   1.0952 B(  3-C ,  4-C ) :   1.2547 B(  3-C , 60-H ) :   0.9787
B(  4-C ,  5-C ) :   1.4601 B(  4-C , 32-C ) :   1.0069 B(  5-C ,  6-S ) :   1.1256
B(  5-C ,  7-C ) :   1.1746 B(  7-C ,  8-S ) :   1.1132 B(  7-C , 31-C ) :   1.4617
B(  8-S ,  9-C ) :   1.1053 B(  9-C , 10-C ) :   1.1673 B(  9-C , 30-C ) :   1.4585
B( 10-C , 11-C ) :   1.4760 B( 10-C , 14-S ) :   1.1160 B( 11-C , 12-C ) :   1.2727
B( 11-C , 61-H ) :   0.9920 B( 12-C , 13-C ) :   1.5111 B( 12-C , 27-Si) :   0.8787
B( 13-C , 14-S ) :   1.1071 B( 13-C , 15-C ) :   1.1627 B( 15-C , 16-S ) :   1.1255
B( 15-C , 26-C ) :   1.4853 B( 16-S , 17-C ) :   1.0821 B( 17-C , 18-C ) :   1.2008
B( 17-C , 25-C ) :   1.4316 B( 18-C , 19-C ) :   1.6344 B( 18-C , 62-H ) :   0.9536
B( 19-C , 20-C ) :   1.0930 B( 19-C , 24-S ) :   1.0206 B( 20-C , 21-C ) :   1.6787
B( 20-C , 63-H ) :   0.9743 B( 21-C , 22-C ) :   0.9933 B( 21-C , 64-H ) :   0.9918
B( 22-C , 23-O ) :   2.1257 B( 22-C , 24-S ) :   0.9957 B( 23-O , 24-S ) :   0.1161
B( 25-C , 26-C ) :   1.2703 B( 25-C , 65-H ) :   1.0060 B( 26-C , 27-Si) :   0.8765
B( 27-Si, 28-C ) :   1.0571 B( 27-Si, 29-C ) :   1.0581 B( 28-C , 66-H ) :   0.9501
B( 28-C , 67-H ) :   0.9535 B( 28-C , 68-H ) :   0.9536 B( 29-C , 69-H ) :   0.9500
B( 29-C , 70-H ) :   0.9534 B( 29-C , 71-H ) :   0.9533 B( 30-C , 31-C ) :   1.2957
B( 30-C , 72-H ) :   0.9886 B( 31-C , 32-C ) :   0.9856 B( 32-C , 33-C ) :   1.7080
B( 33-C , 34-C ) :   1.1310 B( 33-C , 36-C ) :   1.1344 B( 34-C , 35-N ) :   2.9930
B( 36-C , 37-N ) :   2.9854 B( 38-C , 39-C ) :   1.0543 B( 38-C , 57-C ) :   1.0719
B( 38-C , 73-H ) :   0.9019 B( 39-C , 40-C ) :   1.1015 B( 39-C , 74-H ) :   0.9207
B( 39-C , 75-H ) :   0.9345 B( 40-C , 41-C ) :   1.0815 B( 40-C , 76-H ) :   0.8836
B( 40-C , 77-H ) :   0.9188 B( 41-C , 42-C ) :   1.5829 B( 41-C , 56-C ) :   1.2420
B( 42-C , 43-S ) :   1.1408 B( 42-C , 78-H ) :   0.9730 B( 43-S , 44-C ) :   1.1342
B( 44-C , 45-C ) :   1.0220 B( 44-C , 56-C ) :   1.5960 B( 45-C , 46-C ) :   1.9907
B( 45-C , 47-C ) :   0.9595 B( 46-C , 79-H ) :   0.9412 B( 46-C , 80-H ) :   0.9360
B( 47-C , 48-C ) :   1.0364 B( 47-C , 55-C ) :   1.0811 B( 47-C , 81-H ) :   0.9100
B( 48-C , 49-C ) :   1.1094 B( 48-C , 82-H ) :   0.9324 B( 48-C , 83-H ) :   0.9313
B( 49-C , 50-C ) :   1.0656 B( 49-C , 84-H ) :   0.8928 B( 49-C , 85-H ) :   0.9172
B( 50-C , 51-C ) :   1.5952 B( 50-C , 54-C ) :   1.2651 B( 51-C , 52-S ) :   1.1573
B( 51-C , 86-H ) :   0.9705 B( 52-S , 53-C ) :   1.1562 B( 53-C , 54-C ) :   1.5913
B( 53-C , 87-H ) :   0.9728 B( 54-C , 55-C ) :   1.0627 B( 55-C , 88-H ) :   0.9170
B( 55-C , 89-H ) :   0.8777 B( 56-C , 57-C ) :   1.0646 B( 57-C , 90-H ) :   0.8844
B( 57-C , 91-H ) :   0.9040

-----------------------------------------------------------------------------
         ABSORPTION SPECTRUM VIA TRANSITION ELECTRIC DIPOLE MOMENTS
-----------------------------------------------------------------------------
State   Energy  Wavelength   fosc         T2         TX        TY        TZ
        (cm-1)    (nm)                  (au**2)     (au)      (au)      (au)
-----------------------------------------------------------------------------
   0   11320.8    883.3   0.142174232   4.13446   1.48471  -1.32456   0.41908
   1   19322.0    517.5   1.439192309  24.52121   4.27836  -2.48701   0.17781
   2   20840.2    479.8   0.077224144   1.21991   0.91611  -0.61342   0.06602
   3   23368.4    427.9   0.000458945   0.00647  -0.05414  -0.05914  -0.00606
   4   27731.8    360.6   0.281462193   3.34132   0.21515   1.36289  -1.19899
   5   28144.8    355.3   0.161349792   1.88732   0.37764  -1.10861   0.71812
   6   29075.9    343.9   0.062407006   0.70660   0.11745  -0.62947   0.54459
   7   29728.8    336.4   0.000005277   0.00006  -0.00475  -0.00580  -0.00151
   8   29743.4    336.2   0.025924167   0.28694   0.38028  -0.37518   0.03953
   9   30188.9    331.2   0.002284127   0.02491  -0.13658   0.07720   0.01714
  10   31025.6    322.3   0.001364720   0.01448   0.09458  -0.00506  -0.07423
  11   31522.0    317.2   0.700486002   7.31580  -1.89188  -0.97076   1.67160
  12   32358.0    309.0   0.057166962   0.58162  -0.41258   0.54693  -0.33505
  13   33201.3    301.2   0.201259771   1.99562   1.27135  -0.60137  -0.13285
  14   33621.7    297.4   0.147571855   1.44497   0.78749  -0.87079   0.25800
  15   34888.0    286.6   0.009103768   0.08591   0.04792  -0.13705   0.25461
  16   35325.9    283.1   0.035020870   0.32637  -0.20674  -0.37317   0.37996
  17   36266.7    275.7   0.066318375   0.60201   0.31305  -0.62168   0.34282
  18   37115.8    269.4   0.020459127   0.18147  -0.34286   0.20233   0.15160
  19   37331.5    267.9   0.011829851   0.10432   0.29839  -0.11764  -0.03801
  20   37584.2    266.1   0.055909274   0.48973   0.17857   0.49839  -0.45765
  21   38096.7    262.5   0.320597103   2.77043  -1.50059   0.11179   0.71145
  22   38667.3    258.6   0.003825012   0.03257  -0.02663  -0.14596   0.10272
  23   38748.1    258.1   0.064256348   0.54594   0.72421  -0.12547  -0.07554
  24   39614.8    252.4   0.000417101   0.00347   0.03817   0.02565  -0.03676
  25   40096.5    249.4   0.000005352   0.00004   0.00282   0.00406   0.00442
  26   40200.3    248.8   0.020412507   0.16716  -0.01225  -0.32157   0.25220

FINAL SINGLE POINT ENERGY     -5069.449966358549

DIPOLE MOMENT
-------------
                                X             Y             Z
Electronic contribution:    -50.86114      39.93829      14.54304
Nuclear contribution   :     54.90843     -39.25158     -16.13949
                        -----------------------------------------
Total Dipole Moment    :      4.04729       0.68671      -1.59645
                        -----------------------------------------
Magnitude (a.u.)       :      4.40463
Magnitude (Debye)      :     11.19569

Rotational constants in cm-1:     0.001804     0.000333     0.000318
Rotational constants in MHz :    54.090022     9.993947     9.524167

                             ****ORCA TERMINATED NORMALLY****
TOTAL RUN TIME: 0 days 0 hours 7 minutes 20 seconds 415 msec
