                         Program Version 4.2.0 -  RELEASE  -
|  1> # ORCA input file
|  2> # SCF done       -181.863598338204          0.000464264535
|  3> ! CAM-B3LYP def2-SVP def2/J RIJCOSX Grid4 TightSCF
|  4> %maxcore 5000
|  5> %tddft
|  6>     Mode sTDDFT
|  7>     Ethresh 5.0
|  8>     maxcore 5000
|  9> end
| 10>
| 11> %pal
| 12>   nprocs 6
| 13>   end
| 14> * xyz 0 1
| 15>    C        4.57310        -0.07406         2.08364
| 16>    C        3.74659         0.36293         3.24649
| 17>    O        2.76552         1.07108         3.19287
| 18>    C        4.35369        -0.29175         4.41841
| 19>    C        5.51990        -0.95260         4.02968
| 20>    C        5.76787        -0.69694         2.61359
| 21>    C        6.98790        -0.77993         1.99665
| 22>    C        7.25521        -0.26276         0.71194
| 23>    N        7.54204         0.18220        -0.30637
| 24>    C        8.14962        -1.29854         2.60576
| 25>    N        9.12051        -1.72613         3.04372
| 26>    C        6.26641        -1.68970         4.95777
| 27>    C        5.83651        -1.73738         6.25827
| 28>    C        4.67497        -1.06014         6.69001
| 29>    C        3.90145        -0.31573         5.75209
| 30>    C        2.74163         0.35703         6.18727
| 31>    C        2.36554         0.29795         7.50088
| 32>    C        3.12407        -0.43306         8.42929
| 33>    C        4.25215        -1.09828         8.03419
| 34>    C        4.09190         0.08654         0.82310
| 35>    C        4.51803        -0.54716        -0.36896
| 36>    C        5.18559        -1.75081        -0.52243
| 37>    C        5.43115        -2.04610        -1.85743
| 38>    C        4.95710        -1.06834        -2.74971
| 39>    S        4.15196         0.20521        -1.91277
| 40>    C        5.26496        -1.32647        -4.07883
| 41>    C        5.97916        -2.50689        -4.22149
| 42>    S        6.24986        -3.31862        -2.69207
| 43>    C        6.52196        -3.03128        -5.42730
| 44>    C        7.27184        -4.22729        -5.44090
| 45>    C        7.93679        -4.70881        -6.61538
| 46>    N        8.64750        -5.85224        -6.54671
| 47>    C        8.72383        -6.49699        -5.42943
| 48>    C        8.06472        -6.01926        -4.26460
| 49>    N        7.37250        -4.92847        -4.29394
| 50>    F        8.13116        -6.68750        -3.11865
| 51>    F        9.42433        -7.62519        -5.40469
| 52>    C        7.89371        -4.02390        -7.84908
| 53>    C        7.07669        -2.86832        -7.86606
| 54>    C        6.40434        -2.38207        -6.67946
| 55>    N        5.70425        -1.27568        -6.93506
| 56>    S        5.86451        -0.88771        -8.48112
| 57>    N        6.82900        -2.08916        -8.92016
| 58>    C        8.66601        -4.45105        -8.96472
| 59>    C        8.73873        -3.83670       -10.20615
| 60>    C        9.65547        -4.46487       -11.03861
| 61>    C       10.29632        -5.56755       -10.44678
| 62>    S        9.72806        -5.83927        -8.83765
| 63>    C       11.26524        -6.15041       -11.25376
| 64>    C       11.38129        -5.50861       -12.47545
| 65>    S       10.23510        -4.18831       -12.63807
| 66>    C       12.24728        -5.80492       -13.55554
| 67>    C       13.43013        -6.47305       -13.53000
| 68>    C       13.98711        -7.02997       -14.79725
| 69>    O       13.61532        -6.75467       -15.91652
| 70>    C       15.01683        -7.99499       -14.37413
| 71>    C       15.17139        -7.93250       -12.98846
| 72>    C       14.31342        -6.87758       -12.45640
| 73>    C       14.50744        -6.22433       -11.26835
| 74>    C       13.84333        -5.03282       -10.90949
| 75>    N       13.37097        -4.03745       -10.58807
| 76>    C       15.46313        -6.60382       -10.30286
| 77>    N       16.21185        -6.87280        -9.47557
| 78>    C       16.06788        -8.78415       -12.33049
| 79>    C       16.80053        -9.67054       -13.07609
| 80>    C       16.68692        -9.74228       -14.48186
| 81>    C       15.77013        -8.88772       -15.16112
| 82>    C       15.65917        -8.96383       -16.56435
| 83>    C       16.42954        -9.84875       -17.26717
| 84>    C       17.33464       -10.69252       -16.60344
| 85>    C       17.46044       -10.64258       -15.24225
| 86>    H        7.15463        -2.22042         4.65573
| 87>    H        6.39713        -2.30592         6.98613
| 88>    H        2.16690         0.91507         5.46511
| 89>    H        1.47875         0.81580         7.83438
| 90>    H        2.80834        -0.46609         9.46152
| 91>    H        4.83793        -1.66083         8.74671
| 92>    H        3.23652         0.74940         0.73580
| 93>    H        5.44971        -2.39310         0.29788
| 94>    H        5.00826        -0.69988        -4.91157
| 95>    H        8.15639        -2.97156       -10.45992
| 96>    H       11.83751        -7.01844       -10.98129
| 97>    H       11.90482        -5.50814       -14.54208
| 98>    H       16.17245        -8.75424       -11.25810
| 99>    H       17.49257       -10.33880       -12.58432
|100>    H       14.96026        -8.31113       -17.06308
|101>    H       16.34673        -9.90435       -18.34226
|102>    H       17.93287       -11.38369       -17.17849
|103>    H       18.15655       -11.29032       -14.72926
|104> *
|105>
|106>                          ****END OF INPUT****

CARTESIAN COORDINATES (ANGSTROEM)
---------------------------------
  C      4.573100   -0.074060    2.083640
  C      3.746590    0.362930    3.246490
  O      2.765520    1.071080    3.192870
  C      4.353690   -0.291750    4.418410
  C      5.519900   -0.952600    4.029680
  C      5.767870   -0.696940    2.613590
  C      6.987900   -0.779930    1.996650
  C      7.255210   -0.262760    0.711940
  N      7.542040    0.182200   -0.306370
  C      8.149620   -1.298540    2.605760
  N      9.120510   -1.726130    3.043720
  C      6.266410   -1.689700    4.957770
  C      5.836510   -1.737380    6.258270
  C      4.674970   -1.060140    6.690010
  C      3.901450   -0.315730    5.752090
  C      2.741630    0.357030    6.187270
  C      2.365540    0.297950    7.500880
  C      3.124070   -0.433060    8.429290
  C      4.252150   -1.098280    8.034190
  C      4.091900    0.086540    0.823100
  C      4.518030   -0.547160   -0.368960
  C      5.185590   -1.750810   -0.522430
  C      5.431150   -2.046100   -1.857430
  C      4.957100   -1.068340   -2.749710
  S      4.151960    0.205210   -1.912770
  C      5.264960   -1.326470   -4.078830
  C      5.979160   -2.506890   -4.221490
  S      6.249860   -3.318620   -2.692070
  C      6.521960   -3.031280   -5.427300
  C      7.271840   -4.227290   -5.440900
  C      7.936790   -4.708810   -6.615380
  N      8.647500   -5.852240   -6.546710
  C      8.723830   -6.496990   -5.429430
  C      8.064720   -6.019260   -4.264600
  N      7.372500   -4.928470   -4.293940
  F      8.131160   -6.687500   -3.118650
  F      9.424330   -7.625190   -5.404690
  C      7.893710   -4.023900   -7.849080
  C      7.076690   -2.868320   -7.866060
  C      6.404340   -2.382070   -6.679460
  N      5.704250   -1.275680   -6.935060
  S      5.864510   -0.887710   -8.481120
  N      6.829000   -2.089160   -8.920160
  C      8.666010   -4.451050   -8.964720
  C      8.738730   -3.836700  -10.206150
  C      9.655470   -4.464870  -11.038610
  C     10.296320   -5.567550  -10.446780
  S      9.728060   -5.839270   -8.837650
  C     11.265240   -6.150410  -11.253760
  C     11.381290   -5.508610  -12.475450
  S     10.235100   -4.188310  -12.638070
  C     12.247280   -5.804920  -13.555540
  C     13.430130   -6.473050  -13.530000
  C     13.987110   -7.029970  -14.797250
  O     13.615320   -6.754670  -15.916520
  C     15.016830   -7.994990  -14.374130
  C     15.171390   -7.932500  -12.988460
  C     14.313420   -6.877580  -12.456400
  C     14.507440   -6.224330  -11.268350
  C     13.843330   -5.032820  -10.909490
  N     13.370970   -4.037450  -10.588070
  C     15.463130   -6.603820  -10.302860
  N     16.211850   -6.872800   -9.475570
  C     16.067880   -8.784150  -12.330490
  C     16.800530   -9.670540  -13.076090
  C     16.686920   -9.742280  -14.481860
  C     15.770130   -8.887720  -15.161120
  C     15.659170   -8.963830  -16.564350
  C     16.429540   -9.848750  -17.267170
  C     17.334640  -10.692520  -16.603440
  C     17.460440  -10.642580  -15.242250
  H      7.154630   -2.220420    4.655730
  H      6.397130   -2.305920    6.986130
  H      2.166900    0.915070    5.465110
  H      1.478750    0.815800    7.834380
  H      2.808340   -0.466090    9.461520
  H      4.837930   -1.660830    8.746710
  H      3.236520    0.749400    0.735800
  H      5.449710   -2.393100    0.297880
  H      5.008260   -0.699880   -4.911570
  H      8.156390   -2.971560  -10.459920
  H     11.837510   -7.018440  -10.981290
  H     11.904820   -5.508140  -14.542080
  H     16.172450   -8.754240  -11.258100
  H     17.492570  -10.338800  -12.584320
  H     14.960260   -8.311130  -17.063080
  H     16.346730   -9.904350  -18.342260
  H     17.932870  -11.383690  -17.178490
  H     18.156550  -11.290320  -14.729260

 Total Charge           Charge          ....    0
 Multiplicity           Mult            ....    1
 Number of Electrons    NEL             ....  512
 Basis Dimension        Dim             .... 1104

ORBITAL ENERGIES
----------------

  NO   OCC          E(Eh)            E(eV)
   0   2.0000     -89.046259     -2423.0719
   1   2.0000     -88.962467     -2420.7918
   2   2.0000     -88.962259     -2420.7861
   3   2.0000     -88.956833     -2420.6385
   4   2.0000     -88.956629     -2420.6329
   5   2.0000     -24.821023      -675.4144
   6   2.0000     -24.820895      -675.4109
   7   2.0000     -19.215355      -522.8764
   8   2.0000     -19.215347      -522.8762
   9   2.0000     -14.461708      -393.5231
  10   2.0000     -14.461551      -393.5188
  11   2.0000     -14.455498      -393.3541
  12   2.0000     -14.455405      -393.3516
  13   2.0000     -14.413070      -392.1996
  14   2.0000     -14.413001      -392.1977
  15   2.0000     -14.411011      -392.1435
  16   2.0000     -14.410974      -392.1425
  17   2.0000     -10.438129      -284.0359
  18   2.0000     -10.437847      -284.0283
  19   2.0000     -10.365991      -282.0730
  20   2.0000     -10.365965      -282.0723
  21   2.0000     -10.349511      -281.6245
  22   2.0000     -10.349239      -281.6171
  23   2.0000     -10.345235      -281.5081
  24   2.0000     -10.345001      -281.5018
  25   2.0000     -10.342229      -281.4264
  26   2.0000     -10.342217      -281.4260
  27   2.0000     -10.339905      -281.3631
  28   2.0000     -10.339866      -281.3620
  29   2.0000     -10.319745      -280.8145
  30   2.0000     -10.319583      -280.8101
  31   2.0000     -10.317159      -280.7442
  32   2.0000     -10.316996      -280.7397
  33   2.0000     -10.316408      -280.7237
  34   2.0000     -10.316269      -280.7199
  35   2.0000     -10.315812      -280.7075
  36   2.0000     -10.315715      -280.7049
  37   2.0000     -10.314576      -280.6739
  38   2.0000     -10.314477      -280.6712
  39   2.0000     -10.312360      -280.6136
  40   2.0000     -10.312324      -280.6126
  41   2.0000     -10.307565      -280.4831
  42   2.0000     -10.307547      -280.4826
  43   2.0000     -10.304716      -280.4056
  44   2.0000     -10.304670      -280.4043
  45   2.0000     -10.297321      -280.2044
  46   2.0000     -10.297270      -280.2030
  47   2.0000     -10.295496      -280.1547
  48   2.0000     -10.295431      -280.1529
  49   2.0000     -10.295093      -280.1437
  50   2.0000     -10.295014      -280.1416
  51   2.0000     -10.294763      -280.1347
  52   2.0000     -10.294730      -280.1338
  53   2.0000     -10.294257      -280.1210
  54   2.0000     -10.294169      -280.1186
  55   2.0000     -10.293637      -280.1041
  56   2.0000     -10.293563      -280.1021
  57   2.0000     -10.293486      -280.1000
  58   2.0000     -10.293407      -280.0978
  59   2.0000     -10.289906      -280.0026
  60   2.0000     -10.289884      -280.0020
  61   2.0000     -10.284655      -279.8597
  62   2.0000     -10.284530      -279.8563
  63   2.0000     -10.282468      -279.8002
  64   2.0000     -10.282454      -279.7998
  65   2.0000     -10.281932      -279.7856
  66   2.0000     -10.281914      -279.7851
  67   2.0000     -10.280034      -279.7339
  68   2.0000     -10.279966      -279.7321
  69   2.0000     -10.276040      -279.6253
  70   2.0000     -10.275985      -279.6238
  71   2.0000      -8.137625      -221.4360
  72   2.0000      -8.057823      -219.2645
  73   2.0000      -8.057690      -219.2609
  74   2.0000      -8.050577      -219.0673
  75   2.0000      -8.050443      -219.0637
  76   2.0000      -6.108766      -166.2280
  77   2.0000      -6.100824      -166.0119
  78   2.0000      -6.100414      -166.0007
  79   2.0000      -6.027270      -164.0103
  80   2.0000      -6.027156      -164.0073
  81   2.0000      -6.023328      -163.9031
  82   2.0000      -6.023185      -163.8992
  83   2.0000      -6.020309      -163.8209
  84   2.0000      -6.020196      -163.8179
  85   2.0000      -6.019448      -163.7975
  86   2.0000      -6.019275      -163.7928
  87   2.0000      -6.015856      -163.6998
  88   2.0000      -6.015713      -163.6959
  89   2.0000      -6.012119      -163.5981
  90   2.0000      -6.011948      -163.5934
  91   2.0000      -1.349810       -36.7302
  92   2.0000      -1.335745       -36.3475
  93   2.0000      -1.144257       -31.1368
  94   2.0000      -1.130432       -30.7606
  95   2.0000      -1.130358       -30.7586
  96   2.0000      -1.121707       -30.5232
  97   2.0000      -1.048421       -28.5290
  98   2.0000      -1.017977       -27.7006
  99   2.0000      -1.017846       -27.6970
 100   2.0000      -1.010801       -27.5053
 101   2.0000      -1.010408       -27.4946
 102   2.0000      -0.997612       -27.1464
 103   2.0000      -0.996800       -27.1243
 104   2.0000      -0.996792       -27.1241
 105   2.0000      -0.990369       -26.9493
 106   2.0000      -0.989929       -26.9373
 107   2.0000      -0.981415       -26.7057
 108   2.0000      -0.967674       -26.3318
 109   2.0000      -0.967008       -26.3136
 110   2.0000      -0.953591       -25.9485
 111   2.0000      -0.944464       -25.7002
 112   2.0000      -0.920488       -25.0477
 113   2.0000      -0.919665       -25.0254
 114   2.0000      -0.902964       -24.5709
 115   2.0000      -0.900902       -24.5148
 116   2.0000      -0.893601       -24.3161
 117   2.0000      -0.890677       -24.2366
 118   2.0000      -0.883268       -24.0350
 119   2.0000      -0.876207       -23.8428
 120   2.0000      -0.862112       -23.4593
 121   2.0000      -0.861991       -23.4560
 122   2.0000      -0.855557       -23.2809
 123   2.0000      -0.852328       -23.1930
 124   2.0000      -0.839511       -22.8443
 125   2.0000      -0.836896       -22.7731
 126   2.0000      -0.822161       -22.3721
 127   2.0000      -0.813389       -22.1334
 128   2.0000      -0.806476       -21.9453
 129   2.0000      -0.801099       -21.7990
 130   2.0000      -0.798651       -21.7324
 131   2.0000      -0.782008       -21.2795
 132   2.0000      -0.775295       -21.0968
 133   2.0000      -0.769105       -20.9284
 134   2.0000      -0.768364       -20.9082
 135   2.0000      -0.751314       -20.4443
 136   2.0000      -0.750422       -20.4200
 137   2.0000      -0.726081       -19.7577
 138   2.0000      -0.712272       -19.3819
 139   2.0000      -0.712011       -19.3748
 140   2.0000      -0.710025       -19.3208
 141   2.0000      -0.705128       -19.1875
 142   2.0000      -0.699634       -19.0380
 143   2.0000      -0.687852       -18.7174
 144   2.0000      -0.685613       -18.6565
 145   2.0000      -0.680695       -18.5226
 146   2.0000      -0.674461       -18.3530
 147   2.0000      -0.673191       -18.3184
 148   2.0000      -0.670378       -18.2419
 149   2.0000      -0.660664       -17.9776
 150   2.0000      -0.652440       -17.7538
 151   2.0000      -0.651637       -17.7319
 152   2.0000      -0.637521       -17.3478
 153   2.0000      -0.634821       -17.2744
 154   2.0000      -0.633616       -17.2416
 155   2.0000      -0.632914       -17.2225
 156   2.0000      -0.627180       -17.0664
 157   2.0000      -0.626887       -17.0585
 158   2.0000      -0.624686       -16.9986
 159   2.0000      -0.610656       -16.6168
 160   2.0000      -0.603721       -16.4281
 161   2.0000      -0.594459       -16.1761
 162   2.0000      -0.592113       -16.1122
 163   2.0000      -0.586883       -15.9699
 164   2.0000      -0.586723       -15.9656
 165   2.0000      -0.586031       -15.9467
 166   2.0000      -0.579138       -15.7592
 167   2.0000      -0.576855       -15.6970
 168   2.0000      -0.576402       -15.6847
 169   2.0000      -0.570263       -15.5176
 170   2.0000      -0.569956       -15.5093
 171   2.0000      -0.565286       -15.3822
 172   2.0000      -0.563578       -15.3357
 173   2.0000      -0.554356       -15.0848
 174   2.0000      -0.550777       -14.9874
 175   2.0000      -0.538320       -14.6484
 176   2.0000      -0.536737       -14.6054
 177   2.0000      -0.535181       -14.5630
 178   2.0000      -0.535059       -14.5597
 179   2.0000      -0.527948       -14.3662
 180   2.0000      -0.526710       -14.3325
 181   2.0000      -0.525122       -14.2893
 182   2.0000      -0.522129       -14.2079
 183   2.0000      -0.521499       -14.1907
 184   2.0000      -0.519378       -14.1330
 185   2.0000      -0.516397       -14.0519
 186   2.0000      -0.512824       -13.9546
 187   2.0000      -0.511048       -13.9063
 188   2.0000      -0.510620       -13.8947
 189   2.0000      -0.508939       -13.8489
 190   2.0000      -0.504497       -13.7281
 191   2.0000      -0.504451       -13.7268
 192   2.0000      -0.496518       -13.5110
 193   2.0000      -0.496470       -13.5096
 194   2.0000      -0.496160       -13.5012
 195   2.0000      -0.496159       -13.5012
 196   2.0000      -0.488291       -13.2871
 197   2.0000      -0.486177       -13.2295
 198   2.0000      -0.485262       -13.2046
 199   2.0000      -0.479401       -13.0452
 200   2.0000      -0.477971       -13.0063
 201   2.0000      -0.476743       -12.9728
 202   2.0000      -0.474810       -12.9202
 203   2.0000      -0.472729       -12.8636
 204   2.0000      -0.468579       -12.7507
 205   2.0000      -0.467910       -12.7325
 206   2.0000      -0.463775       -12.6200
 207   2.0000      -0.463286       -12.6066
 208   2.0000      -0.455827       -12.4037
 209   2.0000      -0.450376       -12.2554
 210   2.0000      -0.449338       -12.2271
 211   2.0000      -0.447250       -12.1703
 212   2.0000      -0.445507       -12.1228
 213   2.0000      -0.439533       -11.9603
 214   2.0000      -0.438703       -11.9377
 215   2.0000      -0.438649       -11.9362
 216   2.0000      -0.436995       -11.8912
 217   2.0000      -0.435140       -11.8408
 218   2.0000      -0.432672       -11.7736
 219   2.0000      -0.431818       -11.7504
 220   2.0000      -0.431035       -11.7291
 221   2.0000      -0.428795       -11.6681
 222   2.0000      -0.428315       -11.6550
 223   2.0000      -0.426582       -11.6079
 224   2.0000      -0.424241       -11.5442
 225   2.0000      -0.423476       -11.5234
 226   2.0000      -0.423011       -11.5107
 227   2.0000      -0.422227       -11.4894
 228   2.0000      -0.415715       -11.3122
 229   2.0000      -0.415562       -11.3080
 230   2.0000      -0.408994       -11.1293
 231   2.0000      -0.402830       -10.9616
 232   2.0000      -0.402312       -10.9475
 233   2.0000      -0.391370       -10.6497
 234   2.0000      -0.389945       -10.6109
 235   2.0000      -0.381613       -10.3842
 236   2.0000      -0.376413       -10.2427
 237   2.0000      -0.372392       -10.1333
 238   2.0000      -0.371630       -10.1126
 239   2.0000      -0.361899        -9.8478
 240   2.0000      -0.359718        -9.7884
 241   2.0000      -0.357414        -9.7257
 242   2.0000      -0.355508        -9.6739
 243   2.0000      -0.347698        -9.4613
 244   2.0000      -0.345979        -9.4146
 245   2.0000      -0.333921        -9.0865
 246   2.0000      -0.332567        -9.0496
 247   2.0000      -0.320785        -8.7290
 248   2.0000      -0.315474        -8.5845
 249   2.0000      -0.307214        -8.3597
 250   2.0000      -0.295893        -8.0516
 251   2.0000      -0.294743        -8.0204
 252   2.0000      -0.292480        -7.9588
 253   2.0000      -0.292066        -7.9475
 254   2.0000      -0.275680        -7.5016
 255   2.0000      -0.239145        -6.5075
 256   0.0000      -0.121297        -3.3007
 257   0.0000      -0.082779        -2.2525
 258   0.0000      -0.080888        -2.2011
 259   0.0000      -0.065830        -1.7913
 260   0.0000      -0.065229        -1.7750

MULLIKEN ATOMIC CHARGES
-----------------------
   0 C :   -0.121536
   1 C :    0.118080
   2 O :   -0.151655
   3 C :    0.012936
   4 C :   -0.010435
   5 C :    0.255323
   6 C :   -0.339304
   7 C :   -0.202342
   8 N :    0.181245
   9 C :   -0.179064
  10 N :    0.159856
  11 C :   -0.021888
  12 C :    0.003456
  13 C :    0.080640
  14 C :    0.033429
  15 C :   -0.025297
  16 C :    0.038087
  17 C :    0.037306
  18 C :   -0.020012
  19 C :    0.081751
  20 C :   -0.126406
  21 C :    0.006213
  22 C :    0.002332
  23 C :    0.019474
  24 S :    0.160862
  25 C :   -0.040999
  26 C :   -0.171530
  27 S :    0.165456
  28 C :    0.186294
  29 C :   -0.056883
  30 C :   -0.053290
  31 N :   -0.038589
  32 C :    0.149867
  33 C :    0.152160
  34 N :   -0.041550
  35 F :   -0.133913
  36 F :   -0.132934
  37 C :    0.186581
  38 C :   -0.009762
  39 C :   -0.012322
  40 N :   -0.294055
  41 S :    0.552970
  42 N :   -0.295375
  43 C :   -0.175683
  44 C :   -0.040614
  45 C :    0.019068
  46 C :    0.003219
  47 S :    0.164779
  48 C :    0.007220
  49 C :   -0.127901
  50 S :    0.160885
  51 C :    0.083640
  52 C :   -0.121394
  53 C :    0.115229
  54 O :   -0.149609
  55 C :    0.012708
  56 C :   -0.012276
  57 C :    0.251940
  58 C :   -0.334257
  59 C :   -0.200744
  60 N :    0.181878
  61 C :   -0.180536
  62 N :    0.155569
  63 C :   -0.020904
  64 C :    0.005468
  65 C :    0.077704
  66 C :    0.035568
  67 C :   -0.025496
  68 C :    0.035607
  69 C :    0.037925
  70 C :   -0.020266
  71 H :    0.000613
  72 H :   -0.012410
  73 H :    0.000337
  74 H :   -0.007429
  75 H :   -0.006818
  76 H :   -0.021244
  77 H :    0.022906
  78 H :    0.000472
  79 H :   -0.000175
  80 H :    0.000118
  81 H :    0.000128
  82 H :    0.022606
  83 H :    0.002333
  84 H :   -0.012558
  85 H :    0.000454
  86 H :   -0.005356
  87 H :   -0.006754
  88 H :   -0.021121
Sum of atomic charges:   -0.0000000

LOEWDIN ATOMIC CHARGES
----------------------
   0 C :   -0.088471
   1 C :    0.086707
   2 O :   -0.143277
   3 C :   -0.033521
   4 C :   -0.004371
   5 C :    0.065291
   6 C :   -0.136087
   7 C :   -0.019694
   8 N :   -0.038269
   9 C :   -0.021792
  10 N :   -0.050129
  11 C :   -0.018041
  12 C :    0.018613
  13 C :   -0.009756
  14 C :   -0.003094
  15 C :   -0.002109
  16 C :   -0.012563
  17 C :   -0.013160
  18 C :   -0.012467
  19 C :    0.043591
  20 C :   -0.174161
  21 C :   -0.031951
  22 C :   -0.198001
  23 C :   -0.185634
  24 S :    0.439389
  25 C :   -0.047338
  26 C :   -0.151267
  27 S :    0.459194
  28 C :   -0.039403
  29 C :   -0.013139
  30 C :   -0.013247
  31 N :   -0.050638
  32 C :    0.064928
  33 C :    0.065228
  34 N :   -0.050829
  35 F :   -0.022796
  36 F :   -0.022553
  37 C :   -0.039221
  38 C :   -0.035965
  39 C :   -0.036118
  40 N :   -0.277726
  41 S :    0.676318
  42 N :   -0.277844
  43 C :   -0.151436
  44 C :   -0.047331
  45 C :   -0.185775
  46 C :   -0.198039
  47 S :    0.459338
  48 C :   -0.031996
  49 C :   -0.174250
  50 S :    0.439648
  51 C :    0.043874
  52 C :   -0.088458
  53 C :    0.086257
  54 O :   -0.142949
  55 C :   -0.033410
  56 C :   -0.004370
  57 C :    0.065283
  58 C :   -0.135883
  59 C :   -0.019797
  60 N :   -0.038221
  61 C :   -0.021811
  62 N :   -0.050235
  63 C :   -0.018157
  64 C :    0.018587
  65 C :   -0.009665
  66 C :   -0.002959
  67 C :   -0.002117
  68 C :   -0.012912
  69 C :   -0.013041
  70 C :   -0.012677
  71 H :    0.039456
  72 H :    0.035569
  73 H :    0.035503
  74 H :    0.032387
  75 H :    0.031865
  76 H :    0.030235
  77 H :    0.045995
  78 H :    0.035467
  79 H :    0.032337
  80 H :    0.032348
  81 H :    0.035331
  82 H :    0.045898
  83 H :    0.039644
  84 H :    0.035568
  85 H :    0.035464
  86 H :    0.032739
  87 H :    0.031825
  88 H :    0.030245

  Mayer bond orders larger than 0.100000
B(  0-C ,  1-C ) :   0.9588 B(  0-C ,  5-C ) :   1.0276 B(  0-C , 19-C ) :   1.6865
B(  1-C ,  2-O ) :   2.1940 B(  1-C ,  3-C ) :   0.9381 B(  3-C ,  4-C ) :   1.4166
B(  3-C , 14-C ) :   1.2362 B(  4-C ,  5-C ) :   1.0004 B(  4-C , 11-C ) :   1.2592
B(  5-C ,  6-C ) :   1.6538 B(  6-C ,  7-C ) :   1.1643 B(  6-C ,  9-C ) :   1.1270
B(  7-C ,  8-N ) :   3.0136 B(  9-C , 10-N ) :   2.9980 B( 11-C , 12-C ) :   1.4679
B( 11-C , 71-H ) :   0.9871 B( 12-C , 13-C ) :   1.2227 B( 12-C , 72-H ) :   0.9945
B( 13-C , 14-C ) :   1.2413 B( 13-C , 18-C ) :   1.2404 B( 14-C , 15-C ) :   1.2740
B( 15-C , 16-C ) :   1.4753 B( 15-C , 73-H ) :   0.9871 B( 16-C , 17-C ) :   1.2535
B( 16-C , 74-H ) :   0.9878 B( 17-C , 18-C ) :   1.4953 B( 17-C , 75-H ) :   0.9895
B( 18-C , 76-H ) :   0.9978 B( 19-C , 20-C ) :   1.1188 B( 19-C , 77-H ) :   0.9309
B( 20-C , 21-C ) :   1.4559 B( 20-C , 24-S ) :   1.0892 B( 21-C , 22-C ) :   1.3152
B( 21-C , 78-H ) :   0.9940 B( 22-C , 23-C ) :   1.3797 B( 22-C , 27-S ) :   1.0258
B( 23-C , 24-S ) :   1.0789 B( 23-C , 25-C ) :   1.2487 B( 25-C , 26-C ) :   1.4752
B( 25-C , 79-H ) :   0.9866 B( 26-C , 27-S ) :   1.0934 B( 26-C , 28-C ) :   1.1982
B( 28-C , 29-C ) :   1.2929 B( 28-C , 37-C ) :   0.1257 B( 28-C , 39-C ) :   1.1963
B( 29-C , 30-C ) :   1.1236 B( 29-C , 34-N ) :   1.3769 B( 30-C , 31-N ) :   1.3761
B( 30-C , 37-C ) :   1.2952 B( 31-N , 32-C ) :   1.6599 B( 32-C , 33-C ) :   1.1037
B( 32-C , 36-F ) :   1.1886 B( 33-C , 34-N ) :   1.6600 B( 33-C , 35-F ) :   1.1871
B( 37-C , 38-C ) :   1.1944 B( 37-C , 43-C ) :   1.1990 B( 38-C , 39-C ) :   1.1050
B( 38-C , 42-N ) :   1.5057 B( 39-C , 40-N ) :   1.5058 B( 40-N , 41-S ) :   1.2802
B( 40-N , 42-N ) :   0.1511 B( 41-S , 42-N ) :   1.2800 B( 43-C , 44-C ) :   1.4715
B( 43-C , 47-S ) :   1.0946 B( 44-C , 45-C ) :   1.2492 B( 44-C , 80-H ) :   0.9877
B( 45-C , 46-C ) :   1.3795 B( 45-C , 50-S ) :   1.0784 B( 46-C , 47-S ) :   1.0254
B( 46-C , 48-C ) :   1.3154 B( 48-C , 49-C ) :   1.4550 B( 48-C , 81-H ) :   0.9945
B( 49-C , 50-S ) :   1.0901 B( 49-C , 51-C ) :   1.1188 B( 51-C , 52-C ) :   1.6875
B( 51-C , 82-H ) :   0.9301 B( 52-C , 53-C ) :   0.9592 B( 52-C , 57-C ) :   1.0281
B( 53-C , 54-O ) :   2.1968 B( 53-C , 55-C ) :   0.9376 B( 55-C , 56-C ) :   1.4185
B( 55-C , 66-C ) :   1.2375 B( 56-C , 57-C ) :   1.0005 B( 56-C , 63-C ) :   1.2617
B( 57-C , 58-C ) :   1.6516 B( 58-C , 59-C ) :   1.1614 B( 58-C , 61-C ) :   1.1276
B( 59-C , 60-N ) :   3.0143 B( 61-C , 62-N ) :   2.9957 B( 63-C , 64-C ) :   1.4694
B( 63-C , 83-H ) :   0.9852 B( 64-C , 65-C ) :   1.2249 B( 64-C , 84-H ) :   0.9937
B( 65-C , 66-C ) :   1.2425 B( 65-C , 70-C ) :   1.2397 B( 66-C , 67-C ) :   1.2750
B( 67-C , 68-C ) :   1.4768 B( 67-C , 85-H ) :   0.9864 B( 68-C , 69-C ) :   1.2551
B( 68-C , 86-H ) :   0.9866 B( 69-C , 70-C ) :   1.4979 B( 69-C , 87-H ) :   0.9886
B( 70-C , 88-H ) :   0.9974

-----------------------------------------------------------------------------
         ABSORPTION SPECTRUM VIA TRANSITION ELECTRIC DIPOLE MOMENTS
-----------------------------------------------------------------------------
State   Energy  Wavelength   fosc         T2         TX        TY        TZ
        (cm-1)    (nm)                  (au**2)     (au)      (au)      (au)
-----------------------------------------------------------------------------
   0   10599.7    943.4   0.997989440  30.99622   2.58555  -1.86991  -4.56230
   1   18863.9    530.1   0.139945119   2.44232  -1.38390  -0.23848  -0.68575
   2   19387.4    515.8   0.353483592   6.00240   1.13732  -0.82402  -2.00746
   3   19730.0    506.8   0.077774734   1.29774   0.93649  -0.19242   0.61943
   4   21107.6    473.8   0.000081371   0.00127   0.01783  -0.01308  -0.02793
   5   21622.1    462.5   0.031590965   0.48099  -0.43357   0.36826  -0.39673
   6   23871.7    418.9   0.673937243   9.29421   1.41047  -1.02344  -2.50147
   7   24401.7    409.8   0.071038458   0.95841  -0.86880  -0.04384  -0.44908
   8   26241.2    381.1   0.233701681   2.93193  -0.79824   0.56945   1.40374
   9   26286.1    380.4   0.030337160   0.37995   0.00523   0.57758  -0.21522
  10   26784.1    373.4   0.046025772   0.56572  -0.35017   0.25390   0.61533
  11   27171.8    368.0   0.056925109   0.68970  -0.38576   0.27936   0.68033
  12   28382.8    352.3   0.014102589   0.16358  -0.15934   0.32886  -0.17330
  13   28408.5    352.0   0.007747734   0.08978   0.11638  -0.05547  -0.27049
  14   28938.6    345.6   0.004239136   0.04823   0.18628  -0.02809   0.11286
  15   29116.5    343.4   0.024756433   0.27991   0.24776  -0.17746  -0.43248
  16   29386.7    340.3   0.008783463   0.09840  -0.15557   0.20882  -0.17490
  17   30039.8    332.9   0.068448537   0.75014  -0.46690   0.24324   0.68773
  18   30043.9    332.8   0.026067665   0.28564  -0.35277  -0.31674  -0.24672
  19   30296.0    330.1   0.122513059   1.33129  -0.97072   0.15199  -0.60490
  20   30550.1    327.3   0.013561498   0.14614   0.09114  -0.04955  -0.36794
  21   30583.4    327.0   0.234262910   2.52170   0.88624  -0.98658   0.87347
  22   31082.8    321.7   0.034785100   0.36842  -0.47507  -0.37605  -0.03636
  23   31189.2    320.6   0.356316105   3.76103  -0.88488   0.66542   1.59225
  24   31584.5    316.6   0.065787763   0.68572  -0.69574   0.28524  -0.34686
  25   31597.5    316.5   0.128619007   1.34007   0.46895  -0.35793  -0.99601
  26   32508.7    307.6   0.000183023   0.00185   0.02825  -0.02295  -0.02299
  27   32584.6    306.9   0.022977452   0.23215   0.13182  -0.15722   0.43595
  28   32594.8    306.8   0.132421701   1.33748  -0.71647   0.69344  -0.58590
  29   33259.2    300.7   0.072256778   0.71522   0.39232  -0.29020  -0.69072
  30   33587.0    297.7   0.096092211   0.94187   0.05009  -0.90014   0.35933
  31   33769.4    296.1   1.126956660  10.98651   1.53937  -1.10070  -2.72127
  32   33788.5    296.0   0.019926102   0.19415   0.30873   0.31436   0.00367
  33   34052.6    293.7   0.151376980   1.46348   0.03721   1.13150  -0.42637
  34   34117.7    293.1   0.056771817   0.54781  -0.34865   0.23602   0.60872
  35   34856.7    286.9   0.080869970   0.76379  -0.38725   0.28533   0.72967
  36   34875.9    286.7   0.016161175   0.15255  -0.31484   0.15079  -0.17519
  37   34933.2    286.3   0.274231538   2.58437  -0.74897   0.54164   1.31531
  38   35727.6    279.9   0.319863291   2.94738  -0.67192   1.29062  -0.91115
  39   35885.6    278.7   0.014863739   0.13636  -0.17032   0.12173   0.30419
  40   36606.2    273.2   0.008779330   0.07896   0.13755  -0.11118  -0.21835
  41   36621.1    273.1   0.156632017   1.40807  -0.36553   0.95298  -0.60522
  42   37120.2    269.4   0.026056616   0.23109   0.36937   0.29478   0.08811
  43   37382.3    267.5   0.067307780   0.59275   0.34415  -0.54553   0.42037
  44   37434.7    267.1   0.000072735   0.00064   0.01316  -0.01076  -0.01873
  45   38140.0    262.2   0.001553362   0.01341  -0.06338   0.04896   0.08362
  46   38213.2    261.7   0.168375205   1.45058  -0.66615   0.73681  -0.68112
  47   38475.6    259.9   0.011202046   0.09585   0.15561   0.26698  -0.01884
  48   38607.9    259.0   0.000506286   0.00432   0.02889  -0.01348  -0.05745
  49   38842.1    257.5   0.166231096   1.40892   0.69743  -0.68346   0.67482
  50   39209.0    255.0   0.004144579   0.03480   0.13065  -0.07763   0.10818
  51   39313.0    254.4   0.000225786   0.00189   0.02694  -0.02035  -0.02740
  52   40095.2    249.4   0.001521638   0.01249   0.03992  -0.01873  -0.10271
  53   40096.8    249.4   0.001152899   0.00947   0.05289  -0.07641   0.02882
  54   40145.6    249.1   0.017120536   0.14040  -0.17437   0.12659   0.30654

FINAL SINGLE POINT ENERGY     -4843.439757714844

DIPOLE MOMENT
-------------
                                X             Y             Z
Electronic contribution:    -13.91034       4.53281      -9.77584
Nuclear contribution   :     11.91547      -6.24067       9.33429
                        -----------------------------------------
Total Dipole Moment    :     -1.99487      -1.70786      -0.44154
                        -----------------------------------------
Magnitude (a.u.)       :      2.66294
Magnitude (Debye)      :      6.76865

Rotational constants in cm-1:     0.002537     0.000233     0.000220
Rotational constants in MHz :    76.057968     6.971266     6.587035

                             ****ORCA TERMINATED NORMALLY****
TOTAL RUN TIME: 0 days 0 hours 9 minutes 7 seconds 829 msec
