                         Program Version 4.2.0 -  RELEASE  -
|  1> # ORCA input file
|  2> # SCF done       -195.838635396502          0.000289772906
|  3> ! CAM-B3LYP def2-SVP def2/J RIJCOSX Grid4 TightSCF
|  4> %maxcore 5000
|  5> %tddft
|  6>     Mode sTDDFT
|  7>     Ethresh 5.0
|  8>     maxcore 5000
|  9> end
| 10>
| 11> %pal
| 12>   nprocs 6
| 13>   end
| 14> * xyz 0 1
| 15>    C        1.09011        -2.01391        -0.36017
| 16>    C        0.37777        -2.89136         0.61165
| 17>    O        0.34557        -4.10229         0.58285
| 18>    C       -0.21044        -1.97433         1.60427
| 19>    C        0.01304        -0.65607         1.20604
| 20>    C        0.68193        -0.65352        -0.09329
| 21>    C        0.67096         0.39081        -0.98193
| 22>    C        1.06723         0.28521        -2.33032
| 23>    N        1.33994         0.25479        -3.44512
| 24>    C        0.18782         1.68177        -0.68565
| 25>    N       -0.15967         2.76013        -0.49982
| 26>    C       -0.41777         0.41226         2.00297
| 27>    C       -1.07402         0.13700         3.17442
| 28>    C       -1.33710        -1.18513         3.59437
| 29>    C       -0.89468        -2.28041         2.79635
| 30>    C       -1.15846        -3.59906         3.21976
| 31>    C       -1.83752        -3.82318         4.38544
| 32>    C       -2.27648        -2.74801         5.17501
| 33>    C       -2.03140        -1.45845         4.79043
| 34>    C        1.99090        -2.57301        -1.21494
| 35>    C        3.01657        -1.95638        -1.96254
| 36>    C        3.62665        -0.71919        -1.78234
| 37>    C        4.60183        -0.46726        -2.72965
| 38>    C        4.75022        -1.51347        -3.64642
| 39>    S        3.71332        -2.82997        -3.31698
| 40>    C        5.71302        -1.14044        -4.61292
| 41>    C        6.17344         0.14515        -4.32070
| 42>    C        5.50735         0.68875        -3.07936
| 43>    C        6.53020         0.96654        -1.97419
| 44>    C        4.68566         1.94328        -3.39137
| 45>    C        7.10673         0.60370        -5.23924
| 46>    C        7.35989        -0.33248        -6.22808
| 47>    S        6.43561        -1.80172        -6.01778
| 48>    C        8.23393        -0.22922        -7.35606
| 49>    C        8.93381         0.88744        -7.69748
| 50>    C        9.76129         0.89518        -8.86089
| 51>    C       10.49259         2.01133        -9.23689
| 52>    C       11.30077         2.00619       -10.38305
| 53>    N       11.95881         1.98436       -11.32530
| 54>    C       10.46363         3.19481        -8.48491
| 55>    N       10.43084         4.15616        -7.85562
| 56>    C        9.79211        -0.31884        -9.61172
| 57>    C        9.07181        -1.39994        -9.20504
| 58>    O        8.29713        -1.37121        -8.08947
| 59>    C        9.05952        -2.66822        -9.86747
| 60>    C        9.65436        -3.02459       -11.06629
| 61>    C        9.44595        -4.36262       -11.36855
| 62>    C        8.69509        -5.02668       -10.39624
| 63>    S        8.22368        -4.00239        -9.10693
| 64>    C        8.55837        -6.38389       -10.76998
| 65>    C        9.22082        -6.58640       -11.98555
| 66>    C        9.83462        -5.30123       -12.48565
| 67>    C       11.35517        -5.41028       -12.62406
| 68>    C        9.19454        -4.87844       -13.81212
| 69>    C        9.12155        -7.88823       -12.43977
| 70>    C        8.38982        -8.69873       -11.57724
| 71>    S        7.84123        -7.81127       -10.16556
| 72>    C        8.11554       -10.08012       -11.66246
| 73>    C        8.17565       -10.90447       -12.74515
| 74>    C        8.29213       -12.37433       -12.52733
| 75>    O        8.10745       -12.95423       -11.47964
| 76>    C        8.72239       -12.92463       -13.82541
| 77>    C        8.72395       -11.90853       -14.78134
| 78>    C        8.24598       -10.67087       -14.16900
| 79>    C        7.72655        -9.59972       -14.84976
| 80>    C        7.03991        -8.53414       -14.23369
| 81>    N        6.44628        -7.65680       -13.79117
| 82>    C        7.74539        -9.46332       -16.25272
| 83>    N        7.75439        -9.27809       -17.38582
| 84>    C        9.12251       -12.16926       -16.09860
| 85>    C        9.50738       -13.44233       -16.43018
| 86>    C        9.50780       -14.49519       -15.48938
| 87>    C        9.10696       -14.24098       -14.14511
| 88>    C        9.11322       -15.29423       -13.20787
| 89>    C        9.49979       -16.54968       -13.58810
| 90>    C        9.89428       -16.80607       -14.91128
| 91>    C        9.89871       -15.80313       -15.84135
| 92>    H       -0.22854         1.43229         1.71043
| 93>    H       -1.40821         0.94938         3.80350
| 94>    H       -0.81620        -4.41664         2.60521
| 95>    H       -2.04211        -4.83314         4.70784
| 96>    H       -2.81115        -2.94846         6.09168
| 97>    H       -2.36873        -0.62952         5.39579
| 98>    H        1.93793        -3.65579        -1.28175
| 99>    H        3.37988        -0.06205        -0.96792
|100>    H        7.11367         0.07309        -1.76304
|101>    H        6.02163         1.27476        -1.06429
|102>    H        7.20559         1.76000        -2.28331
|103>    H        3.92247         1.71952        -4.13272
|104>    H        5.33196         2.72892        -3.77385
|105>    H        4.19413         2.30061        -2.49006
|106>    H        7.58420         1.56502        -5.20127
|107>    H        8.86260         1.77812        -7.09690
|108>    H       10.40098        -0.37375       -10.49793
|109>    H       10.20468        -2.33533       -11.67914
|110>    H       11.80257        -5.70756       -11.67820
|111>    H       11.77156        -4.45135       -12.92125
|112>    H       11.60900        -6.15044       -13.37857
|113>    H        8.11189        -4.84982       -13.71648
|114>    H        9.45148        -5.58954       -14.59305
|115>    H        9.55047        -3.89335       -14.10239
|116>    H        9.59079        -8.26269       -13.33169
|117>    H        7.89444       -10.58052       -10.72424
|118>    H        9.13949       -11.38428       -16.83714
|119>    H        9.82305       -13.65926       -17.44048
|120>    H        8.80852       -15.08524       -12.19458
|121>    H        9.50456       -17.35605       -12.87004
|122>    H       10.19580       -17.80514       -15.18930
|123>    H       10.20126       -15.99795       -16.86012
|124> *
|125>
|126>                          ****END OF INPUT****

CARTESIAN COORDINATES (ANGSTROEM)
---------------------------------
  C      1.090110   -2.013910   -0.360170
  C      0.377770   -2.891360    0.611650
  O      0.345570   -4.102290    0.582850
  C     -0.210440   -1.974330    1.604270
  C      0.013040   -0.656070    1.206040
  C      0.681930   -0.653520   -0.093290
  C      0.670960    0.390810   -0.981930
  C      1.067230    0.285210   -2.330320
  N      1.339940    0.254790   -3.445120
  C      0.187820    1.681770   -0.685650
  N     -0.159670    2.760130   -0.499820
  C     -0.417770    0.412260    2.002970
  C     -1.074020    0.137000    3.174420
  C     -1.337100   -1.185130    3.594370
  C     -0.894680   -2.280410    2.796350
  C     -1.158460   -3.599060    3.219760
  C     -1.837520   -3.823180    4.385440
  C     -2.276480   -2.748010    5.175010
  C     -2.031400   -1.458450    4.790430
  C      1.990900   -2.573010   -1.214940
  C      3.016570   -1.956380   -1.962540
  C      3.626650   -0.719190   -1.782340
  C      4.601830   -0.467260   -2.729650
  C      4.750220   -1.513470   -3.646420
  S      3.713320   -2.829970   -3.316980
  C      5.713020   -1.140440   -4.612920
  C      6.173440    0.145150   -4.320700
  C      5.507350    0.688750   -3.079360
  C      6.530200    0.966540   -1.974190
  C      4.685660    1.943280   -3.391370
  C      7.106730    0.603700   -5.239240
  C      7.359890   -0.332480   -6.228080
  S      6.435610   -1.801720   -6.017780
  C      8.233930   -0.229220   -7.356060
  C      8.933810    0.887440   -7.697480
  C      9.761290    0.895180   -8.860890
  C     10.492590    2.011330   -9.236890
  C     11.300770    2.006190  -10.383050
  N     11.958810    1.984360  -11.325300
  C     10.463630    3.194810   -8.484910
  N     10.430840    4.156160   -7.855620
  C      9.792110   -0.318840   -9.611720
  C      9.071810   -1.399940   -9.205040
  O      8.297130   -1.371210   -8.089470
  C      9.059520   -2.668220   -9.867470
  C      9.654360   -3.024590  -11.066290
  C      9.445950   -4.362620  -11.368550
  C      8.695090   -5.026680  -10.396240
  S      8.223680   -4.002390   -9.106930
  C      8.558370   -6.383890  -10.769980
  C      9.220820   -6.586400  -11.985550
  C      9.834620   -5.301230  -12.485650
  C     11.355170   -5.410280  -12.624060
  C      9.194540   -4.878440  -13.812120
  C      9.121550   -7.888230  -12.439770
  C      8.389820   -8.698730  -11.577240
  S      7.841230   -7.811270  -10.165560
  C      8.115540  -10.080120  -11.662460
  C      8.175650  -10.904470  -12.745150
  C      8.292130  -12.374330  -12.527330
  O      8.107450  -12.954230  -11.479640
  C      8.722390  -12.924630  -13.825410
  C      8.723950  -11.908530  -14.781340
  C      8.245980  -10.670870  -14.169000
  C      7.726550   -9.599720  -14.849760
  C      7.039910   -8.534140  -14.233690
  N      6.446280   -7.656800  -13.791170
  C      7.745390   -9.463320  -16.252720
  N      7.754390   -9.278090  -17.385820
  C      9.122510  -12.169260  -16.098600
  C      9.507380  -13.442330  -16.430180
  C      9.507800  -14.495190  -15.489380
  C      9.106960  -14.240980  -14.145110
  C      9.113220  -15.294230  -13.207870
  C      9.499790  -16.549680  -13.588100
  C      9.894280  -16.806070  -14.911280
  C      9.898710  -15.803130  -15.841350
  H     -0.228540    1.432290    1.710430
  H     -1.408210    0.949380    3.803500
  H     -0.816200   -4.416640    2.605210
  H     -2.042110   -4.833140    4.707840
  H     -2.811150   -2.948460    6.091680
  H     -2.368730   -0.629520    5.395790
  H      1.937930   -3.655790   -1.281750
  H      3.379880   -0.062050   -0.967920
  H      7.113670    0.073090   -1.763040
  H      6.021630    1.274760   -1.064290
  H      7.205590    1.760000   -2.283310
  H      3.922470    1.719520   -4.132720
  H      5.331960    2.728920   -3.773850
  H      4.194130    2.300610   -2.490060
  H      7.584200    1.565020   -5.201270
  H      8.862600    1.778120   -7.096900
  H     10.400980   -0.373750  -10.497930
  H     10.204680   -2.335330  -11.679140
  H     11.802570   -5.707560  -11.678200
  H     11.771560   -4.451350  -12.921250
  H     11.609000   -6.150440  -13.378570
  H      8.111890   -4.849820  -13.716480
  H      9.451480   -5.589540  -14.593050
  H      9.550470   -3.893350  -14.102390
  H      9.590790   -8.262690  -13.331690
  H      7.894440  -10.580520  -10.724240
  H      9.139490  -11.384280  -16.837140
  H      9.823050  -13.659260  -17.440480
  H      8.808520  -15.085240  -12.194580
  H      9.504560  -17.356050  -12.870040
  H     10.195800  -17.805140  -15.189300
  H     10.201260  -15.997950  -16.860120

 Total Charge           Charge          ....    0
 Multiplicity           Mult            ....    1
 Number of Electrons    NEL             ....  546
 Basis Dimension        Dim             .... 1254

ORBITAL ENERGIES
----------------

  NO   OCC          E(Eh)            E(eV)
   0   2.0000     -88.986740     -2421.4523
   1   2.0000     -88.986197     -2421.4375
   2   2.0000     -88.981580     -2421.3119
   3   2.0000     -88.981006     -2421.2963
   4   2.0000     -19.327406      -525.9255
   5   2.0000     -19.219314      -522.9841
   6   2.0000     -19.219269      -522.9829
   7   2.0000     -14.419664      -392.3790
   8   2.0000     -14.419118      -392.3641
   9   2.0000     -14.418225      -392.3398
  10   2.0000     -14.418078      -392.3358
  11   2.0000     -14.392321      -391.6350
  12   2.0000     -14.392229      -391.6325
  13   2.0000     -10.389374      -282.7092
  14   2.0000     -10.389296      -282.7071
  15   2.0000     -10.369960      -282.1809
  16   2.0000     -10.369835      -282.1776
  17   2.0000     -10.346920      -281.5540
  18   2.0000     -10.346749      -281.5494
  19   2.0000     -10.345555      -281.5169
  20   2.0000     -10.345172      -281.5064
  21   2.0000     -10.333550      -281.1902
  22   2.0000     -10.329454      -281.0787
  23   2.0000     -10.328957      -281.0652
  24   2.0000     -10.326715      -281.0042
  25   2.0000     -10.326142      -280.9886
  26   2.0000     -10.325447      -280.9697
  27   2.0000     -10.325019      -280.9580
  28   2.0000     -10.322680      -280.8944
  29   2.0000     -10.322572      -280.8915
  30   2.0000     -10.321600      -280.8650
  31   2.0000     -10.321521      -280.8629
  32   2.0000     -10.321179      -280.8536
  33   2.0000     -10.321116      -280.8518
  34   2.0000     -10.321027      -280.8494
  35   2.0000     -10.320478      -280.8345
  36   2.0000     -10.311481      -280.5897
  37   2.0000     -10.311329      -280.5855
  38   2.0000     -10.311188      -280.5817
  39   2.0000     -10.308767      -280.5158
  40   2.0000     -10.308164      -280.4994
  41   2.0000     -10.305501      -280.4269
  42   2.0000     -10.305147      -280.4173
  43   2.0000     -10.302517      -280.3458
  44   2.0000     -10.302369      -280.3417
  45   2.0000     -10.301915      -280.3294
  46   2.0000     -10.301809      -280.3265
  47   2.0000     -10.298597      -280.2391
  48   2.0000     -10.298585      -280.2388
  49   2.0000     -10.298468      -280.2356
  50   2.0000     -10.298285      -280.2306
  51   2.0000     -10.297601      -280.2120
  52   2.0000     -10.297599      -280.2119
  53   2.0000     -10.297238      -280.2021
  54   2.0000     -10.297197      -280.2010
  55   2.0000     -10.297070      -280.1975
  56   2.0000     -10.297065      -280.1974
  57   2.0000     -10.296733      -280.1883
  58   2.0000     -10.296627      -280.1855
  59   2.0000     -10.295852      -280.1644
  60   2.0000     -10.295408      -280.1523
  61   2.0000     -10.293665      -280.1049
  62   2.0000     -10.293593      -280.1029
  63   2.0000     -10.292481      -280.0726
  64   2.0000     -10.292149      -280.0636
  65   2.0000     -10.285651      -279.8868
  66   2.0000     -10.285559      -279.8843
  67   2.0000     -10.285151      -279.8732
  68   2.0000     -10.285056      -279.8706
  69   2.0000     -10.283292      -279.8226
  70   2.0000     -10.283239      -279.8212
  71   2.0000     -10.279355      -279.7155
  72   2.0000     -10.279252      -279.7127
  73   2.0000     -10.276959      -279.6503
  74   2.0000     -10.276645      -279.6417
  75   2.0000     -10.271668      -279.5063
  76   2.0000     -10.270398      -279.4717
  77   2.0000      -8.081392      -219.9059
  78   2.0000      -8.080888      -219.8922
  79   2.0000      -8.076637      -219.7765
  80   2.0000      -8.076191      -219.7643
  81   2.0000      -6.050709      -164.6482
  82   2.0000      -6.050209      -164.6345
  83   2.0000      -6.046559      -164.5352
  84   2.0000      -6.046056      -164.5216
  85   2.0000      -6.045893      -164.5171
  86   2.0000      -6.045439      -164.5048
  87   2.0000      -6.043538      -164.4530
  88   2.0000      -6.043021      -164.4390
  89   2.0000      -6.041825      -164.4064
  90   2.0000      -6.041387      -164.3945
  91   2.0000      -6.038807      -164.3243
  92   2.0000      -6.038316      -164.3109
  93   2.0000      -1.238584       -33.7036
  94   2.0000      -1.134256       -30.8647
  95   2.0000      -1.134196       -30.8630
  96   2.0000      -1.034558       -28.1518
  97   2.0000      -1.033102       -28.1121
  98   2.0000      -1.022145       -27.8140
  99   2.0000      -1.021846       -27.8058
 100   2.0000      -1.002030       -27.2666
 101   2.0000      -1.001947       -27.2644
 102   2.0000      -1.001725       -27.2583
 103   2.0000      -0.998540       -27.1717
 104   2.0000      -0.995948       -27.1011
 105   2.0000      -0.994000       -27.0481
 106   2.0000      -0.993060       -27.0225
 107   2.0000      -0.971832       -26.4449
 108   2.0000      -0.971215       -26.4281
 109   2.0000      -0.970751       -26.4155
 110   2.0000      -0.956647       -26.0317
 111   2.0000      -0.956039       -26.0151
 112   2.0000      -0.943543       -25.6751
 113   2.0000      -0.925236       -25.1769
 114   2.0000      -0.924182       -25.1483
 115   2.0000      -0.921122       -25.0650
 116   2.0000      -0.907304       -24.6890
 117   2.0000      -0.907221       -24.6867
 118   2.0000      -0.896301       -24.3896
 119   2.0000      -0.893956       -24.3258
 120   2.0000      -0.882479       -24.0135
 121   2.0000      -0.868896       -23.6439
 122   2.0000      -0.868646       -23.6371
 123   2.0000      -0.857132       -23.3237
 124   2.0000      -0.854865       -23.2621
 125   2.0000      -0.853193       -23.2166
 126   2.0000      -0.850560       -23.1449
 127   2.0000      -0.842090       -22.9144
 128   2.0000      -0.841519       -22.8989
 129   2.0000      -0.839837       -22.8531
 130   2.0000      -0.838661       -22.8211
 131   2.0000      -0.814090       -22.1525
 132   2.0000      -0.803560       -21.8660
 133   2.0000      -0.792765       -21.5722
 134   2.0000      -0.787024       -21.4160
 135   2.0000      -0.786289       -21.3960
 136   2.0000      -0.785698       -21.3799
 137   2.0000      -0.775505       -21.1026
 138   2.0000      -0.772867       -21.0308
 139   2.0000      -0.754703       -20.5365
 140   2.0000      -0.742678       -20.2093
 141   2.0000      -0.726626       -19.7725
 142   2.0000      -0.719344       -19.5743
 143   2.0000      -0.717133       -19.5142
 144   2.0000      -0.716489       -19.4967
 145   2.0000      -0.713385       -19.4122
 146   2.0000      -0.709689       -19.3116
 147   2.0000      -0.707604       -19.2549
 148   2.0000      -0.705318       -19.1927
 149   2.0000      -0.685126       -18.6432
 150   2.0000      -0.679904       -18.5011
 151   2.0000      -0.676889       -18.4191
 152   2.0000      -0.676195       -18.4002
 153   2.0000      -0.665795       -18.1172
 154   2.0000      -0.652827       -17.7643
 155   2.0000      -0.648929       -17.6583
 156   2.0000      -0.648566       -17.6484
 157   2.0000      -0.646238       -17.5850
 158   2.0000      -0.643239       -17.5034
 159   2.0000      -0.638772       -17.3819
 160   2.0000      -0.631337       -17.1796
 161   2.0000      -0.630805       -17.1651
 162   2.0000      -0.625198       -17.0125
 163   2.0000      -0.607482       -16.5304
 164   2.0000      -0.605098       -16.4656
 165   2.0000      -0.602635       -16.3985
 166   2.0000      -0.599418       -16.3110
 167   2.0000      -0.593258       -16.1434
 168   2.0000      -0.592707       -16.1284
 169   2.0000      -0.590615       -16.0714
 170   2.0000      -0.590229       -16.0610
 171   2.0000      -0.589427       -16.0391
 172   2.0000      -0.579857       -15.7787
 173   2.0000      -0.577986       -15.7278
 174   2.0000      -0.571530       -15.5521
 175   2.0000      -0.571399       -15.5486
 176   2.0000      -0.562066       -15.2946
 177   2.0000      -0.560813       -15.2605
 178   2.0000      -0.556795       -15.1512
 179   2.0000      -0.554248       -15.0819
 180   2.0000      -0.544098       -14.8057
 181   2.0000      -0.542525       -14.7629
 182   2.0000      -0.540211       -14.6999
 183   2.0000      -0.539118       -14.6702
 184   2.0000      -0.538914       -14.6646
 185   2.0000      -0.536293       -14.5933
 186   2.0000      -0.531622       -14.4662
 187   2.0000      -0.531241       -14.4558
 188   2.0000      -0.528393       -14.3783
 189   2.0000      -0.525947       -14.3117
 190   2.0000      -0.518808       -14.1175
 191   2.0000      -0.518353       -14.1051
 192   2.0000      -0.513040       -13.9605
 193   2.0000      -0.512868       -13.9558
 194   2.0000      -0.509888       -13.8747
 195   2.0000      -0.509869       -13.8742
 196   2.0000      -0.507308       -13.8045
 197   2.0000      -0.507136       -13.7999
 198   2.0000      -0.504371       -13.7246
 199   2.0000      -0.503807       -13.7093
 200   2.0000      -0.500927       -13.6309
 201   2.0000      -0.498197       -13.5566
 202   2.0000      -0.494874       -13.4662
 203   2.0000      -0.492270       -13.3953
 204   2.0000      -0.490768       -13.3545
 205   2.0000      -0.488689       -13.2979
 206   2.0000      -0.488510       -13.2930
 207   2.0000      -0.486278       -13.2323
 208   2.0000      -0.485898       -13.2220
 209   2.0000      -0.484693       -13.1892
 210   2.0000      -0.479389       -13.0448
 211   2.0000      -0.479215       -13.0401
 212   2.0000      -0.478909       -13.0318
 213   2.0000      -0.474832       -12.9208
 214   2.0000      -0.472215       -12.8496
 215   2.0000      -0.471221       -12.8226
 216   2.0000      -0.470377       -12.7996
 217   2.0000      -0.469540       -12.7768
 218   2.0000      -0.468622       -12.7518
 219   2.0000      -0.455886       -12.4053
 220   2.0000      -0.454175       -12.3587
 221   2.0000      -0.453676       -12.3452
 222   2.0000      -0.453151       -12.3309
 223   2.0000      -0.449803       -12.2398
 224   2.0000      -0.449185       -12.2229
 225   2.0000      -0.447064       -12.1652
 226   2.0000      -0.445608       -12.1256
 227   2.0000      -0.442168       -12.0320
 228   2.0000      -0.441756       -12.0208
 229   2.0000      -0.439200       -11.9512
 230   2.0000      -0.437453       -11.9037
 231   2.0000      -0.435351       -11.8465
 232   2.0000      -0.434107       -11.8127
 233   2.0000      -0.431922       -11.7532
 234   2.0000      -0.431849       -11.7512
 235   2.0000      -0.429957       -11.6997
 236   2.0000      -0.429917       -11.6986
 237   2.0000      -0.428104       -11.6493
 238   2.0000      -0.427851       -11.6424
 239   2.0000      -0.425456       -11.5772
 240   2.0000      -0.424313       -11.5461
 241   2.0000      -0.420725       -11.4485
 242   2.0000      -0.419404       -11.4126
 243   2.0000      -0.418866       -11.3979
 244   2.0000      -0.418555       -11.3895
 245   2.0000      -0.418122       -11.3777
 246   2.0000      -0.417164       -11.3516
 247   2.0000      -0.413771       -11.2593
 248   2.0000      -0.410396       -11.1675
 249   2.0000      -0.409924       -11.1546
 250   2.0000      -0.406964       -11.0740
 251   2.0000      -0.404353       -11.0030
 252   2.0000      -0.398822       -10.8525
 253   2.0000      -0.394705       -10.7405
 254   2.0000      -0.383384       -10.4324
 255   2.0000      -0.378400       -10.2968
 256   2.0000      -0.368565       -10.0292
 257   2.0000      -0.362553        -9.8656
 258   2.0000      -0.349180        -9.5017
 259   2.0000      -0.344902        -9.3852
 260   2.0000      -0.342036        -9.3073
 261   2.0000      -0.338691        -9.2162
 262   2.0000      -0.337640        -9.1876
 263   2.0000      -0.336895        -9.1674
 264   2.0000      -0.334325        -9.0974
 265   2.0000      -0.326239        -8.8774
 266   2.0000      -0.318369        -8.6633
 267   2.0000      -0.313756        -8.5377
 268   2.0000      -0.296646        -8.0721
 269   2.0000      -0.296108        -8.0575
 270   2.0000      -0.286623        -7.7994
 271   2.0000      -0.258099        -7.0232
 272   2.0000      -0.257099        -6.9960
 273   0.0000      -0.099420        -2.7054
 274   0.0000      -0.094631        -2.5750
 275   0.0000      -0.078113        -2.1256
 276   0.0000      -0.075332        -2.0499
 277   0.0000      -0.057527        -1.5654

MULLIKEN ATOMIC CHARGES
-----------------------
   0 C :   -0.126649
   1 C :    0.117356
   2 O :   -0.153943
   3 C :    0.013331
   4 C :   -0.011467
   5 C :    0.265733
   6 C :   -0.349053
   7 C :   -0.193026
   8 N :    0.169016
   9 C :   -0.177600
  10 N :    0.158913
  11 C :   -0.026741
  12 C :    0.007542
  13 C :    0.079041
  14 C :    0.033065
  15 C :   -0.025001
  16 C :    0.036746
  17 C :    0.039242
  18 C :   -0.018881
  19 C :    0.076301
  20 C :   -0.117476
  21 C :    0.002202
  22 C :    0.000233
  23 C :   -0.067388
  24 S :    0.181989
  25 C :   -0.079415
  26 C :    0.007387
  27 C :   -0.112378
  28 C :    0.105696
  29 C :    0.100541
  30 C :   -0.024410
  31 C :   -0.113082
  32 S :    0.199154
  33 C :    0.272830
  34 C :   -0.181793
  35 C :    0.312789
  36 C :   -0.361551
  37 C :   -0.172124
  38 N :    0.118858
  39 C :   -0.169640
  40 N :    0.118332
  41 C :   -0.182704
  42 C :    0.272036
  43 O :   -0.248928
  44 C :   -0.111549
  45 C :   -0.025617
  46 C :    0.006520
  47 C :   -0.080462
  48 S :    0.199248
  49 C :   -0.066342
  50 C :    0.000490
  51 C :   -0.115365
  52 C :    0.102321
  53 C :    0.107113
  54 C :    0.003169
  55 C :   -0.115756
  56 S :    0.182437
  57 C :    0.078556
  58 C :   -0.131675
  59 C :    0.117899
  60 O :   -0.152040
  61 C :    0.011807
  62 C :   -0.010029
  63 C :    0.264988
  64 C :   -0.347947
  65 C :   -0.196076
  66 N :    0.170717
  67 C :   -0.179912
  68 N :    0.157702
  69 C :   -0.026079
  70 C :    0.006047
  71 C :    0.077856
  72 C :    0.033781
  73 C :   -0.025206
  74 C :    0.036010
  75 C :    0.038624
  76 C :   -0.019151
  77 H :    0.000919
  78 H :   -0.012768
  79 H :    0.000183
  80 H :   -0.006605
  81 H :   -0.006109
  82 H :   -0.020925
  83 H :    0.021449
  84 H :   -0.003235
  85 H :    0.021157
  86 H :    0.015111
  87 H :    0.018055
  88 H :    0.040637
  89 H :    0.014158
  90 H :    0.015589
  91 H :   -0.004083
  92 H :    0.021215
  93 H :    0.020052
  94 H :   -0.002274
  95 H :    0.022210
  96 H :    0.018174
  97 H :    0.015489
  98 H :    0.038246
  99 H :    0.017244
 100 H :    0.014340
 101 H :   -0.003466
 102 H :    0.020792
 103 H :    0.001909
 104 H :   -0.012974
 105 H :    0.000246
 106 H :   -0.005028
 107 H :   -0.006361
 108 H :   -0.020515
Sum of atomic charges:    0.0000000

LOEWDIN ATOMIC CHARGES
----------------------
   0 C :   -0.095461
   1 C :    0.087037
   2 O :   -0.144403
   3 C :   -0.032700
   4 C :   -0.005629
   5 C :    0.068335
   6 C :   -0.143156
   7 C :   -0.015259
   8 N :   -0.044635
   9 C :   -0.022898
  10 N :   -0.050993
  11 C :   -0.018776
  12 C :    0.018670
  13 C :   -0.009352
  14 C :   -0.003087
  15 C :   -0.002019
  16 C :   -0.012024
  17 C :   -0.012172
  18 C :   -0.012315
  19 C :    0.042165
  20 C :   -0.179231
  21 C :   -0.014196
  22 C :   -0.028406
  23 C :   -0.176725
  24 S :    0.467843
  25 C :   -0.186860
  26 C :   -0.027287
  27 C :   -0.034888
  28 C :   -0.023418
  29 C :   -0.022070
  30 C :   -0.025460
  31 C :   -0.189992
  32 S :    0.471039
  33 C :    0.075519
  34 C :   -0.054055
  35 C :    0.056199
  36 C :   -0.185978
  37 C :   -0.029797
  38 N :   -0.078725
  39 C :   -0.029783
  40 N :   -0.078430
  41 C :   -0.053789
  42 C :    0.075131
  43 O :   -0.021306
  44 C :   -0.189497
  45 C :   -0.026057
  46 C :   -0.027516
  47 C :   -0.187305
  48 S :    0.470890
  49 C :   -0.176384
  50 C :   -0.028839
  51 C :   -0.035337
  52 C :   -0.023735
  53 C :   -0.021085
  54 C :   -0.013558
  55 C :   -0.179009
  56 S :    0.468404
  57 C :    0.042353
  58 C :   -0.095456
  59 C :    0.087024
  60 O :   -0.144311
  61 C :   -0.032786
  62 C :   -0.006069
  63 C :    0.067422
  64 C :   -0.143055
  65 C :   -0.016538
  66 N :   -0.044724
  67 C :   -0.022794
  68 N :   -0.051316
  69 C :   -0.018718
  70 C :    0.018478
  71 C :   -0.009409
  72 C :   -0.003138
  73 C :   -0.002177
  74 C :   -0.012219
  75 C :   -0.012235
  76 C :   -0.012383
  77 H :    0.039315
  78 H :    0.035738
  79 H :    0.035526
  80 H :    0.032668
  81 H :    0.032212
  82 H :    0.030533
  83 H :    0.045534
  84 H :    0.034821
  85 H :    0.029779
  86 H :    0.026023
  87 H :    0.027004
  88 H :    0.036266
  89 H :    0.025420
  90 H :    0.026231
  91 H :    0.038225
  92 H :    0.046410
  93 H :    0.046214
  94 H :    0.038396
  95 H :    0.030076
  96 H :    0.027097
  97 H :    0.026143
  98 H :    0.036262
  99 H :    0.026880
 100 H :    0.025404
 101 H :    0.034814
 102 H :    0.045276
 103 H :    0.039468
 104 H :    0.035627
 105 H :    0.035457
 106 H :    0.032938
 107 H :    0.032117
 108 H :    0.030538

  Mayer bond orders larger than 0.100000
B(  0-C ,  1-C ) :   0.9634 B(  0-C ,  5-C ) :   1.0353 B(  0-C , 19-C ) :   1.6650
B(  1-C ,  2-O ) :   2.1883 B(  1-C ,  3-C ) :   0.9391 B(  3-C ,  4-C ) :   1.4190
B(  3-C , 14-C ) :   1.2366 B(  4-C ,  5-C ) :   1.0007 B(  4-C , 11-C ) :   1.2578
B(  5-C ,  6-C ) :   1.6364 B(  6-C ,  7-C ) :   1.1716 B(  6-C ,  9-C ) :   1.1266
B(  7-C ,  8-N ) :   2.9785 B(  9-C , 10-N ) :   2.9948 B( 11-C , 12-C ) :   1.4673
B( 11-C , 77-H ) :   0.9871 B( 12-C , 13-C ) :   1.2251 B( 12-C , 78-H ) :   0.9939
B( 13-C , 14-C ) :   1.2404 B( 13-C , 18-C ) :   1.2385 B( 14-C , 15-C ) :   1.2736
B( 15-C , 16-C ) :   1.4763 B( 15-C , 79-H ) :   0.9867 B( 16-C , 17-C ) :   1.2543
B( 16-C , 80-H ) :   0.9878 B( 17-C , 18-C ) :   1.4955 B( 17-C , 81-H ) :   0.9890
B( 18-C , 82-H ) :   0.9978 B( 19-C , 20-C ) :   1.1375 B( 19-C , 83-H ) :   0.9267
B( 20-C , 21-C ) :   1.3930 B( 20-C , 24-S ) :   1.0970 B( 21-C , 22-C ) :   1.3806
B( 21-C , 84-H ) :   0.9914 B( 22-C , 23-C ) :   1.4996 B( 22-C , 27-C ) :   0.9392
B( 23-C , 24-S ) :   1.1140 B( 23-C , 25-C ) :   1.1753 B( 25-C , 26-C ) :   1.5205
B( 25-C , 32-S ) :   1.0935 B( 26-C , 27-C ) :   0.9389 B( 26-C , 30-C ) :   1.3277
B( 27-C , 28-C ) :   1.0346 B( 27-C , 29-C ) :   1.0370 B( 28-C , 85-H ) :   0.9636
B( 28-C , 86-H ) :   0.9648 B( 28-C , 87-H ) :   0.9650 B( 29-C , 88-H ) :   0.9617
B( 29-C , 89-H ) :   0.9633 B( 29-C , 90-H ) :   0.9632 B( 30-C , 31-C ) :   1.4840
B( 30-C , 91-H ) :   0.9940 B( 31-C , 32-S ) :   1.1042 B( 31-C , 33-C ) :   1.0614
B( 33-C , 34-C ) :   1.5773 B( 33-C , 43-O ) :   1.1175 B( 34-C , 35-C ) :   1.1253
B( 34-C , 92-H ) :   0.9635 B( 35-C , 36-C ) :   1.5217 B( 35-C , 41-C ) :   1.1209
B( 36-C , 37-C ) :   1.1359 B( 36-C , 39-C ) :   1.1340 B( 37-C , 38-N ) :   2.9998
B( 39-C , 40-N ) :   2.9998 B( 41-C , 42-C ) :   1.5759 B( 41-C , 93-H ) :   0.9654
B( 42-C , 43-O ) :   1.1197 B( 42-C , 44-C ) :   1.0611 B( 44-C , 45-C ) :   1.4822
B( 44-C , 48-S ) :   1.1058 B( 45-C , 46-C ) :   1.3283 B( 45-C , 94-H ) :   0.9947
B( 46-C , 47-C ) :   1.5188 B( 46-C , 51-C ) :   0.9383 B( 47-C , 48-S ) :   1.0928
B( 47-C , 49-C ) :   1.1783 B( 49-C , 50-C ) :   1.4971 B( 49-C , 56-S ) :   1.1155
B( 50-C , 51-C ) :   0.9389 B( 50-C , 54-C ) :   1.3824 B( 51-C , 52-C ) :   1.0352
B( 51-C , 53-C ) :   1.0366 B( 52-C , 95-H ) :   0.9646 B( 52-C , 96-H ) :   0.9648
B( 52-C , 97-H ) :   0.9649 B( 53-C , 98-H ) :   0.9615 B( 53-C , 99-H ) :   0.9633
B( 53-C ,100-H ) :   0.9633 B( 54-C , 55-C ) :   1.3920 B( 54-C ,101-H ) :   0.9913
B( 55-C , 56-S ) :   1.0965 B( 55-C , 57-C ) :   1.1383 B( 57-C , 58-C ) :   1.6594
B( 57-C ,102-H ) :   0.9282 B( 58-C , 59-C ) :   0.9613 B( 58-C , 63-C ) :   1.0399
B( 59-C , 60-O ) :   2.1915 B( 59-C , 61-C ) :   0.9392 B( 61-C , 62-C ) :   1.4192
B( 61-C , 72-C ) :   1.2369 B( 62-C , 63-C ) :   1.0007 B( 62-C , 69-C ) :   1.2592
B( 63-C , 64-C ) :   1.6359 B( 64-C , 65-C ) :   1.1702 B( 64-C , 67-C ) :   1.1277
B( 65-C , 66-N ) :   2.9877 B( 67-C , 68-N ) :   2.9938 B( 69-C , 70-C ) :   1.4665
B( 69-C ,103-H ) :   0.9869 B( 70-C , 71-C ) :   1.2274 B( 70-C ,104-H ) :   0.9936
B( 71-C , 72-C ) :   1.2392 B( 71-C , 76-C ) :   1.2391 B( 72-C , 73-C ) :   1.2756
B( 73-C , 74-C ) :   1.4757 B( 73-C ,105-H ) :   0.9864 B( 74-C , 75-C ) :   1.2538
B( 74-C ,106-H ) :   0.9883 B( 75-C , 76-C ) :   1.4970 B( 75-C ,107-H ) :   0.9891
B( 76-C ,108-H ) :   0.9974

-----------------------------------------------------------------------------
         ABSORPTION SPECTRUM VIA TRANSITION ELECTRIC DIPOLE MOMENTS
-----------------------------------------------------------------------------
State   Energy  Wavelength   fosc         T2         TX        TY        TZ
        (cm-1)    (nm)                  (au**2)     (au)      (au)      (au)
-----------------------------------------------------------------------------
   0   18268.4    547.4   1.533408187  27.63330  -2.18429   2.79705   3.87797
   1   19241.6    519.7   0.921074456  15.75903  -2.65527  -2.91052   0.48733
   2   22837.3    437.9   0.245452648   3.53834  -0.89312   0.81119   1.44314
   3   23257.2    430.0   0.586813928   8.30652  -1.33992  -2.43599   0.75968
   4   24160.0    413.9   0.139383496   1.89929   0.68696  -0.61056  -1.02694
   5   24845.1    402.5   0.184757189   2.44814  -1.00822  -1.16516   0.27207
   6   27302.5    366.3   0.111519735   1.34470   0.69137  -0.50800  -0.78015
   7   27350.7    365.6   0.368252982   4.43256   0.24491   1.80448  -1.05661
   8   28414.2    351.9   0.017075233   0.19784  -0.22185   0.24720   0.29582
   9   28635.2    349.2   0.026174003   0.30092   0.13113  -0.42059   0.32685
  10   29428.4    339.8   0.027754389   0.31048  -0.32002  -0.23540   0.39072
  11   29487.8    339.1   0.324031270   3.61759  -0.63962  -1.65992   0.67317
  12   30005.9    333.3   0.029973020   0.32885  -0.11492   0.18725   0.52970
  13   30067.4    332.6   0.035176569   0.38515   0.25158  -0.39882  -0.40349
  14   30365.9    329.3   0.035642833   0.38642   0.09171  -0.53102   0.30988
  15   30458.2    328.3   0.015628563   0.16892  -0.24141   0.10516   0.31557
  16   31067.6    321.9   0.053546357   0.56741   0.26855  -0.41950  -0.56508
  17   31549.9    317.0   0.319248316   3.33124  -0.42470  -1.57768   0.81350
  18   31843.1    314.0   0.030339509   0.31367   0.28639  -0.21946   0.42835
  19   31878.9    313.7   0.075977193   0.78461   0.02456  -0.76684   0.44269
  20   32471.7    308.0   0.281136343   2.85028  -0.80446   1.37958   0.54762
  21   32502.2    307.7   0.394238427   3.99321   0.32902   1.30062  -1.48099
  22   33767.5    296.1   0.074814382   0.72939  -0.41300   0.44388   0.60150
  23   34228.1    292.2   0.038610049   0.37136   0.04879   0.08790   0.60104
  24   34312.5    291.4   0.196878531   1.88896  -0.19893   1.13015  -0.75640
  25   34406.7    290.6   0.183481586   1.75560  -0.79568   0.73344   0.76456
  26   34545.3    289.5   0.096785666   0.92235  -0.04378  -0.78892   0.54593
  27   34650.0    288.6   0.017968046   0.17072  -0.09685   0.10458  -0.38781
  28   34821.5    287.2   0.073415402   0.69409   0.19071   0.64233  -0.49511
  29   35094.1    284.9   0.013093009   0.12282   0.06829  -0.21559  -0.26773
  30   35986.1    277.9   0.000582309   0.00533   0.02676  -0.06341  -0.02428
  31   36574.3    273.4   0.120338972   1.08319   0.26637   0.90838  -0.43254
  32   37142.2    269.2   0.045823167   0.40616   0.26145   0.14095  -0.56386
  33   37224.0    268.6   0.046179646   0.40842   0.14324  -0.62064  -0.05197
  34   37717.7    265.1   0.033633157   0.29356  -0.12916   0.27341   0.44958
  35   37880.5    264.0   0.001459121   0.01268  -0.09956  -0.02204  -0.04777
  36   38228.4    261.6   0.157685167   1.35794   0.24436   1.02223  -0.50327
  37   38502.3    259.7   0.092066177   0.78721   0.33864  -0.38041  -0.72651
  38   39488.1    253.2   0.021090173   0.17583   0.17431   0.02333  -0.38066
  39   39544.9    252.9   0.036942323   0.30755   0.15143  -0.52033   0.11776
  40   39707.1    251.8   0.068792691   0.57036   0.44467  -0.31418  -0.52337
  41   39824.8    251.1   0.027313814   0.22579   0.39020   0.22343   0.15365
  42   40090.3    249.4   0.109038456   0.89540  -0.37184   0.64017   0.58934
  43   40137.0    249.1   0.076283936   0.62570  -0.15403  -0.07180   0.77254
  44   40318.3    248.0   0.098715133   0.80604   0.11073  -0.76176   0.46206

FINAL SINGLE POINT ENERGY     -4600.588950165991

DIPOLE MOMENT
-------------
                                X             Y             Z
Electronic contribution:     -8.82917       1.28262      -4.68287
Nuclear contribution   :      9.01028      -5.44905       7.44595
                        -----------------------------------------
Total Dipole Moment    :      0.18112      -4.16643       2.76309
                        -----------------------------------------
Magnitude (a.u.)       :      5.00266
Magnitude (Debye)      :     12.71575

Rotational constants in cm-1:     0.000951     0.000241     0.000198
Rotational constants in MHz :    28.500672     7.213915     5.926483

                             ****ORCA TERMINATED NORMALLY****
TOTAL RUN TIME: 0 days 0 hours 11 minutes 50 seconds 744 msec
