                         Program Version 4.2.0 -  RELEASE  -
|  1> # ORCA input file
|  2> # SCF done       -194.566180014687          0.000452029386
|  3> ! CAM-B3LYP def2-SVP def2/J RIJCOSX Grid4 TightSCF
|  4> %maxcore 5000
|  5> %tddft
|  6>     Mode sTDDFT
|  7>     Ethresh 5.0
|  8>     maxcore 5000
|  9> end
| 10>
| 11> %pal
| 12>   nprocs 6
| 13>   end
| 14> * xyz 0 1
| 15>    C       -1.27162        -3.96688        -5.03980
| 16>    C       -2.37820        -3.24853        -4.59588
| 17>    C       -3.43248        -2.84855        -5.57762
| 18>    C       -2.50781        -2.89995        -3.24177
| 19>    C       -3.69661        -2.12719        -2.76892
| 20>    C       -1.52163        -3.27976        -2.33775
| 21>    C       -0.42896        -3.99318        -2.78658
| 22>    C       -0.28824        -4.34408        -4.13984
| 23>    C        0.95702        -5.08412        -4.31242
| 24>    C        1.42472        -5.57835        -5.50159
| 25>    C        0.74956        -5.44114        -6.73366
| 26>    N        0.25801        -5.36750        -7.76854
| 27>    C        2.62863        -6.28838        -5.69368
| 28>    N        3.58531        -6.87214        -5.94697
| 29>    C        1.58528        -5.18917        -3.00317
| 30>    C        0.72067        -4.49781        -2.02286
| 31>    O        0.91194        -4.36614        -0.83020
| 32>    C        2.76260        -5.82333        -2.73619
| 33>    C        3.45543        -6.01138        -1.51771
| 34>    C        4.64564        -6.71553        -1.46831
| 35>    C        5.18971        -6.83061        -0.17988
| 36>    C        4.37101        -6.17857         0.78682
| 37>    S        2.96530        -5.44509         0.06689
| 38>    C        4.69345        -6.16933         2.12578
| 39>    C        5.85673        -6.82960         2.52683
| 40>    C        6.67603        -7.47825         1.55691
| 41>    C        6.36277        -7.48479         0.22091
| 42>    S        8.05687        -8.23942         2.30389
| 43>    C        7.53167        -7.70734         3.89326
| 44>    C        6.36939        -6.97684         3.83149
| 45>    C        8.28537        -8.08433         5.04820
| 46>    C        7.94807        -7.74000         6.37691
| 47>    C        8.70546        -8.22874         7.49815
| 48>    N        8.33651        -7.88150         8.74834
| 49>    C        7.31401        -7.11520         8.93290
| 50>    C        6.56985        -6.63006         7.82643
| 51>    N        6.88572        -6.93877         6.61311
| 52>    F        5.51788        -5.83193         8.00402
| 53>    F        6.98718        -6.79138        10.17989
| 54>    C        9.82905        -9.07345         7.36825
| 55>    C       10.20474        -9.37178         6.04030
| 56>    C        9.44162        -8.88390         4.91547
| 57>    N        9.95846        -9.29253         3.75628
| 58>    S       11.25689       -10.18545         4.03761
| 59>    N       11.24135       -10.11235         5.63916
| 60>    C       10.49964        -9.61459         8.50695
| 61>    C       11.59528       -10.44530         8.49355
| 62>    C       11.99137       -10.88099         9.77415
| 63>    C       11.15288       -10.34915        10.79417
| 64>    S        9.92093        -9.30818        10.13023
| 65>    C       11.32454       -10.66593        12.12088
| 66>    C       12.35470       -11.54753        12.45722
| 67>    C       13.20501       -12.06200        11.43803
| 68>    C       13.03921       -11.74269        10.11078
| 69>    S       14.41067       -13.12551        12.10233
| 70>    C       13.73822       -12.94056        13.71116
| 71>    C       12.68139       -12.06747        13.72749
| 72>    C       14.34819       -13.62348        14.79973
| 73>    C       13.79377       -13.98430        15.98287
| 74>    C       14.68114       -14.31868        17.13858
| 75>    O       15.86787       -14.54416        17.09174
| 76>    C       13.80567       -14.25436        18.32067
| 77>    C       12.47578       -14.04239        17.91370
| 78>    C       11.48087       -13.92194        18.86846
| 79>    C       11.80403       -14.02252        20.21833
| 80>    C       13.13139       -14.24825        20.61815
| 81>    C       14.13155       -14.36053        19.65797
| 82>    C       13.47301       -14.36668        22.06856
| 83>    C       10.72256       -13.89105        21.24200
| 84>    C       12.42248       -14.02579        16.45612
| 85>    C       11.30459       -14.26325        15.70237
| 86>    C       11.32204       -14.50446        14.31293
| 87>    N       11.27500       -14.75655        13.19425
| 88>    C       10.00736       -14.38243        16.24263
| 89>    N        8.93013       -14.46456        16.63060
| 90>    H       -1.19774        -4.22040        -6.08494
| 91>    H       -3.18631        -3.20307        -6.57457
| 92>    H       -3.53366        -1.76417        -5.60896
| 93>    H       -4.39914        -3.26031        -5.28978
| 94>    H       -4.61465        -2.68138        -2.96241
| 95>    H       -3.77023        -1.17630        -3.29554
| 96>    H       -3.62824        -1.93016        -1.70263
| 97>    H       -1.59911        -3.02485        -1.29137
| 98>    H        3.27406        -6.27811        -3.57645
| 99>    H        5.10237        -7.13924        -2.34607
|100>    H        4.06606        -5.67409         2.84954
|101>    H        6.98880        -7.98139        -0.50308
|102>    H        5.89633        -6.56630         4.70284
|103>    H       12.08471       -10.73888         7.58340
|104>    H       10.67393       -10.26581        12.88206
|105>    H       13.68446       -12.14776         9.34784
|106>    H       12.16821       -11.77817        14.62817
|107>    H       15.40784       -13.83684        14.69784
|108>    H       10.45676       -13.74062        18.58228
|109>    H       15.15797       -14.53242        19.94557
|110>    H       13.19486       -13.45874        22.60280
|111>    H       14.53800       -14.53555        22.20109
|112>    H       12.92987       -15.19441        22.52341
|113>    H        9.75913       -13.72914        20.76680
|114>    H       10.92728       -13.05562        21.91079
|115>    H       10.66225       -14.79219        21.85107
|116> *
|117>
|118>                          ****END OF INPUT****

CARTESIAN COORDINATES (ANGSTROEM)
---------------------------------
  C     -1.271620   -3.966880   -5.039800
  C     -2.378200   -3.248530   -4.595880
  C     -3.432480   -2.848550   -5.577620
  C     -2.507810   -2.899950   -3.241770
  C     -3.696610   -2.127190   -2.768920
  C     -1.521630   -3.279760   -2.337750
  C     -0.428960   -3.993180   -2.786580
  C     -0.288240   -4.344080   -4.139840
  C      0.957020   -5.084120   -4.312420
  C      1.424720   -5.578350   -5.501590
  C      0.749560   -5.441140   -6.733660
  N      0.258010   -5.367500   -7.768540
  C      2.628630   -6.288380   -5.693680
  N      3.585310   -6.872140   -5.946970
  C      1.585280   -5.189170   -3.003170
  C      0.720670   -4.497810   -2.022860
  O      0.911940   -4.366140   -0.830200
  C      2.762600   -5.823330   -2.736190
  C      3.455430   -6.011380   -1.517710
  C      4.645640   -6.715530   -1.468310
  C      5.189710   -6.830610   -0.179880
  C      4.371010   -6.178570    0.786820
  S      2.965300   -5.445090    0.066890
  C      4.693450   -6.169330    2.125780
  C      5.856730   -6.829600    2.526830
  C      6.676030   -7.478250    1.556910
  C      6.362770   -7.484790    0.220910
  S      8.056870   -8.239420    2.303890
  C      7.531670   -7.707340    3.893260
  C      6.369390   -6.976840    3.831490
  C      8.285370   -8.084330    5.048200
  C      7.948070   -7.740000    6.376910
  C      8.705460   -8.228740    7.498150
  N      8.336510   -7.881500    8.748340
  C      7.314010   -7.115200    8.932900
  C      6.569850   -6.630060    7.826430
  N      6.885720   -6.938770    6.613110
  F      5.517880   -5.831930    8.004020
  F      6.987180   -6.791380   10.179890
  C      9.829050   -9.073450    7.368250
  C     10.204740   -9.371780    6.040300
  C      9.441620   -8.883900    4.915470
  N      9.958460   -9.292530    3.756280
  S     11.256890  -10.185450    4.037610
  N     11.241350  -10.112350    5.639160
  C     10.499640   -9.614590    8.506950
  C     11.595280  -10.445300    8.493550
  C     11.991370  -10.880990    9.774150
  C     11.152880  -10.349150   10.794170
  S      9.920930   -9.308180   10.130230
  C     11.324540  -10.665930   12.120880
  C     12.354700  -11.547530   12.457220
  C     13.205010  -12.062000   11.438030
  C     13.039210  -11.742690   10.110780
  S     14.410670  -13.125510   12.102330
  C     13.738220  -12.940560   13.711160
  C     12.681390  -12.067470   13.727490
  C     14.348190  -13.623480   14.799730
  C     13.793770  -13.984300   15.982870
  C     14.681140  -14.318680   17.138580
  O     15.867870  -14.544160   17.091740
  C     13.805670  -14.254360   18.320670
  C     12.475780  -14.042390   17.913700
  C     11.480870  -13.921940   18.868460
  C     11.804030  -14.022520   20.218330
  C     13.131390  -14.248250   20.618150
  C     14.131550  -14.360530   19.657970
  C     13.473010  -14.366680   22.068560
  C     10.722560  -13.891050   21.242000
  C     12.422480  -14.025790   16.456120
  C     11.304590  -14.263250   15.702370
  C     11.322040  -14.504460   14.312930
  N     11.275000  -14.756550   13.194250
  C     10.007360  -14.382430   16.242630
  N      8.930130  -14.464560   16.630600
  H     -1.197740   -4.220400   -6.084940
  H     -3.186310   -3.203070   -6.574570
  H     -3.533660   -1.764170   -5.608960
  H     -4.399140   -3.260310   -5.289780
  H     -4.614650   -2.681380   -2.962410
  H     -3.770230   -1.176300   -3.295540
  H     -3.628240   -1.930160   -1.702630
  H     -1.599110   -3.024850   -1.291370
  H      3.274060   -6.278110   -3.576450
  H      5.102370   -7.139240   -2.346070
  H      4.066060   -5.674090    2.849540
  H      6.988800   -7.981390   -0.503080
  H      5.896330   -6.566300    4.702840
  H     12.084710  -10.738880    7.583400
  H     10.673930  -10.265810   12.882060
  H     13.684460  -12.147760    9.347840
  H     12.168210  -11.778170   14.628170
  H     15.407840  -13.836840   14.697840
  H     10.456760  -13.740620   18.582280
  H     15.157970  -14.532420   19.945570
  H     13.194860  -13.458740   22.602800
  H     14.538000  -14.535550   22.201090
  H     12.929870  -15.194410   22.523410
  H      9.759130  -13.729140   20.766800
  H     10.927280  -13.055620   21.910790
  H     10.662250  -14.792190   21.851070

 Total Charge           Charge          ....    0
 Multiplicity           Mult            ....    1
 Number of Electrons    NEL             ....  544
 Basis Dimension        Dim             .... 1200

ORBITAL ENERGIES
----------------

  NO   OCC          E(Eh)            E(eV)
   0   2.0000     -89.045893     -2423.0619
   1   2.0000     -88.950546     -2420.4674
   2   2.0000     -88.943710     -2420.2814
   3   2.0000     -88.942959     -2420.2610
   4   2.0000     -88.942849     -2420.2580
   5   2.0000     -24.818689      -675.3509
   6   2.0000     -24.817891      -675.3291
   7   2.0000     -19.216362      -522.9038
   8   2.0000     -19.212864      -522.8086
   9   2.0000     -14.459065      -393.4512
  10   2.0000     -14.456371      -393.3779
  11   2.0000     -14.454074      -393.3153
  12   2.0000     -14.453369      -393.2962
  13   2.0000     -14.414712      -392.2443
  14   2.0000     -14.413812      -392.2198
  15   2.0000     -14.410814      -392.1382
  16   2.0000     -14.410250      -392.1228
  17   2.0000     -10.434919      -283.9486
  18   2.0000     -10.434216      -283.9294
  19   2.0000     -10.365134      -282.0496
  20   2.0000     -10.363626      -282.0086
  21   2.0000     -10.349429      -281.6223
  22   2.0000     -10.348310      -281.5918
  23   2.0000     -10.342672      -281.4384
  24   2.0000     -10.341745      -281.4132
  25   2.0000     -10.341254      -281.3998
  26   2.0000     -10.339652      -281.3562
  27   2.0000     -10.338772      -281.3323
  28   2.0000     -10.337876      -281.3079
  29   2.0000     -10.318039      -280.7681
  30   2.0000     -10.317802      -280.7617
  31   2.0000     -10.317709      -280.7591
  32   2.0000     -10.317556      -280.7550
  33   2.0000     -10.316547      -280.7275
  34   2.0000     -10.316492      -280.7260
  35   2.0000     -10.314173      -280.6629
  36   2.0000     -10.312658      -280.6217
  37   2.0000     -10.311939      -280.6021
  38   2.0000     -10.311655      -280.5944
  39   2.0000     -10.310875      -280.5732
  40   2.0000     -10.310674      -280.5677
  41   2.0000     -10.303077      -280.3610
  42   2.0000     -10.301213      -280.3103
  43   2.0000     -10.298485      -280.2360
  44   2.0000     -10.296970      -280.1948
  45   2.0000     -10.296530      -280.1828
  46   2.0000     -10.296355      -280.1781
  47   2.0000     -10.295064      -280.1429
  48   2.0000     -10.294887      -280.1381
  49   2.0000     -10.294493      -280.1274
  50   2.0000     -10.294447      -280.1262
  51   2.0000     -10.294020      -280.1145
  52   2.0000     -10.292381      -280.0699
  53   2.0000     -10.289212      -279.9837
  54   2.0000     -10.288913      -279.9756
  55   2.0000     -10.288631      -279.9679
  56   2.0000     -10.288257      -279.9577
  57   2.0000     -10.287030      -279.9243
  58   2.0000     -10.286972      -279.9227
  59   2.0000     -10.286308      -279.9047
  60   2.0000     -10.285741      -279.8892
  61   2.0000     -10.284299      -279.8500
  62   2.0000     -10.283205      -279.8202
  63   2.0000     -10.282839      -279.8103
  64   2.0000     -10.282406      -279.7985
  65   2.0000     -10.282132      -279.7910
  66   2.0000     -10.281790      -279.7817
  67   2.0000     -10.281659      -279.7782
  68   2.0000     -10.279215      -279.7117
  69   2.0000     -10.277108      -279.6543
  70   2.0000     -10.275768      -279.6179
  71   2.0000     -10.275609      -279.6135
  72   2.0000     -10.274376      -279.5800
  73   2.0000     -10.273481      -279.5556
  74   2.0000     -10.273388      -279.5531
  75   2.0000      -8.137032      -221.4199
  76   2.0000      -8.046613      -218.9595
  77   2.0000      -8.037846      -218.7209
  78   2.0000      -8.037526      -218.7122
  79   2.0000      -8.037257      -218.7049
  80   2.0000      -6.108110      -166.2101
  81   2.0000      -6.100300      -165.9976
  82   2.0000      -6.099863      -165.9857
  83   2.0000      -6.016234      -163.7101
  84   2.0000      -6.012229      -163.6011
  85   2.0000      -6.007791      -163.4803
  86   2.0000      -6.007597      -163.4750
  87   2.0000      -6.007364      -163.4687
  88   2.0000      -6.007093      -163.4613
  89   2.0000      -6.003195      -163.3553
  90   2.0000      -6.003010      -163.3502
  91   2.0000      -6.002660      -163.3407
  92   2.0000      -5.999114      -163.2442
  93   2.0000      -5.998622      -163.2308
  94   2.0000      -5.998481      -163.2270
  95   2.0000      -1.346303       -36.6348
  96   2.0000      -1.332276       -36.2531
  97   2.0000      -1.143303       -31.1109
  98   2.0000      -1.132185       -30.8083
  99   2.0000      -1.127971       -30.6936
 100   2.0000      -1.117697       -30.4141
 101   2.0000      -1.043164       -28.3859
 102   2.0000      -1.016180       -27.6517
 103   2.0000      -1.015449       -27.6318
 104   2.0000      -1.003345       -27.3024
 105   2.0000      -1.000671       -27.2296
 106   2.0000      -0.995489       -27.0886
 107   2.0000      -0.994224       -27.0542
 108   2.0000      -0.993908       -27.0456
 109   2.0000      -0.990585       -26.9552
 110   2.0000      -0.989990       -26.9390
 111   2.0000      -0.984978       -26.8026
 112   2.0000      -0.973356       -26.4864
 113   2.0000      -0.964130       -26.2353
 114   2.0000      -0.954054       -25.9611
 115   2.0000      -0.952513       -25.9192
 116   2.0000      -0.920932       -25.0598
 117   2.0000      -0.912924       -24.8419
 118   2.0000      -0.902902       -24.5692
 119   2.0000      -0.901999       -24.5446
 120   2.0000      -0.891920       -24.2704
 121   2.0000      -0.888388       -24.1743
 122   2.0000      -0.879960       -23.9449
 123   2.0000      -0.873959       -23.7816
 124   2.0000      -0.872531       -23.7428
 125   2.0000      -0.871596       -23.7173
 126   2.0000      -0.869822       -23.6691
 127   2.0000      -0.866106       -23.5679
 128   2.0000      -0.836874       -22.7725
 129   2.0000      -0.833995       -22.6942
 130   2.0000      -0.832088       -22.6423
 131   2.0000      -0.824483       -22.4353
 132   2.0000      -0.816458       -22.2170
 133   2.0000      -0.808490       -22.0001
 134   2.0000      -0.807215       -21.9654
 135   2.0000      -0.802097       -21.8262
 136   2.0000      -0.789341       -21.4791
 137   2.0000      -0.784728       -21.3535
 138   2.0000      -0.779280       -21.2053
 139   2.0000      -0.766391       -20.8546
 140   2.0000      -0.762792       -20.7566
 141   2.0000      -0.754183       -20.5224
 142   2.0000      -0.752043       -20.4641
 143   2.0000      -0.745400       -20.2834
 144   2.0000      -0.740457       -20.1489
 145   2.0000      -0.723896       -19.6982
 146   2.0000      -0.709737       -19.3129
 147   2.0000      -0.697641       -18.9838
 148   2.0000      -0.690913       -18.8007
 149   2.0000      -0.688426       -18.7330
 150   2.0000      -0.684237       -18.6190
 151   2.0000      -0.682670       -18.5764
 152   2.0000      -0.681653       -18.5487
 153   2.0000      -0.679991       -18.5035
 154   2.0000      -0.674452       -18.3528
 155   2.0000      -0.671138       -18.2626
 156   2.0000      -0.667723       -18.1697
 157   2.0000      -0.660706       -17.9787
 158   2.0000      -0.652545       -17.7566
 159   2.0000      -0.646703       -17.5977
 160   2.0000      -0.642658       -17.4876
 161   2.0000      -0.639559       -17.4033
 162   2.0000      -0.627230       -17.0678
 163   2.0000      -0.625386       -17.0176
 164   2.0000      -0.621639       -16.9157
 165   2.0000      -0.616436       -16.7741
 166   2.0000      -0.613943       -16.7062
 167   2.0000      -0.609321       -16.5805
 168   2.0000      -0.606432       -16.5018
 169   2.0000      -0.600866       -16.3504
 170   2.0000      -0.593448       -16.1485
 171   2.0000      -0.585501       -15.9323
 172   2.0000      -0.578884       -15.7522
 173   2.0000      -0.573562       -15.6074
 174   2.0000      -0.570599       -15.5268
 175   2.0000      -0.568823       -15.4785
 176   2.0000      -0.567948       -15.4546
 177   2.0000      -0.562815       -15.3150
 178   2.0000      -0.560250       -15.2452
 179   2.0000      -0.556747       -15.1499
 180   2.0000      -0.551702       -15.0126
 181   2.0000      -0.546036       -14.8584
 182   2.0000      -0.542965       -14.7748
 183   2.0000      -0.540110       -14.6971
 184   2.0000      -0.539153       -14.6711
 185   2.0000      -0.535171       -14.5627
 186   2.0000      -0.533257       -14.5107
 187   2.0000      -0.531307       -14.4576
 188   2.0000      -0.529670       -14.4131
 189   2.0000      -0.524915       -14.2837
 190   2.0000      -0.524546       -14.2736
 191   2.0000      -0.523995       -14.2586
 192   2.0000      -0.522752       -14.2248
 193   2.0000      -0.522581       -14.2202
 194   2.0000      -0.520338       -14.1591
 195   2.0000      -0.518694       -14.1144
 196   2.0000      -0.515680       -14.0324
 197   2.0000      -0.514174       -13.9914
 198   2.0000      -0.509139       -13.8544
 199   2.0000      -0.506957       -13.7950
 200   2.0000      -0.504903       -13.7391
 201   2.0000      -0.502999       -13.6873
 202   2.0000      -0.499096       -13.5811
 203   2.0000      -0.497003       -13.5241
 204   2.0000      -0.493319       -13.4239
 205   2.0000      -0.490711       -13.3529
 206   2.0000      -0.488947       -13.3049
 207   2.0000      -0.487584       -13.2678
 208   2.0000      -0.487251       -13.2588
 209   2.0000      -0.484782       -13.1916
 210   2.0000      -0.483456       -13.1555
 211   2.0000      -0.479553       -13.0493
 212   2.0000      -0.476286       -12.9604
 213   2.0000      -0.475772       -12.9464
 214   2.0000      -0.474978       -12.9248
 215   2.0000      -0.472733       -12.8637
 216   2.0000      -0.470994       -12.8164
 217   2.0000      -0.468978       -12.7616
 218   2.0000      -0.466666       -12.6986
 219   2.0000      -0.456795       -12.4300
 220   2.0000      -0.453686       -12.3454
 221   2.0000      -0.450550       -12.2601
 222   2.0000      -0.449419       -12.2293
 223   2.0000      -0.447007       -12.1637
 224   2.0000      -0.446660       -12.1542
 225   2.0000      -0.444149       -12.0859
 226   2.0000      -0.443783       -12.0760
 227   2.0000      -0.443481       -12.0677
 228   2.0000      -0.442193       -12.0327
 229   2.0000      -0.441367       -12.0102
 230   2.0000      -0.439412       -11.9570
 231   2.0000      -0.439197       -11.9512
 232   2.0000      -0.438055       -11.9201
 233   2.0000      -0.437301       -11.8996
 234   2.0000      -0.436554       -11.8792
 235   2.0000      -0.434178       -11.8146
 236   2.0000      -0.429338       -11.6829
 237   2.0000      -0.425587       -11.5808
 238   2.0000      -0.423989       -11.5373
 239   2.0000      -0.423620       -11.5273
 240   2.0000      -0.420064       -11.4305
 241   2.0000      -0.417592       -11.3633
 242   2.0000      -0.415600       -11.3091
 243   2.0000      -0.412052       -11.2125
 244   2.0000      -0.411558       -11.1991
 245   2.0000      -0.404205       -10.9990
 246   2.0000      -0.402688       -10.9577
 247   2.0000      -0.398587       -10.8461
 248   2.0000      -0.395786       -10.7699
 249   2.0000      -0.388127       -10.5615
 250   2.0000      -0.385554       -10.4914
 251   2.0000      -0.380744       -10.3606
 252   2.0000      -0.375974       -10.2308
 253   2.0000      -0.374762       -10.1978
 254   2.0000      -0.362315        -9.8591
 255   2.0000      -0.356725        -9.7070
 256   2.0000      -0.350603        -9.5404
 257   2.0000      -0.345478        -9.4009
 258   2.0000      -0.343917        -9.3585
 259   2.0000      -0.335701        -9.1349
 260   2.0000      -0.334463        -9.1012
 261   2.0000      -0.329988        -8.9794
 262   2.0000      -0.328593        -8.9415
 263   2.0000      -0.328049        -8.9267
 264   2.0000      -0.319323        -8.6892
 265   2.0000      -0.307652        -8.3716
 266   2.0000      -0.305930        -8.3248
 267   2.0000      -0.295783        -8.0487
 268   2.0000      -0.283709        -7.7201
 269   2.0000      -0.273771        -7.4497
 270   2.0000      -0.258640        -7.0380
 271   2.0000      -0.238271        -6.4837
 272   0.0000      -0.117866        -3.2073
 273   0.0000      -0.084825        -2.3082
 274   0.0000      -0.082639        -2.2487
 275   0.0000      -0.057159        -1.5554
 276   0.0000      -0.055280        -1.5042

MULLIKEN ATOMIC CHARGES
-----------------------
   0 C :   -0.080823
   1 C :   -0.079636
   2 C :    0.114640
   3 C :   -0.075830
   4 C :    0.120755
   5 C :   -0.079081
   6 C :   -0.011747
   7 C :    0.038091
   8 C :    0.335720
   9 C :   -0.359802
  10 C :   -0.182177
  11 N :    0.145290
  12 C :   -0.186940
  13 N :    0.145231
  14 C :   -0.086858
  15 C :    0.163402
  16 O :   -0.160284
  17 C :   -0.025997
  18 C :   -0.043313
  19 C :   -0.033552
  20 C :    0.131772
  21 C :   -0.036290
  22 S :    0.164508
  23 C :   -0.057799
  24 C :    0.135432
  25 C :   -0.017295
  26 C :   -0.052378
  27 S :    0.129721
  28 C :   -0.156204
  29 C :   -0.041102
  30 C :    0.207430
  31 C :   -0.068329
  32 C :   -0.065637
  33 N :   -0.031340
  34 C :    0.152303
  35 C :    0.141803
  36 N :    0.001720
  37 F :   -0.142018
  38 F :   -0.134964
  39 C :    0.186661
  40 C :   -0.001703
  41 C :   -0.030844
  42 N :   -0.316303
  43 S :    0.557440
  44 N :   -0.294149
  45 C :   -0.153275
  46 C :   -0.037451
  47 C :    0.130070
  48 C :   -0.018729
  49 S :    0.133377
  50 C :   -0.050937
  51 C :    0.095040
  52 C :   -0.024519
  53 C :   -0.050840
  54 S :    0.132179
  55 C :   -0.107475
  56 C :    0.017579
  57 C :    0.084009
  58 C :   -0.121560
  59 C :    0.134360
  60 O :   -0.140397
  61 C :    0.004568
  62 C :    0.023795
  63 C :   -0.074486
  64 C :   -0.081070
  65 C :   -0.077482
  66 C :   -0.075902
  67 C :    0.114965
  68 C :    0.113346
  69 C :    0.262681
  70 C :   -0.336447
  71 C :   -0.201793
  72 N :    0.181487
  73 C :   -0.176623
  74 N :    0.151181
  75 H :   -0.014582
  76 H :    0.025579
  77 H :    0.027993
  78 H :    0.025448
  79 H :    0.028221
  80 H :    0.026549
  81 H :    0.016353
  82 H :   -0.018561
  83 H :    0.006903
  84 H :   -0.001471
  85 H :   -0.028606
  86 H :   -0.030146
  87 H :   -0.006691
  88 H :   -0.009739
  89 H :   -0.031659
  90 H :   -0.029720
  91 H :   -0.007456
  92 H :    0.025898
  93 H :   -0.011237
  94 H :   -0.016867
  95 H :    0.027102
  96 H :    0.017805
  97 H :    0.029234
  98 H :    0.024111
  99 H :    0.027589
 100 H :    0.028767
Sum of atomic charges:   -0.0000000

LOEWDIN ATOMIC CHARGES
----------------------
   0 C :   -0.005141
   1 C :   -0.003691
   2 C :   -0.041851
   3 C :   -0.006107
   4 C :   -0.042458
   5 C :    0.007394
   6 C :   -0.047445
   7 C :   -0.018240
   8 C :    0.079834
   9 C :   -0.142134
  10 C :   -0.016762
  11 N :   -0.056408
  12 C :   -0.020850
  13 N :   -0.054701
  14 C :   -0.101233
  15 C :    0.083772
  16 O :   -0.152937
  17 C :    0.056701
  18 C :   -0.171763
  19 C :   -0.008770
  20 C :   -0.052318
  21 C :   -0.156634
  22 S :    0.451463
  23 C :   -0.032399
  24 C :   -0.038688
  25 C :   -0.157949
  26 C :   -0.027124
  27 S :    0.420397
  28 C :   -0.148098
  29 C :   -0.032351
  30 C :   -0.038921
  31 C :   -0.005224
  32 C :   -0.011309
  33 N :   -0.047087
  34 C :    0.061546
  35 C :    0.061254
  36 N :   -0.029980
  37 F :   -0.030349
  38 F :   -0.024657
  39 C :   -0.035280
  40 C :   -0.037010
  41 C :   -0.044963
  42 N :   -0.292810
  43 S :    0.679868
  44 N :   -0.279610
  45 C :   -0.153120
  46 C :   -0.029792
  47 C :   -0.041178
  48 C :   -0.156861
  49 S :    0.424169
  50 C :   -0.027582
  51 C :   -0.041059
  52 C :   -0.144377
  53 C :   -0.029429
  54 S :    0.410241
  55 C :   -0.169229
  56 C :   -0.015871
  57 C :    0.048266
  58 C :   -0.083022
  59 C :    0.083660
  60 O :   -0.140546
  61 C :   -0.050123
  62 C :   -0.015644
  63 C :   -0.008142
  64 C :   -0.002424
  65 C :   -0.007243
  66 C :    0.008034
  67 C :   -0.042740
  68 C :   -0.042009
  69 C :    0.066840
  70 C :   -0.136681
  71 C :   -0.020899
  72 N :   -0.037942
  73 C :   -0.019231
  74 N :   -0.053658
  75 H :    0.036083
  76 H :    0.036006
  77 H :    0.038226
  78 H :    0.037557
  79 H :    0.038673
  80 H :    0.038132
  81 H :    0.033040
  82 H :    0.035831
  83 H :    0.049823
  84 H :    0.037112
  85 H :    0.031664
  86 H :    0.031229
  87 H :    0.029163
  88 H :    0.029077
  89 H :    0.031226
  90 H :    0.031816
  91 H :    0.032650
  92 H :    0.046639
  93 H :    0.035653
  94 H :    0.036317
  95 H :    0.038091
  96 H :    0.033292
  97 H :    0.038784
  98 H :    0.035677
  99 H :    0.037866
 100 H :    0.038988

  Mayer bond orders larger than 0.100000
B(  0-C ,  1-C ) :   1.3782 B(  0-C ,  7-C ) :   1.3446 B(  0-C , 75-H ) :   0.9839
B(  1-C ,  2-C ) :   1.0938 B(  1-C ,  3-C ) :   1.3744 B(  2-C , 76-H ) :   0.9512
B(  2-C , 77-H ) :   0.9400 B(  2-C , 78-H ) :   0.9399 B(  3-C ,  4-C ) :   1.0939
B(  3-C ,  5-C ) :   1.3479 B(  4-C , 79-H ) :   0.9399 B(  4-C , 80-H ) :   0.9396
B(  4-C , 81-H ) :   0.9512 B(  5-C ,  6-C ) :   1.3589 B(  5-C , 82-H ) :   1.0107
B(  6-C ,  7-C ) :   1.3350 B(  6-C , 15-C ) :   0.9582 B(  7-C ,  8-C ) :   0.9861
B(  8-C ,  9-C ) :   1.6231 B(  8-C , 14-C ) :   1.0687 B(  9-C , 10-C ) :   1.1475
B(  9-C , 12-C ) :   1.1429 B( 10-C , 11-N ) :   2.9638 B( 12-C , 13-N ) :   2.9588
B( 14-C , 15-C ) :   0.9441 B( 14-C , 17-C ) :   1.5465 B( 15-C , 16-O ) :   2.1708
B( 17-C , 18-C ) :   1.2122 B( 17-C , 83-H ) :   0.9402 B( 18-C , 19-C ) :   1.4398
B( 18-C , 22-S ) :   1.0735 B( 19-C , 20-C ) :   1.1816 B( 19-C , 84-H ) :   1.0108
B( 20-C , 21-C ) :   1.2488 B( 20-C , 26-C ) :   1.2774 B( 21-C , 22-S ) :   1.0151
B( 21-C , 23-C ) :   1.3792 B( 23-C , 24-C ) :   1.3108 B( 23-C , 26-C ) :   0.1010
B( 23-C , 85-H ) :   1.0039 B( 24-C , 25-C ) :   1.2472 B( 24-C , 29-C ) :   1.1346
B( 25-C , 26-C ) :   1.4171 B( 25-C , 27-S ) :   1.0019 B( 26-C , 86-H ) :   1.0034
B( 27-S , 28-C ) :   1.0801 B( 28-C , 29-C ) :   1.5214 B( 28-C , 30-C ) :   1.1610
B( 29-C , 87-H ) :   0.9923 B( 30-C , 31-C ) :   1.3080 B( 30-C , 39-C ) :   0.1275
B( 30-C , 41-C ) :   1.1929 B( 31-C , 32-C ) :   1.1113 B( 31-C , 36-N ) :   1.4232
B( 32-C , 33-N ) :   1.3855 B( 32-C , 39-C ) :   1.3014 B( 33-N , 34-C ) :   1.6611
B( 34-C , 35-C ) :   1.1024 B( 34-C , 38-F ) :   1.1875 B( 35-C , 36-N ) :   1.6732
B( 35-C , 37-F ) :   1.1719 B( 39-C , 40-C ) :   1.2105 B( 39-C , 45-C ) :   1.1645
B( 40-C , 41-C ) :   1.1101 B( 40-C , 44-N ) :   1.4989 B( 41-C , 42-N ) :   1.4740
B( 42-N , 43-S ) :   1.2820 B( 42-N , 44-N ) :   0.1543 B( 43-S , 44-N ) :   1.2818
B( 45-C , 46-C ) :   1.5321 B( 45-C , 49-S ) :   1.0721 B( 46-C , 47-C ) :   1.1385
B( 46-C , 88-H ) :   0.9869 B( 47-C , 48-C ) :   1.2635 B( 47-C , 53-C ) :   1.3090
B( 48-C , 49-S ) :   0.9986 B( 48-C , 50-C ) :   1.4021 B( 50-C , 51-C ) :   1.3019
B( 50-C , 53-C ) :   0.1009 B( 50-C , 89-H ) :   1.0010 B( 51-C , 52-C ) :   1.2741
B( 51-C , 56-C ) :   1.1897 B( 52-C , 53-C ) :   1.3885 B( 52-C , 54-S ) :   1.0476
B( 53-C , 90-H ) :   1.0010 B( 54-S , 55-C ) :   1.0713 B( 55-C , 56-C ) :   1.5312
B( 55-C , 57-C ) :   1.0806 B( 56-C , 91-H ) :   0.9955 B( 57-C , 58-C ) :   1.7224
B( 57-C , 92-H ) :   0.9310 B( 58-C , 59-C ) :   0.9301 B( 58-C , 69-C ) :   1.0198
B( 59-C , 60-O ) :   2.2719 B( 59-C , 61-C ) :   0.9230 B( 61-C , 62-C ) :   1.3337
B( 61-C , 66-C ) :   1.3619 B( 62-C , 63-C ) :   1.3501 B( 62-C , 69-C ) :   1.0041
B( 63-C , 64-C ) :   1.3777 B( 63-C , 93-H ) :   0.9868 B( 64-C , 65-C ) :   1.3733
B( 64-C , 68-C ) :   1.0932 B( 65-C , 66-C ) :   1.3575 B( 65-C , 67-C ) :   1.0935
B( 66-C , 94-H ) :   1.0095 B( 67-C , 95-H ) :   0.9405 B( 67-C , 96-H ) :   0.9518
B( 67-C , 97-H ) :   0.9407 B( 68-C , 98-H ) :   0.9512 B( 68-C , 99-H ) :   0.9413
B( 68-C ,100-H ) :   0.9394 B( 69-C , 70-C ) :   1.6611 B( 70-C , 71-C ) :   1.1602
B( 70-C , 73-C ) :   1.1294 B( 71-C , 72-N ) :   3.0132 B( 73-C , 74-N ) :   2.9882

-----------------------------------------------------------------------------
         ABSORPTION SPECTRUM VIA TRANSITION ELECTRIC DIPOLE MOMENTS
-----------------------------------------------------------------------------
State   Energy  Wavelength   fosc         T2         TX        TY        TZ
        (cm-1)    (nm)                  (au**2)     (au)      (au)      (au)
-----------------------------------------------------------------------------
   0   11420.1    875.6   1.105750708  31.87588   3.04321  -2.11167   4.26094
   1   15882.8    629.6   0.009244886   0.19162  -0.13062  -0.35930   0.21322
   2   18082.0    553.0   0.124621499   2.26893   0.38948  -0.23381   1.43616
   3   19663.2    508.6   0.322094009   5.39267   0.39115  -1.30816   1.87840
   4   20453.8    488.9   0.601390420   9.67963  -2.14763   0.75801  -2.11961
   5   21897.5    456.7   0.024441502   0.36746  -0.48066  -0.24921  -0.27261
   6   24831.6    402.7   0.435924111   5.77938  -0.47689   0.70703  -2.24768
   7   25048.0    399.2   0.152519456   2.00460   0.91689  -0.08755   1.07529
   8   25798.2    387.6   0.119766765   1.52835   0.89319  -0.63055   0.57703
   9   25941.1    385.5   0.018520695   0.23504   0.30955  -0.01815  -0.37268
  10   26685.7    374.7   0.132079988   1.62943   0.84732  -0.66199   0.68793
  11   27691.0    361.1   0.003832711   0.04557  -0.08684  -0.14176   0.13390
  12   28475.7    351.2   0.060279910   0.69690  -0.72630  -0.36264   0.19464
  13   28739.0    348.0   0.053382988   0.61151   0.23679  -0.22193   0.71147
  14   28869.1    346.4   0.000814358   0.00929   0.00515  -0.07373   0.06184
  15   29093.9    343.7   0.053590676   0.60641  -0.38969  -0.17431  -0.65128
  16   29457.9    339.5   0.218752416   2.44470   0.45609  -0.34480   1.45526
  17   29773.8    335.9   0.008480854   0.09377   0.27735  -0.08566  -0.09754
  18   29904.4    334.4   0.154038022   1.69578   1.04624  -0.68498  -0.36326
  19   30444.3    328.5   0.006109113   0.06606   0.09123  -0.09983  -0.21857
  20   30615.4    326.6   0.136782212   1.47084  -0.61673   0.53168   0.89877
  21   31145.4    321.1   0.064136372   0.67793   0.06125   0.07223   0.81790
  22   31386.3    318.6   0.200550935   2.10359  -1.11883   0.54414  -0.74546
  23   31657.5    315.9   0.000201240   0.00209   0.02998   0.02892  -0.01891
  24   31782.3    314.6   0.162563176   1.68389   0.82387  -0.45419   0.89378
  25   32384.4    308.8   0.166643490   1.69406   0.49031  -0.31743   1.16314
  26   32516.7    307.5   0.051760836   0.52405  -0.70340  -0.02827  -0.16876
  27   32813.8    304.8   0.047692851   0.47849   0.42237  -0.15015   0.52683
  28   32917.2    303.8   0.009217963   0.09219  -0.20195   0.06316  -0.21776
  29   33101.0    302.1   0.060327131   0.59999   0.26435  -0.09361   0.72205
  30   33435.9    299.1   0.016200563   0.15951  -0.27074   0.28113  -0.08472
  31   33942.7    294.6   0.010728415   0.10406  -0.10138   0.14757  -0.26833
  32   34408.2    290.6   0.048421934   0.46329   0.13622  -0.10866  -0.65797
  33   34529.1    289.6   0.029739284   0.28354  -0.41840   0.14914  -0.29368
  34   34696.9    288.2   0.149765226   1.42101   1.07600  -0.49784  -0.12403
  35   34918.2    286.4   0.502289076   4.73562   1.20929  -1.07781  -1.45313
  36   35425.9    282.3   0.092727598   0.86172   0.39451   0.05631   0.83840
  37   35748.8    279.7   0.244112930   2.24805  -0.84166   0.59969  -1.08629
  38   35836.1    279.0   0.026343604   0.24201  -0.03984  -0.00239  -0.49032
  39   36105.2    277.0   0.081552427   0.74361   0.53193  -0.27379   0.62104
  40   36329.6    275.3   0.213960432   1.93887   1.11386  -0.82923   0.10274
  41   36738.8    272.2   0.153561947   1.37605   0.30947  -0.47809  -1.02553
  42   36843.4    271.4   0.023239062   0.20765   0.04508  -0.20291  -0.40552
  43   37007.7    270.2   0.286932993   2.55249  -0.74355   0.72414   1.21460
  44   37077.7    269.7   0.010357881   0.09197  -0.20622   0.11425   0.19076
  45   37209.3    268.7   0.049322749   0.43639  -0.40204   0.16055  -0.49897
  46   37306.6    268.0   0.307090146   2.70992   0.68579   0.22727   1.47917
  47   37591.2    266.0   0.293893214   2.57383   1.47983  -0.56052  -0.26407
  48   38120.5    262.3   0.078907267   0.68145  -0.51960   0.64001  -0.04307
  49   38472.7    259.9   0.007577325   0.06484  -0.03431  -0.17682  -0.17999
  50   38903.4    257.0   0.011035585   0.09339   0.20546  -0.06297  -0.21727
  51   39356.5    254.1   0.015940463   0.13334  -0.15176   0.06952  -0.32477
  52   39412.3    253.7   0.056559691   0.47244  -0.40689   0.11982   0.54086
  53   39614.2    252.4   0.003893544   0.03236  -0.02360  -0.09015   0.15386
  54   39634.6    252.3   0.001284584   0.01067   0.05969   0.06046   0.05874
  55   39836.6    251.0   0.158488776   1.30976   0.31581  -0.28155  -1.06337
  56   40026.5    249.8   0.192092708   1.57994  -0.89648   0.24384  -0.84664
  57   40200.6    248.8   0.017369588   0.14224   0.37296  -0.04678  -0.03089

FINAL SINGLE POINT ENERGY     -5000.517807557080

DIPOLE MOMENT
-------------
                                X             Y             Z
Electronic contribution:     33.33146      -0.44135     -19.50288
Nuclear contribution   :    -33.49962       1.99732      22.18812
                        -----------------------------------------
Total Dipole Moment    :     -0.16816       1.55597       2.68524
                        -----------------------------------------
Magnitude (a.u.)       :      3.10803
Magnitude (Debye)      :      7.89997

Rotational constants in cm-1:     0.002470     0.000160     0.000153
Rotational constants in MHz :    74.042915     4.786537     4.595808

                             ****ORCA TERMINATED NORMALLY****
TOTAL RUN TIME: 0 days 0 hours 13 minutes 20 seconds 932 msec
