                         Program Version 4.2.0 -  RELEASE  -
|  1> # ORCA input file
|  2> # SCF done       -216.263853440248          0.000781008105
|  3> ! CAM-B3LYP def2-SVP def2/J RIJCOSX Grid4 TightSCF
|  4> %maxcore 5000
|  5> %tddft
|  6>     Mode sTDDFT
|  7>     Ethresh 5.0
|  8>     maxcore 5000
|  9> end
| 10>
| 11> %pal
| 12>   nprocs 6
| 13>   end
| 14> * xyz 0 1
| 15>    C       -7.04525         1.73196        -3.94367
| 16>    C       -7.12959         2.01873        -5.27728
| 17>    F       -7.01303         3.28369        -5.70298
| 18>    C       -7.33890         0.99215        -6.21973
| 19>    F       -7.41853         1.30228        -7.52113
| 20>    C       -7.45937        -0.30793        -5.81548
| 21>    C       -7.37543        -0.63540        -4.44845
| 22>    C       -7.16591         0.40163        -3.49410
| 23>    C       -7.07849         0.09745        -2.11588
| 24>    C       -7.19370        -1.20422        -1.70468
| 25>    C       -7.39812        -2.23236        -2.66623
| 26>    C       -7.49090        -1.97069        -4.00225
| 27>    C       -7.47145        -3.53305        -1.97554
| 28>    O       -7.65881        -4.61480        -2.50103
| 29>    C       -7.27003        -3.24891        -0.54837
| 30>    C       -7.13943        -1.81384        -0.37685
| 31>    C       -7.00691        -1.12270         0.79971
| 32>    C       -6.97814        -1.68510         2.09324
| 33>    N       -6.95536        -2.05437         3.18070
| 34>    C       -6.89135         0.28131         0.88100
| 35>    N       -6.79183         1.41682         1.01748
| 36>    C       -7.17100        -4.18607         0.44787
| 37>    C       -7.24914        -5.58668         0.39189
| 38>    C       -7.04093        -6.38763         1.51443
| 39>    C       -7.12088        -7.75255         1.27256
| 40>    C       -6.89592        -8.76949         2.30608
| 41>    C       -7.70272        -8.78086         3.45015
| 42>    C       -7.49978        -9.75159         4.42471
| 43>    C       -6.49845       -10.68850         4.25418
| 44>    C       -5.68113       -10.67768         3.13893
| 45>    C       -5.87164        -9.71252         2.15814
| 46>    O       -5.10482        -9.58062         1.04062
| 47>    C       -4.13494       -10.56394         0.77630
| 48>    O       -8.66673        -7.82014         3.50102
| 49>    C       -9.53694        -7.79796         4.60730
| 50>    C       -7.43691        -8.01745        -0.06267
| 51>    S       -7.58009        -6.57578        -1.00351
| 52>    C       -7.66294        -9.29595        -0.67152
| 53>    C       -8.01115        -9.43166        -2.03281
| 54>    N       -8.01381       -10.59456        -2.63356
| 55>    C       -7.74840       -11.68761        -1.90490
| 56>    C       -7.62605       -11.56718        -0.50883
| 57>    N       -7.55596       -10.40002         0.07622
| 58>    C       -7.62858       -12.94463        -2.58566
| 59>    C       -8.08295       -13.26719        -3.84553
| 60>    C       -7.79077       -14.57879        -4.22449
| 61>    C       -8.15491       -15.14437        -5.52913
| 62>    C       -9.50817       -15.23241        -5.88346
| 63>    C       -9.86144       -15.78454        -7.11010
| 64>    C       -8.87359       -16.23167        -7.96721
| 65>    C       -7.53383       -16.13338        -7.64055
| 66>    C       -7.16440       -15.58054        -6.41992
| 67>    O       -5.87960       -15.39564        -6.00895
| 68>    C       -4.83683       -15.93416        -6.78861
| 69>    O      -10.38656       -14.77801        -4.95349
| 70>    C      -11.76578       -14.90534        -5.20558
| 71>    C       -7.11681       -15.29473        -3.22804
| 72>    S       -6.83367       -14.28201        -1.83578
| 73>    C       -6.61802       -16.60102        -3.36295
| 74>    C       -5.88390       -17.36900        -2.50336
| 75>    C       -4.96816       -18.38514        -3.07815
| 76>    O       -4.98618       -18.83663        -4.20163
| 77>    C       -3.97603       -18.65072        -2.01242
| 78>    C       -2.83449       -19.39609        -2.06736
| 79>    C       -2.00184       -19.46305        -0.92691
| 80>    C       -2.37203       -18.75522         0.25315
| 81>    C       -1.52931       -18.81565         1.38089
| 82>    C       -0.37396       -19.54439         1.33987
| 83>    C       -0.00976       -20.24542         0.17342
| 84>    C       -0.80656       -20.20781        -0.93638
| 85>    F        1.13052       -20.95049         0.15998
| 86>    F        0.42739       -19.59710         2.41299
| 87>    C       -3.56915       -18.00307         0.28572
| 88>    C       -4.35837       -17.95360        -0.83058
| 89>    C       -5.63460       -17.28972        -1.08481
| 90>    C       -6.54397       -16.92242        -0.12653
| 91>    C       -7.88749       -16.62022        -0.43174
| 92>    N       -9.00176       -16.43782        -0.63837
| 93>    C       -6.26525       -16.91303         1.25298
| 94>    N       -6.06979       -16.86488         2.38361
| 95>    H       -6.88520         2.52981        -3.23532
| 96>    H       -7.61878        -1.08244        -6.54929
| 97>    H       -6.91867         0.90631        -1.42184
| 98>    H       -7.64701        -2.77195        -4.70836
| 99>    H       -6.98088        -3.81694         1.44872
|100>    H       -6.81939        -5.97161         2.48131
|101>    H       -8.11445        -9.78883         5.30882
|102>    H       -6.34858       -11.44424         5.01032
|103>    H       -4.90712       -11.42123         3.04538
|104>    H       -4.58420       -11.55944         0.70035
|105>    H       -3.35107       -10.57399         1.54055
|106>    H       -3.69516       -10.29372        -0.18300
|107>    H      -10.21293        -6.96272         4.43045
|108>    H       -8.99478        -7.63056         5.54334
|109>    H      -10.11688        -8.72312         4.68161
|110>    H       -8.26374        -8.57292        -2.64004
|111>    H       -7.58578       -12.43783         0.13329
|112>    H       -8.60289       -12.55964        -4.46400
|113>    H      -10.89495       -15.87187        -7.40132
|114>    H       -9.15416       -16.66423        -8.91553
|115>    H       -6.79067       -16.48500        -8.33641
|116>    H       -3.92090       -15.70183        -6.24773
|117>    H       -4.79576       -15.47557        -7.78115
|118>    H       -4.93155       -17.01980        -6.88448
|119>    H      -12.05318       -15.95169        -5.34633
|120>    H      -12.07111       -14.32097        -6.07951
|121>    H      -12.26057       -14.51304        -4.31869
|122>    H       -6.70843       -17.01859        -4.35955
|123>    H       -2.56582       -19.92523        -2.96894
|124>    H       -1.79538       -18.28773         2.28328
|125>    H       -0.51332       -20.74998        -1.82170
|126>    H       -3.82657       -17.47183         1.18839
|127> *
|128>
|129>                          ****END OF INPUT****

CARTESIAN COORDINATES (ANGSTROEM)
---------------------------------
  C     -7.045250    1.731960   -3.943670
  C     -7.129590    2.018730   -5.277280
  F     -7.013030    3.283690   -5.702980
  C     -7.338900    0.992150   -6.219730
  F     -7.418530    1.302280   -7.521130
  C     -7.459370   -0.307930   -5.815480
  C     -7.375430   -0.635400   -4.448450
  C     -7.165910    0.401630   -3.494100
  C     -7.078490    0.097450   -2.115880
  C     -7.193700   -1.204220   -1.704680
  C     -7.398120   -2.232360   -2.666230
  C     -7.490900   -1.970690   -4.002250
  C     -7.471450   -3.533050   -1.975540
  O     -7.658810   -4.614800   -2.501030
  C     -7.270030   -3.248910   -0.548370
  C     -7.139430   -1.813840   -0.376850
  C     -7.006910   -1.122700    0.799710
  C     -6.978140   -1.685100    2.093240
  N     -6.955360   -2.054370    3.180700
  C     -6.891350    0.281310    0.881000
  N     -6.791830    1.416820    1.017480
  C     -7.171000   -4.186070    0.447870
  C     -7.249140   -5.586680    0.391890
  C     -7.040930   -6.387630    1.514430
  C     -7.120880   -7.752550    1.272560
  C     -6.895920   -8.769490    2.306080
  C     -7.702720   -8.780860    3.450150
  C     -7.499780   -9.751590    4.424710
  C     -6.498450  -10.688500    4.254180
  C     -5.681130  -10.677680    3.138930
  C     -5.871640   -9.712520    2.158140
  O     -5.104820   -9.580620    1.040620
  C     -4.134940  -10.563940    0.776300
  O     -8.666730   -7.820140    3.501020
  C     -9.536940   -7.797960    4.607300
  C     -7.436910   -8.017450   -0.062670
  S     -7.580090   -6.575780   -1.003510
  C     -7.662940   -9.295950   -0.671520
  C     -8.011150   -9.431660   -2.032810
  N     -8.013810  -10.594560   -2.633560
  C     -7.748400  -11.687610   -1.904900
  C     -7.626050  -11.567180   -0.508830
  N     -7.555960  -10.400020    0.076220
  C     -7.628580  -12.944630   -2.585660
  C     -8.082950  -13.267190   -3.845530
  C     -7.790770  -14.578790   -4.224490
  C     -8.154910  -15.144370   -5.529130
  C     -9.508170  -15.232410   -5.883460
  C     -9.861440  -15.784540   -7.110100
  C     -8.873590  -16.231670   -7.967210
  C     -7.533830  -16.133380   -7.640550
  C     -7.164400  -15.580540   -6.419920
  O     -5.879600  -15.395640   -6.008950
  C     -4.836830  -15.934160   -6.788610
  O    -10.386560  -14.778010   -4.953490
  C    -11.765780  -14.905340   -5.205580
  C     -7.116810  -15.294730   -3.228040
  S     -6.833670  -14.282010   -1.835780
  C     -6.618020  -16.601020   -3.362950
  C     -5.883900  -17.369000   -2.503360
  C     -4.968160  -18.385140   -3.078150
  O     -4.986180  -18.836630   -4.201630
  C     -3.976030  -18.650720   -2.012420
  C     -2.834490  -19.396090   -2.067360
  C     -2.001840  -19.463050   -0.926910
  C     -2.372030  -18.755220    0.253150
  C     -1.529310  -18.815650    1.380890
  C     -0.373960  -19.544390    1.339870
  C     -0.009760  -20.245420    0.173420
  C     -0.806560  -20.207810   -0.936380
  F      1.130520  -20.950490    0.159980
  F      0.427390  -19.597100    2.412990
  C     -3.569150  -18.003070    0.285720
  C     -4.358370  -17.953600   -0.830580
  C     -5.634600  -17.289720   -1.084810
  C     -6.543970  -16.922420   -0.126530
  C     -7.887490  -16.620220   -0.431740
  N     -9.001760  -16.437820   -0.638370
  C     -6.265250  -16.913030    1.252980
  N     -6.069790  -16.864880    2.383610
  H     -6.885200    2.529810   -3.235320
  H     -7.618780   -1.082440   -6.549290
  H     -6.918670    0.906310   -1.421840
  H     -7.647010   -2.771950   -4.708360
  H     -6.980880   -3.816940    1.448720
  H     -6.819390   -5.971610    2.481310
  H     -8.114450   -9.788830    5.308820
  H     -6.348580  -11.444240    5.010320
  H     -4.907120  -11.421230    3.045380
  H     -4.584200  -11.559440    0.700350
  H     -3.351070  -10.573990    1.540550
  H     -3.695160  -10.293720   -0.183000
  H    -10.212930   -6.962720    4.430450
  H     -8.994780   -7.630560    5.543340
  H    -10.116880   -8.723120    4.681610
  H     -8.263740   -8.572920   -2.640040
  H     -7.585780  -12.437830    0.133290
  H     -8.602890  -12.559640   -4.464000
  H    -10.894950  -15.871870   -7.401320
  H     -9.154160  -16.664230   -8.915530
  H     -6.790670  -16.485000   -8.336410
  H     -3.920900  -15.701830   -6.247730
  H     -4.795760  -15.475570   -7.781150
  H     -4.931550  -17.019800   -6.884480
  H    -12.053180  -15.951690   -5.346330
  H    -12.071110  -14.320970   -6.079510
  H    -12.260570  -14.513040   -4.318690
  H     -6.708430  -17.018590   -4.359550
  H     -2.565820  -19.925230   -2.968940
  H     -1.795380  -18.287730    2.283280
  H     -0.513320  -20.749980   -1.821700
  H     -3.826570  -17.471830    1.188390

 Total Charge           Charge          ....    0
 Multiplicity           Mult            ....    1
 Number of Electrons    NEL             ....  562
 Basis Dimension        Dim             .... 1288

ORBITAL ENERGIES
----------------

  NO   OCC          E(Eh)            E(eV)
   0   2.0000     -88.967438     -2420.9271
   1   2.0000     -88.961262     -2420.7590
   2   2.0000     -24.797219      -674.7666
   3   2.0000     -24.796920      -674.7585
   4   2.0000     -24.796260      -674.7405
   5   2.0000     -24.796094      -674.7360
   6   2.0000     -19.250325      -523.8280
   7   2.0000     -19.249405      -523.8029
   8   2.0000     -19.241433      -523.5860
   9   2.0000     -19.241351      -523.5838
  10   2.0000     -19.219610      -522.9922
  11   2.0000     -19.211652      -522.7756
  12   2.0000     -14.428699      -392.6249
  13   2.0000     -14.424702      -392.5161
  14   2.0000     -14.415575      -392.2677
  15   2.0000     -14.414538      -392.2395
  16   2.0000     -14.412702      -392.1896
  17   2.0000     -14.408883      -392.0856
  18   2.0000     -10.380198      -282.4596
  19   2.0000     -10.379692      -282.4458
  20   2.0000     -10.379317      -282.4356
  21   2.0000     -10.379306      -282.4353
  22   2.0000     -10.368326      -282.1365
  23   2.0000     -10.364054      -282.0203
  24   2.0000     -10.340460      -281.3782
  25   2.0000     -10.339849      -281.3616
  26   2.0000     -10.339614      -281.3552
  27   2.0000     -10.339517      -281.3526
  28   2.0000     -10.339493      -281.3519
  29   2.0000     -10.338245      -281.3179
  30   2.0000     -10.331164      -281.1253
  31   2.0000     -10.329992      -281.0934
  32   2.0000     -10.327058      -281.0135
  33   2.0000     -10.326252      -280.9916
  34   2.0000     -10.323969      -280.9295
  35   2.0000     -10.323149      -280.9072
  36   2.0000     -10.322254      -280.8828
  37   2.0000     -10.320756      -280.8420
  38   2.0000     -10.320397      -280.8323
  39   2.0000     -10.320340      -280.8307
  40   2.0000     -10.318555      -280.7821
  41   2.0000     -10.318551      -280.7820
  42   2.0000     -10.317349      -280.7493
  43   2.0000     -10.316271      -280.7200
  44   2.0000     -10.316139      -280.7164
  45   2.0000     -10.315772      -280.7064
  46   2.0000     -10.311224      -280.5827
  47   2.0000     -10.310908      -280.5741
  48   2.0000     -10.310806      -280.5713
  49   2.0000     -10.308974      -280.5215
  50   2.0000     -10.308785      -280.5163
  51   2.0000     -10.308603      -280.5114
  52   2.0000     -10.308393      -280.5056
  53   2.0000     -10.306515      -280.4545
  54   2.0000     -10.305420      -280.4247
  55   2.0000     -10.305352      -280.4229
  56   2.0000     -10.301148      -280.3085
  57   2.0000     -10.300906      -280.3019
  58   2.0000     -10.300666      -280.2954
  59   2.0000     -10.300404      -280.2882
  60   2.0000     -10.299997      -280.2772
  61   2.0000     -10.299983      -280.2768
  62   2.0000     -10.299831      -280.2726
  63   2.0000     -10.299051      -280.2514
  64   2.0000     -10.298991      -280.2498
  65   2.0000     -10.295481      -280.1543
  66   2.0000     -10.291699      -280.0514
  67   2.0000     -10.291363      -280.0422
  68   2.0000     -10.290143      -280.0090
  69   2.0000     -10.287402      -279.9344
  70   2.0000     -10.286188      -279.9014
  71   2.0000     -10.279919      -279.7308
  72   2.0000     -10.279619      -279.7227
  73   2.0000     -10.277677      -279.6698
  74   2.0000     -10.267751      -279.3997
  75   2.0000     -10.267289      -279.3871
  76   2.0000     -10.267144      -279.3832
  77   2.0000     -10.264031      -279.2985
  78   2.0000     -10.255760      -279.0734
  79   2.0000     -10.255001      -279.0528
  80   2.0000      -8.062351      -219.3877
  81   2.0000      -8.054886      -219.1846
  82   2.0000      -6.031575      -164.1275
  83   2.0000      -6.027517      -164.0171
  84   2.0000      -6.024553      -163.9364
  85   2.0000      -6.024230      -163.9276
  86   2.0000      -6.019740      -163.8055
  87   2.0000      -6.017183      -163.7359
  88   2.0000      -1.319497       -35.9053
  89   2.0000      -1.319244       -35.8985
  90   2.0000      -1.304632       -35.5008
  91   2.0000      -1.304432       -35.4954
  92   2.0000      -1.155681       -31.4477
  93   2.0000      -1.153230       -31.3810
  94   2.0000      -1.146550       -31.1992
  95   2.0000      -1.144238       -31.1363
  96   2.0000      -1.135323       -30.8937
  97   2.0000      -1.126657       -30.6579
  98   2.0000      -1.086449       -29.5638
  99   2.0000      -1.018347       -27.7106
 100   2.0000      -1.017542       -27.6887
 101   2.0000      -1.011602       -27.5271
 102   2.0000      -1.003167       -27.2976
 103   2.0000      -1.001343       -27.2479
 104   2.0000      -0.996304       -27.1108
 105   2.0000      -0.992929       -27.0190
 106   2.0000      -0.990281       -26.9469
 107   2.0000      -0.988702       -26.9039
 108   2.0000      -0.979268       -26.6472
 109   2.0000      -0.978022       -26.6133
 110   2.0000      -0.950865       -25.8744
 111   2.0000      -0.939799       -25.5732
 112   2.0000      -0.930570       -25.3221
 113   2.0000      -0.929564       -25.2947
 114   2.0000      -0.912688       -24.8355
 115   2.0000      -0.904672       -24.6174
 116   2.0000      -0.897017       -24.4091
 117   2.0000      -0.892007       -24.2727
 118   2.0000      -0.890022       -24.2187
 119   2.0000      -0.884654       -24.0726
 120   2.0000      -0.876786       -23.8586
 121   2.0000      -0.874287       -23.7906
 122   2.0000      -0.862411       -23.4674
 123   2.0000      -0.846704       -23.0400
 124   2.0000      -0.840973       -22.8840
 125   2.0000      -0.839019       -22.8309
 126   2.0000      -0.838604       -22.8196
 127   2.0000      -0.836580       -22.7645
 128   2.0000      -0.828732       -22.5509
 129   2.0000      -0.820239       -22.3198
 130   2.0000      -0.817775       -22.2528
 131   2.0000      -0.799298       -21.7500
 132   2.0000      -0.792821       -21.5738
 133   2.0000      -0.784144       -21.3377
 134   2.0000      -0.780543       -21.2397
 135   2.0000      -0.772241       -21.0138
 136   2.0000      -0.766704       -20.8631
 137   2.0000      -0.764961       -20.8156
 138   2.0000      -0.761811       -20.7299
 139   2.0000      -0.753849       -20.5133
 140   2.0000      -0.751485       -20.4490
 141   2.0000      -0.735789       -20.0218
 142   2.0000      -0.730177       -19.8691
 143   2.0000      -0.716336       -19.4925
 144   2.0000      -0.715599       -19.4724
 145   2.0000      -0.710023       -19.3207
 146   2.0000      -0.704281       -19.1645
 147   2.0000      -0.697972       -18.9928
 148   2.0000      -0.691295       -18.8111
 149   2.0000      -0.683690       -18.6042
 150   2.0000      -0.682136       -18.5619
 151   2.0000      -0.672123       -18.2894
 152   2.0000      -0.666101       -18.1255
 153   2.0000      -0.664380       -18.0787
 154   2.0000      -0.661524       -18.0010
 155   2.0000      -0.655490       -17.8368
 156   2.0000      -0.653933       -17.7944
 157   2.0000      -0.651896       -17.7390
 158   2.0000      -0.641812       -17.4646
 159   2.0000      -0.641006       -17.4427
 160   2.0000      -0.639254       -17.3950
 161   2.0000      -0.633814       -17.2469
 162   2.0000      -0.632116       -17.2007
 163   2.0000      -0.624963       -17.0061
 164   2.0000      -0.617164       -16.7939
 165   2.0000      -0.613492       -16.6940
 166   2.0000      -0.611181       -16.6311
 167   2.0000      -0.606689       -16.5089
 168   2.0000      -0.600809       -16.3489
 169   2.0000      -0.597742       -16.2654
 170   2.0000      -0.592384       -16.1196
 171   2.0000      -0.588311       -16.0088
 172   2.0000      -0.584488       -15.9047
 173   2.0000      -0.584155       -15.8957
 174   2.0000      -0.583994       -15.8913
 175   2.0000      -0.583386       -15.8747
 176   2.0000      -0.578218       -15.7341
 177   2.0000      -0.576091       -15.6762
 178   2.0000      -0.574575       -15.6350
 179   2.0000      -0.570527       -15.5248
 180   2.0000      -0.566572       -15.4172
 181   2.0000      -0.564592       -15.3633
 182   2.0000      -0.558693       -15.2028
 183   2.0000      -0.555963       -15.1285
 184   2.0000      -0.554202       -15.0806
 185   2.0000      -0.553065       -15.0497
 186   2.0000      -0.552259       -15.0277
 187   2.0000      -0.550209       -14.9719
 188   2.0000      -0.548702       -14.9309
 189   2.0000      -0.546569       -14.8729
 190   2.0000      -0.545852       -14.8534
 191   2.0000      -0.545734       -14.8502
 192   2.0000      -0.544223       -14.8091
 193   2.0000      -0.539531       -14.6814
 194   2.0000      -0.538132       -14.6433
 195   2.0000      -0.533935       -14.5291
 196   2.0000      -0.532538       -14.4911
 197   2.0000      -0.531456       -14.4617
 198   2.0000      -0.529186       -14.3999
 199   2.0000      -0.526722       -14.3328
 200   2.0000      -0.525334       -14.2951
 201   2.0000      -0.524920       -14.2838
 202   2.0000      -0.519945       -14.1484
 203   2.0000      -0.519237       -14.1292
 204   2.0000      -0.518135       -14.0992
 205   2.0000      -0.514335       -13.9958
 206   2.0000      -0.510957       -13.9038
 207   2.0000      -0.505766       -13.7626
 208   2.0000      -0.505330       -13.7507
 209   2.0000      -0.500314       -13.6142
 210   2.0000      -0.497528       -13.5384
 211   2.0000      -0.496749       -13.5172
 212   2.0000      -0.493924       -13.4404
 213   2.0000      -0.492819       -13.4103
 214   2.0000      -0.490947       -13.3594
 215   2.0000      -0.489868       -13.3300
 216   2.0000      -0.487407       -13.2630
 217   2.0000      -0.485093       -13.2001
 218   2.0000      -0.481922       -13.1138
 219   2.0000      -0.477410       -12.9910
 220   2.0000      -0.476634       -12.9699
 221   2.0000      -0.474079       -12.9003
 222   2.0000      -0.472337       -12.8529
 223   2.0000      -0.468662       -12.7530
 224   2.0000      -0.466728       -12.7003
 225   2.0000      -0.465765       -12.6741
 226   2.0000      -0.462780       -12.5929
 227   2.0000      -0.461792       -12.5660
 228   2.0000      -0.460128       -12.5207
 229   2.0000      -0.455323       -12.3900
 230   2.0000      -0.453874       -12.3505
 231   2.0000      -0.452587       -12.3155
 232   2.0000      -0.448311       -12.1992
 233   2.0000      -0.447545       -12.1783
 234   2.0000      -0.445328       -12.1180
 235   2.0000      -0.444156       -12.0861
 236   2.0000      -0.443354       -12.0643
 237   2.0000      -0.442065       -12.0292
 238   2.0000      -0.439182       -11.9507
 239   2.0000      -0.432392       -11.7660
 240   2.0000      -0.431310       -11.7365
 241   2.0000      -0.429400       -11.6846
 242   2.0000      -0.427097       -11.6219
 243   2.0000      -0.425858       -11.5882
 244   2.0000      -0.424896       -11.5620
 245   2.0000      -0.423830       -11.5330
 246   2.0000      -0.420156       -11.4330
 247   2.0000      -0.419305       -11.4099
 248   2.0000      -0.417350       -11.3567
 249   2.0000      -0.413477       -11.2513
 250   2.0000      -0.410535       -11.1712
 251   2.0000      -0.410338       -11.1659
 252   2.0000      -0.407012       -11.0754
 253   2.0000      -0.403923       -10.9913
 254   2.0000      -0.402720       -10.9586
 255   2.0000      -0.401400       -10.9227
 256   2.0000      -0.395368       -10.7585
 257   2.0000      -0.392964       -10.6931
 258   2.0000      -0.387671       -10.5491
 259   2.0000      -0.386703       -10.5227
 260   2.0000      -0.384792       -10.4707
 261   2.0000      -0.383554       -10.4370
 262   2.0000      -0.375963       -10.2305
 263   2.0000      -0.372291       -10.1305
 264   2.0000      -0.360170        -9.8007
 265   2.0000      -0.340017        -9.2523
 266   2.0000      -0.334981        -9.1153
 267   2.0000      -0.333259        -9.0684
 268   2.0000      -0.331640        -9.0244
 269   2.0000      -0.330095        -8.9823
 270   2.0000      -0.323754        -8.8098
 271   2.0000      -0.316150        -8.6029
 272   2.0000      -0.314951        -8.5702
 273   2.0000      -0.303034        -8.2460
 274   2.0000      -0.299392        -8.1469
 275   2.0000      -0.296575        -8.0702
 276   2.0000      -0.291395        -7.9293
 277   2.0000      -0.283764        -7.7216
 278   2.0000      -0.280921        -7.6442
 279   2.0000      -0.277648        -7.5552
 280   2.0000      -0.257789        -7.0148
 281   0.0000      -0.102354        -2.7852
 282   0.0000      -0.087411        -2.3786
 283   0.0000      -0.059906        -1.6301
 284   0.0000      -0.055392        -1.5073
 285   0.0000      -0.042870        -1.1665

MULLIKEN ATOMIC CHARGES
-----------------------
   0 C :   -0.106550
   1 C :    0.239871
   2 F :   -0.171827
   3 C :    0.236422
   4 F :   -0.173097
   5 C :   -0.104136
   6 C :    0.115778
   7 C :    0.112019
   8 C :   -0.083102
   9 C :    0.046914
  10 C :   -0.003290
  11 C :   -0.081913
  12 C :    0.164798
  13 O :   -0.173877
  14 C :   -0.099115
  15 C :    0.330213
  16 C :   -0.353446
  17 C :   -0.193799
  18 N :    0.147072
  19 C :   -0.185468
  20 N :    0.146353
  21 C :   -0.007498
  22 C :   -0.044736
  23 C :    0.000876
  24 C :    0.124994
  25 C :   -0.038109
  26 C :    0.196025
  27 C :   -0.107221
  28 C :    0.047153
  29 C :   -0.118246
  30 C :    0.243248
  31 O :   -0.311738
  32 C :    0.181824
  33 O :   -0.308679
  34 C :    0.180066
  35 C :   -0.038127
  36 S :    0.166592
  37 C :   -0.027327
  38 C :   -0.010770
  39 N :   -0.025836
  40 C :   -0.011761
  41 C :   -0.003786
  42 N :   -0.020860
  43 C :   -0.016049
  44 C :    0.005090
  45 C :    0.166072
  46 C :   -0.092310
  47 C :    0.224514
  48 C :   -0.113830
  49 C :    0.052667
  50 C :   -0.099735
  51 C :    0.207874
  52 O :   -0.314105
  53 C :    0.177345
  54 O :   -0.300224
  55 C :    0.180240
  56 C :   -0.100000
  57 S :    0.129992
  58 C :    0.051924
  59 C :   -0.148504
  60 C :    0.144867
  61 O :   -0.156626
  62 C :    0.013035
  63 C :   -0.085501
  64 C :    0.112060
  65 C :    0.113298
  66 C :   -0.107630
  67 C :    0.240259
  68 C :    0.238996
  69 C :   -0.104884
  70 F :   -0.173449
  71 F :   -0.173318
  72 C :   -0.085124
  73 C :    0.041548
  74 C :    0.251526
  75 C :   -0.319173
  76 C :   -0.215927
  77 N :    0.174210
  78 C :   -0.172634
  79 N :    0.142318
  80 H :    0.008229
  81 H :   -0.001469
  82 H :   -0.007461
  83 H :   -0.011535
  84 H :    0.010610
  85 H :   -0.000347
  86 H :   -0.036378
  87 H :   -0.011446
  88 H :   -0.036704
  89 H :    0.017927
  90 H :    0.025608
  91 H :    0.033835
  92 H :    0.038239
  93 H :    0.023898
  94 H :    0.025113
  95 H :    0.023167
  96 H :    0.018016
  97 H :   -0.007997
  98 H :   -0.032420
  99 H :   -0.010877
 100 H :   -0.031499
 101 H :    0.036076
 102 H :    0.023811
 103 H :    0.038197
 104 H :    0.027004
 105 H :    0.022332
 106 H :    0.044443
 107 H :    0.025783
 108 H :   -0.012888
 109 H :    0.003454
 110 H :   -0.002794
 111 H :   -0.006644
Sum of atomic charges:    0.0000000

LOEWDIN ATOMIC CHARGES
----------------------
   0 C :   -0.029103
   1 C :    0.065698
   2 F :   -0.049697
   3 C :    0.066984
   4 F :   -0.050474
   5 C :   -0.033871
   6 C :   -0.009104
   7 C :   -0.007093
   8 C :    0.017381
   9 C :   -0.022114
  10 C :   -0.050922
  11 C :    0.027884
  12 C :    0.082559
  13 O :   -0.165032
  14 C :   -0.113114
  15 C :    0.077721
  16 C :   -0.144263
  17 C :   -0.022222
  18 N :   -0.053957
  19 C :   -0.017201
  20 N :   -0.057384
  21 C :    0.065121
  22 C :   -0.186296
  23 C :    0.012956
  24 C :   -0.022986
  25 C :   -0.077802
  26 C :    0.070375
  27 C :   -0.095914
  28 C :    0.001813
  29 C :   -0.096410
  30 C :    0.076854
  31 O :   -0.097419
  32 C :    0.075566
  33 O :   -0.101724
  34 C :    0.076917
  35 C :   -0.155500
  36 S :    0.510063
  37 C :   -0.021544
  38 C :    0.010803
  39 N :   -0.038189
  40 C :   -0.031025
  41 C :    0.004239
  42 N :   -0.016186
  43 C :   -0.150957
  44 C :   -0.017903
  45 C :    0.015590
  46 C :   -0.087162
  47 C :    0.075088
  48 C :   -0.093139
  49 C :    0.005001
  50 C :   -0.090808
  51 C :    0.067264
  52 O :   -0.100422
  53 C :    0.077796
  54 O :   -0.093651
  55 C :    0.079109
  56 C :   -0.174995
  57 S :    0.478183
  58 C :    0.071327
  59 C :   -0.110923
  60 C :    0.084454
  61 O :   -0.156114
  62 C :   -0.051698
  63 C :    0.027032
  64 C :   -0.010611
  65 C :   -0.006557
  66 C :   -0.031331
  67 C :    0.066006
  68 C :    0.065592
  69 C :   -0.033584
  70 F :   -0.051398
  71 F :   -0.050689
  72 C :    0.010444
  73 C :   -0.017625
  74 C :    0.062454
  75 C :   -0.149397
  76 C :   -0.043169
  77 N :   -0.046610
  78 C :   -0.018935
  79 N :   -0.058335
  80 H :    0.047823
  81 H :    0.044325
  82 H :    0.039785
  83 H :    0.039527
  84 H :    0.051779
  85 H :    0.039304
  86 H :    0.025857
  87 H :    0.031334
  88 H :    0.025472
  89 H :    0.012116
  90 H :    0.015518
  91 H :    0.027576
  92 H :    0.029286
  93 H :    0.015617
  94 H :    0.016219
  95 H :    0.023175
  96 H :    0.023389
  97 H :    0.038410
  98 H :    0.027637
  99 H :    0.032075
 100 H :    0.028425
 101 H :    0.029275
 102 H :    0.014577
 103 H :    0.020747
 104 H :    0.017630
 105 H :    0.014966
 106 H :    0.032353
 107 H :    0.051987
 108 H :    0.039167
 109 H :    0.046336
 110 H :    0.043990
 111 H :    0.038611

  Mayer bond orders larger than 0.100000
B(  0-C ,  1-C ) :   1.4415 B(  0-C ,  5-C ) :   0.1084 B(  0-C ,  7-C ) :   1.1902
B(  0-C , 80-H ) :   1.0057 B(  1-C ,  2-F ) :   1.1346 B(  1-C ,  3-C ) :   1.1926
B(  3-C ,  4-F ) :   1.1321 B(  3-C ,  5-C ) :   1.4436 B(  5-C ,  6-C ) :   1.1943
B(  5-C , 81-H ) :   1.0058 B(  6-C ,  7-C ) :   1.2552 B(  6-C , 11-C ) :   1.1865
B(  7-C ,  8-C ) :   1.2159 B(  8-C ,  9-C ) :   1.4557 B(  8-C , 82-H ) :   0.9880
B(  9-C , 10-C ) :   1.2216 B(  9-C , 15-C ) :   0.9809 B( 10-C , 11-C ) :   1.4756
B( 10-C , 12-C ) :   0.9516 B( 11-C , 83-H ) :   1.0153 B( 12-C , 13-O ) :   2.1514
B( 12-C , 14-C ) :   0.9734 B( 14-C , 15-C ) :   1.0855 B( 14-C , 21-C ) :   1.4849
B( 15-C , 16-C ) :   1.6179 B( 16-C , 17-C ) :   1.1431 B( 16-C , 19-C ) :   1.1503
B( 17-C , 18-N ) :   2.9619 B( 19-C , 20-N ) :   2.9588 B( 21-C , 22-C ) :   1.2645
B( 21-C , 84-H ) :   0.9406 B( 22-C , 23-C ) :   1.3344 B( 22-C , 36-S ) :   1.0876
B( 23-C , 24-C ) :   1.3382 B( 23-C , 85-H ) :   1.0123 B( 24-C , 25-C ) :   0.9022
B( 24-C , 35-C ) :   1.4429 B( 25-C , 26-C ) :   1.4372 B( 25-C , 30-C ) :   1.4151
B( 26-C , 27-C ) :   1.2907 B( 26-C , 33-O ) :   1.1812 B( 27-C , 28-C ) :   1.3643
B( 27-C , 86-H ) :   1.0009 B( 28-C , 29-C ) :   1.3550 B( 28-C , 87-H ) :   0.9878
B( 29-C , 30-C ) :   1.3037 B( 29-C , 88-H ) :   1.0032 B( 30-C , 31-O ) :   1.1730
B( 31-O , 32-C ) :   0.9647 B( 32-C , 89-H ) :   0.9649 B( 32-C , 90-H ) :   0.9699
B( 32-C , 91-H ) :   0.9792 B( 33-O , 34-C ) :   0.9617 B( 34-C , 92-H ) :   0.9791
B( 34-C , 93-H ) :   0.9690 B( 34-C , 94-H ) :   0.9696 B( 35-C , 36-S ) :   1.1314
B( 35-C , 37-C ) :   1.0909 B( 37-C , 38-C ) :   1.2818 B( 37-C , 42-N ) :   1.5116
B( 38-C , 39-N ) :   1.6096 B( 38-C , 95-H ) :   0.9689 B( 39-N , 40-C ) :   1.5412
B( 40-C , 41-C ) :   1.2874 B( 40-C , 43-C ) :   1.0456 B( 41-C , 42-N ) :   1.5847
B( 41-C , 96-H ) :   0.9764 B( 43-C , 44-C ) :   1.4585 B( 43-C , 57-S ) :   1.1659
B( 44-C , 45-C ) :   1.3024 B( 44-C , 97-H ) :   1.0121 B( 45-C , 46-C ) :   0.9043
B( 45-C , 56-C ) :   1.4337 B( 46-C , 47-C ) :   1.4159 B( 46-C , 51-C ) :   1.4174
B( 47-C , 48-C ) :   1.2963 B( 47-C , 54-O ) :   1.1967 B( 48-C , 49-C ) :   1.3597
B( 48-C , 98-H ) :   1.0023 B( 49-C , 50-C ) :   1.3612 B( 49-C , 99-H ) :   0.9871
B( 50-C , 51-C ) :   1.2994 B( 50-C ,100-H ) :   1.0022 B( 51-C , 52-O ) :   1.1822
B( 52-O , 53-C ) :   0.9514 B( 53-C ,101-H ) :   0.9794 B( 53-C ,102-H ) :   0.9691
B( 53-C ,103-H ) :   0.9683 B( 54-O , 55-C ) :   0.9574 B( 55-C ,104-H ) :   0.9696
B( 55-C ,105-H ) :   0.9692 B( 55-C ,106-H ) :   0.9790 B( 56-C , 57-S ) :   1.0803
B( 56-C , 58-C ) :   1.2282 B( 58-C , 59-C ) :   1.5915 B( 58-C ,107-H ) :   0.9302
B( 59-C , 60-C ) :   0.9618 B( 59-C , 74-C ) :   1.0379 B( 60-C , 61-O ) :   2.2324
B( 60-C , 62-C ) :   0.9214 B( 62-C , 63-C ) :   1.4799 B( 62-C , 73-C ) :   1.2198
B( 63-C , 64-C ) :   1.1914 B( 63-C ,108-H ) :   1.0155 B( 64-C , 65-C ) :   1.2615
B( 64-C , 69-C ) :   1.1929 B( 65-C , 66-C ) :   1.1910 B( 65-C , 72-C ) :   1.2076
B( 66-C , 67-C ) :   1.4400 B( 66-C , 69-C ) :   0.1092 B( 66-C ,109-H ) :   1.0067
B( 67-C , 68-C ) :   1.1952 B( 67-C , 71-F ) :   1.1318 B( 68-C , 69-C ) :   1.4423
B( 68-C , 70-F ) :   1.1318 B( 69-C ,110-H ) :   1.0069 B( 72-C , 73-C ) :   1.4652
B( 72-C ,111-H ) :   0.9948 B( 73-C , 74-C ) :   0.9990 B( 74-C , 75-C ) :   1.6505
B( 75-C , 76-C ) :   1.1453 B( 75-C , 78-C ) :   1.1380 B( 76-C , 77-N ) :   3.0296
B( 78-C , 79-N ) :   2.9839

-----------------------------------------------------------------------------
         ABSORPTION SPECTRUM VIA TRANSITION ELECTRIC DIPOLE MOMENTS
-----------------------------------------------------------------------------
State   Energy  Wavelength   fosc         T2         TX        TY        TZ
        (cm-1)    (nm)                  (au**2)     (au)      (au)      (au)
-----------------------------------------------------------------------------
   0   18101.9    552.4   1.447663267  26.32804  -0.74297   5.07172  -0.23162
   1   21384.4    467.6   0.124617828   1.91849  -0.74198   0.32412  -1.12379
   2   22516.6    444.1   0.484570338   7.08483  -0.36020  -2.61723  -0.32433
   3   23701.6    421.9   0.038638539   0.53668   0.10550   0.71134  -0.13981
   4   24406.2    409.7   0.035278859   0.47587   0.10495   0.22657   0.64306
   5   25233.6    396.3   0.011264047   0.14696  -0.27264   0.01313  -0.26917
   6   26557.0    376.5   0.006390121   0.07921   0.14020  -0.07545  -0.23209
   7   27082.1    369.2   0.053093240   0.64540  -0.27484  -0.37090  -0.65749
   8   27424.5    364.6   0.008802590   0.10567  -0.01232  -0.05371  -0.32036
   9   27884.8    358.6   0.032592196   0.38479  -0.50240   0.29073  -0.21877
  10   28224.5    354.3   0.034428725   0.40158   0.09500  -0.57254   0.25446
  11   28447.0    351.5   0.119003765   1.37721  -0.43296   1.07022  -0.21068
  12   28915.9    345.8   0.071152087   0.81008   0.54568  -0.15182  -0.69947
  13   28998.2    344.8   0.024036481   0.27288  -0.51384   0.09073  -0.02489
  14   29452.4    339.5   0.160742233   1.79674  -0.83914   0.51365   0.91035
  15   29782.6    335.8   0.011737814   0.12975   0.16264  -0.31866   0.04185
  16   30195.9    331.2   0.162224528   1.76866  -0.86354   0.76075  -0.66649
  17   30305.4    330.0   0.153720784   1.66989   0.29770   0.43254  -1.18075
  18   30554.6    327.3   0.085031616   0.91618  -0.05242   0.39280  -0.87129
  19   32195.4    310.6   0.067182005   0.68697  -0.40586  -0.39557  -0.60479
  20   32529.3    307.4   0.051056511   0.51672   0.44828  -0.30682   0.47077
  21   32821.3    304.7   0.052789256   0.52950   0.05827  -0.72279   0.06063
  22   33341.2    299.9   0.001467892   0.01449  -0.06333   0.03837   0.09493
  23   33645.7    297.2   0.079364955   0.77656   0.72724  -0.41292  -0.27782
  24   33765.3    296.2   0.142174954   1.38621  -1.00715   0.55060   0.26209
  25   34154.8    292.8   0.009715206   0.09364   0.02770   0.13276  -0.27432
  26   34348.3    291.1   0.254142397   2.43584  -0.25934   0.77436  -1.33002
  27   34575.4    289.2   0.406137997   3.86706  -0.72898   0.53904   1.74502
  28   34754.8    287.7   0.262785033   2.48921   0.43215  -0.97126   1.16581
  29   35104.7    284.9   0.494146035   4.63411  -1.88139   0.73310  -0.74635
  30   35352.3    282.9   0.019117964   0.17803  -0.27191   0.29983  -0.11915
  31   35756.0    279.7   0.061725989   0.56832  -0.18835  -0.52492   0.50725
  32   35986.1    277.9   0.308463697   2.82192   0.81854   0.14667   1.45959
  33   36296.1    275.5   0.035013788   0.31758   0.22395  -0.12847   0.50092
  34   36376.0    274.9   0.073627739   0.66635  -0.43091   0.42307  -0.54926
  35   36614.3    273.1   0.010317138   0.09276  -0.16790   0.02141   0.25321
  36   36743.9    272.2   0.008816862   0.07900  -0.16222  -0.14625   0.17689
  37   37041.9    270.0   0.034530730   0.30689   0.01961   0.09241  -0.54587
  38   37093.4    269.6   0.014198068   0.12601   0.20677   0.13503   0.25500
  39   37316.5    268.0   0.032238384   0.28441  -0.06756  -0.08055   0.52284
  40   37627.5    265.8   0.026308645   0.23018  -0.06664   0.33160  -0.34027
  41   37887.1    263.9   0.034176818   0.29697  -0.18545  -0.22668  -0.45956
  42   38046.2    262.8   0.037722657   0.32641   0.02612   0.44076   0.36258
  43   38581.2    259.2   0.195272159   1.66625   0.34257  -0.72354  -1.01261
  44   38879.5    257.2   0.039592574   0.33525   0.28938  -0.40470   0.29619
  45   38977.7    256.6   0.040715103   0.34389   0.52054   0.04119  -0.26689
  46   39374.8    254.0   0.018992283   0.15879  -0.21084  -0.31707  -0.11752
  47   39686.2    252.0   0.098592026   0.81786  -0.13839  -0.64640  -0.61715
  48   39897.9    250.6   0.076840425   0.63404   0.01287  -0.79484  -0.04585
  49   40270.6    248.3   0.150371429   1.22929   0.28189  -0.77533   0.74074

FINAL SINGLE POINT ENERGY     -4352.747231817855

DIPOLE MOMENT
-------------
                                X             Y             Z
Electronic contribution:     25.60504      34.15699       0.42763
Nuclear contribution   :    -25.57082     -35.90940      -3.07117
                        -----------------------------------------
Total Dipole Moment    :      0.03422      -1.75240      -2.64354
                        -----------------------------------------
Magnitude (a.u.)       :      3.17181
Magnitude (Debye)      :      8.06211

Rotational constants in cm-1:     0.001045     0.000279     0.000249
Rotational constants in MHz :    31.330157     8.355541     7.458330

                             ****ORCA TERMINATED NORMALLY****
TOTAL RUN TIME: 0 days 0 hours 12 minutes 0 seconds 475 msec
