                         Program Version 4.2.0 -  RELEASE  -
|  1> # ORCA input file
|  2> # SCF done       -121.223435250940          0.000622100904
|  3> ! CAM-B3LYP def2-SVP def2/J RIJCOSX Grid4 TightSCF
|  4> %maxcore 5000
|  5> %tddft
|  6>     Mode sTDDFT
|  7>     Ethresh 5.0
|  8>     maxcore 5000
|  9> end
| 10>
| 11> %pal
| 12>   nprocs 6
| 13>   end
| 14> * xyz 0 1
| 15>    N        0.11745         1.15894        -2.00915
| 16>    C       -0.24828         1.06702        -0.66468
| 17>    O       -0.76212         1.94923        -0.03271
| 18>    C        0.13130        -0.29864        -0.24929
| 19>    C        0.68011        -0.93694        -1.30207
| 20>    C        0.68327         0.00120        -2.47656
| 21>    O        1.09104        -0.21107        -3.58741
| 22>    C        1.19965        -2.25406        -1.42215
| 23>    S        1.86363        -2.85289        -2.93064
| 24>    C        2.14602        -4.34289        -2.05013
| 25>    N        1.75336        -4.27603        -0.79911
| 26>    N        1.23785        -3.13681        -0.45888
| 27>    C        2.73626        -5.48502        -2.65306
| 28>    C        2.92903        -6.63729        -1.96345
| 29>    C        3.51025        -7.79295        -2.54384
| 30>    N        3.71946        -8.96856        -1.85933
| 31>    C        3.45081        -9.21166        -0.46235
| 32>    C        4.52211        -8.60120         0.43760
| 33>    C        4.29918        -9.95600        -2.67145
| 34>    O        4.57674       -11.07250        -2.27768
| 35>    C        4.44217        -9.32015        -3.96240
| 36>    C        3.95200        -7.99307        -3.84912
| 37>    C        4.09325        -7.35633        -5.13928
| 38>    O        3.81756        -6.24119        -5.53455
| 39>    N        4.65761        -8.35122        -5.95780
| 40>    C        5.00647        -8.07447        -7.33034
| 41>    C        6.49970        -7.80016        -7.49274
| 42>    C        4.87388        -9.52253        -5.27049
| 43>    C        5.42474       -10.69229        -5.86429
| 44>    C        5.63998       -11.82589        -5.16049
| 45>    C        6.19757       -13.04175        -5.69043
| 46>    C        6.55633       -14.08996        -4.82593
| 47>    N        7.09489       -15.21204        -5.24892
| 48>    C        7.27491       -15.33125        -6.55610
| 49>    N        6.94933       -14.43488        -7.47549
| 50>    C        6.42317       -13.30699        -7.04949
| 51>    N        7.85896       -16.51368        -7.00920
| 52>    C        7.65532       -17.77426        -6.42796
| 53>    O        6.92632       -18.02315        -5.51371
| 54>    C        8.49179       -18.71062        -7.23193
| 55>    C        9.10320       -18.03422        -8.19893
| 56>    C        8.73748       -16.59269        -8.09940
| 57>    O        9.12663       -15.67651        -8.76278
| 58>    H       -0.02190         1.98635        -2.56947
| 59>    H       -0.02300        -0.67972         0.74161
| 60>    H        3.02654        -5.40253        -3.69097
| 61>    H        2.62060        -6.67343        -0.92893
| 62>    H        3.44591       -10.29868        -0.34166
| 63>    H        2.46143        -8.82275        -0.20747
| 64>    H        5.49472        -9.02329         0.19636
| 65>    H        4.29624        -8.82145         1.47708
| 66>    H        4.56987        -7.52207         0.31093
| 67>    H        4.43828        -7.18320        -7.61128
| 68>    H        4.68991        -8.90669        -7.96529
| 69>    H        6.78541        -6.93983        -6.89252
| 70>    H        6.72331        -7.58627        -8.53418
| 71>    H        7.09274        -8.65513        -7.17500
| 72>    H        5.67428       -10.64246        -6.91394
| 73>    H        5.39800       -11.84497        -4.10557
| 74>    H        6.41278       -14.00434        -3.75665
| 75>    H        6.15506       -12.60531        -7.82778
| 76>    H        8.53139       -19.76063        -7.00846
| 77>    H        9.77525       -18.39166        -8.95699
| 78> *
| 79>
| 80>                          ****END OF INPUT****

CARTESIAN COORDINATES (ANGSTROEM)
---------------------------------
  N      0.117450    1.158940   -2.009150
  C     -0.248280    1.067020   -0.664680
  O     -0.762120    1.949230   -0.032710
  C      0.131300   -0.298640   -0.249290
  C      0.680110   -0.936940   -1.302070
  C      0.683270    0.001200   -2.476560
  O      1.091040   -0.211070   -3.587410
  C      1.199650   -2.254060   -1.422150
  S      1.863630   -2.852890   -2.930640
  C      2.146020   -4.342890   -2.050130
  N      1.753360   -4.276030   -0.799110
  N      1.237850   -3.136810   -0.458880
  C      2.736260   -5.485020   -2.653060
  C      2.929030   -6.637290   -1.963450
  C      3.510250   -7.792950   -2.543840
  N      3.719460   -8.968560   -1.859330
  C      3.450810   -9.211660   -0.462350
  C      4.522110   -8.601200    0.437600
  C      4.299180   -9.956000   -2.671450
  O      4.576740  -11.072500   -2.277680
  C      4.442170   -9.320150   -3.962400
  C      3.952000   -7.993070   -3.849120
  C      4.093250   -7.356330   -5.139280
  O      3.817560   -6.241190   -5.534550
  N      4.657610   -8.351220   -5.957800
  C      5.006470   -8.074470   -7.330340
  C      6.499700   -7.800160   -7.492740
  C      4.873880   -9.522530   -5.270490
  C      5.424740  -10.692290   -5.864290
  C      5.639980  -11.825890   -5.160490
  C      6.197570  -13.041750   -5.690430
  C      6.556330  -14.089960   -4.825930
  N      7.094890  -15.212040   -5.248920
  C      7.274910  -15.331250   -6.556100
  N      6.949330  -14.434880   -7.475490
  C      6.423170  -13.306990   -7.049490
  N      7.858960  -16.513680   -7.009200
  C      7.655320  -17.774260   -6.427960
  O      6.926320  -18.023150   -5.513710
  C      8.491790  -18.710620   -7.231930
  C      9.103200  -18.034220   -8.198930
  C      8.737480  -16.592690   -8.099400
  O      9.126630  -15.676510   -8.762780
  H     -0.021900    1.986350   -2.569470
  H     -0.023000   -0.679720    0.741610
  H      3.026540   -5.402530   -3.690970
  H      2.620600   -6.673430   -0.928930
  H      3.445910  -10.298680   -0.341660
  H      2.461430   -8.822750   -0.207470
  H      5.494720   -9.023290    0.196360
  H      4.296240   -8.821450    1.477080
  H      4.569870   -7.522070    0.310930
  H      4.438280   -7.183200   -7.611280
  H      4.689910   -8.906690   -7.965290
  H      6.785410   -6.939830   -6.892520
  H      6.723310   -7.586270   -8.534180
  H      7.092740   -8.655130   -7.175000
  H      5.674280  -10.642460   -6.913940
  H      5.398000  -11.844970   -4.105570
  H      6.412780  -14.004340   -3.756650
  H      6.155060  -12.605310   -7.827780
  H      8.531390  -19.760630   -7.008460
  H      9.775250  -18.391660   -8.956990

 Total Charge           Charge          ....    0
 Multiplicity           Mult            ....    1
 Number of Electrons    NEL             ....  308
 Basis Dimension        Dim             ....  706

ORBITAL ENERGIES
----------------

  NO   OCC          E(Eh)            E(eV)
   0   2.0000     -88.978703     -2421.2336
   1   2.0000     -19.229744      -523.2679
   2   2.0000     -19.221647      -523.0476
   3   2.0000     -19.219128      -522.9791
   4   2.0000     -19.218755      -522.9689
   5   2.0000     -19.197525      -522.3912
   6   2.0000     -19.191999      -522.2408
   7   2.0000     -14.464434      -393.5973
   8   2.0000     -14.460922      -393.5017
   9   2.0000     -14.458069      -393.4241
  10   2.0000     -14.454941      -393.3389
  11   2.0000     -14.448054      -393.1515
  12   2.0000     -14.440518      -392.9465
  13   2.0000     -14.420124      -392.3915
  14   2.0000     -14.418584      -392.3496
  15   2.0000     -10.409044      -283.2445
  16   2.0000     -10.402739      -283.0729
  17   2.0000     -10.399820      -282.9935
  18   2.0000     -10.399446      -282.9833
  19   2.0000     -10.388006      -282.6720
  20   2.0000     -10.378898      -282.4242
  21   2.0000     -10.375130      -282.3216
  22   2.0000     -10.348482      -281.5965
  23   2.0000     -10.344216      -281.4804
  24   2.0000     -10.342990      -281.4471
  25   2.0000     -10.339579      -281.3542
  26   2.0000     -10.332901      -281.1725
  27   2.0000     -10.329469      -281.0791
  28   2.0000     -10.324110      -280.9333
  29   2.0000     -10.312885      -280.6279
  30   2.0000     -10.309666      -280.5403
  31   2.0000     -10.309409      -280.5333
  32   2.0000     -10.308908      -280.5196
  33   2.0000     -10.307942      -280.4934
  34   2.0000     -10.299367      -280.2600
  35   2.0000     -10.298310      -280.2313
  36   2.0000     -10.297535      -280.2102
  37   2.0000     -10.296097      -280.1711
  38   2.0000     -10.295910      -280.1659
  39   2.0000     -10.267874      -279.4030
  40   2.0000     -10.265430      -279.3365
  41   2.0000     -10.262942      -279.2689
  42   2.0000     -10.262675      -279.2616
  43   2.0000      -8.073965      -219.7038
  44   2.0000      -6.042662      -164.4292
  45   2.0000      -6.038982      -164.3290
  46   2.0000      -6.036601      -164.2643
  47   2.0000      -1.170942       -31.8630
  48   2.0000      -1.169767       -31.8310
  49   2.0000      -1.149252       -31.2727
  50   2.0000      -1.147441       -31.2235
  51   2.0000      -1.143823       -31.1250
  52   2.0000      -1.137784       -30.9607
  53   2.0000      -1.129905       -30.7463
  54   2.0000      -1.105815       -30.0907
  55   2.0000      -1.067497       -29.0481
  56   2.0000      -1.058405       -28.8007
  57   2.0000      -1.055655       -28.7258
  58   2.0000      -1.050136       -28.5756
  59   2.0000      -0.992094       -26.9963
  60   2.0000      -0.954788       -25.9811
  61   2.0000      -0.943466       -25.6730
  62   2.0000      -0.936751       -25.4903
  63   2.0000      -0.929998       -25.3065
  64   2.0000      -0.916743       -24.9459
  65   2.0000      -0.896546       -24.3962
  66   2.0000      -0.884881       -24.0788
  67   2.0000      -0.872534       -23.7429
  68   2.0000      -0.865644       -23.5554
  69   2.0000      -0.822613       -22.3844
  70   2.0000      -0.809061       -22.0157
  71   2.0000      -0.795698       -21.6520
  72   2.0000      -0.783474       -21.3194
  73   2.0000      -0.774180       -21.0665
  74   2.0000      -0.762934       -20.7605
  75   2.0000      -0.759332       -20.6625
  76   2.0000      -0.753285       -20.4979
  77   2.0000      -0.737323       -20.0636
  78   2.0000      -0.723995       -19.7009
  79   2.0000      -0.711544       -19.3621
  80   2.0000      -0.707789       -19.2599
  81   2.0000      -0.697635       -18.9836
  82   2.0000      -0.693231       -18.8638
  83   2.0000      -0.688680       -18.7399
  84   2.0000      -0.680217       -18.5096
  85   2.0000      -0.662514       -18.0279
  86   2.0000      -0.652576       -17.7575
  87   2.0000      -0.631582       -17.1862
  88   2.0000      -0.625048       -17.0084
  89   2.0000      -0.614583       -16.7236
  90   2.0000      -0.598600       -16.2887
  91   2.0000      -0.591616       -16.0987
  92   2.0000      -0.585542       -15.9334
  93   2.0000      -0.582624       -15.8540
  94   2.0000      -0.580852       -15.8058
  95   2.0000      -0.577223       -15.7070
  96   2.0000      -0.576204       -15.6793
  97   2.0000      -0.573318       -15.6008
  98   2.0000      -0.570361       -15.5203
  99   2.0000      -0.552723       -15.0403
 100   2.0000      -0.551471       -15.0063
 101   2.0000      -0.549625       -14.9561
 102   2.0000      -0.548945       -14.9376
 103   2.0000      -0.542647       -14.7662
 104   2.0000      -0.540638       -14.7115
 105   2.0000      -0.535390       -14.5687
 106   2.0000      -0.534124       -14.5343
 107   2.0000      -0.526130       -14.3167
 108   2.0000      -0.525451       -14.2982
 109   2.0000      -0.521123       -14.1805
 110   2.0000      -0.519854       -14.1460
 111   2.0000      -0.518320       -14.1042
 112   2.0000      -0.517122       -14.0716
 113   2.0000      -0.514609       -14.0032
 114   2.0000      -0.508201       -13.8288
 115   2.0000      -0.507708       -13.8154
 116   2.0000      -0.506718       -13.7885
 117   2.0000      -0.502004       -13.6602
 118   2.0000      -0.491040       -13.3619
 119   2.0000      -0.490691       -13.3524
 120   2.0000      -0.484914       -13.1952
 121   2.0000      -0.479017       -13.0347
 122   2.0000      -0.477229       -12.9861
 123   2.0000      -0.472631       -12.8609
 124   2.0000      -0.465860       -12.6767
 125   2.0000      -0.458257       -12.4698
 126   2.0000      -0.453127       -12.3302
 127   2.0000      -0.449516       -12.2319
 128   2.0000      -0.447196       -12.1688
 129   2.0000      -0.442613       -12.0441
 130   2.0000      -0.432236       -11.7618
 131   2.0000      -0.428372       -11.6566
 132   2.0000      -0.416824       -11.3424
 133   2.0000      -0.411558       -11.1991
 134   2.0000      -0.410797       -11.1784
 135   2.0000      -0.400871       -10.9083
 136   2.0000      -0.399024       -10.8580
 137   2.0000      -0.385495       -10.4899
 138   2.0000      -0.381963       -10.3937
 139   2.0000      -0.378359       -10.2957
 140   2.0000      -0.374764       -10.1978
 141   2.0000      -0.367466        -9.9993
 142   2.0000      -0.360352        -9.8057
 143   2.0000      -0.357223        -9.7205
 144   2.0000      -0.353522        -9.6198
 145   2.0000      -0.352621        -9.5953
 146   2.0000      -0.351216        -9.5571
 147   2.0000      -0.335689        -9.1346
 148   2.0000      -0.327985        -8.9249
 149   2.0000      -0.323255        -8.7962
 150   2.0000      -0.318688        -8.6719
 151   2.0000      -0.314111        -8.5474
 152   2.0000      -0.310529        -8.4499
 153   2.0000      -0.241652        -6.5757
 154   0.0000      -0.098241        -2.6733
 155   0.0000      -0.072616        -1.9760
 156   0.0000      -0.057227        -1.5572
 157   0.0000      -0.036026        -0.9803
 158   0.0000      -0.006777        -0.1844

MULLIKEN ATOMIC CHARGES
-----------------------
   0 N :   -0.143519
   1 C :    0.176637
   2 O :   -0.138312
   3 C :   -0.110100
   4 C :    0.062783
   5 C :    0.156198
   6 O :   -0.150079
   7 C :   -0.135292
   8 S :    0.181947
   9 C :   -0.086933
  10 N :   -0.064754
  11 N :   -0.015939
  12 C :    0.058167
  13 C :   -0.021241
  14 C :    0.133784
  15 N :   -0.254354
  16 C :    0.097912
  17 C :    0.002851
  18 C :    0.162358
  19 O :   -0.214967
  20 C :   -0.063862
  21 C :   -0.054282
  22 C :    0.162804
  23 O :   -0.205373
  24 N :   -0.256048
  25 C :    0.098660
  26 C :    0.002857
  27 C :    0.126716
  28 C :   -0.005212
  29 C :    0.019854
  30 C :   -0.003192
  31 C :    0.043274
  32 N :   -0.027318
  33 C :    0.014099
  34 N :   -0.033905
  35 C :    0.045014
  36 N :   -0.241747
  37 C :    0.209401
  38 O :   -0.123558
  39 C :   -0.016844
  40 C :   -0.015930
  41 C :    0.209452
  42 O :   -0.128082
  43 H :    0.142243
  44 H :    0.022691
  45 H :    0.012899
  46 H :    0.004277
  47 H :    0.043663
  48 H :    0.028028
  49 H :    0.026914
  50 H :    0.025521
  51 H :    0.021363
  52 H :    0.045035
  53 H :    0.023791
  54 H :    0.030027
  55 H :    0.025930
  56 H :    0.017050
  57 H :   -0.027119
  58 H :    0.019427
  59 H :    0.027142
  60 H :    0.008474
  61 H :    0.025235
  62 H :    0.023479
Sum of atomic charges:   -0.0000000

LOEWDIN ATOMIC CHARGES
----------------------
   0 N :   -0.008275
   1 C :    0.080475
   2 O :   -0.134699
   3 C :    0.001690
   4 C :   -0.057649
   5 C :    0.080879
   6 O :   -0.151756
   7 C :   -0.167143
   8 S :    0.459670
   9 C :   -0.150986
  10 N :   -0.081769
  11 N :   -0.056841
  12 C :   -0.015061
  13 C :   -0.007234
  14 C :    0.067854
  15 N :    0.002873
  16 C :    0.036911
  17 C :   -0.060287
  18 C :    0.078993
  19 O :   -0.205597
  20 C :   -0.125160
  21 C :   -0.113993
  22 C :    0.082120
  23 O :   -0.195892
  24 N :    0.000116
  25 C :    0.036154
  26 C :   -0.060830
  27 C :    0.081780
  28 C :   -0.049381
  29 C :    0.037564
  30 C :   -0.082704
  31 C :    0.069011
  32 N :   -0.069450
  33 C :    0.063783
  34 N :   -0.070545
  35 C :    0.065469
  36 N :   -0.044679
  37 C :    0.088989
  38 O :   -0.112201
  39 C :   -0.008494
  40 C :   -0.009274
  41 C :    0.089016
  42 O :   -0.116180
  43 H :    0.097791
  44 H :    0.047817
  45 H :    0.037327
  46 H :    0.037766
  47 H :    0.037563
  48 H :    0.025480
  49 H :    0.031088
  50 H :    0.031837
  51 H :    0.024350
  52 H :    0.038485
  53 H :    0.022941
  54 H :    0.032673
  55 H :    0.031645
  56 H :    0.022366
  57 H :    0.026759
  58 H :    0.039503
  59 H :    0.035464
  60 H :    0.025926
  61 H :    0.043162
  62 H :    0.042791

  Mayer bond orders larger than 0.100000
B(  0-N ,  1-C ) :   1.0417 B(  0-N ,  5-C ) :   1.1240 B(  0-N , 43-H ) :   0.9209
B(  1-C ,  2-O ) :   2.2172 B(  1-C ,  3-C ) :   0.9161 B(  3-C ,  4-C ) :   1.6736
B(  3-C , 44-H ) :   1.0349 B(  4-C ,  5-C ) :   0.8810 B(  4-C ,  7-C ) :   1.0898
B(  5-C ,  6-O ) :   2.1980 B(  7-C ,  8-S ) :   1.1282 B(  7-C , 11-N ) :   1.6985
B(  8-S ,  9-C ) :   1.1037 B(  9-C , 10-N ) :   1.6235 B(  9-C , 12-C ) :   1.1119
B( 10-N , 11-N ) :   1.2610 B( 12-C , 13-C ) :   1.6553 B( 12-C , 45-H ) :   0.9276
B( 13-C , 14-C ) :   1.1306 B( 13-C , 46-H ) :   0.9700 B( 14-C , 15-N ) :   1.1586
B( 14-C , 21-C ) :   1.3491 B( 15-N , 16-C ) :   0.9432 B( 15-N , 18-C ) :   1.0685
B( 16-C , 17-C ) :   1.1201 B( 16-C , 47-H ) :   0.9287 B( 16-C , 48-H ) :   0.9501
B( 17-C , 49-H ) :   0.9639 B( 17-C , 50-H ) :   0.9682 B( 17-C , 51-H ) :   0.9690
B( 18-C , 19-O ) :   2.0180 B( 18-C , 20-C ) :   0.9881 B( 19-O , 58-H ) :   0.1165
B( 20-C , 21-C ) :   1.2484 B( 20-C , 27-C ) :   1.3445 B( 21-C , 22-C ) :   0.9830
B( 22-C , 23-O ) :   2.0346 B( 22-C , 24-N ) :   1.0562 B( 23-O , 45-H ) :   0.1069
B( 24-N , 25-C ) :   0.9455 B( 24-N , 27-C ) :   1.1655 B( 25-C , 26-C ) :   1.1192
B( 25-C , 52-H ) :   0.9279 B( 25-C , 53-H ) :   0.9497 B( 26-C , 54-H ) :   0.9636
B( 26-C , 55-H ) :   0.9681 B( 26-C , 56-H ) :   0.9688 B( 27-C , 28-C ) :   1.1516
B( 28-C , 29-C ) :   1.6327 B( 28-C , 57-H ) :   0.9573 B( 29-C , 30-C ) :   1.0687
B( 29-C , 58-H ) :   0.9585 B( 30-C , 31-C ) :   1.3082 B( 30-C , 35-C ) :   1.3057
B( 31-C , 32-N ) :   1.5670 B( 31-C , 59-H ) :   0.9902 B( 32-N , 33-C ) :   1.5448
B( 33-C , 34-N ) :   1.5339 B( 33-C , 36-N ) :   0.9714 B( 34-N , 35-C ) :   1.5814
B( 35-C , 60-H ) :   0.9867 B( 36-N , 37-C ) :   0.9883 B( 36-N , 41-C ) :   0.9926
B( 37-C , 38-O ) :   2.2190 B( 37-C , 39-C ) :   0.9578 B( 39-C , 40-C ) :   1.7479
B( 39-C , 61-H ) :   1.0125 B( 40-C , 41-C ) :   0.9586 B( 40-C , 62-H ) :   1.0132
B( 41-C , 42-O ) :   2.2140

-----------------------------------------------------------------------------
         ABSORPTION SPECTRUM VIA TRANSITION ELECTRIC DIPOLE MOMENTS
-----------------------------------------------------------------------------
State   Energy  Wavelength   fosc         T2         TX        TY        TZ
        (cm-1)    (nm)                  (au**2)     (au)      (au)      (au)
-----------------------------------------------------------------------------
   0   15994.2    625.2   0.833731189  17.16091  -1.70616   3.08956   2.16899
   1   22845.9    437.7   0.036771956   0.52989   0.10005   0.21448  -0.68838
   2   26378.9    379.1   0.000243599   0.00304  -0.03172  -0.04331  -0.01257
   3   26643.3    375.3   0.013802907   0.17055   0.14202  -0.38734   0.01883
   4   28451.3    351.5   0.116302548   1.34574  -0.39509   1.08786   0.07877
   5   28823.1    346.9   0.002378064   0.02716   0.10542   0.02351  -0.12448
   6   29227.0    342.1   0.001792593   0.02019   0.11963  -0.07293   0.02367
   7   29855.0    335.0   0.700708068   7.72674   1.05908  -2.51672  -0.52078
   8   30734.3    325.4   0.000168075   0.00180   0.03114   0.02564   0.01317
   9   31138.6    321.1   0.001331859   0.01408   0.10087   0.06238   0.00391
  10   31560.1    316.9   0.004548109   0.04744   0.05652  -0.20737  -0.03532
  11   31966.4    312.8   0.209034497   2.15278   0.52918  -1.34966  -0.22620
  12   32990.2    303.1   0.021410069   0.21365  -0.09565   0.44273   0.09217
  13   33791.0    295.9   0.005564026   0.05421   0.22888  -0.00611   0.04226
  14   35047.0    285.3   0.014111877   0.13256   0.11480  -0.32777  -0.10931
  15   35320.3    283.1   0.009376305   0.08739   0.08733  -0.23484  -0.15690
  16   36381.1    274.9   0.000555976   0.00503  -0.03447   0.06125   0.00954
  17   37131.5    269.3   0.000186873   0.00166  -0.03926  -0.00041  -0.01073
  18   37553.5    266.3   0.611002916   5.35634  -0.71045   2.19847  -0.13533
  19   37743.3    264.9   0.017630534   0.15378   0.33008  -0.19084   0.09169
  20   38031.9    262.9   0.002844590   0.02462   0.15424  -0.01603   0.02404
  21   38925.1    256.9   0.061515156   0.52027   0.37359  -0.61277   0.07221
  22   38955.4    256.7   0.117323289   0.99150   0.01611  -0.89407   0.43804
  23   39767.1    251.5   0.019598336   0.16224  -0.16540   0.35075   0.10893

FINAL SINGLE POINT ENERGY     -2364.083175513237

DIPOLE MOMENT
-------------
                                X             Y             Z
Electronic contribution:    -10.99340      10.03592      -0.18103
Nuclear contribution   :     11.66733     -10.60669      -0.80394
                        -----------------------------------------
Total Dipole Moment    :      0.67393      -0.57077      -0.98497
                        -----------------------------------------
Magnitude (a.u.)       :      1.32292
Magnitude (Debye)      :      3.36260

Rotational constants in cm-1:     0.008991     0.000606     0.000572
Rotational constants in MHz :   269.540404    18.172521    17.148785

                             ****ORCA TERMINATED NORMALLY****
TOTAL RUN TIME: 0 days 0 hours 3 minutes 42 seconds 19 msec
