                         Program Version 4.2.0 -  RELEASE  -
|  1> # ORCA input file
|  2> # SCF done       -190.128528988293          0.000345892471
|  3> ! CAM-B3LYP def2-SVP def2/J RIJCOSX Grid4 TightSCF
|  4> %maxcore 5000
|  5> %tddft
|  6>     Mode sTDDFT
|  7>     Ethresh 5.0
|  8>     maxcore 5000
|  9> end
| 10>
| 11> %pal
| 12>   nprocs 6
| 13>   end
| 14> * xyz 0 1
| 15>    C        3.41481         2.11202        -4.26631
| 16>    C        2.91513         3.10052        -5.05917
| 17>    S        2.69092         2.53820        -6.67309
| 18>    C        3.26932         0.96118        -6.28658
| 19>    C        3.61645         0.88616        -4.97638
| 20>    C        4.15183        -0.13280        -4.06703
| 21>    O        4.40633        -1.28490        -4.34134
| 22>    C        4.31493         0.56481        -2.75741
| 23>    C        3.80659         1.92785        -2.88459
| 24>    C        3.66765         2.88574        -1.91471
| 25>    C        3.14977         4.16216        -2.22343
| 26>    N        2.73538         5.20656        -2.45503
| 27>    C        3.97587         2.75504        -0.54618
| 28>    N        4.19268         2.72099         0.58135
| 29>    C        4.91038         0.10315        -1.61804
| 30>    C        5.46820        -1.15267        -1.28865
| 31>    S        6.30979        -1.25116         0.24587
| 32>    C        6.71832        -2.91437        -0.00460
| 33>    C        6.17823        -3.36872        -1.21710
| 34>    C        5.48742        -2.37986        -1.92580
| 35>    C        6.22831        -4.69718        -1.68106
| 36>    N        6.20048        -5.77068        -2.08296
| 37>    C        7.51867        -3.57800         0.95818
| 38>    C        8.13560        -4.77205         0.75384
| 39>    C        9.01022        -5.47749         1.61608
| 40>    N        9.28460        -5.29853         2.95716
| 41>    C        8.61761        -4.44329         3.91175
| 42>    C        7.16650        -4.85490         4.13907
| 43>    C       10.26737        -6.19747         3.40671
| 44>    O       10.67221        -6.23222         4.55580
| 45>    C       10.62537        -6.97013         2.24121
| 46>    C        9.82822        -6.51508         1.17013
| 47>    C       10.19476        -7.25895        -0.01910
| 48>    O        9.81061        -7.20946        -1.16397
| 49>    N       11.19305        -8.15008         0.43455
| 50>    C       11.85031        -9.05867        -0.47374
| 51>    C       13.20642        -8.52600        -0.92952
| 52>    C       11.47134        -7.97948         1.76657
| 53>    C       12.45229        -8.70702         2.47665
| 54>    C       12.69900        -8.47235         3.79476
| 55>    C       13.68709        -9.14119         4.54811
| 56>    S       14.73344       -10.33947         3.85766
| 57>    C       15.55801       -10.55311         5.37502
| 58>    C       15.02468        -9.70018         6.35908
| 59>    C       13.97123        -8.92139         5.89963
| 60>    C       13.23340        -7.94002         6.75729
| 61>    C       13.50888        -8.21873         8.23758
| 62>    N       12.95340        -7.07237         9.01511
| 63>    O       13.72772        -6.20775         9.34163
| 64>    O       11.76996        -7.08526         9.21437
| 65>    C       15.00845        -8.35416         8.45269
| 66>    N       15.33860        -8.46286         9.90598
| 67>    O       14.46171        -8.85185        10.63556
| 68>    O       16.46433        -8.19028        10.21844
| 69>    C       15.51775        -9.63015         7.77350
| 70>    C       16.60208       -11.45767         5.62622
| 71>    C       17.24523       -12.33786         4.79600
| 72>    C       16.98960       -12.52626         3.35303
| 73>    O       16.15170       -11.96075         2.67527
| 74>    C       17.95892       -13.53223         2.91298
| 75>    C       18.29385       -14.16011         1.75667
| 76>    S       19.58990       -15.26593         2.01725
| 77>    C       19.68258       -14.88221         3.69585
| 78>    C       18.75458       -13.94426         4.03095
| 79>    C       18.32226       -13.22397         5.21223
| 80>    C       18.85682       -13.39549         6.46307
| 81>    C       19.90899       -14.30868         6.68639
| 82>    N       20.76514       -15.04699         6.88089
| 83>    C       18.44774       -12.72943         7.63392
| 84>    N       18.14470       -12.21467         8.61546
| 85>    H        2.66662         4.11387        -4.81543
| 86>    H        3.31546         0.20181        -7.04117
| 87>    H        5.00515         0.82353        -0.81332
| 88>    H        5.01788        -2.55386        -2.87729
| 89>    H        7.67022        -3.02467         1.87270
| 90>    H        8.02800        -5.25389        -0.20978
| 91>    H        8.69129        -3.39867         3.59792
| 92>    H        9.18036        -4.55703         4.84356
| 93>    H        6.59041        -4.80119         3.21832
| 94>    H        6.71224        -4.19795         4.87542
| 95>    H        7.12466        -5.87500         4.51288
| 96>    H       11.18602        -9.15451        -1.33710
| 97>    H       11.95675       -10.03693         0.00258
| 98>    H       13.07924        -7.57057        -1.43247
| 99>    H       13.65985        -9.22664        -1.62473
|100>    H       13.87747        -8.38843        -0.08459
|101>    H       13.02309        -9.46040         1.95243
|102>    H       12.11837        -7.71689         4.30671
|103>    H       12.16023        -7.98655         6.56289
|104>    H       13.56362        -6.92546         6.50779
|105>    H       12.97579        -9.11501         8.56917
|106>    H       15.54310        -7.47783         8.07312
|107>    H       15.15844       -10.50523         8.32737
|108>    H       16.60912        -9.64316         7.81310
|109>    H       16.94321       -11.44771         6.65238
|110>    H       17.86873       -14.04667         0.77962
|111>    H       20.41146       -15.37304         4.30907
|112> *
|113>
|114>                          ****END OF INPUT****

CARTESIAN COORDINATES (ANGSTROEM)
---------------------------------
  C      3.414810    2.112020   -4.266310
  C      2.915130    3.100520   -5.059170
  S      2.690920    2.538200   -6.673090
  C      3.269320    0.961180   -6.286580
  C      3.616450    0.886160   -4.976380
  C      4.151830   -0.132800   -4.067030
  O      4.406330   -1.284900   -4.341340
  C      4.314930    0.564810   -2.757410
  C      3.806590    1.927850   -2.884590
  C      3.667650    2.885740   -1.914710
  C      3.149770    4.162160   -2.223430
  N      2.735380    5.206560   -2.455030
  C      3.975870    2.755040   -0.546180
  N      4.192680    2.720990    0.581350
  C      4.910380    0.103150   -1.618040
  C      5.468200   -1.152670   -1.288650
  S      6.309790   -1.251160    0.245870
  C      6.718320   -2.914370   -0.004600
  C      6.178230   -3.368720   -1.217100
  C      5.487420   -2.379860   -1.925800
  C      6.228310   -4.697180   -1.681060
  N      6.200480   -5.770680   -2.082960
  C      7.518670   -3.578000    0.958180
  C      8.135600   -4.772050    0.753840
  C      9.010220   -5.477490    1.616080
  N      9.284600   -5.298530    2.957160
  C      8.617610   -4.443290    3.911750
  C      7.166500   -4.854900    4.139070
  C     10.267370   -6.197470    3.406710
  O     10.672210   -6.232220    4.555800
  C     10.625370   -6.970130    2.241210
  C      9.828220   -6.515080    1.170130
  C     10.194760   -7.258950   -0.019100
  O      9.810610   -7.209460   -1.163970
  N     11.193050   -8.150080    0.434550
  C     11.850310   -9.058670   -0.473740
  C     13.206420   -8.526000   -0.929520
  C     11.471340   -7.979480    1.766570
  C     12.452290   -8.707020    2.476650
  C     12.699000   -8.472350    3.794760
  C     13.687090   -9.141190    4.548110
  S     14.733440  -10.339470    3.857660
  C     15.558010  -10.553110    5.375020
  C     15.024680   -9.700180    6.359080
  C     13.971230   -8.921390    5.899630
  C     13.233400   -7.940020    6.757290
  C     13.508880   -8.218730    8.237580
  N     12.953400   -7.072370    9.015110
  O     13.727720   -6.207750    9.341630
  O     11.769960   -7.085260    9.214370
  C     15.008450   -8.354160    8.452690
  N     15.338600   -8.462860    9.905980
  O     14.461710   -8.851850   10.635560
  O     16.464330   -8.190280   10.218440
  C     15.517750   -9.630150    7.773500
  C     16.602080  -11.457670    5.626220
  C     17.245230  -12.337860    4.796000
  C     16.989600  -12.526260    3.353030
  O     16.151700  -11.960750    2.675270
  C     17.958920  -13.532230    2.912980
  C     18.293850  -14.160110    1.756670
  S     19.589900  -15.265930    2.017250
  C     19.682580  -14.882210    3.695850
  C     18.754580  -13.944260    4.030950
  C     18.322260  -13.223970    5.212230
  C     18.856820  -13.395490    6.463070
  C     19.908990  -14.308680    6.686390
  N     20.765140  -15.046990    6.880890
  C     18.447740  -12.729430    7.633920
  N     18.144700  -12.214670    8.615460
  H      2.666620    4.113870   -4.815430
  H      3.315460    0.201810   -7.041170
  H      5.005150    0.823530   -0.813320
  H      5.017880   -2.553860   -2.877290
  H      7.670220   -3.024670    1.872700
  H      8.028000   -5.253890   -0.209780
  H      8.691290   -3.398670    3.597920
  H      9.180360   -4.557030    4.843560
  H      6.590410   -4.801190    3.218320
  H      6.712240   -4.197950    4.875420
  H      7.124660   -5.875000    4.512880
  H     11.186020   -9.154510   -1.337100
  H     11.956750  -10.036930    0.002580
  H     13.079240   -7.570570   -1.432470
  H     13.659850   -9.226640   -1.624730
  H     13.877470   -8.388430   -0.084590
  H     13.023090   -9.460400    1.952430
  H     12.118370   -7.716890    4.306710
  H     12.160230   -7.986550    6.562890
  H     13.563620   -6.925460    6.507790
  H     12.975790   -9.115010    8.569170
  H     15.543100   -7.477830    8.073120
  H     15.158440  -10.505230    8.327370
  H     16.609120   -9.643160    7.813100
  H     16.943210  -11.447710    6.652380
  H     17.868730  -14.046670    0.779620
  H     20.411460  -15.373040    4.309070

 Total Charge           Charge          ....    0
 Multiplicity           Mult            ....    1
 Number of Electrons    NEL             ....  512
 Basis Dimension        Dim             .... 1131

ORBITAL ENERGIES
----------------

  NO   OCC          E(Eh)            E(eV)
   0   2.0000     -88.995339     -2421.6863
   1   2.0000     -88.990136     -2421.5447
   2   2.0000     -88.989097     -2421.5164
   3   2.0000     -88.983045     -2421.3518
   4   2.0000     -19.255498      -523.9687
   5   2.0000     -19.255496      -523.9687
   6   2.0000     -19.255066      -523.9570
   7   2.0000     -19.254879      -523.9519
   8   2.0000     -19.236377      -523.4484
   9   2.0000     -19.227981      -523.2200
  10   2.0000     -19.206042      -522.6230
  11   2.0000     -19.204935      -522.5929
  12   2.0000     -14.654857      -398.7789
  13   2.0000     -14.654381      -398.7660
  14   2.0000     -14.467710      -393.6864
  15   2.0000     -14.466734      -393.6599
  16   2.0000     -14.431414      -392.6987
  17   2.0000     -14.424556      -392.5121
  18   2.0000     -14.424472      -392.5098
  19   2.0000     -14.420036      -392.3891
  20   2.0000     -14.412985      -392.1973
  21   2.0000     -10.389001      -282.6991
  22   2.0000     -10.388991      -282.6988
  23   2.0000     -10.387523      -282.6589
  24   2.0000     -10.383041      -282.5369
  25   2.0000     -10.360039      -281.9110
  26   2.0000     -10.356305      -281.8094
  27   2.0000     -10.354132      -281.7502
  28   2.0000     -10.353882      -281.7434
  29   2.0000     -10.353204      -281.7250
  30   2.0000     -10.351027      -281.6658
  31   2.0000     -10.349825      -281.6330
  32   2.0000     -10.349010      -281.6109
  33   2.0000     -10.348609      -281.6000
  34   2.0000     -10.338332      -281.3203
  35   2.0000     -10.336090      -281.2593
  36   2.0000     -10.335131      -281.2332
  37   2.0000     -10.335026      -281.2304
  38   2.0000     -10.333983      -281.2020
  39   2.0000     -10.333172      -281.1799
  40   2.0000     -10.333029      -281.1760
  41   2.0000     -10.328838      -281.0620
  42   2.0000     -10.328538      -281.0538
  43   2.0000     -10.328249      -281.0459
  44   2.0000     -10.327798      -281.0337
  45   2.0000     -10.327041      -281.0131
  46   2.0000     -10.326844      -281.0077
  47   2.0000     -10.323239      -280.9096
  48   2.0000     -10.322510      -280.8898
  49   2.0000     -10.319815      -280.8164
  50   2.0000     -10.319568      -280.8097
  51   2.0000     -10.316942      -280.7383
  52   2.0000     -10.316709      -280.7319
  53   2.0000     -10.315722      -280.7051
  54   2.0000     -10.315273      -280.6928
  55   2.0000     -10.314696      -280.6772
  56   2.0000     -10.314543      -280.6730
  57   2.0000     -10.314356      -280.6679
  58   2.0000     -10.313365      -280.6409
  59   2.0000     -10.312956      -280.6298
  60   2.0000     -10.312700      -280.6228
  61   2.0000     -10.312082      -280.6060
  62   2.0000     -10.309625      -280.5392
  63   2.0000     -10.308927      -280.5202
  64   2.0000     -10.304104      -280.3889
  65   2.0000     -10.297690      -280.2144
  66   2.0000     -10.280416      -279.7443
  67   2.0000     -10.276316      -279.6328
  68   2.0000     -10.273822      -279.5649
  69   2.0000     -10.270918      -279.4859
  70   2.0000      -8.091137      -220.1710
  71   2.0000      -8.085895      -220.0284
  72   2.0000      -8.084892      -220.0011
  73   2.0000      -8.076477      -219.7721
  74   2.0000      -6.060345      -164.9104
  75   2.0000      -6.055628      -164.7820
  76   2.0000      -6.055084      -164.7672
  77   2.0000      -6.053946      -164.7362
  78   2.0000      -6.053910      -164.7353
  79   2.0000      -6.050389      -164.6394
  80   2.0000      -6.049963      -164.6279
  81   2.0000      -6.048717      -164.5939
  82   2.0000      -6.047198      -164.5526
  83   2.0000      -6.045698      -164.5118
  84   2.0000      -6.041369      -164.3940
  85   2.0000      -6.038846      -164.3254
  86   2.0000      -1.341134       -36.4941
  87   2.0000      -1.334801       -36.3218
  88   2.0000      -1.161779       -31.6136
  89   2.0000      -1.159501       -31.5516
  90   2.0000      -1.152345       -31.3569
  91   2.0000      -1.147964       -31.2377
  92   2.0000      -1.143928       -31.1279
  93   2.0000      -1.140894       -31.0453
  94   2.0000      -1.078345       -29.3433
  95   2.0000      -1.067994       -29.0616
  96   2.0000      -1.036813       -28.2131
  97   2.0000      -1.031235       -28.0613
  98   2.0000      -1.027946       -27.9718
  99   2.0000      -1.024850       -27.8876
 100   2.0000      -1.020243       -27.7622
 101   2.0000      -1.014283       -27.6000
 102   2.0000      -1.005997       -27.3746
 103   2.0000      -1.000638       -27.2288
 104   2.0000      -0.993372       -27.0310
 105   2.0000      -0.988111       -26.8879
 106   2.0000      -0.976561       -26.5736
 107   2.0000      -0.971251       -26.4291
 108   2.0000      -0.945286       -25.7225
 109   2.0000      -0.939183       -25.5565
 110   2.0000      -0.933842       -25.4111
 111   2.0000      -0.917148       -24.9569
 112   2.0000      -0.912991       -24.8437
 113   2.0000      -0.910120       -24.7656
 114   2.0000      -0.901176       -24.5223
 115   2.0000      -0.898601       -24.4522
 116   2.0000      -0.888401       -24.1746
 117   2.0000      -0.881961       -23.9994
 118   2.0000      -0.875820       -23.8323
 119   2.0000      -0.857289       -23.3280
 120   2.0000      -0.853918       -23.2363
 121   2.0000      -0.851062       -23.1586
 122   2.0000      -0.847967       -23.0743
 123   2.0000      -0.832089       -22.6423
 124   2.0000      -0.819546       -22.3010
 125   2.0000      -0.806717       -21.9519
 126   2.0000      -0.804294       -21.8859
 127   2.0000      -0.790587       -21.5130
 128   2.0000      -0.779422       -21.2091
 129   2.0000      -0.771862       -21.0034
 130   2.0000      -0.769895       -20.9499
 131   2.0000      -0.763259       -20.7693
 132   2.0000      -0.758443       -20.6383
 133   2.0000      -0.737578       -20.0705
 134   2.0000      -0.731012       -19.8918
 135   2.0000      -0.720955       -19.6182
 136   2.0000      -0.716094       -19.4859
 137   2.0000      -0.709942       -19.3185
 138   2.0000      -0.703699       -19.1486
 139   2.0000      -0.696793       -18.9607
 140   2.0000      -0.692067       -18.8321
 141   2.0000      -0.684785       -18.6339
 142   2.0000      -0.683145       -18.5893
 143   2.0000      -0.676534       -18.4094
 144   2.0000      -0.675935       -18.3931
 145   2.0000      -0.670906       -18.2563
 146   2.0000      -0.663869       -18.0648
 147   2.0000      -0.662593       -18.0301
 148   2.0000      -0.653006       -17.7692
 149   2.0000      -0.650687       -17.7061
 150   2.0000      -0.648787       -17.6544
 151   2.0000      -0.644286       -17.5319
 152   2.0000      -0.638592       -17.3770
 153   2.0000      -0.632861       -17.2210
 154   2.0000      -0.627576       -17.0772
 155   2.0000      -0.621170       -16.9029
 156   2.0000      -0.616610       -16.7788
 157   2.0000      -0.611421       -16.6376
 158   2.0000      -0.609082       -16.5740
 159   2.0000      -0.606421       -16.5015
 160   2.0000      -0.603601       -16.4248
 161   2.0000      -0.599152       -16.3038
 162   2.0000      -0.594125       -16.1670
 163   2.0000      -0.591721       -16.1015
 164   2.0000      -0.584438       -15.9034
 165   2.0000      -0.580911       -15.8074
 166   2.0000      -0.577715       -15.7204
 167   2.0000      -0.568443       -15.4681
 168   2.0000      -0.561937       -15.2911
 169   2.0000      -0.560089       -15.2408
 170   2.0000      -0.557419       -15.1681
 171   2.0000      -0.556606       -15.1460
 172   2.0000      -0.553859       -15.0713
 173   2.0000      -0.549103       -14.9418
 174   2.0000      -0.545265       -14.8374
 175   2.0000      -0.543533       -14.7903
 176   2.0000      -0.543331       -14.7848
 177   2.0000      -0.542011       -14.7489
 178   2.0000      -0.541289       -14.7292
 179   2.0000      -0.539323       -14.6757
 180   2.0000      -0.529373       -14.4050
 181   2.0000      -0.526298       -14.3213
 182   2.0000      -0.524706       -14.2780
 183   2.0000      -0.524313       -14.2673
 184   2.0000      -0.520695       -14.1688
 185   2.0000      -0.518493       -14.1089
 186   2.0000      -0.517050       -14.0696
 187   2.0000      -0.515644       -14.0314
 188   2.0000      -0.510755       -13.8984
 189   2.0000      -0.510358       -13.8875
 190   2.0000      -0.509982       -13.8773
 191   2.0000      -0.504164       -13.7190
 192   2.0000      -0.503264       -13.6945
 193   2.0000      -0.496210       -13.5026
 194   2.0000      -0.494826       -13.4649
 195   2.0000      -0.491645       -13.3783
 196   2.0000      -0.489770       -13.3273
 197   2.0000      -0.486588       -13.2407
 198   2.0000      -0.483040       -13.1442
 199   2.0000      -0.481753       -13.1092
 200   2.0000      -0.480644       -13.0790
 201   2.0000      -0.479816       -13.0565
 202   2.0000      -0.477249       -12.9866
 203   2.0000      -0.474537       -12.9128
 204   2.0000      -0.474353       -12.9078
 205   2.0000      -0.468120       -12.7382
 206   2.0000      -0.464826       -12.6485
 207   2.0000      -0.463563       -12.6142
 208   2.0000      -0.460946       -12.5430
 209   2.0000      -0.460008       -12.5175
 210   2.0000      -0.456877       -12.4323
 211   2.0000      -0.455922       -12.4063
 212   2.0000      -0.454548       -12.3689
 213   2.0000      -0.454007       -12.3542
 214   2.0000      -0.452779       -12.3207
 215   2.0000      -0.451449       -12.2846
 216   2.0000      -0.450823       -12.2675
 217   2.0000      -0.448397       -12.2015
 218   2.0000      -0.444985       -12.1087
 219   2.0000      -0.444010       -12.0821
 220   2.0000      -0.439810       -11.9678
 221   2.0000      -0.439502       -11.9595
 222   2.0000      -0.439139       -11.9496
 223   2.0000      -0.434247       -11.8165
 224   2.0000      -0.433170       -11.7871
 225   2.0000      -0.432034       -11.7562
 226   2.0000      -0.431174       -11.7328
 227   2.0000      -0.426696       -11.6110
 228   2.0000      -0.425559       -11.5801
 229   2.0000      -0.420885       -11.4529
 230   2.0000      -0.417618       -11.3640
 231   2.0000      -0.411014       -11.1843
 232   2.0000      -0.406305       -11.0561
 233   2.0000      -0.401953       -10.9377
 234   2.0000      -0.395690       -10.7673
 235   2.0000      -0.391550       -10.6546
 236   2.0000      -0.388418       -10.5694
 237   2.0000      -0.385865       -10.4999
 238   2.0000      -0.382012       -10.3951
 239   2.0000      -0.380247       -10.3470
 240   2.0000      -0.365161        -9.9365
 241   2.0000      -0.362439        -9.8625
 242   2.0000      -0.360087        -9.7985
 243   2.0000      -0.351577        -9.5669
 244   2.0000      -0.350091        -9.5265
 245   2.0000      -0.349838        -9.5196
 246   2.0000      -0.346261        -9.4222
 247   2.0000      -0.345335        -9.3970
 248   2.0000      -0.343104        -9.3363
 249   2.0000      -0.340423        -9.2634
 250   2.0000      -0.330608        -8.9963
 251   2.0000      -0.327247        -8.9049
 252   2.0000      -0.323107        -8.7922
 253   2.0000      -0.302066        -8.2196
 254   2.0000      -0.294379        -8.0105
 255   2.0000      -0.247741        -6.7414
 256   0.0000      -0.127582        -3.4717
 257   0.0000      -0.104290        -2.8379
 258   0.0000      -0.079936        -2.1752
 259   0.0000      -0.062881        -1.7111
 260   0.0000      -0.054913        -1.4943

MULLIKEN ATOMIC CHARGES
-----------------------
   0 C :    0.029705
   1 C :   -0.133589
   2 S :    0.165951
   3 C :   -0.136393
   4 C :    0.031117
   5 C :    0.177682
   6 O :   -0.145679
   7 C :   -0.101932
   8 C :    0.298469
   9 C :   -0.341263
  10 C :   -0.192468
  11 N :    0.155685
  12 C :   -0.179237
  13 N :    0.152164
  14 C :    0.052562
  15 C :   -0.105057
  16 S :    0.171404
  17 C :   -0.059945
  18 C :   -0.069445
  19 C :    0.033374
  20 C :   -0.184474
  21 N :    0.146662
  22 C :    0.054573
  23 C :   -0.034344
  24 C :    0.103316
  25 N :   -0.263002
  26 C :    0.094609
  27 C :   -0.004688
  28 C :    0.167149
  29 O :   -0.224492
  30 C :   -0.072647
  31 C :   -0.028240
  32 C :    0.156239
  33 O :   -0.163884
  34 N :   -0.264100
  35 C :    0.093225
  36 C :    0.002823
  37 C :    0.156491
  38 C :   -0.023345
  39 C :   -0.022328
  40 C :   -0.058620
  41 S :    0.184665
  42 C :   -0.069397
  43 C :   -0.092051
  44 C :   -0.088432
  45 C :    0.212782
  46 C :    0.018309
  47 N :    0.225732
  48 O :   -0.231602
  49 O :   -0.213136
  50 C :    0.027325
  51 N :    0.225510
  52 O :   -0.230331
  53 O :   -0.209298
  54 C :    0.201469
  55 C :   -0.057435
  56 C :   -0.101280
  57 C :    0.182400
  58 O :   -0.172273
  59 C :    0.033839
  60 C :   -0.136905
  61 S :    0.167409
  62 C :   -0.131669
  63 C :    0.026178
  64 C :    0.299950
  65 C :   -0.332499
  66 C :   -0.191773
  67 N :    0.157147
  68 C :   -0.173491
  69 N :    0.146998
  70 H :    0.053408
  71 H :    0.043180
  72 H :    0.006339
  73 H :    0.029063
  74 H :   -0.020946
  75 H :    0.032074
  76 H :    0.029265
  77 H :    0.050205
  78 H :    0.026023
  79 H :    0.029256
  80 H :    0.027215
  81 H :    0.049941
  82 H :    0.027514
  83 H :    0.031712
  84 H :    0.028768
  85 H :    0.016243
  86 H :   -0.005362
  87 H :    0.021886
  88 H :    0.063260
  89 H :    0.044611
  90 H :    0.050584
  91 H :    0.050288
  92 H :    0.050388
  93 H :    0.063505
  94 H :   -0.005598
  95 H :    0.040480
  96 H :    0.054532
Sum of atomic charges:   -0.0000000

LOEWDIN ATOMIC CHARGES
----------------------
   0 C :   -0.064684
   1 C :   -0.149155
   2 S :    0.493523
   3 C :   -0.138200
   4 C :   -0.091277
   5 C :    0.087936
   6 O :   -0.135230
   7 C :   -0.087680
   8 C :    0.076918
   9 C :   -0.141248
  10 C :   -0.014707
  11 N :   -0.052521
  12 C :   -0.025410
  13 N :   -0.049078
  14 C :    0.044234
  15 C :   -0.180213
  16 S :    0.479731
  17 C :   -0.121910
  18 C :   -0.106764
  19 C :    0.024121
  20 C :   -0.034334
  21 N :   -0.037645
  22 C :   -0.046263
  23 C :    0.003326
  24 C :    0.058010
  25 N :   -0.001065
  26 C :    0.035405
  27 C :   -0.061807
  28 C :    0.081039
  29 O :   -0.209633
  30 C :   -0.126198
  31 C :   -0.092367
  32 C :    0.083797
  33 O :   -0.167528
  34 N :   -0.002511
  35 C :    0.036785
  36 C :   -0.060405
  37 C :    0.087991
  38 C :   -0.038973
  39 C :    0.013901
  40 C :   -0.163761
  41 S :    0.521613
  42 C :   -0.181112
  43 C :   -0.028254
  44 C :   -0.053659
  45 C :   -0.012144
  46 C :    0.005014
  47 N :    0.274945
  48 O :   -0.199670
  49 O :   -0.178340
  50 C :    0.006125
  51 N :    0.274241
  52 O :   -0.198486
  53 O :   -0.175384
  54 C :   -0.015375
  55 C :    0.048127
  56 C :   -0.095837
  57 C :    0.083972
  58 O :   -0.163256
  59 C :   -0.091622
  60 C :   -0.138284
  61 S :    0.494242
  62 C :   -0.147346
  63 C :   -0.063287
  64 C :    0.076487
  65 C :   -0.141133
  66 C :   -0.015845
  67 N :   -0.049684
  68 C :   -0.020775
  69 N :   -0.050235
  70 H :    0.036398
  71 H :    0.037158
  72 H :    0.043635
  73 H :    0.043776
  74 H :    0.029880
  75 H :    0.054480
  76 H :    0.019882
  77 H :    0.039559
  78 H :    0.023025
  79 H :    0.033798
  80 H :    0.032401
  81 H :    0.040619
  82 H :    0.025077
  83 H :    0.033178
  84 H :    0.033030
  85 H :    0.022018
  86 H :    0.027788
  87 H :    0.040098
  88 H :    0.051787
  89 H :    0.048007
  90 H :    0.046009
  91 H :    0.045861
  92 H :    0.050205
  93 H :    0.049629
  94 H :    0.047781
  95 H :    0.036464
  96 H :    0.037269

  Mayer bond orders larger than 0.100000
B(  0-C ,  1-C ) :   1.5322 B(  0-C ,  4-C ) :   1.2233 B(  0-C ,  8-C ) :   0.9943
B(  1-C ,  2-S ) :   1.1840 B(  1-C , 70-H ) :   0.9550 B(  2-S ,  3-C ) :   1.1933
B(  3-C ,  4-C ) :   1.5364 B(  3-C , 71-H ) :   0.9707 B(  4-C ,  5-C ) :   0.9653
B(  5-C ,  6-O ) :   2.1765 B(  5-C ,  7-C ) :   0.9259 B(  7-C ,  8-C ) :   1.0805
B(  7-C , 14-C ) :   1.6328 B(  8-C ,  9-C ) :   1.6397 B(  9-C , 10-C ) :   1.1529
B(  9-C , 12-C ) :   1.1318 B( 10-C , 11-N ) :   2.9902 B( 12-C , 13-N ) :   2.9672
B( 14-C , 15-C ) :   1.1911 B( 14-C , 72-H ) :   0.9093 B( 15-C , 16-S ) :   1.1010
B( 15-C , 19-C ) :   1.4322 B( 16-S , 17-C ) :   1.1738 B( 17-C , 18-C ) :   1.3954
B( 17-C , 22-C ) :   1.1642 B( 18-C , 19-C ) :   1.3090 B( 18-C , 20-C ) :   1.1103
B( 19-C , 73-H ) :   0.9825 B( 20-C , 21-N ) :   2.9962 B( 22-C , 23-C ) :   1.5733
B( 22-C , 74-H ) :   0.9484 B( 23-C , 24-C ) :   1.2068 B( 23-C , 75-H ) :   0.9341
B( 24-C , 25-N ) :   1.1532 B( 24-C , 31-C ) :   1.3519 B( 25-N , 26-C ) :   0.9397
B( 25-N , 28-C ) :   1.0789 B( 26-C , 27-C ) :   1.1165 B( 26-C , 76-H ) :   0.9499
B( 26-C , 77-H ) :   0.9231 B( 27-C , 78-H ) :   0.9673 B( 27-C , 79-H ) :   0.9672
B( 27-C , 80-H ) :   0.9628 B( 28-C , 29-O ) :   1.9861 B( 28-C , 30-C ) :   1.0014
B( 29-O , 87-H ) :   0.1244 B( 30-C , 31-C ) :   1.2640 B( 30-C , 37-C ) :   1.3017
B( 31-C , 32-C ) :   0.9586 B( 32-C , 33-O ) :   2.1554 B( 32-C , 34-N ) :   1.0240
B( 34-N , 35-C ) :   0.9407 B( 34-N , 37-C ) :   1.1793 B( 35-C , 36-C ) :   1.1222
B( 35-C , 81-H ) :   0.9287 B( 35-C , 82-H ) :   0.9507 B( 36-C , 83-H ) :   0.9636
B( 36-C , 84-H ) :   0.9676 B( 36-C , 85-H ) :   0.9681 B( 37-C , 38-C ) :   1.1688
B( 38-C , 39-C ) :   1.5501 B( 38-C , 86-H ) :   0.9720 B( 39-C , 40-C ) :   1.1843
B( 39-C , 87-H ) :   0.9456 B( 40-C , 41-S ) :   1.1081 B( 40-C , 44-C ) :   1.3992
B( 41-S , 42-C ) :   1.1089 B( 42-C , 43-C ) :   1.3791 B( 42-C , 55-C ) :   1.2555
B( 43-C , 44-C ) :   1.4014 B( 43-C , 54-C ) :   1.0570 B( 44-C , 45-C ) :   1.0531
B( 45-C , 46-C ) :   1.0401 B( 45-C , 88-H ) :   0.8988 B( 45-C , 89-H ) :   0.8912
B( 46-C , 47-N ) :   0.8369 B( 46-C , 50-C ) :   0.9838 B( 46-C , 90-H ) :   0.9043
B( 47-N , 48-O ) :   1.5608 B( 47-N , 49-O ) :   1.5839 B( 48-O , 49-O ) :   0.2769
B( 50-C , 51-N ) :   0.8368 B( 50-C , 54-C ) :   1.0393 B( 50-C , 91-H ) :   0.9043
B( 51-N , 52-O ) :   1.5609 B( 51-N , 53-O ) :   1.5855 B( 52-O , 53-O ) :   0.2776
B( 54-C , 92-H ) :   0.8880 B( 54-C , 93-H ) :   0.8951 B( 55-C , 56-C ) :   1.5466
B( 55-C , 94-H ) :   0.9268 B( 56-C , 57-C ) :   0.9566 B( 56-C , 64-C ) :   1.0833
B( 57-C , 58-O ) :   2.1444 B( 57-C , 59-C ) :   0.9689 B( 59-C , 60-C ) :   1.5331
B( 59-C , 63-C ) :   1.2245 B( 60-C , 61-S ) :   1.1935 B( 60-C , 95-H ) :   0.9720
B( 61-S , 62-C ) :   1.1811 B( 62-C , 63-C ) :   1.5361 B( 62-C , 96-H ) :   0.9560
B( 63-C , 64-C ) :   0.9944 B( 64-C , 65-C ) :   1.6400 B( 65-C , 66-C ) :   1.1481
B( 65-C , 68-C ) :   1.1437 B( 66-C , 67-N ) :   2.9906 B( 68-C , 69-N ) :   2.9520

-----------------------------------------------------------------------------
         ABSORPTION SPECTRUM VIA TRANSITION ELECTRIC DIPOLE MOMENTS
-----------------------------------------------------------------------------
State   Energy  Wavelength   fosc         T2         TX        TY        TZ
        (cm-1)    (nm)                  (au**2)     (au)      (au)      (au)
-----------------------------------------------------------------------------
   0   12093.5    826.9   1.542556677  41.99199   4.38115  -4.40225   1.84870
   1   18369.3    544.4   0.117334235   2.10284   0.42180  -1.19194   0.71008
   2   22151.6    451.4   0.429816994   6.38784  -1.98295   1.32734  -0.83301
   3   23398.1    427.4   0.328885239   4.62742  -0.95232   1.57565  -1.11258
   4   24319.2    411.2   0.320538485   4.33918  -1.15404   1.43032  -0.98059
   5   25409.0    393.6   0.003227018   0.04181  -0.10997   0.15690  -0.07141
   6   26604.6    375.9   0.002519479   0.03118  -0.17127  -0.04069   0.01368
   7   27397.3    365.0   0.015369074   0.18468  -0.32826   0.17369  -0.21623
   8   27467.9    364.1   0.000108843   0.00130   0.02261  -0.02614   0.01049
   9   28332.4    353.0   0.019230954   0.22346  -0.18860   0.13891  -0.41060
  10   28709.6    348.3   0.003070418   0.03521   0.04476  -0.15377  -0.09777
  11   28956.2    345.3   0.053472972   0.60795  -0.42901   0.42651   0.49193
  12   29407.3    340.1   0.098123071   1.09848  -0.21965  -0.38529  -0.94962
  13   29633.9    337.5   0.043442080   0.48261  -0.32719   0.60314   0.10854
  14   30149.0    331.7   0.071494277   0.78068   0.31508  -0.78761  -0.24714
  15   30508.6    327.8   0.099265643   1.07115  -0.43398   0.36261  -0.86679
  16   30650.2    326.3   0.038417203   0.41264   0.23806  -0.18447   0.56740
  17   30964.0    323.0   0.123785059   1.31609   0.11469  -0.03991   1.14077
  18   32845.9    304.5   0.035360615   0.35442   0.02095   0.15517   0.57437
  19   33168.4    301.5   0.049099795   0.48734  -0.19292   0.51285  -0.43256
  20   33449.3    299.0   0.042774901   0.42100  -0.12324   0.63699   0.00684
  21   34356.2    291.1   0.071448002   0.68464   0.16047   0.11201   0.80395
  22   34495.0    289.9   0.000479475   0.00458   0.02192  -0.03903  -0.05072
  23   34844.3    287.0   0.024758060   0.23392   0.31154  -0.32768   0.17171
  24   34927.8    286.3   0.021737335   0.20488  -0.16571  -0.29476  -0.30091
  25   35512.0    281.6   0.000193340   0.00179  -0.01476   0.03309  -0.02189
  26   35766.1    279.6   0.005842188   0.05377   0.12366  -0.05627   0.18793
  27   35854.1    278.9   0.047858365   0.43943  -0.26140   0.12902  -0.59536
  28   36216.7    276.1   0.028007873   0.25459   0.23055   0.12686   0.43052
  29   36455.0    274.3   0.032066307   0.28958  -0.42790   0.31366  -0.09000
  30   36973.1    270.5   0.453678731   4.03959   0.18671   0.43100   1.95422
  31   37681.2    265.4   0.192837393   1.68478   0.21575   0.16392   1.26939
  32   37721.0    265.1   0.004383216   0.03825   0.04728   0.04526   0.18431
  33   38023.1    263.0   0.001414885   0.01225  -0.02005  -0.01968  -0.10706
  34   38404.9    260.4   0.354203811   3.03628   0.42774   0.06733   1.68784
  35   38479.1    259.9   0.323663236   2.76913  -0.02335  -0.40257  -1.61447
  36   38681.7    258.5   0.048166137   0.40993  -0.01368   0.18560   0.61261
  37   38868.6    257.3   0.035414399   0.29996  -0.23387   0.49002  -0.07173
  38   39059.1    256.0   0.368590462   3.10669   0.09467   0.70052   1.61462
  39   39281.7    254.6   0.026152742   0.21918  -0.29830   0.22174  -0.28466
  40   39654.3    252.2   0.000801686   0.00666  -0.01669   0.07487   0.02777
  41   39972.2    250.2   0.003061036   0.02521  -0.07155   0.13976   0.02360
  42   40106.3    249.3   0.001869335   0.01534  -0.04484  -0.01267  -0.11477

FINAL SINGLE POINT ENERGY     -4566.334306901101

DIPOLE MOMENT
-------------
                                X             Y             Z
Electronic contribution:     -1.06852       9.67476     -10.49068
Nuclear contribution   :      1.56558     -11.00162       6.40621
                        -----------------------------------------
Total Dipole Moment    :      0.49706      -1.32686      -4.08448
                        -----------------------------------------
Magnitude (a.u.)       :      4.32326
Magnitude (Debye)      :     10.98885

Rotational constants in cm-1:     0.001903     0.000234     0.000212
Rotational constants in MHz :    57.054400     7.009851     6.359149

                             ****ORCA TERMINATED NORMALLY****
TOTAL RUN TIME: 0 days 0 hours 9 minutes 31 seconds 148 msec
