                         Program Version 4.2.0 -  RELEASE  -
|  1> # ORCA input file
|  2> # SCF done       -187.916177721147          0.000749404585
|  3> ! CAM-B3LYP def2-SVP def2/J RIJCOSX Grid4 TightSCF
|  4> %maxcore 5000
|  5> %tddft
|  6>     Mode sTDDFT
|  7>     Ethresh 5.0
|  8>     maxcore 5000
|  9> end
| 10>
| 11> %pal
| 12>   nprocs 6
| 13>   end
| 14> * xyz 0 1
| 15>    C        1.67176         2.24433        -3.06093
| 16>    C        1.14751         3.41614        -3.51278
| 17>    S        2.15136         4.12140        -4.72543
| 18>    C        3.30603         2.81324        -4.62393
| 19>   Cl        4.69667         2.78588        -5.58980
| 20>    C        2.90826         1.89781        -3.69487
| 21>    C        3.41775         0.63246        -3.15680
| 22>    O        4.43168         0.05490        -3.47028
| 23>    C        2.36783         0.18916        -2.18043
| 24>    C        1.33731         1.22207        -2.09302
| 25>    C        0.28052         1.28023        -1.22719
| 26>    C       -0.62680         2.36178        -1.25088
| 27>    N       -1.37300         3.23256        -1.26247
| 28>    C       -0.01290         0.33504        -0.22274
| 29>    N       -0.29392        -0.38749         0.62358
| 30>    C        2.27019        -1.04293        -1.62542
| 31>    C        3.25262        -2.10049        -1.63338
| 32>    C        2.80714        -3.42237        -1.69935
| 33>    C        3.70723        -4.47037        -1.72610
| 34>    N        3.16913        -5.80912        -1.72288
| 35>    O        2.05034        -5.95769        -2.16254
| 36>    O        3.85482        -6.69059        -1.25151
| 37>    C        5.09710        -4.25252        -1.67274
| 38>    C        5.52135        -2.92414        -1.53772
| 39>    C        4.63129        -1.87520        -1.51558
| 40>    C        6.04508        -5.32965        -1.81703
| 41>    C        7.23485        -5.38403        -1.18027
| 42>    C        8.14827        -6.45552        -1.38692
| 43>    N        9.30195        -6.63391        -0.66626
| 44>    C        9.75317        -5.84586         0.45438
| 45>    C        8.98097        -6.18019         1.72842
| 46>    C       10.00570        -7.78844        -1.07175
| 47>    O       11.04165        -8.14934        -0.55818
| 48>    C        9.20678        -8.32725        -2.15275
| 49>    C        8.07585        -7.48984        -2.31636
| 50>    C        7.26695        -8.03686        -3.38386
| 51>    O        6.24328        -7.64814        -3.90930
| 52>    N        7.95058        -9.19902        -3.77555
| 53>    C        7.41659       -10.04693        -4.81493
| 54>    C        6.50499       -11.12931        -4.24393
| 55>    C        9.10881        -9.38460        -3.05620
| 56>    C       10.00067       -10.46800        -3.25324
| 57>    C       11.24951       -10.50251        -2.71667
| 58>    C       12.13990       -11.58693        -2.90649
| 59>    O       11.72445       -12.73606        -3.47141
| 60>    C       12.76965       -13.60377        -3.49247
| 61>    C       13.88713       -12.99277        -2.94327
| 62>    C       13.49198       -11.70577        -2.55783
| 63>    C       14.33163       -10.64910        -1.97035
| 64>    O       14.07324        -9.47301        -1.99437
| 65>    O       15.44265       -11.16129        -1.42719
| 66>    C       16.32525       -10.22309        -0.82864
| 67>    C       12.64513       -14.88719        -4.07482
| 68>    C       11.50619       -15.52291        -4.46544
| 69>    C       11.58317       -16.62597        -5.47252
| 70>    O       12.57606       -17.21847        -5.81911
| 71>    C       10.20461       -16.75887        -5.96495
| 72>    C        9.54636       -17.47175        -6.92156
| 73>    S        7.84394       -17.07220        -6.92327
| 74>    C        8.03987       -15.95523        -5.62027
| 75>    C        9.33689       -15.89160        -5.22093
| 76>    C       10.11376       -15.22676        -4.19185
| 77>    C        9.58970       -14.65227        -3.06462
| 78>    C        8.20638       -14.43188        -2.92721
| 79>    N        7.08708       -14.20069        -2.82061
| 80>    C       10.34743       -14.31841        -1.92400
| 81>    N       10.92032       -14.09992        -0.95409
| 82>   Cl       10.18437       -18.60738        -8.00468
| 83>    H        0.24203         3.91227        -3.22469
| 84>    H        1.33219        -1.30822        -1.15146
| 85>    H        1.75089        -3.64677        -1.74261
| 86>    H        6.57989        -2.72198        -1.48755
| 87>    H        4.99891        -0.87066        -1.38979
| 88>    H        5.77350        -6.14123        -2.48068
| 89>    H        7.50157        -4.62879        -0.45406
| 90>    H        9.66846        -4.78241         0.21332
| 91>    H       10.80989        -6.09289         0.58981
| 92>    H        7.91649        -5.99594         1.60015
| 93>    H        9.34654        -5.57282         2.55179
| 94>    H        9.12115        -7.22820         1.98063
| 95>    H        8.23882       -10.48147        -5.38851
| 96>    H        6.83375        -9.39512        -5.47263
| 97>    H        7.03864       -11.77453        -3.55016
| 98>    H        6.10625       -11.73949        -5.04946
| 99>    H        5.67444       -10.66824        -3.71601
|100>    H        9.67158       -11.28674        -3.87887
|101>    H       11.62840        -9.68079        -2.12479
|102>    H       14.85962       -13.42533        -2.82961
|103>    H       17.09705       -10.80534        -0.33224
|104>    H       15.78591        -9.60273        -0.11027
|105>    H       16.76367        -9.57596        -1.59143
|106>    H       13.57765       -15.38185        -4.31848
|107>    H        7.18715       -15.42220        -5.24875
|108> *
|109>
|110>                          ****END OF INPUT****

CARTESIAN COORDINATES (ANGSTROEM)
---------------------------------
  C      1.671760    2.244330   -3.060930
  C      1.147510    3.416140   -3.512780
  S      2.151360    4.121400   -4.725430
  C      3.306030    2.813240   -4.623930
  Cl     4.696670    2.785880   -5.589800
  C      2.908260    1.897810   -3.694870
  C      3.417750    0.632460   -3.156800
  O      4.431680    0.054900   -3.470280
  C      2.367830    0.189160   -2.180430
  C      1.337310    1.222070   -2.093020
  C      0.280520    1.280230   -1.227190
  C     -0.626800    2.361780   -1.250880
  N     -1.373000    3.232560   -1.262470
  C     -0.012900    0.335040   -0.222740
  N     -0.293920   -0.387490    0.623580
  C      2.270190   -1.042930   -1.625420
  C      3.252620   -2.100490   -1.633380
  C      2.807140   -3.422370   -1.699350
  C      3.707230   -4.470370   -1.726100
  N      3.169130   -5.809120   -1.722880
  O      2.050340   -5.957690   -2.162540
  O      3.854820   -6.690590   -1.251510
  C      5.097100   -4.252520   -1.672740
  C      5.521350   -2.924140   -1.537720
  C      4.631290   -1.875200   -1.515580
  C      6.045080   -5.329650   -1.817030
  C      7.234850   -5.384030   -1.180270
  C      8.148270   -6.455520   -1.386920
  N      9.301950   -6.633910   -0.666260
  C      9.753170   -5.845860    0.454380
  C      8.980970   -6.180190    1.728420
  C     10.005700   -7.788440   -1.071750
  O     11.041650   -8.149340   -0.558180
  C      9.206780   -8.327250   -2.152750
  C      8.075850   -7.489840   -2.316360
  C      7.266950   -8.036860   -3.383860
  O      6.243280   -7.648140   -3.909300
  N      7.950580   -9.199020   -3.775550
  C      7.416590  -10.046930   -4.814930
  C      6.504990  -11.129310   -4.243930
  C      9.108810   -9.384600   -3.056200
  C     10.000670  -10.468000   -3.253240
  C     11.249510  -10.502510   -2.716670
  C     12.139900  -11.586930   -2.906490
  O     11.724450  -12.736060   -3.471410
  C     12.769650  -13.603770   -3.492470
  C     13.887130  -12.992770   -2.943270
  C     13.491980  -11.705770   -2.557830
  C     14.331630  -10.649100   -1.970350
  O     14.073240   -9.473010   -1.994370
  O     15.442650  -11.161290   -1.427190
  C     16.325250  -10.223090   -0.828640
  C     12.645130  -14.887190   -4.074820
  C     11.506190  -15.522910   -4.465440
  C     11.583170  -16.625970   -5.472520
  O     12.576060  -17.218470   -5.819110
  C     10.204610  -16.758870   -5.964950
  C      9.546360  -17.471750   -6.921560
  S      7.843940  -17.072200   -6.923270
  C      8.039870  -15.955230   -5.620270
  C      9.336890  -15.891600   -5.220930
  C     10.113760  -15.226760   -4.191850
  C      9.589700  -14.652270   -3.064620
  C      8.206380  -14.431880   -2.927210
  N      7.087080  -14.200690   -2.820610
  C     10.347430  -14.318410   -1.924000
  N     10.920320  -14.099920   -0.954090
  Cl    10.184370  -18.607380   -8.004680
  H      0.242030    3.912270   -3.224690
  H      1.332190   -1.308220   -1.151460
  H      1.750890   -3.646770   -1.742610
  H      6.579890   -2.721980   -1.487550
  H      4.998910   -0.870660   -1.389790
  H      5.773500   -6.141230   -2.480680
  H      7.501570   -4.628790   -0.454060
  H      9.668460   -4.782410    0.213320
  H     10.809890   -6.092890    0.589810
  H      7.916490   -5.995940    1.600150
  H      9.346540   -5.572820    2.551790
  H      9.121150   -7.228200    1.980630
  H      8.238820  -10.481470   -5.388510
  H      6.833750   -9.395120   -5.472630
  H      7.038640  -11.774530   -3.550160
  H      6.106250  -11.739490   -5.049460
  H      5.674440  -10.668240   -3.716010
  H      9.671580  -11.286740   -3.878870
  H     11.628400   -9.680790   -2.124790
  H     14.859620  -13.425330   -2.829610
  H     17.097050  -10.805340   -0.332240
  H     15.785910   -9.602730   -0.110270
  H     16.763670   -9.575960   -1.591430
  H     13.577650  -15.381850   -4.318480
  H      7.187150  -15.422200   -5.248750

 Total Charge           Charge          ....    0
 Multiplicity           Mult            ....    1
 Number of Electrons    NEL             ....  500
 Basis Dimension        Dim             .... 1093

ORBITAL ENERGIES
----------------

  NO   OCC          E(Eh)            E(eV)
   0   2.0000    -101.624205     -2765.3352
   1   2.0000    -101.615837     -2765.1075
   2   2.0000     -89.001256     -2421.8473
   3   2.0000     -88.991328     -2421.5771
   4   2.0000     -19.314768      -525.5816
   5   2.0000     -19.264248      -524.2069
   6   2.0000     -19.246117      -523.7135
   7   2.0000     -19.244146      -523.6598
   8   2.0000     -19.230972      -523.3014
   9   2.0000     -19.217096      -522.9238
  10   2.0000     -19.207002      -522.6491
  11   2.0000     -19.192009      -522.2411
  12   2.0000     -19.188039      -522.1331
  13   2.0000     -14.650730      -398.6666
  14   2.0000     -14.453763      -393.3069
  15   2.0000     -14.451022      -393.2323
  16   2.0000     -14.427670      -392.5969
  17   2.0000     -14.426884      -392.5755
  18   2.0000     -14.421412      -392.4266
  19   2.0000     -14.413123      -392.2010
  20   2.0000     -10.407223      -283.1949
  21   2.0000     -10.388706      -282.6911
  22   2.0000     -10.383970      -282.5622
  23   2.0000     -10.374450      -282.3031
  24   2.0000     -10.374430      -282.3026
  25   2.0000     -10.374252      -282.2977
  26   2.0000     -10.370969      -282.2084
  27   2.0000     -10.364255      -282.0257
  28   2.0000     -10.356792      -281.8226
  29   2.0000     -10.356208      -281.8068
  30   2.0000     -10.354864      -281.7702
  31   2.0000     -10.346075      -281.5310
  32   2.0000     -10.344671      -281.4928
  33   2.0000     -10.341012      -281.3932
  34   2.0000     -10.338495      -281.3248
  35   2.0000     -10.337472      -281.2969
  36   2.0000     -10.336933      -281.2822
  37   2.0000     -10.332493      -281.1614
  38   2.0000     -10.329461      -281.0789
  39   2.0000     -10.328599      -281.0555
  40   2.0000     -10.327551      -281.0269
  41   2.0000     -10.325706      -280.9767
  42   2.0000     -10.323907      -280.9278
  43   2.0000     -10.323419      -280.9145
  44   2.0000     -10.322157      -280.8802
  45   2.0000     -10.320213      -280.8273
  46   2.0000     -10.318211      -280.7728
  47   2.0000     -10.316015      -280.7130
  48   2.0000     -10.313348      -280.6405
  49   2.0000     -10.312030      -280.6046
  50   2.0000     -10.311643      -280.5941
  51   2.0000     -10.309345      -280.5315
  52   2.0000     -10.307804      -280.4896
  53   2.0000     -10.306265      -280.4477
  54   2.0000     -10.305716      -280.4328
  55   2.0000     -10.303870      -280.3826
  56   2.0000     -10.303597      -280.3751
  57   2.0000     -10.300347      -280.2867
  58   2.0000     -10.300128      -280.2807
  59   2.0000     -10.299539      -280.2647
  60   2.0000     -10.298885      -280.2469
  61   2.0000     -10.297222      -280.2016
  62   2.0000     -10.296199      -280.1738
  63   2.0000     -10.294497      -280.1275
  64   2.0000     -10.263606      -279.2869
  65   2.0000     -10.262971      -279.2696
  66   2.0000     -10.260093      -279.1913
  67   2.0000     -10.250460      -278.9292
  68   2.0000      -9.578967      -260.6569
  69   2.0000      -9.570607      -260.4295
  70   2.0000      -8.096949      -220.3292
  71   2.0000      -8.086985      -220.0580
  72   2.0000      -7.349611      -199.9931
  73   2.0000      -7.341251      -199.7656
  74   2.0000      -7.339008      -199.7045
  75   2.0000      -7.338450      -199.6894
  76   2.0000      -7.330645      -199.4770
  77   2.0000      -7.330105      -199.4623
  78   2.0000      -6.066315      -165.0728
  79   2.0000      -6.061680      -164.9467
  80   2.0000      -6.059259      -164.8808
  81   2.0000      -6.056409      -164.8033
  82   2.0000      -6.051795      -164.6777
  83   2.0000      -6.049183      -164.6066
  84   2.0000      -1.326756       -36.1029
  85   2.0000      -1.235285       -33.6138
  86   2.0000      -1.195768       -32.5385
  87   2.0000      -1.148756       -31.2592
  88   2.0000      -1.146132       -31.1878
  89   2.0000      -1.134252       -30.8646
  90   2.0000      -1.133702       -30.8496
  91   2.0000      -1.126261       -30.6471
  92   2.0000      -1.101252       -29.9666
  93   2.0000      -1.063854       -28.9489
  94   2.0000      -1.054690       -28.6996
  95   2.0000      -1.045942       -28.4615
  96   2.0000      -1.036331       -28.2000
  97   2.0000      -1.024756       -27.8850
  98   2.0000      -1.015317       -27.6282
  99   2.0000      -1.005825       -27.3699
 100   2.0000      -1.002245       -27.2725
 101   2.0000      -0.996006       -27.1027
 102   2.0000      -0.994754       -27.0686
 103   2.0000      -0.986489       -26.8437
 104   2.0000      -0.962935       -26.2028
 105   2.0000      -0.954548       -25.9746
 106   2.0000      -0.935578       -25.4584
 107   2.0000      -0.933398       -25.3990
 108   2.0000      -0.931323       -25.3426
 109   2.0000      -0.925987       -25.1974
 110   2.0000      -0.914075       -24.8732
 111   2.0000      -0.910498       -24.7759
 112   2.0000      -0.905982       -24.6530
 113   2.0000      -0.895168       -24.3588
 114   2.0000      -0.888329       -24.1727
 115   2.0000      -0.870889       -23.6981
 116   2.0000      -0.857792       -23.3417
 117   2.0000      -0.849073       -23.1044
 118   2.0000      -0.840241       -22.8641
 119   2.0000      -0.830711       -22.6048
 120   2.0000      -0.827657       -22.5217
 121   2.0000      -0.817197       -22.2371
 122   2.0000      -0.814224       -22.1562
 123   2.0000      -0.802308       -21.8319
 124   2.0000      -0.796435       -21.6721
 125   2.0000      -0.773933       -21.0598
 126   2.0000      -0.764508       -20.8033
 127   2.0000      -0.762154       -20.7393
 128   2.0000      -0.756879       -20.5957
 129   2.0000      -0.750743       -20.4288
 130   2.0000      -0.735549       -20.0153
 131   2.0000      -0.732619       -19.9356
 132   2.0000      -0.716678       -19.5018
 133   2.0000      -0.707900       -19.2629
 134   2.0000      -0.705480       -19.1971
 135   2.0000      -0.698827       -19.0161
 136   2.0000      -0.692652       -18.8480
 137   2.0000      -0.690464       -18.7885
 138   2.0000      -0.684766       -18.6334
 139   2.0000      -0.684614       -18.6293
 140   2.0000      -0.673289       -18.3211
 141   2.0000      -0.667631       -18.1672
 142   2.0000      -0.657280       -17.8855
 143   2.0000      -0.653908       -17.7937
 144   2.0000      -0.648202       -17.6385
 145   2.0000      -0.637554       -17.3487
 146   2.0000      -0.636844       -17.3294
 147   2.0000      -0.631741       -17.1905
 148   2.0000      -0.623010       -16.9530
 149   2.0000      -0.620460       -16.8836
 150   2.0000      -0.617602       -16.8058
 151   2.0000      -0.610992       -16.6259
 152   2.0000      -0.608533       -16.5590
 153   2.0000      -0.600314       -16.3354
 154   2.0000      -0.596198       -16.2234
 155   2.0000      -0.590378       -16.0650
 156   2.0000      -0.588614       -16.0170
 157   2.0000      -0.586721       -15.9655
 158   2.0000      -0.584407       -15.9025
 159   2.0000      -0.577608       -15.7175
 160   2.0000      -0.577018       -15.7015
 161   2.0000      -0.570237       -15.5169
 162   2.0000      -0.569342       -15.4926
 163   2.0000      -0.563445       -15.3321
 164   2.0000      -0.560156       -15.2426
 165   2.0000      -0.558303       -15.1922
 166   2.0000      -0.552161       -15.0251
 167   2.0000      -0.547573       -14.9002
 168   2.0000      -0.546434       -14.8692
 169   2.0000      -0.545698       -14.8492
 170   2.0000      -0.543219       -14.7817
 171   2.0000      -0.541796       -14.7430
 172   2.0000      -0.538990       -14.6667
 173   2.0000      -0.538015       -14.6401
 174   2.0000      -0.531795       -14.4709
 175   2.0000      -0.529991       -14.4218
 176   2.0000      -0.529247       -14.4015
 177   2.0000      -0.523329       -14.2405
 178   2.0000      -0.521027       -14.1779
 179   2.0000      -0.519529       -14.1371
 180   2.0000      -0.514665       -14.0048
 181   2.0000      -0.512560       -13.9475
 182   2.0000      -0.511083       -13.9073
 183   2.0000      -0.509574       -13.8662
 184   2.0000      -0.504060       -13.7162
 185   2.0000      -0.502141       -13.6639
 186   2.0000      -0.501577       -13.6486
 187   2.0000      -0.499310       -13.5869
 188   2.0000      -0.498728       -13.5711
 189   2.0000      -0.493694       -13.4341
 190   2.0000      -0.493110       -13.4182
 191   2.0000      -0.490428       -13.3452
 192   2.0000      -0.487896       -13.2763
 193   2.0000      -0.484850       -13.1934
 194   2.0000      -0.482967       -13.1422
 195   2.0000      -0.474380       -12.9085
 196   2.0000      -0.472664       -12.8618
 197   2.0000      -0.470621       -12.8062
 198   2.0000      -0.466962       -12.7067
 199   2.0000      -0.463113       -12.6019
 200   2.0000      -0.459917       -12.5150
 201   2.0000      -0.458738       -12.4829
 202   2.0000      -0.457477       -12.4486
 203   2.0000      -0.456507       -12.4222
 204   2.0000      -0.453500       -12.3404
 205   2.0000      -0.453213       -12.3326
 206   2.0000      -0.451665       -12.2904
 207   2.0000      -0.450953       -12.2710
 208   2.0000      -0.449456       -12.2303
 209   2.0000      -0.445111       -12.1121
 210   2.0000      -0.444265       -12.0891
 211   2.0000      -0.441459       -12.0127
 212   2.0000      -0.440157       -11.9773
 213   2.0000      -0.438959       -11.9447
 214   2.0000      -0.437694       -11.9103
 215   2.0000      -0.437123       -11.8947
 216   2.0000      -0.435053       -11.8384
 217   2.0000      -0.433089       -11.7849
 218   2.0000      -0.429517       -11.6878
 219   2.0000      -0.426467       -11.6048
 220   2.0000      -0.424335       -11.5467
 221   2.0000      -0.419606       -11.4181
 222   2.0000      -0.417909       -11.3719
 223   2.0000      -0.413251       -11.2451
 224   2.0000      -0.410151       -11.1608
 225   2.0000      -0.409415       -11.1408
 226   2.0000      -0.402184       -10.9440
 227   2.0000      -0.398869       -10.8538
 228   2.0000      -0.389607       -10.6017
 229   2.0000      -0.387491       -10.5442
 230   2.0000      -0.384901       -10.4737
 231   2.0000      -0.382245       -10.4014
 232   2.0000      -0.380789       -10.3618
 233   2.0000      -0.375559       -10.2195
 234   2.0000      -0.359629        -9.7860
 235   2.0000      -0.358922        -9.7668
 236   2.0000      -0.357928        -9.7397
 237   2.0000      -0.352551        -9.5934
 238   2.0000      -0.347243        -9.4490
 239   2.0000      -0.344252        -9.3676
 240   2.0000      -0.342474        -9.3192
 241   2.0000      -0.339597        -9.2409
 242   2.0000      -0.331766        -9.0278
 243   2.0000      -0.330728        -8.9996
 244   2.0000      -0.323868        -8.8129
 245   2.0000      -0.314384        -8.5548
 246   2.0000      -0.312591        -8.5060
 247   2.0000      -0.307457        -8.3663
 248   2.0000      -0.286941        -7.8081
 249   2.0000      -0.236984        -6.4487
 250   0.0000      -0.109894        -2.9904
 251   0.0000      -0.099556        -2.7090
 252   0.0000      -0.074137        -2.0174
 253   0.0000      -0.059348        -1.6150
 254   0.0000      -0.049627        -1.3504

MULLIKEN ATOMIC CHARGES
-----------------------
   0 C :    0.032570
   1 C :   -0.125103
   2 S :    0.193385
   3 C :   -0.171959
   4 Cl:    0.003768
   5 C :    0.073884
   6 C :    0.148623
   7 O :   -0.126259
   8 C :   -0.088730
   9 C :    0.277864
  10 C :   -0.318328
  11 C :   -0.193236
  12 N :    0.162722
  13 C :   -0.197940
  14 N :    0.167950
  15 C :   -0.031594
  16 C :    0.061528
  17 C :   -0.053716
  18 C :    0.150641
  19 N :    0.245438
  20 O :   -0.229797
  21 O :   -0.219144
  22 C :    0.065954
  23 C :   -0.047438
  24 C :    0.107511
  25 C :    0.019397
  26 C :   -0.031682
  27 C :    0.129387
  28 N :   -0.259487
  29 C :    0.096849
  30 C :    0.002018
  31 C :    0.156246
  32 O :   -0.186025
  33 C :   -0.052827
  34 C :   -0.062599
  35 C :    0.170250
  36 O :   -0.209414
  37 N :   -0.256845
  38 C :    0.099414
  39 C :    0.011769
  40 C :    0.138130
  41 C :   -0.022499
  42 C :   -0.019458
  43 C :    0.156204
  44 O :   -0.208298
  45 C :    0.163019
  46 C :   -0.006868
  47 C :    0.026150
  48 C :    0.166464
  49 O :   -0.192897
  50 O :   -0.299133
  51 C :    0.187286
  52 C :    0.028592
  53 C :   -0.136521
  54 C :    0.136914
  55 O :   -0.131177
  56 C :    0.085054
  57 C :   -0.171471
  58 S :    0.180644
  59 C :   -0.132637
  60 C :    0.022418
  61 C :    0.263065
  62 C :   -0.311259
  63 C :   -0.159019
  64 N :    0.134360
  65 C :   -0.200779
  66 N :    0.171098
  67 Cl:   -0.001962
  68 H :    0.056226
  69 H :    0.037368
  70 H :    0.012945
  71 H :   -0.005597
  72 H :   -0.003550
  73 H :    0.043968
  74 H :   -0.021544
  75 H :    0.019930
  76 H :    0.046112
  77 H :    0.019795
  78 H :    0.022765
  79 H :    0.033576
  80 H :    0.016346
  81 H :    0.037233
  82 H :    0.019489
  83 H :    0.013867
  84 H :    0.034996
  85 H :   -0.008897
  86 H :    0.050570
  87 H :    0.005457
  88 H :    0.035980
  89 H :    0.042740
  90 H :    0.032000
  91 H :    0.027139
  92 H :    0.050626
Sum of atomic charges:   -0.0000000

LOEWDIN ATOMIC CHARGES
----------------------
   0 C :   -0.060045
   1 C :   -0.147461
   2 S :    0.482063
   3 C :   -0.271333
   4 Cl:    0.195067
   5 C :   -0.117812
   6 C :    0.081109
   7 O :   -0.123792
   8 C :   -0.081746
   9 C :    0.073495
  10 C :   -0.130613
  11 C :   -0.015496
  12 N :   -0.045815
  13 C :   -0.026505
  14 N :   -0.039047
  15 C :    0.079514
  16 C :   -0.039165
  17 C :    0.026616
  18 C :   -0.024987
  19 N :    0.284976
  20 O :   -0.197005
  21 O :   -0.180376
  22 C :    0.009495
  23 C :   -0.007929
  24 C :    0.043490
  25 C :    0.038206
  26 C :   -0.041072
  27 C :    0.081325
  28 N :   -0.001354
  29 C :    0.035938
  30 C :   -0.060961
  31 C :    0.082127
  32 O :   -0.180647
  33 C :   -0.109953
  34 C :   -0.119206
  35 C :    0.081251
  36 O :   -0.197551
  37 N :    0.003214
  38 C :    0.035907
  39 C :   -0.060824
  40 C :    0.069088
  41 C :   -0.015260
  42 C :    0.004772
  43 C :    0.088133
  44 O :    0.031477
  45 C :    0.015663
  46 C :    0.015519
  47 C :   -0.091937
  48 C :    0.085676
  49 O :   -0.160998
  50 O :   -0.089978
  51 C :    0.082427
  52 C :    0.051956
  53 C :   -0.088603
  54 C :    0.079414
  55 O :   -0.136583
  56 C :   -0.117601
  57 C :   -0.272882
  58 S :    0.469840
  59 C :   -0.155828
  60 C :   -0.055893
  61 C :    0.067186
  62 C :   -0.136187
  63 C :   -0.013130
  64 N :   -0.051857
  65 C :   -0.027030
  66 N :   -0.048709
  67 Cl:    0.190391
  68 H :    0.038689
  69 H :    0.049295
  70 H :    0.045224
  71 H :    0.036585
  72 H :    0.036661
  73 H :    0.039081
  74 H :    0.028060
  75 H :    0.021237
  76 H :    0.038677
  77 H :    0.023384
  78 H :    0.030320
  79 H :    0.034004
  80 H :    0.021105
  81 H :    0.035632
  82 H :    0.021377
  83 H :    0.027418
  84 H :    0.035016
  85 H :    0.031877
  86 H :    0.050313
  87 H :    0.043256
  88 H :    0.026709
  89 H :    0.027472
  90 H :    0.023886
  91 H :    0.055948
  92 H :    0.036612

  Mayer bond orders larger than 0.100000
B(  0-C ,  1-C ) :   1.5424 B(  0-C ,  5-C ) :   1.2190 B(  0-C ,  9-C ) :   1.0056
B(  1-C ,  2-S ) :   1.1640 B(  1-C , 68-H ) :   0.9541 B(  2-S ,  3-C ) :   1.1559
B(  3-C ,  4-Cl) :   1.1311 B(  3-C ,  5-C ) :   1.4730 B(  5-C ,  6-C ) :   0.9554
B(  6-C ,  7-O ) :   2.2411 B(  6-C ,  8-C ) :   0.9207 B(  8-C ,  9-C ) :   1.0444
B(  8-C , 15-C ) :   1.6907 B(  9-C , 10-C ) :   1.6741 B( 10-C , 11-C ) :   1.1423
B( 10-C , 13-C ) :   1.1337 B( 11-C , 12-N ) :   2.9954 B( 13-C , 14-N ) :   2.9897
B( 15-C , 16-C ) :   1.0593 B( 15-C , 69-H ) :   0.9502 B( 16-C , 17-C ) :   1.2787
B( 16-C , 24-C ) :   1.3359 B( 17-C , 18-C ) :   1.3869 B( 17-C , 70-H ) :   0.9990
B( 18-C , 19-N ) :   0.8777 B( 18-C , 22-C ) :   1.3369 B( 19-N , 20-O ) :   1.5541
B( 19-N , 21-O ) :   1.5337 B( 20-O , 21-O ) :   0.2694 B( 22-C , 23-C ) :   1.3448
B( 22-C , 25-C ) :   1.0516 B( 23-C , 24-C ) :   1.4065 B( 23-C , 71-H ) :   0.9919
B( 24-C , 72-H ) :   0.9810 B( 25-C , 26-C ) :   1.6835 B( 25-C , 73-H ) :   0.9121
B( 26-C , 27-C ) :   1.1451 B( 26-C , 74-H ) :   0.9632 B( 27-C , 28-N ) :   1.1700
B( 27-C , 34-C ) :   1.3451 B( 28-N , 29-C ) :   0.9484 B( 28-N , 31-C ) :   1.0386
B( 29-C , 30-C ) :   1.1186 B( 29-C , 75-H ) :   0.9502 B( 29-C , 76-H ) :   0.9286
B( 30-C , 77-H ) :   0.9687 B( 30-C , 78-H ) :   0.9677 B( 30-C , 79-H ) :   0.9638
B( 31-C , 32-O ) :   2.0794 B( 31-C , 33-C ) :   0.9769 B( 33-C , 34-C ) :   1.2553
B( 33-C , 40-C ) :   1.3484 B( 34-C , 35-C ) :   0.9837 B( 35-C , 36-O ) :   2.0239
B( 35-C , 37-N ) :   1.0659 B( 36-O , 73-H ) :   0.1119 B( 37-N , 38-C ) :   0.9416
B( 37-N , 40-C ) :   1.1598 B( 38-C , 39-C ) :   1.1159 B( 38-C , 80-H ) :   0.9489
B( 38-C , 81-H ) :   0.9288 B( 39-C , 82-H ) :   0.9639 B( 39-C , 83-H ) :   0.9680
B( 39-C , 84-H ) :   0.9607 B( 40-C , 41-C ) :   1.1344 B( 41-C , 42-C ) :   1.5726
B( 41-C , 85-H ) :   0.9736 B( 42-C , 43-C ) :   1.1950 B( 42-C , 86-H ) :   0.9311
B( 43-C , 44-O ) :   1.1668 B( 43-C , 47-C ) :   1.3766 B( 44-O , 45-C ) :   1.0895
B( 45-C , 46-C ) :   1.3886 B( 45-C , 52-C ) :   1.1425 B( 46-C , 47-C ) :   1.2565
B( 46-C , 87-H ) :   1.0195 B( 47-C , 48-C ) :   0.9200 B( 48-C , 49-O ) :   2.1007
B( 48-C , 50-O ) :   1.2535 B( 50-O , 51-C ) :   0.9202 B( 51-C , 88-H ) :   0.9809
B( 51-C , 89-H ) :   0.9743 B( 51-C , 90-H ) :   0.9780 B( 52-C , 53-C ) :   1.6112
B( 52-C , 91-H ) :   0.9490 B( 53-C , 54-C ) :   0.9421 B( 53-C , 61-C ) :   1.0475
B( 54-C , 55-O ) :   2.2806 B( 54-C , 56-C ) :   0.9229 B( 56-C , 57-C ) :   1.4884
B( 56-C , 60-C ) :   1.2231 B( 57-C , 58-S ) :   1.1493 B( 57-C , 67-Cl) :   1.1274
B( 58-S , 59-C ) :   1.1533 B( 59-C , 60-C ) :   1.5556 B( 59-C , 92-H ) :   0.9574
B( 60-C , 61-C ) :   1.0098 B( 61-C , 62-C ) :   1.6682 B( 62-C , 63-C ) :   1.1482
B( 62-C , 65-C ) :   1.1499 B( 63-C , 64-N ) :   2.9180 B( 65-C , 66-N ) :   3.0092

-----------------------------------------------------------------------------
         ABSORPTION SPECTRUM VIA TRANSITION ELECTRIC DIPOLE MOMENTS
-----------------------------------------------------------------------------
State   Energy  Wavelength   fosc         T2         TX        TY        TZ
        (cm-1)    (nm)                  (au**2)     (au)      (au)      (au)
-----------------------------------------------------------------------------
   0   12806.0    780.9   0.766158566  19.69605   1.54517  -4.00060  -1.14181
   1   17332.3    577.0   0.148004635   2.81123  -1.49652   0.75488   0.04243
   2   21264.5    470.3   0.050667786   0.78443  -0.57827  -0.11793   0.66039
   3   22367.3    447.1   0.110474717   1.62601   0.45474   1.19123  -0.01378
   4   24400.6    409.8   0.045900351   0.61928  -0.35788   0.67748   0.17953
   5   25789.5    387.8   0.032364059   0.41314  -0.54138   0.30524  -0.16393
   6   26146.4    382.5   0.286408362   3.60619   1.26063  -1.42011  -0.01639
   7   27121.0    368.7   0.024216092   0.29395   0.39959   0.07008   0.35968
   8   27809.5    359.6   0.007120838   0.08430  -0.23274  -0.03134  -0.17073
   9   28013.1    357.0   0.050360548   0.59184  -0.34011   0.52727   0.44515
  10   28470.9    351.2   0.074236208   0.85840   0.39697   0.72696   0.41514
  11   29110.5    343.5   0.183126128   2.07098  -1.21462   0.71946   0.27938
  12   29322.8    341.0   0.156463114   1.75664  -1.09363   0.72512   0.18659
  13   29358.3    340.6   0.013928159   0.15618  -0.25069   0.24893   0.17714
  14   30075.7    332.5   0.086738113   0.94945   0.63568   0.12386   0.72802
  15   30390.5    329.1   0.348648082   3.77681  -1.02468   1.62292  -0.30489
  16   31294.8    319.5   0.103912360   1.09313   0.64725  -0.81477   0.10173
  17   32202.7    310.5   0.032514136   0.33240  -0.22222   0.36996   0.38229
  18   32797.9    304.9   0.020533111   0.20610  -0.05882  -0.01720  -0.44983
  19   33283.1    300.5   0.067577978   0.66843   0.47510  -0.62145  -0.23774
  20   33500.1    298.5   0.015070056   0.14810   0.16434  -0.15688   0.31061
  21   33757.6    296.2   0.023972471   0.23379  -0.26208  -0.19019   0.35906
  22   34199.8    292.4   0.051876807   0.49937   0.53110   0.38653  -0.26057
  23   35076.7    285.1   0.114173953   1.07158   0.03094  -0.52879   0.88938
  24   35163.3    284.4   0.082150975   0.76913  -0.23980   0.79630   0.27845
  25   35932.9    278.3   0.078556911   0.71973   0.28629  -0.50217  -0.62096
  26   36200.6    276.2   0.032259164   0.29337  -0.12555   0.50056   0.16444
  27   36219.1    276.1   0.090793960   0.82527  -0.64386   0.58482   0.26211
  28   36308.7    275.4   0.022324230   0.20241  -0.30054   0.27769  -0.18703
  29   36613.0    273.1   0.061466529   0.55269  -0.04836  -0.56666  -0.47880
  30   36780.3    271.9   0.251970143   2.25532   0.39956  -0.46754   1.37006
  31   36912.7    270.9   0.253468586   2.26060   0.94150   0.71711   0.92732
  32   37128.9    269.3   0.271792677   2.40992  -1.05000  -0.42123   1.06300
  33   37350.1    267.7   0.089734850   0.79094  -0.87708  -0.07707  -0.12541
  34   38289.7    261.2   0.553880102   4.76222   1.80507   1.11011  -0.52113
  35   38456.2    260.0   0.364477723   3.12018   0.76513   0.46476   1.52275
  36   38827.7    257.5   0.058755865   0.49818   0.30505  -0.19419  -0.60615
  37   38929.5    256.9   0.022401176   0.18944   0.07132   0.13391   0.40794
  38   39356.8    254.1   0.064507620   0.53959   0.72946  -0.08415  -0.01997
  39   39664.6    252.1   0.016425197   0.13633  -0.32004   0.18377   0.01152
  40   39912.8    250.5   0.150808420   1.24391  -0.50117   0.70467  -0.70440
  41   40111.6    249.3   0.044859215   0.36818   0.43958   0.35811  -0.21612
  42   40236.7    248.5   0.047234312   0.38647  -0.42543  -0.36957  -0.26248
  43   40326.3    248.0   0.121156394   0.98908   0.26635  -0.91404   0.28754

FINAL SINGLE POINT ENERGY     -4616.923676631639

DIPOLE MOMENT
-------------
                                X             Y             Z
Electronic contribution:    -28.24909       5.92686     -38.23369
Nuclear contribution   :     30.54099      -4.18896      36.60522
                        -----------------------------------------
Total Dipole Moment    :      2.29190       1.73790      -1.62847
                        -----------------------------------------
Magnitude (a.u.)       :      3.30530
Magnitude (Debye)      :      8.40140

Rotational constants in cm-1:     0.001771     0.000274     0.000258
Rotational constants in MHz :    53.092355     8.212441     7.735249

                             ****ORCA TERMINATED NORMALLY****
TOTAL RUN TIME: 0 days 0 hours 8 minutes 28 seconds 195 msec
