                         Program Version 4.2.0 -  RELEASE  -
|  1> # ORCA input file
|  2> # SCF done       -157.089587369357          0.000907829691
|  3> ! CAM-B3LYP def2-SVP def2/J RIJCOSX Grid4 TightSCF
|  4> %maxcore 5000
|  5> %tddft
|  6>     Mode sTDDFT
|  7>     Ethresh 5.0
|  8>     maxcore 5000
|  9> end
| 10>
| 11> %pal
| 12>   nprocs 6
| 13>   end
| 14> * xyz 0 1
| 15>    C        6.59198        -0.08370         4.52529
| 16>    C        7.12590         0.20783         5.74220
| 17>    S        8.68654        -0.50486         5.92569
| 18>    C        8.62660        -1.20943         4.32904
| 19>   Cl        9.90088        -2.14577         3.72721
| 20>    C        7.44973        -0.89595         3.71406
| 21>    C        6.80911        -1.17340         2.43187
| 22>    O        7.27245        -1.76242         1.47834
| 23>    C        5.48550        -0.48125         2.50634
| 24>    C        5.37008         0.18807         3.79681
| 25>    C        4.30712         0.89468         4.28611
| 26>    C        4.33766         1.46295         5.57842
| 27>    N        4.34985         1.93464         6.62346
| 28>    C        3.09898         1.14185         3.60256
| 29>    N        2.09712         1.38123         3.09626
| 30>    C        4.60494        -0.39561         1.47938
| 31>    C        4.64232        -1.17461         0.28294
| 32>    C        4.96909        -2.50580         0.11945
| 33>    C        5.28899        -3.40940         1.26415
| 34>    O        4.62910        -3.44043         2.26574
| 35>    O        6.33265        -4.22826         1.08665
| 36>    C        4.86030        -2.93563        -1.23042
| 37>    C        4.47097        -1.91452        -2.05966
| 38>    S        4.18358        -0.45261        -1.23160
| 39>    C        5.06125        -4.30847        -1.69944
| 40>    C        5.74757        -4.55540        -2.87914
| 41>    C        5.92372        -5.85235        -3.34356
| 42>    N        6.69195        -5.98871        -4.55536
| 43>    O        6.76434        -5.01548        -5.27448
| 44>    O        7.23671        -7.04967        -4.78842
| 45>    C        5.39520        -6.95758        -2.64850
| 46>    C        4.69507        -6.67948        -1.46693
| 47>    C        4.53535        -5.39639        -0.99571
| 48>    C        5.50021        -8.30745        -3.15414
| 49>    C        5.41529        -9.43093        -2.42065
| 50>    C        5.54850       -10.72917        -3.01382
| 51>    S        4.88086       -12.13636        -2.25520
| 52>    C        5.39169       -13.14332        -3.56030
| 53>    C        5.10273       -14.55834        -3.56430
| 54>    O        5.37165       -15.31377        -4.46690
| 55>    C        6.04976       -12.41035        -4.54785
| 56>    C        6.14167       -11.04565        -4.21284
| 57>    C        6.60990       -12.99301        -5.73705
| 58>    C        6.73159       -12.39863        -6.94417
| 59>    C        7.68494       -12.96608        -7.95793
| 60>    O        8.20281       -14.05283        -7.92752
| 61>    C        7.87641       -11.87347        -8.91991
| 62>    C        8.65066       -11.62949       -10.01506
| 63>    S        8.32606       -10.03329       -10.65096
| 64>    C        7.14105        -9.71875        -9.43814
| 65>    C        7.01094       -10.77703        -8.59337
| 66>    C        6.19440       -11.14297        -7.45412
| 67>    C        5.03806       -10.51063        -7.08899
| 68>    C        4.63491        -9.29935        -7.69059
| 69>    N        4.30352        -8.29740        -8.14012
| 70>    C        4.10892       -10.99481        -6.14614
| 71>    N        3.28640       -11.34744        -5.42738
| 72>   Cl        9.78955       -12.65256       -10.73854
| 73>    H        6.71602         0.79016         6.54348
| 74>    H        3.79822         0.32483         1.53405
| 75>    H        6.90130        -3.94385         0.35824
| 76>    H        4.31044        -1.97011        -3.11863
| 77>    H        6.17721        -3.74263        -3.44587
| 78>    H        4.24301        -7.49535        -0.92686
| 79>    H        3.97727        -5.22696        -0.08723
| 80>    H        5.67458        -8.40943        -4.21463
| 81>    H        5.23850        -9.40332        -1.35516
| 82>    H        4.60562       -14.90949        -2.64056
| 83>    H        6.68337       -10.32705        -4.80203
| 84>    H        7.01988       -13.99316        -5.64508
| 85>    H        6.63601        -8.77316        -9.42532
| 86> *
| 87>
| 88>                          ****END OF INPUT****

CARTESIAN COORDINATES (ANGSTROEM)
---------------------------------
  C      6.591980   -0.083700    4.525290
  C      7.125900    0.207830    5.742200
  S      8.686540   -0.504860    5.925690
  C      8.626600   -1.209430    4.329040
  Cl     9.900880   -2.145770    3.727210
  C      7.449730   -0.895950    3.714060
  C      6.809110   -1.173400    2.431870
  O      7.272450   -1.762420    1.478340
  C      5.485500   -0.481250    2.506340
  C      5.370080    0.188070    3.796810
  C      4.307120    0.894680    4.286110
  C      4.337660    1.462950    5.578420
  N      4.349850    1.934640    6.623460
  C      3.098980    1.141850    3.602560
  N      2.097120    1.381230    3.096260
  C      4.604940   -0.395610    1.479380
  C      4.642320   -1.174610    0.282940
  C      4.969090   -2.505800    0.119450
  C      5.288990   -3.409400    1.264150
  O      4.629100   -3.440430    2.265740
  O      6.332650   -4.228260    1.086650
  C      4.860300   -2.935630   -1.230420
  C      4.470970   -1.914520   -2.059660
  S      4.183580   -0.452610   -1.231600
  C      5.061250   -4.308470   -1.699440
  C      5.747570   -4.555400   -2.879140
  C      5.923720   -5.852350   -3.343560
  N      6.691950   -5.988710   -4.555360
  O      6.764340   -5.015480   -5.274480
  O      7.236710   -7.049670   -4.788420
  C      5.395200   -6.957580   -2.648500
  C      4.695070   -6.679480   -1.466930
  C      4.535350   -5.396390   -0.995710
  C      5.500210   -8.307450   -3.154140
  C      5.415290   -9.430930   -2.420650
  C      5.548500  -10.729170   -3.013820
  S      4.880860  -12.136360   -2.255200
  C      5.391690  -13.143320   -3.560300
  C      5.102730  -14.558340   -3.564300
  O      5.371650  -15.313770   -4.466900
  C      6.049760  -12.410350   -4.547850
  C      6.141670  -11.045650   -4.212840
  C      6.609900  -12.993010   -5.737050
  C      6.731590  -12.398630   -6.944170
  C      7.684940  -12.966080   -7.957930
  O      8.202810  -14.052830   -7.927520
  C      7.876410  -11.873470   -8.919910
  C      8.650660  -11.629490  -10.015060
  S      8.326060  -10.033290  -10.650960
  C      7.141050   -9.718750   -9.438140
  C      7.010940  -10.777030   -8.593370
  C      6.194400  -11.142970   -7.454120
  C      5.038060  -10.510630   -7.088990
  C      4.634910   -9.299350   -7.690590
  N      4.303520   -8.297400   -8.140120
  C      4.108920  -10.994810   -6.146140
  N      3.286400  -11.347440   -5.427380
  Cl     9.789550  -12.652560  -10.738540
  H      6.716020    0.790160    6.543480
  H      3.798220    0.324830    1.534050
  H      6.901300   -3.943850    0.358240
  H      4.310440   -1.970110   -3.118630
  H      6.177210   -3.742630   -3.445870
  H      4.243010   -7.495350   -0.926860
  H      3.977270   -5.226960   -0.087230
  H      5.674580   -8.409430   -4.214630
  H      5.238500   -9.403320   -1.355160
  H      4.605620  -14.909490   -2.640560
  H      6.683370  -10.327050   -4.802030
  H      7.019880  -13.993160   -5.645080
  H      6.636010   -8.773160   -9.425320

 Total Charge           Charge          ....    0
 Multiplicity           Mult            ....    1
 Number of Electrons    NEL             ....  442
 Basis Dimension        Dim             ....  901

ORBITAL ENERGIES
----------------

  NO   OCC          E(Eh)            E(eV)
   0   2.0000    -101.625298     -2765.3649
   1   2.0000    -101.617079     -2765.1413
   2   2.0000     -89.001051     -2421.8417
   3   2.0000     -88.994178     -2421.6547
   4   2.0000     -88.991843     -2421.5912
   5   2.0000     -88.982744     -2421.3436
   6   2.0000     -19.268876      -524.3328
   7   2.0000     -19.257330      -524.0186
   8   2.0000     -19.256101      -523.9851
   9   2.0000     -19.234336      -523.3929
  10   2.0000     -19.220245      -523.0095
  11   2.0000     -19.219162      -522.9800
  12   2.0000     -19.213469      -522.8251
  13   2.0000     -14.662895      -398.9977
  14   2.0000     -14.427732      -392.5986
  15   2.0000     -14.426220      -392.5574
  16   2.0000     -14.423707      -392.4890
  17   2.0000     -14.420166      -392.3927
  18   2.0000     -10.419252      -283.5223
  19   2.0000     -10.390614      -282.7430
  20   2.0000     -10.384558      -282.5782
  21   2.0000     -10.376359      -282.3551
  22   2.0000     -10.375724      -282.3378
  23   2.0000     -10.368913      -282.1525
  24   2.0000     -10.356171      -281.8057
  25   2.0000     -10.355562      -281.7892
  26   2.0000     -10.351900      -281.6895
  27   2.0000     -10.351261      -281.6721
  28   2.0000     -10.346704      -281.5481
  29   2.0000     -10.336903      -281.2814
  30   2.0000     -10.336398      -281.2677
  31   2.0000     -10.335909      -281.2544
  32   2.0000     -10.330199      -281.0990
  33   2.0000     -10.329456      -281.0788
  34   2.0000     -10.329149      -281.0704
  35   2.0000     -10.328766      -281.0600
  36   2.0000     -10.327946      -281.0377
  37   2.0000     -10.327102      -281.0147
  38   2.0000     -10.325445      -280.9696
  39   2.0000     -10.322455      -280.8883
  40   2.0000     -10.320182      -280.8264
  41   2.0000     -10.320002      -280.8215
  42   2.0000     -10.318490      -280.7804
  43   2.0000     -10.318147      -280.7710
  44   2.0000     -10.317599      -280.7561
  45   2.0000     -10.316859      -280.7360
  46   2.0000     -10.316320      -280.7213
  47   2.0000     -10.314073      -280.6602
  48   2.0000     -10.312835      -280.6265
  49   2.0000     -10.312454      -280.6162
  50   2.0000     -10.309999      -280.5493
  51   2.0000     -10.307970      -280.4941
  52   2.0000     -10.307371      -280.4778
  53   2.0000     -10.306942      -280.4662
  54   2.0000     -10.306310      -280.4489
  55   2.0000     -10.301547      -280.3194
  56   2.0000     -10.300848      -280.3003
  57   2.0000     -10.295817      -280.1634
  58   2.0000      -9.580108      -260.6880
  59   2.0000      -9.571852      -260.4633
  60   2.0000      -8.096845      -220.3263
  61   2.0000      -8.089853      -220.1361
  62   2.0000      -8.087743      -220.0787
  63   2.0000      -8.078532      -219.8280
  64   2.0000      -7.350743      -200.0239
  65   2.0000      -7.342493      -199.7994
  66   2.0000      -7.340147      -199.7356
  67   2.0000      -7.339589      -199.7204
  68   2.0000      -7.331884      -199.5107
  69   2.0000      -7.331351      -199.4962
  70   2.0000      -6.066182      -165.0692
  71   2.0000      -6.061587      -164.9442
  72   2.0000      -6.059211      -164.8795
  73   2.0000      -6.059130      -164.8773
  74   2.0000      -6.056903      -164.8167
  75   2.0000      -6.054620      -164.7546
  76   2.0000      -6.052539      -164.6980
  77   2.0000      -6.052148      -164.6873
  78   2.0000      -6.050260      -164.6359
  79   2.0000      -6.047504      -164.5610
  80   2.0000      -6.043483      -164.4515
  81   2.0000      -6.041110      -164.3870
  82   2.0000      -1.337892       -36.4059
  83   2.0000      -1.196047       -32.5461
  84   2.0000      -1.155796       -31.4508
  85   2.0000      -1.150864       -31.3166
  86   2.0000      -1.136967       -30.9385
  87   2.0000      -1.133720       -30.8501
  88   2.0000      -1.110511       -30.2186
  89   2.0000      -1.046232       -28.4694
  90   2.0000      -1.039029       -28.2734
  91   2.0000      -1.025495       -27.9051
  92   2.0000      -1.022849       -27.8331
  93   2.0000      -1.020768       -27.7765
  94   2.0000      -1.010716       -27.5030
  95   2.0000      -1.005497       -27.3610
  96   2.0000      -1.002929       -27.2911
  97   2.0000      -0.998830       -27.1795
  98   2.0000      -0.995739       -27.0954
  99   2.0000      -0.988847       -26.9079
 100   2.0000      -0.962760       -26.1980
 101   2.0000      -0.955498       -26.0004
 102   2.0000      -0.937206       -25.5027
 103   2.0000      -0.923193       -25.1214
 104   2.0000      -0.917427       -24.9644
 105   2.0000      -0.911583       -24.8054
 106   2.0000      -0.905098       -24.6290
 107   2.0000      -0.899209       -24.4687
 108   2.0000      -0.887059       -24.1381
 109   2.0000      -0.868288       -23.6273
 110   2.0000      -0.849713       -23.1219
 111   2.0000      -0.843619       -22.9560
 112   2.0000      -0.840472       -22.8704
 113   2.0000      -0.833312       -22.6756
 114   2.0000      -0.828088       -22.5334
 115   2.0000      -0.803052       -21.8522
 116   2.0000      -0.790926       -21.5222
 117   2.0000      -0.783338       -21.3157
 118   2.0000      -0.763868       -20.7859
 119   2.0000      -0.757642       -20.6165
 120   2.0000      -0.754915       -20.5423
 121   2.0000      -0.732831       -19.9413
 122   2.0000      -0.729491       -19.8505
 123   2.0000      -0.713106       -19.4046
 124   2.0000      -0.709220       -19.2989
 125   2.0000      -0.700494       -19.0614
 126   2.0000      -0.693801       -18.8793
 127   2.0000      -0.689796       -18.7703
 128   2.0000      -0.684823       -18.6350
 129   2.0000      -0.679776       -18.4976
 130   2.0000      -0.677076       -18.4242
 131   2.0000      -0.669490       -18.2177
 132   2.0000      -0.665071       -18.0975
 133   2.0000      -0.655313       -17.8320
 134   2.0000      -0.644890       -17.5483
 135   2.0000      -0.641452       -17.4548
 136   2.0000      -0.628879       -17.1127
 137   2.0000      -0.621094       -16.9008
 138   2.0000      -0.618429       -16.8283
 139   2.0000      -0.616262       -16.7693
 140   2.0000      -0.613008       -16.6808
 141   2.0000      -0.607953       -16.5432
 142   2.0000      -0.604302       -16.4439
 143   2.0000      -0.598289       -16.2803
 144   2.0000      -0.590451       -16.0670
 145   2.0000      -0.575276       -15.6541
 146   2.0000      -0.570396       -15.5213
 147   2.0000      -0.567500       -15.4425
 148   2.0000      -0.564372       -15.3573
 149   2.0000      -0.561703       -15.2847
 150   2.0000      -0.553847       -15.0709
 151   2.0000      -0.552480       -15.0337
 152   2.0000      -0.549051       -14.9404
 153   2.0000      -0.548633       -14.9291
 154   2.0000      -0.541137       -14.7251
 155   2.0000      -0.538337       -14.6489
 156   2.0000      -0.536405       -14.5963
 157   2.0000      -0.534023       -14.5315
 158   2.0000      -0.531398       -14.4601
 159   2.0000      -0.529725       -14.4146
 160   2.0000      -0.525753       -14.3065
 161   2.0000      -0.522258       -14.2114
 162   2.0000      -0.519854       -14.1460
 163   2.0000      -0.517323       -14.0771
 164   2.0000      -0.514747       -14.0070
 165   2.0000      -0.511556       -13.9201
 166   2.0000      -0.510421       -13.8893
 167   2.0000      -0.505650       -13.7594
 168   2.0000      -0.504185       -13.7196
 169   2.0000      -0.498136       -13.5550
 170   2.0000      -0.493457       -13.4276
 171   2.0000      -0.490385       -13.3441
 172   2.0000      -0.487677       -13.2704
 173   2.0000      -0.485045       -13.1988
 174   2.0000      -0.483784       -13.1644
 175   2.0000      -0.477993       -13.0069
 176   2.0000      -0.473223       -12.8770
 177   2.0000      -0.470673       -12.8077
 178   2.0000      -0.464142       -12.6300
 179   2.0000      -0.462289       -12.5795
 180   2.0000      -0.461098       -12.5471
 181   2.0000      -0.459027       -12.4908
 182   2.0000      -0.457329       -12.4446
 183   2.0000      -0.455007       -12.3814
 184   2.0000      -0.453786       -12.3482
 185   2.0000      -0.452338       -12.3087
 186   2.0000      -0.448608       -12.2072
 187   2.0000      -0.447987       -12.1903
 188   2.0000      -0.446665       -12.1544
 189   2.0000      -0.442954       -12.0534
 190   2.0000      -0.440189       -11.9782
 191   2.0000      -0.438318       -11.9272
 192   2.0000      -0.436911       -11.8889
 193   2.0000      -0.432168       -11.7599
 194   2.0000      -0.428521       -11.6607
 195   2.0000      -0.424247       -11.5444
 196   2.0000      -0.422404       -11.4942
 197   2.0000      -0.414494       -11.2790
 198   2.0000      -0.411338       -11.1931
 199   2.0000      -0.409393       -11.1402
 200   2.0000      -0.405639       -11.0380
 201   2.0000      -0.403119       -10.9694
 202   2.0000      -0.396600       -10.7920
 203   2.0000      -0.394106       -10.7242
 204   2.0000      -0.386943       -10.5292
 205   2.0000      -0.384102       -10.4519
 206   2.0000      -0.376384       -10.2419
 207   2.0000      -0.369154       -10.0452
 208   2.0000      -0.359840        -9.7917
 209   2.0000      -0.359107        -9.7718
 210   2.0000      -0.357878        -9.7384
 211   2.0000      -0.344142        -9.3646
 212   2.0000      -0.343613        -9.3502
 213   2.0000      -0.340727        -9.2717
 214   2.0000      -0.337358        -9.1800
 215   2.0000      -0.335121        -9.1191
 216   2.0000      -0.325211        -8.8495
 217   2.0000      -0.322696        -8.7810
 218   2.0000      -0.308455        -8.3935
 219   2.0000      -0.304051        -8.2736
 220   2.0000      -0.287427        -7.8213
 221   0.0000      -0.105033        -2.8581
 222   0.0000      -0.096545        -2.6271
 223   0.0000      -0.076978        -2.0947
 224   0.0000      -0.063525        -1.7286
 225   0.0000      -0.054469        -1.4822

MULLIKEN ATOMIC CHARGES
-----------------------
   0 C :    0.035055
   1 C :   -0.131100
   2 S :    0.195023
   3 C :   -0.164470
   4 Cl:    0.002048
   5 C :    0.078508
   6 C :    0.169811
   7 O :   -0.165327
   8 C :   -0.070533
   9 C :    0.288792
  10 C :   -0.320253
  11 C :   -0.196374
  12 N :    0.163113
  13 C :   -0.187378
  14 N :    0.164900
  15 C :    0.000127
  16 C :   -0.172150
  17 C :    0.081223
  18 C :    0.114372
  19 O :   -0.170112
  20 O :   -0.153773
  21 C :    0.063483
  22 C :   -0.101671
  23 S :    0.186854
  24 C :   -0.010961
  25 C :   -0.061702
  26 C :    0.142797
  27 N :    0.247243
  28 O :   -0.226455
  29 O :   -0.242215
  30 C :    0.070784
  31 C :   -0.040390
  32 C :    0.056952
  33 C :    0.000902
  34 C :    0.057997
  35 C :   -0.072144
  36 S :    0.185197
  37 C :   -0.159385
  38 C :    0.189219
  39 O :   -0.181894
  40 C :    0.063859
  41 C :   -0.026483
  42 C :    0.048493
  43 C :   -0.132690
  44 C :    0.134818
  45 O :   -0.116883
  46 C :    0.089833
  47 C :   -0.172824
  48 S :    0.188019
  49 C :   -0.123474
  50 C :    0.013587
  51 C :    0.270027
  52 C :   -0.349177
  53 C :   -0.193457
  54 N :    0.167701
  55 C :   -0.182647
  56 N :    0.180649
  57 Cl:    0.001710
  58 H :    0.056530
  59 H :    0.034587
  60 H :    0.200156
  61 H :    0.044198
  62 H :    0.004653
  63 H :   -0.005840
  64 H :    0.016196
  65 H :    0.016200
  66 H :   -0.001729
  67 H :   -0.014199
  68 H :    0.020622
  69 H :    0.045134
  70 H :    0.056315
Sum of atomic charges:   -0.0000000

LOEWDIN ATOMIC CHARGES
----------------------
   0 C :   -0.055912
   1 C :   -0.146959
   2 S :    0.483656
   3 C :   -0.269112
   4 Cl:    0.195550
   5 C :   -0.114719
   6 C :    0.092604
   7 O :   -0.144695
   8 C :   -0.069225
   9 C :    0.075688
  10 C :   -0.127606
  11 C :   -0.015103
  12 N :   -0.045730
  13 C :   -0.022186
  14 N :   -0.040174
  15 C :    0.055499
  16 C :   -0.164578
  17 C :   -0.074496
  18 C :    0.068513
  19 O :   -0.152284
  20 O :   -0.014093
  21 C :   -0.058438
  22 C :   -0.159838
  23 S :    0.495200
  24 C :   -0.033725
  25 C :    0.004858
  26 C :   -0.026201
  27 N :    0.287148
  28 O :   -0.194301
  29 O :   -0.200636
  30 C :   -0.000674
  31 C :    0.000241
  32 C :    0.017141
  33 C :   -0.001355
  34 C :   -0.027112
  35 C :   -0.147227
  36 S :    0.488762
  37 C :   -0.218911
  38 C :    0.089899
  39 O :   -0.130542
  40 C :   -0.036650
  41 C :   -0.038024
  42 C :    0.086703
  43 C :   -0.077926
  44 C :    0.081580
  45 O :   -0.121628
  46 C :   -0.117679
  47 C :   -0.272471
  48 S :    0.478194
  49 C :   -0.149734
  50 C :   -0.058277
  51 C :    0.068900
  52 C :   -0.133527
  53 C :   -0.018405
  54 N :   -0.047995
  55 C :   -0.020765
  56 N :   -0.042262
  57 Cl:    0.193540
  58 H :    0.038967
  59 H :    0.048280
  60 H :    0.099037
  61 H :    0.033501
  62 H :    0.040663
  63 H :    0.037059
  64 H :    0.042009
  65 H :    0.030067
  66 H :    0.029879
  67 H :   -0.001949
  68 H :    0.037264
  69 H :    0.053787
  70 H :    0.038936

  Mayer bond orders larger than 0.100000
B(  0-C ,  1-C ) :   1.5438 B(  0-C ,  5-C ) :   1.2224 B(  0-C ,  9-C ) :   1.0024
B(  1-C ,  2-S ) :   1.1641 B(  1-C , 58-H ) :   0.9535 B(  2-S ,  3-C ) :   1.1574
B(  3-C ,  4-Cl) :   1.1310 B(  3-C ,  5-C ) :   1.4642 B(  5-C ,  6-C ) :   0.9650
B(  6-C ,  7-O ) :   2.1719 B(  6-C ,  8-C ) :   0.9397 B(  8-C ,  9-C ) :   1.0624
B(  8-C , 15-C ) :   1.6944 B(  9-C , 10-C ) :   1.6703 B( 10-C , 11-C ) :   1.1476
B( 10-C , 13-C ) :   1.1329 B( 11-C , 12-N ) :   2.9923 B( 13-C , 14-N ) :   2.9786
B( 15-C , 16-C ) :   1.0956 B( 15-C , 59-H ) :   0.9297 B( 16-C , 17-C ) :   1.5088
B( 16-C , 23-S ) :   1.1591 B( 17-C , 18-C ) :   0.8808 B( 17-C , 21-C ) :   1.3091
B( 18-C , 19-O ) :   2.1839 B( 18-C , 20-O ) :   1.2178 B( 20-O , 60-H ) :   0.9424
B( 21-C , 22-C ) :   1.5338 B( 21-C , 24-C ) :   0.9565 B( 22-C , 23-S ) :   1.1950
B( 22-C , 61-H ) :   0.9673 B( 24-C , 25-C ) :   1.3422 B( 24-C , 32-C ) :   1.3406
B( 25-C , 26-C ) :   1.3488 B( 25-C , 62-H ) :   0.9993 B( 26-C , 27-N ) :   0.8819
B( 26-C , 30-C ) :   1.3516 B( 27-N , 28-O ) :   1.5666 B( 27-N , 29-O ) :   1.5100
B( 28-O , 29-O ) :   0.2628 B( 30-C , 31-C ) :   1.3322 B( 30-C , 33-C ) :   1.0776
B( 31-C , 32-C ) :   1.4118 B( 31-C , 63-H ) :   0.9919 B( 32-C , 64-H ) :   0.9812
B( 33-C , 34-C ) :   1.7680 B( 33-C , 65-H ) :   0.9465 B( 34-C , 35-C ) :   1.0768
B( 34-C , 66-H ) :   0.9606 B( 35-C , 36-S ) :   1.1584 B( 35-C , 41-C ) :   1.5007
B( 36-S , 37-C ) :   1.1281 B( 37-C , 38-C ) :   1.0160 B( 37-C , 40-C ) :   1.4496
B( 38-C , 39-O ) :   2.1227 B( 38-C , 67-H ) :   0.9548 B( 40-C , 41-C ) :   1.2680
B( 40-C , 42-C ) :   1.0413 B( 41-C , 68-H ) :   0.9952 B( 42-C , 43-C ) :   1.7401
B( 42-C , 69-H ) :   0.9355 B( 43-C , 44-C ) :   0.9238 B( 43-C , 51-C ) :   1.0099
B( 44-C , 45-O ) :   2.2942 B( 44-C , 46-C ) :   0.9210 B( 46-C , 47-C ) :   1.4830
B( 46-C , 50-C ) :   1.2220 B( 47-C , 48-S ) :   1.1532 B( 47-C , 57-Cl) :   1.1301
B( 48-S , 49-C ) :   1.1624 B( 49-C , 50-C ) :   1.5483 B( 49-C , 70-H ) :   0.9552
B( 50-C , 51-C ) :   1.0185 B( 51-C , 52-C ) :   1.6789 B( 52-C , 53-C ) :   1.1352
B( 52-C , 55-C ) :   1.1590 B( 53-C , 54-N ) :   3.0042 B( 55-C , 56-N ) :   2.9993

-----------------------------------------------------------------------------
         ABSORPTION SPECTRUM VIA TRANSITION ELECTRIC DIPOLE MOMENTS
-----------------------------------------------------------------------------
State   Energy  Wavelength   fosc         T2         TX        TY        TZ
        (cm-1)    (nm)                  (au**2)     (au)      (au)      (au)
-----------------------------------------------------------------------------
   0   23757.0    420.9   0.082986914   1.14999  -0.07896  -0.62410   0.86848
   1   24035.9    416.0   0.479333375   6.56528   0.18330   1.48145   2.08255
   2   27164.5    368.1   0.344372880   4.17353   0.38844   1.77407   0.93559
   3   27959.9    357.7   0.051717884   0.60895   0.13778  -0.73805  -0.21270
   4   28197.2    354.6   0.236469281   2.76086   0.32615  -1.47868   0.68410
   5   28824.4    346.9   0.009470261   0.10816  -0.29258   0.15021  -0.00086
   6   28828.7    346.9   0.013152924   0.15020  -0.29334  -0.00220  -0.25327
   7   29099.8    343.6   0.070756600   0.80048   0.21247   0.43578  -0.75195
   8   30228.8    330.8   0.142785654   1.55503   0.30260   0.54889  -1.07805
   9   30521.6    327.6   0.191457694   2.06510  -0.17099   0.89859   1.10833
  10   32065.2    311.9   0.022365398   0.22962   0.34333  -0.17169  -0.28684
  11   32237.7    310.2   0.039200134   0.40031   0.58721  -0.10590  -0.21044
  12   32572.8    307.0   0.076258851   0.77075   0.15680   0.86145  -0.06369
  13   33455.6    298.9   0.278704399   2.74253  -0.42438  -1.30305  -0.92978
  14   33819.3    295.7   0.152174372   1.48133   1.16488  -0.23537   0.26268
  15   33946.4    294.6   0.318919495   3.09288  -0.03362   1.55211  -0.82625
  16   35147.8    284.5   0.017049784   0.15970  -0.19082   0.32425   0.13472
  17   35337.9    283.0   0.036280128   0.33799  -0.33220  -0.22114  -0.42276
  18   35777.6    279.5   0.604851226   5.56562  -0.91650   1.39352   1.66846
  19   36031.9    277.5   0.104017023   0.95037  -0.85073   0.47562   0.02027
  20   36090.4    277.1   0.039317125   0.35865   0.38739   0.22584  -0.39695
  21   36496.2    274.0   0.129770872   1.17059  -0.62139   0.66932   0.58007
  22   36706.4    272.4   0.108876599   0.97649  -0.94072   0.29390  -0.07188
  23   36970.4    270.5   0.098521357   0.87731   0.69212  -0.62998   0.03734
  24   37657.1    265.6   0.549047474   4.79997  -2.03344   0.74404  -0.33389
  25   37860.5    264.1   0.446092294   3.87895   1.32929  -0.08586  -1.45071
  26   38297.8    261.1   0.049189050   0.42283  -0.60759  -0.06709   0.22175
  27   38677.9    258.5   0.171581513   1.46044   0.75926   0.27081  -0.90035
  28   39046.7    256.1   0.041451623   0.34949   0.27758   0.30157  -0.42602
  29   39136.5    255.5   0.032241718   0.27121   0.45495  -0.21647   0.13180
  30   39358.7    254.1   0.041669652   0.34854   0.35533  -0.42116  -0.21191
  31   40027.1    249.8   0.019804394   0.16289   0.08275   0.19337   0.34445
  32   40232.1    248.6   0.044828741   0.36683   0.04665  -0.50539  -0.33051
  33   40278.3    248.3   0.015045433   0.12297   0.00856   0.34679  -0.05133

FINAL SINGLE POINT ENERGY     -4841.697486364156

DIPOLE MOMENT
-------------
                                X             Y             Z
Electronic contribution:     19.69288       3.50250      -4.63154
Nuclear contribution   :    -17.62350      -2.32510       4.90064
                        -----------------------------------------
Total Dipole Moment    :      2.06939       1.17740       0.26910
                        -----------------------------------------
Magnitude (a.u.)       :      2.39605
Magnitude (Debye)      :      6.09027

Rotational constants in cm-1:     0.002550     0.000377     0.000369
Rotational constants in MHz :    76.455669    11.309083    11.068602

                             ****ORCA TERMINATED NORMALLY****
TOTAL RUN TIME: 0 days 0 hours 7 minutes 1 seconds 467 msec
