                         Program Version 4.2.0 -  RELEASE  -
|  1> # ORCA input file
|  2> # SCF done       -197.735427450424          0.000528454994
|  3> ! CAM-B3LYP def2-SVP def2/J RIJCOSX Grid4 TightSCF
|  4> %maxcore 5000
|  5> %tddft
|  6>     Mode sTDDFT
|  7>     Ethresh 5.0
|  8>     maxcore 5000
|  9> end
| 10>
| 11> %pal
| 12>   nprocs 6
| 13>   end
| 14> * xyz 0 1
| 15>    C        1.22953         0.58536         3.63628
| 16>    C        0.53764         1.19479         4.63704
| 17>    S        1.28228         0.91529         6.16831
| 18>    C        2.55814        -0.04127         5.45422
| 19>   Cl        3.78645        -0.72285         6.39458
| 20>    C        2.38637        -0.12215         4.10116
| 21>    C        3.08855        -0.73380         2.97712
| 22>    O        4.11595        -1.37673         3.00511
| 23>    C        2.23813        -0.41669         1.78028
| 24>    C        1.13528         0.44507         2.19932
| 25>    C        0.20137         1.05423         1.40834
| 26>    C       -0.80393         1.87776         1.96087
| 27>    N       -1.62821         2.54563         2.39595
| 28>    C        0.13196         0.95785         0.00340
| 29>    N        0.03083         0.91914        -1.13913
| 30>    C        2.37407        -0.99687         0.56405
| 31>    C        3.45642        -1.87527         0.21025
| 32>    C        3.24555        -3.05533        -0.51728
| 33>    N        4.18644        -3.95430        -0.70381
| 34>    C        5.36159        -3.72354        -0.12462
| 35>    N        5.71148        -2.57047         0.43405
| 36>    C        4.79726        -1.64198         0.56315
| 37>    C        6.35270        -4.80235        -0.12047
| 38>    C        6.31113        -5.71857        -1.26889
| 39>    C        6.21548        -7.10131        -1.10969
| 40>    C        6.19002        -7.95645        -2.20226
| 41>    C        6.23191        -7.43573        -3.49400
| 42>    C        6.29378        -6.05867        -3.67671
| 43>    C        6.32896        -5.21762        -2.56815
| 44>    F        6.41791        -3.90123        -2.76644
| 45>    F        6.32971        -5.55076        -4.90922
| 46>    F        6.21759        -8.25476        -4.54484
| 47>    F        6.13683        -9.27973        -2.02183
| 48>    F        6.15439        -7.62835         0.11468
| 49>    C        7.22897        -4.91134         0.90394
| 50>    C        7.08873        -4.08530         2.11807
| 51>    C        5.92807        -4.14543         2.88889
| 52>    C        5.79987        -3.43120         4.07219
| 53>    C        6.84603        -2.61887         4.49795
| 54>    C        8.01249        -2.54062         3.74408
| 55>    C        8.13031        -3.28280         2.57431
| 56>    F        9.25486        -3.19546         1.86266
| 57>    F        9.01605        -1.76148         4.15332
| 58>    F        6.73335        -1.92242         5.63020
| 59>    F        4.69395        -3.53571         4.80908
| 60>    F        4.91053        -4.91571         2.48950
| 61>    C        8.33332        -5.87541         0.92238
| 62>    N        8.88343        -6.13338         2.10613
| 63>    C        9.86396        -7.01894         2.12978
| 64>    C       10.28662        -7.69531         0.99565
| 65>    C        9.64356        -7.35874        -0.20205
| 66>    N        8.69783        -6.42158        -0.22776
| 67>    C        9.94141        -7.98556        -1.47685
| 68>    C       10.38122        -9.25136        -1.60223
| 69>    C       10.66069        -9.83796        -2.86960
| 70>    C       11.23445       -11.03758        -3.13322
| 71>    C       11.14652       -11.56970        -4.53717
| 72>    O       10.83586       -10.93944        -5.51641
| 73>    C       11.47544       -12.99105        -4.40981
| 74>    C       11.50736       -14.08746        -5.21989
| 75>    S       12.00643       -15.49807        -4.31675
| 76>    C       12.17630       -14.58802        -2.86141
| 77>    C       11.86058       -13.27925        -3.05878
| 78>    C       11.83898       -12.05227        -2.28248
| 79>    C       12.44657       -11.91296        -1.06357
| 80>    C       13.02758       -13.02139        -0.40689
| 81>    N       13.49356       -13.90798         0.15122
| 82>    C       12.65068       -10.71325        -0.35508
| 83>    N       12.87886        -9.77804         0.27100
| 84>   Cl       11.13600       -14.17904        -6.86865
| 85>    H       -0.35680         1.78341         4.58435
| 86>    H        1.59980        -0.86602        -0.18153
| 87>    H        2.27395        -3.29176        -0.93097
| 88>    H        5.13718        -0.67613         0.90709
| 89>    H       10.31439        -7.19489         3.09761
| 90>    H       11.09334        -8.40949         1.02503
| 91>    H        9.75225        -7.37600        -2.35006
| 92>    H       10.49755        -9.86254        -0.72030
| 93>    H       10.33560        -9.28523        -3.74554
| 94>    H       12.48654       -15.08649        -1.96455
| 95> *
| 96>
| 97>                          ****END OF INPUT****

CARTESIAN COORDINATES (ANGSTROEM)
---------------------------------
  C      1.229530    0.585360    3.636280
  C      0.537640    1.194790    4.637040
  S      1.282280    0.915290    6.168310
  C      2.558140   -0.041270    5.454220
  Cl     3.786450   -0.722850    6.394580
  C      2.386370   -0.122150    4.101160
  C      3.088550   -0.733800    2.977120
  O      4.115950   -1.376730    3.005110
  C      2.238130   -0.416690    1.780280
  C      1.135280    0.445070    2.199320
  C      0.201370    1.054230    1.408340
  C     -0.803930    1.877760    1.960870
  N     -1.628210    2.545630    2.395950
  C      0.131960    0.957850    0.003400
  N      0.030830    0.919140   -1.139130
  C      2.374070   -0.996870    0.564050
  C      3.456420   -1.875270    0.210250
  C      3.245550   -3.055330   -0.517280
  N      4.186440   -3.954300   -0.703810
  C      5.361590   -3.723540   -0.124620
  N      5.711480   -2.570470    0.434050
  C      4.797260   -1.641980    0.563150
  C      6.352700   -4.802350   -0.120470
  C      6.311130   -5.718570   -1.268890
  C      6.215480   -7.101310   -1.109690
  C      6.190020   -7.956450   -2.202260
  C      6.231910   -7.435730   -3.494000
  C      6.293780   -6.058670   -3.676710
  C      6.328960   -5.217620   -2.568150
  F      6.417910   -3.901230   -2.766440
  F      6.329710   -5.550760   -4.909220
  F      6.217590   -8.254760   -4.544840
  F      6.136830   -9.279730   -2.021830
  F      6.154390   -7.628350    0.114680
  C      7.228970   -4.911340    0.903940
  C      7.088730   -4.085300    2.118070
  C      5.928070   -4.145430    2.888890
  C      5.799870   -3.431200    4.072190
  C      6.846030   -2.618870    4.497950
  C      8.012490   -2.540620    3.744080
  C      8.130310   -3.282800    2.574310
  F      9.254860   -3.195460    1.862660
  F      9.016050   -1.761480    4.153320
  F      6.733350   -1.922420    5.630200
  F      4.693950   -3.535710    4.809080
  F      4.910530   -4.915710    2.489500
  C      8.333320   -5.875410    0.922380
  N      8.883430   -6.133380    2.106130
  C      9.863960   -7.018940    2.129780
  C     10.286620   -7.695310    0.995650
  C      9.643560   -7.358740   -0.202050
  N      8.697830   -6.421580   -0.227760
  C      9.941410   -7.985560   -1.476850
  C     10.381220   -9.251360   -1.602230
  C     10.660690   -9.837960   -2.869600
  C     11.234450  -11.037580   -3.133220
  C     11.146520  -11.569700   -4.537170
  O     10.835860  -10.939440   -5.516410
  C     11.475440  -12.991050   -4.409810
  C     11.507360  -14.087460   -5.219890
  S     12.006430  -15.498070   -4.316750
  C     12.176300  -14.588020   -2.861410
  C     11.860580  -13.279250   -3.058780
  C     11.838980  -12.052270   -2.282480
  C     12.446570  -11.912960   -1.063570
  C     13.027580  -13.021390   -0.406890
  N     13.493560  -13.907980    0.151220
  C     12.650680  -10.713250   -0.355080
  N     12.878860   -9.778040    0.271000
  Cl    11.136000  -14.179040   -6.868650
  H     -0.356800    1.783410    4.584350
  H      1.599800   -0.866020   -0.181530
  H      2.273950   -3.291760   -0.930970
  H      5.137180   -0.676130    0.907090
  H     10.314390   -7.194890    3.097610
  H     11.093340   -8.409490    1.025030
  H      9.752250   -7.376000   -2.350060
  H     10.497550   -9.862540   -0.720300
  H     10.335600   -9.285230   -3.745540
  H     12.486540  -15.086490   -1.964550

 Total Charge           Charge          ....    0
 Multiplicity           Mult            ....    1
 Number of Electrons    NEL             ....  514
 Basis Dimension        Dim             .... 1046

ORBITAL ENERGIES
----------------

  NO   OCC          E(Eh)            E(eV)
   0   2.0000    -101.624506     -2765.3434
   1   2.0000    -101.622704     -2765.2944
   2   2.0000     -89.003291     -2421.9027
   3   2.0000     -89.000136     -2421.8168
   4   2.0000     -24.806594      -675.0217
   5   2.0000     -24.805029      -674.9792
   6   2.0000     -24.803919      -674.9489
   7   2.0000     -24.802088      -674.8991
   8   2.0000     -24.801132      -674.8731
   9   2.0000     -24.799859      -674.8385
  10   2.0000     -24.798855      -674.8112
  11   2.0000     -24.795203      -674.7118
  12   2.0000     -24.793945      -674.6775
  13   2.0000     -24.793807      -674.6738
  14   2.0000     -19.238244      -523.4992
  15   2.0000     -19.226685      -523.1847
  16   2.0000     -14.435082      -392.7986
  17   2.0000     -14.431445      -392.6996
  18   2.0000     -14.430193      -392.6655
  19   2.0000     -14.429969      -392.6594
  20   2.0000     -14.425362      -392.5341
  21   2.0000     -14.424981      -392.5237
  22   2.0000     -14.423708      -392.4890
  23   2.0000     -14.422980      -392.4692
  24   2.0000     -10.394650      -282.8528
  25   2.0000     -10.387214      -282.6505
  26   2.0000     -10.386640      -282.6348
  27   2.0000     -10.382585      -282.5245
  28   2.0000     -10.382484      -282.5218
  29   2.0000     -10.381883      -282.5054
  30   2.0000     -10.381784      -282.5027
  31   2.0000     -10.380438      -282.4661
  32   2.0000     -10.379767      -282.4478
  33   2.0000     -10.377203      -282.3781
  34   2.0000     -10.372794      -282.2581
  35   2.0000     -10.372561      -282.2517
  36   2.0000     -10.371776      -282.2304
  37   2.0000     -10.371426      -282.2208
  38   2.0000     -10.363812      -282.0137
  39   2.0000     -10.362022      -281.9650
  40   2.0000     -10.361231      -281.9434
  41   2.0000     -10.360561      -281.9252
  42   2.0000     -10.359899      -281.9072
  43   2.0000     -10.358727      -281.8753
  44   2.0000     -10.344543      -281.4893
  45   2.0000     -10.341866      -281.4165
  46   2.0000     -10.341484      -281.4061
  47   2.0000     -10.339326      -281.3474
  48   2.0000     -10.338594      -281.3274
  49   2.0000     -10.337456      -281.2965
  50   2.0000     -10.336760      -281.2775
  51   2.0000     -10.333079      -281.1774
  52   2.0000     -10.331844      -281.1438
  53   2.0000     -10.331685      -281.1394
  54   2.0000     -10.331472      -281.1336
  55   2.0000     -10.328316      -281.0478
  56   2.0000     -10.323471      -280.9159
  57   2.0000     -10.323227      -280.9093
  58   2.0000     -10.320985      -280.8483
  59   2.0000     -10.315156      -280.6897
  60   2.0000     -10.314177      -280.6630
  61   2.0000     -10.313882      -280.6550
  62   2.0000     -10.313342      -280.6403
  63   2.0000     -10.313158      -280.6353
  64   2.0000     -10.311204      -280.5821
  65   2.0000     -10.310603      -280.5658
  66   2.0000     -10.309912      -280.5470
  67   2.0000     -10.307013      -280.4681
  68   2.0000     -10.306475      -280.4534
  69   2.0000     -10.296385      -280.1789
  70   2.0000      -9.579158      -260.6621
  71   2.0000      -9.577476      -260.6164
  72   2.0000      -8.099029      -220.3858
  73   2.0000      -8.095930      -220.3015
  74   2.0000      -7.349850      -199.9996
  75   2.0000      -7.348148      -199.9533
  76   2.0000      -7.339194      -199.7096
  77   2.0000      -7.338565      -199.6925
  78   2.0000      -7.337496      -199.6634
  79   2.0000      -7.336945      -199.6484
  80   2.0000      -6.068373      -165.1288
  81   2.0000      -6.065257      -165.0440
  82   2.0000      -6.063744      -165.0029
  83   2.0000      -6.061344      -164.9375
  84   2.0000      -6.060689      -164.9197
  85   2.0000      -6.058212      -164.8523
  86   2.0000      -1.333491       -36.2861
  87   2.0000      -1.326901       -36.1068
  88   2.0000      -1.325661       -36.0731
  89   2.0000      -1.321899       -35.9707
  90   2.0000      -1.319084       -35.8941
  91   2.0000      -1.313964       -35.7548
  92   2.0000      -1.311432       -35.6859
  93   2.0000      -1.306936       -35.5635
  94   2.0000      -1.303678       -35.4749
  95   2.0000      -1.299203       -35.3531
  96   2.0000      -1.154777       -31.4231
  97   2.0000      -1.144357       -31.1395
  98   2.0000      -1.104396       -30.0522
  99   2.0000      -1.099705       -29.9245
 100   2.0000      -1.048441       -28.5295
 101   2.0000      -1.045698       -28.4549
 102   2.0000      -1.029405       -28.0115
 103   2.0000      -1.027768       -27.9670
 104   2.0000      -1.011218       -27.5166
 105   2.0000      -1.009137       -27.4600
 106   2.0000      -0.999614       -27.2009
 107   2.0000      -0.999105       -27.1870
 108   2.0000      -0.997015       -27.1302
 109   2.0000      -0.996159       -27.1069
 110   2.0000      -0.993546       -27.0358
 111   2.0000      -0.981892       -26.7186
 112   2.0000      -0.966495       -26.2997
 113   2.0000      -0.963083       -26.2068
 114   2.0000      -0.953467       -25.9452
 115   2.0000      -0.939607       -25.5680
 116   2.0000      -0.930038       -25.3076
 117   2.0000      -0.916779       -24.9468
 118   2.0000      -0.913996       -24.8711
 119   2.0000      -0.898465       -24.4485
 120   2.0000      -0.882099       -24.0031
 121   2.0000      -0.867133       -23.5959
 122   2.0000      -0.858204       -23.3529
 123   2.0000      -0.857782       -23.3414
 124   2.0000      -0.849768       -23.1234
 125   2.0000      -0.843129       -22.9427
 126   2.0000      -0.840652       -22.8753
 127   2.0000      -0.836840       -22.7716
 128   2.0000      -0.807665       -21.9777
 129   2.0000      -0.803008       -21.8510
 130   2.0000      -0.780190       -21.2301
 131   2.0000      -0.771647       -20.9976
 132   2.0000      -0.769047       -20.9268
 133   2.0000      -0.765145       -20.8207
 134   2.0000      -0.754738       -20.5375
 135   2.0000      -0.747941       -20.3525
 136   2.0000      -0.747016       -20.3273
 137   2.0000      -0.741947       -20.1894
 138   2.0000      -0.735166       -20.0049
 139   2.0000      -0.731594       -19.9077
 140   2.0000      -0.705588       -19.2000
 141   2.0000      -0.702700       -19.1214
 142   2.0000      -0.697584       -18.9822
 143   2.0000      -0.688043       -18.7226
 144   2.0000      -0.685437       -18.6517
 145   2.0000      -0.682779       -18.5794
 146   2.0000      -0.680241       -18.5103
 147   2.0000      -0.673979       -18.3399
 148   2.0000      -0.673537       -18.3279
 149   2.0000      -0.670621       -18.2485
 150   2.0000      -0.663453       -18.0535
 151   2.0000      -0.655036       -17.8244
 152   2.0000      -0.652223       -17.7479
 153   2.0000      -0.645177       -17.5562
 154   2.0000      -0.634780       -17.2732
 155   2.0000      -0.630589       -17.1592
 156   2.0000      -0.629430       -17.1277
 157   2.0000      -0.627679       -17.0800
 158   2.0000      -0.624535       -16.9945
 159   2.0000      -0.622407       -16.9366
 160   2.0000      -0.619347       -16.8533
 161   2.0000      -0.617297       -16.7975
 162   2.0000      -0.617003       -16.7895
 163   2.0000      -0.613990       -16.7075
 164   2.0000      -0.609681       -16.5903
 165   2.0000      -0.608794       -16.5661
 166   2.0000      -0.603994       -16.4355
 167   2.0000      -0.601006       -16.3542
 168   2.0000      -0.596569       -16.2335
 169   2.0000      -0.593746       -16.1567
 170   2.0000      -0.581488       -15.8231
 171   2.0000      -0.580911       -15.8074
 172   2.0000      -0.576728       -15.6936
 173   2.0000      -0.575149       -15.6506
 174   2.0000      -0.570466       -15.5232
 175   2.0000      -0.567373       -15.4390
 176   2.0000      -0.563167       -15.3246
 177   2.0000      -0.560628       -15.2555
 178   2.0000      -0.557830       -15.1793
 179   2.0000      -0.554347       -15.0846
 180   2.0000      -0.552981       -15.0474
 181   2.0000      -0.550382       -14.9766
 182   2.0000      -0.550040       -14.9673
 183   2.0000      -0.543357       -14.7855
 184   2.0000      -0.542552       -14.7636
 185   2.0000      -0.540813       -14.7163
 186   2.0000      -0.538558       -14.6549
 187   2.0000      -0.536210       -14.5910
 188   2.0000      -0.536098       -14.5880
 189   2.0000      -0.533873       -14.5274
 190   2.0000      -0.529608       -14.4114
 191   2.0000      -0.528222       -14.3736
 192   2.0000      -0.525337       -14.2951
 193   2.0000      -0.523344       -14.2409
 194   2.0000      -0.522259       -14.2114
 195   2.0000      -0.517966       -14.0946
 196   2.0000      -0.516817       -14.0633
 197   2.0000      -0.516249       -14.0478
 198   2.0000      -0.515565       -14.0292
 199   2.0000      -0.513643       -13.9769
 200   2.0000      -0.510795       -13.8994
 201   2.0000      -0.510135       -13.8815
 202   2.0000      -0.504763       -13.7353
 203   2.0000      -0.503542       -13.7021
 204   2.0000      -0.502562       -13.6754
 205   2.0000      -0.498735       -13.5713
 206   2.0000      -0.495580       -13.4854
 207   2.0000      -0.494496       -13.4559
 208   2.0000      -0.491538       -13.3754
 209   2.0000      -0.484685       -13.1889
 210   2.0000      -0.477040       -12.9809
 211   2.0000      -0.472967       -12.8701
 212   2.0000      -0.467766       -12.7286
 213   2.0000      -0.465578       -12.6690
 214   2.0000      -0.465334       -12.6624
 215   2.0000      -0.462631       -12.5888
 216   2.0000      -0.461778       -12.5656
 217   2.0000      -0.458135       -12.4665
 218   2.0000      -0.456915       -12.4333
 219   2.0000      -0.456035       -12.4093
 220   2.0000      -0.455581       -12.3970
 221   2.0000      -0.454582       -12.3698
 222   2.0000      -0.453756       -12.3473
 223   2.0000      -0.450682       -12.2637
 224   2.0000      -0.444284       -12.0896
 225   2.0000      -0.443852       -12.0778
 226   2.0000      -0.442172       -12.0321
 227   2.0000      -0.441033       -12.0011
 228   2.0000      -0.439446       -11.9579
 229   2.0000      -0.435959       -11.8630
 230   2.0000      -0.429527       -11.6880
 231   2.0000      -0.427425       -11.6308
 232   2.0000      -0.426153       -11.5962
 233   2.0000      -0.416174       -11.3247
 234   2.0000      -0.409442       -11.1415
 235   2.0000      -0.408849       -11.1254
 236   2.0000      -0.408361       -11.1121
 237   2.0000      -0.405412       -11.0318
 238   2.0000      -0.397659       -10.8208
 239   2.0000      -0.392367       -10.6769
 240   2.0000      -0.391254       -10.6466
 241   2.0000      -0.386368       -10.5136
 242   2.0000      -0.365238        -9.9386
 243   2.0000      -0.357846        -9.7375
 244   2.0000      -0.351207        -9.5568
 245   2.0000      -0.348169        -9.4742
 246   2.0000      -0.344299        -9.3689
 247   2.0000      -0.343103        -9.3363
 248   2.0000      -0.335273        -9.1232
 249   2.0000      -0.329459        -8.9650
 250   2.0000      -0.326051        -8.8723
 251   2.0000      -0.322217        -8.7680
 252   2.0000      -0.318526        -8.6675
 253   2.0000      -0.314790        -8.5659
 254   2.0000      -0.311324        -8.4715
 255   2.0000      -0.310074        -8.4375
 256   2.0000      -0.289885        -7.8882
 257   0.0000      -0.107990        -2.9386
 258   0.0000      -0.106055        -2.8859
 259   0.0000      -0.067786        -1.8446
 260   0.0000      -0.061271        -1.6673
 261   0.0000      -0.057588        -1.5671

MULLIKEN ATOMIC CHARGES
-----------------------
   0 C :    0.035008
   1 C :   -0.126162
   2 S :    0.197174
   3 C :   -0.162792
   4 Cl:    0.020655
   5 C :    0.070097
   6 C :    0.169259
   7 O :   -0.140353
   8 C :   -0.102811
   9 C :    0.281504
  10 C :   -0.317665
  11 C :   -0.191903
  12 N :    0.162933
  13 C :   -0.194277
  14 N :    0.170417
  15 C :   -0.001174
  16 C :   -0.053481
  17 C :    0.070298
  18 N :   -0.042811
  19 C :   -0.151233
  20 N :   -0.056847
  21 C :    0.139711
  22 C :    0.098308
  23 C :   -0.056302
  24 C :    0.204572
  25 C :    0.153740
  26 C :    0.129710
  27 C :    0.157620
  28 C :    0.193597
  29 F :   -0.162027
  30 F :   -0.159820
  31 F :   -0.156307
  32 F :   -0.166159
  33 F :   -0.161664
  34 C :    0.135776
  35 C :   -0.087567
  36 C :    0.182470
  37 C :    0.215698
  38 C :    0.115858
  39 C :    0.158383
  40 C :    0.205017
  41 F :   -0.163706
  42 F :   -0.164078
  43 F :   -0.165191
  44 F :   -0.166691
  45 F :   -0.166696
  46 C :   -0.150750
  47 N :   -0.039589
  48 C :    0.088225
  49 C :   -0.024989
  50 C :    0.046330
  51 N :   -0.059158
  52 C :    0.042684
  53 C :    0.026191
  54 C :    0.019818
  55 C :   -0.112687
  56 C :    0.136287
  57 O :   -0.120765
  58 C :    0.086435
  59 C :   -0.168660
  60 S :    0.192417
  61 C :   -0.126308
  62 C :    0.014935
  63 C :    0.291342
  64 C :   -0.328945
  65 C :   -0.190193
  66 N :    0.160907
  67 C :   -0.173550
  68 N :    0.162245
  69 Cl:    0.006007
  70 H :    0.056926
  71 H :    0.038684
  72 H :    0.014209
  73 H :    0.012008
  74 H :    0.015858
  75 H :    0.003798
  76 H :    0.019664
  77 H :    0.026494
  78 H :    0.027647
  79 H :    0.056397
Sum of atomic charges:   -0.0000000

LOEWDIN ATOMIC CHARGES
----------------------
   0 C :   -0.059129
   1 C :   -0.147093
   2 S :    0.486165
   3 C :   -0.267645
   4 Cl:    0.210957
   5 C :   -0.119523
   6 C :    0.092499
   7 O :   -0.122447
   8 C :   -0.077251
   9 C :    0.072966
  10 C :   -0.128241
  11 C :   -0.015764
  12 N :   -0.043323
  13 C :   -0.024584
  14 N :   -0.038160
  15 C :    0.075630
  16 C :   -0.088362
  17 C :    0.071127
  18 N :   -0.078156
  19 C :    0.041461
  20 N :   -0.064451
  21 C :    0.091460
  22 C :    0.003628
  23 C :   -0.058617
  24 C :    0.068549
  25 C :    0.020671
  26 C :    0.036484
  27 C :    0.022984
  28 C :    0.072673
  29 F :   -0.036801
  30 F :   -0.039160
  31 F :   -0.034090
  32 F :   -0.044588
  33 F :   -0.036836
  34 C :    0.011286
  35 C :   -0.061609
  36 C :    0.063092
  37 C :    0.028225
  38 C :    0.039388
  39 C :    0.025085
  40 C :    0.073688
  41 F :   -0.039059
  42 F :   -0.042990
  43 F :   -0.040644
  44 F :   -0.040282
  45 F :   -0.042784
  46 C :    0.028175
  47 N :   -0.070913
  48 C :    0.060234
  49 C :   -0.038123
  50 C :    0.028131
  51 N :   -0.069471
  52 C :    0.028827
  53 C :   -0.013854
  54 C :    0.072394
  55 C :   -0.080779
  56 C :    0.081105
  57 O :   -0.125237
  58 C :   -0.118376
  59 C :   -0.271177
  60 S :    0.481553
  61 C :   -0.149118
  62 C :   -0.058609
  63 C :    0.074683
  64 C :   -0.134847
  65 C :   -0.016283
  66 N :   -0.043760
  67 C :   -0.012185
  68 N :   -0.046889
  69 Cl:    0.197072
  70 H :    0.039164
  71 H :    0.049221
  72 H :    0.030898
  73 H :    0.028481
  74 H :    0.031818
  75 H :    0.036076
  76 H :    0.041808
  77 H :    0.035756
  78 H :    0.049494
  79 H :    0.038299

  Mayer bond orders larger than 0.100000
B(  0-C ,  1-C ) :   1.5414 B(  0-C ,  5-C ) :   1.2185 B(  0-C ,  9-C ) :   1.0081
B(  1-C ,  2-S ) :   1.1647 B(  1-C , 70-H ) :   0.9545 B(  2-S ,  3-C ) :   1.1580
B(  3-C ,  4-Cl) :   1.1461 B(  3-C ,  5-C ) :   1.4618 B(  5-C ,  6-C ) :   0.9729
B(  6-C ,  7-O ) :   2.1606 B(  6-C ,  8-C ) :   0.9291 B(  8-C ,  9-C ) :   1.0410
B(  8-C , 15-C ) :   1.7130 B(  9-C , 10-C ) :   1.6820 B( 10-C , 11-C ) :   1.1407
B( 10-C , 13-C ) :   1.1344 B( 11-C , 12-N ) :   2.9947 B( 13-C , 14-N ) :   2.9855
B( 15-C , 16-C ) :   1.0479 B( 15-C , 71-H ) :   0.9479 B( 16-C , 17-C ) :   1.3269
B( 16-C , 21-C ) :   1.2939 B( 17-C , 18-N ) :   1.5595 B( 17-C , 72-H ) :   0.9884
B( 18-N , 19-C ) :   1.5532 B( 19-C , 20-N ) :   1.5035 B( 19-C , 22-C ) :   0.9541
B( 20-N , 21-C ) :   1.5749 B( 21-C , 73-H ) :   0.9791 B( 22-C , 23-C ) :   0.9518
B( 22-C , 34-C ) :   1.8450 B( 23-C , 24-C ) :   1.3255 B( 23-C , 26-C ) :   0.1097
B( 23-C , 28-C ) :   1.3575 B( 24-C , 25-C ) :   1.2999 B( 24-C , 33-F ) :   1.1607
B( 25-C , 26-C ) :   1.2679 B( 25-C , 32-F ) :   1.1644 B( 26-C , 27-C ) :   1.2833
B( 26-C , 31-F ) :   1.1749 B( 27-C , 28-C ) :   1.2726 B( 27-C , 30-F ) :   1.1710
B( 28-C , 29-F ) :   1.1617 B( 34-C , 35-C ) :   0.9436 B( 34-C , 46-C ) :   0.9571
B( 35-C , 36-C ) :   1.3463 B( 35-C , 38-C ) :   0.1111 B( 35-C , 40-C ) :   1.3367
B( 36-C , 37-C ) :   1.2937 B( 36-C , 45-F ) :   1.1522 B( 37-C , 38-C ) :   1.2837
B( 37-C , 44-F ) :   1.1536 B( 38-C , 39-C ) :   1.2801 B( 38-C , 43-F ) :   1.1599
B( 39-C , 40-C ) :   1.2860 B( 39-C , 42-F ) :   1.1652 B( 40-C , 41-F ) :   1.1768
B( 46-C , 47-N ) :   1.5953 B( 46-C , 51-N ) :   1.5526 B( 47-N , 48-C ) :   1.5289
B( 48-C , 49-C ) :   1.3773 B( 48-C , 74-H ) :   0.9810 B( 49-C , 50-C ) :   1.3638
B( 49-C , 75-H ) :   0.9541 B( 50-C , 51-N ) :   1.4677 B( 50-C , 52-C ) :   1.0162
B( 52-C , 53-C ) :   1.7213 B( 52-C , 76-H ) :   0.9779 B( 53-C , 54-C ) :   1.1030
B( 53-C , 77-H ) :   0.9540 B( 54-C , 55-C ) :   1.6743 B( 54-C , 78-H ) :   0.9501
B( 55-C , 56-C ) :   0.9271 B( 55-C , 63-C ) :   1.0216 B( 56-C , 57-O ) :   2.2803
B( 56-C , 58-C ) :   0.9311 B( 58-C , 59-C ) :   1.4812 B( 58-C , 62-C ) :   1.2215
B( 59-C , 60-S ) :   1.1524 B( 59-C , 69-Cl) :   1.1341 B( 60-S , 61-C ) :   1.1669
B( 61-C , 62-C ) :   1.5420 B( 61-C , 79-H ) :   0.9547 B( 62-C , 63-C ) :   1.0161
B( 63-C , 64-C ) :   1.6573 B( 64-C , 65-C ) :   1.1282 B( 64-C , 67-C ) :   1.1666
B( 65-C , 66-N ) :   3.0005 B( 67-C , 68-N ) :   2.9403

-----------------------------------------------------------------------------
         ABSORPTION SPECTRUM VIA TRANSITION ELECTRIC DIPOLE MOMENTS
-----------------------------------------------------------------------------
State   Energy  Wavelength   fosc         T2         TX        TY        TZ
        (cm-1)    (nm)                  (au**2)     (au)      (au)      (au)
-----------------------------------------------------------------------------
   0   22964.6    435.5   0.378103226   5.42035  -1.79709   1.46921   0.17957
   1   24930.4    401.1   0.026126540   0.34501   0.08743  -0.41664  -0.40469
   2   26206.6    381.6   0.131961854   1.65773  -0.75602   0.93311   0.46417
   3   26994.9    370.4   0.369528426   4.50652   1.29769  -1.67185  -0.16557
   4   27342.9    365.7   0.001665176   0.02005  -0.05450  -0.12679  -0.03166
   5   28411.6    352.0   0.001490683   0.01727   0.06910  -0.03354   0.10664
   6   28778.7    347.5   0.101672155   1.16307   0.35674  -0.87796  -0.51478
   7   29166.7    342.9   0.054086968   0.61049  -0.16327   0.70557   0.29328
   8   29514.3    338.8   0.028472236   0.31759   0.06711   0.09823   0.55085
   9   29719.6    336.5   0.185068784   2.05006   0.64808  -1.26149  -0.19672
  10   29911.9    334.3   0.041019752   0.45147   0.18886  -0.40857  -0.49887
  11   31075.2    321.8   0.109336969   1.15832  -0.83167   0.68177  -0.04292
  12   31201.5    320.5   0.006557452   0.06919  -0.00278   0.19428  -0.17730
  13   31739.7    315.1   0.066928752   0.69420  -0.51614   0.23426  -0.61067
  14   32224.6    310.3   0.011373762   0.11620   0.13064   0.07336   0.30618
  15   32493.8    307.8   0.011565886   0.11718   0.18706  -0.27707  -0.07363
  16   32759.3    305.3   0.109801936   1.10345  -0.42222   0.86698   0.41656
  17   32851.2    304.4   0.055721894   0.55841   0.64243  -0.11920   0.36260
  18   33401.4    299.4   0.011906260   0.11735   0.15214  -0.09950   0.29035
  19   33904.3    294.9   0.119544678   1.16078   0.58039  -0.49961  -0.75784
  20   34688.7    288.3   0.031816448   0.30195   0.29469  -0.14535  -0.44043
  21   34904.4    286.5   0.007335544   0.06919  -0.18014   0.19079  -0.01835
  22   35147.4    284.5   0.066141586   0.61952   0.07816  -0.45058  -0.64062
  23   35503.9    281.7   0.002558652   0.02373   0.08571  -0.03292  -0.12367
  24   35739.7    279.8   0.063132450   0.58154  -0.57997   0.42224   0.25862
  25   36143.6    276.7   0.345020082   3.14259  -0.34505   1.03557   1.39683
  26   36340.2    275.2   0.059122732   0.53560   0.28259  -0.43532  -0.51599
  27   36777.6    271.9   0.417864801   3.74048   0.50097  -1.37613  -1.26324
  28   36832.6    271.5   0.021650530   0.19351  -0.14519  -0.16780  -0.37983
  29   37178.3    269.0   0.832652917   7.37310  -0.90184   0.02325  -2.56110
  30   37312.2    268.0   0.394277888   3.47878  -0.07192   1.55919   1.02105
  31   37727.6    265.1   0.058550198   0.51091  -0.08932   0.61997   0.34435
  32   37989.8    263.2   0.223000508   1.93248  -0.74327  -0.10510  -1.17003
  33   38580.6    259.2   0.071893165   0.61347  -0.39419  -0.24156  -0.63224
  34   38758.0    258.0   0.026523580   0.22529   0.09458  -0.37932  -0.26919
  35   39526.1    253.0   0.084383444   0.70283  -0.60476   0.28507  -0.50580
  36   39724.3    251.7   0.058684625   0.48634   0.50988  -0.42513  -0.21360
  37   40088.4    249.4   0.021320160   0.17508   0.16815  -0.33396  -0.18784
  38   40143.1    249.1   0.006737542   0.05525   0.08436  -0.16934   0.13951
  39   40317.7    248.0   0.009543026   0.07792   0.02615  -0.26573   0.08141

FINAL SINGLE POINT ENERGY     -5057.888163546635

DIPOLE MOMENT
-------------
                                X             Y             Z
Electronic contribution:     -5.07067       3.49828       4.32461
Nuclear contribution   :      5.03649      -4.65801      -3.64387
                        -----------------------------------------
Total Dipole Moment    :     -0.03418      -1.15972       0.68074
                        -----------------------------------------
Magnitude (a.u.)       :      1.34519
Magnitude (Debye)      :      3.41920

Rotational constants in cm-1:     0.002219     0.000360     0.000324
Rotational constants in MHz :    66.517370    10.797529     9.716790

                             ****ORCA TERMINATED NORMALLY****
TOTAL RUN TIME: 0 days 0 hours 8 minutes 5 seconds 57 msec
