                         Program Version 4.2.0 -  RELEASE  -
|  1> # ORCA input file
|  2> # SCF done       -196.466757521739          0.000391293653
|  3> ! CAM-B3LYP def2-SVP def2/J RIJCOSX Grid4 TightSCF
|  4> %maxcore 5000
|  5> %tddft
|  6>     Mode sTDDFT
|  7>     Ethresh 5.0
|  8>     maxcore 5000
|  9> end
| 10>
| 11> %pal
| 12>   nprocs 6
| 13>   end
| 14> * xyz 0 1
| 15>    C        4.45787         6.08331         0.18563
| 16>    C        4.85928         6.50557         1.42678
| 17>    C        6.05547         6.08915         2.04736
| 18>    N        7.00963         5.77613         2.60330
| 19>    C        4.17919         7.46408         2.20670
| 20>    N        3.69822         8.27345         2.86476
| 21>    C        5.23618         5.25554        -0.72434
| 22>    C        4.60546         5.28307        -2.00071
| 23>    C        5.12253         4.61744        -3.07443
| 24>    C        6.30981         3.86862        -2.91300
| 25>    C        6.93771         3.82287        -1.63440
| 26>    C        6.38418         4.53114        -0.54306
| 27>    C        8.11577         3.06367        -1.48352
| 28>    C        8.65131         2.38416        -2.54376
| 29>    C        8.03439         2.43270        -3.80273
| 30>    C        6.88876         3.15942        -3.98351
| 31>    C        3.38105         6.09948        -1.93300
| 32>    O        2.64801         6.36573        -2.86215
| 33>    C        3.24322         6.48696        -0.50575
| 34>    C        2.14489         6.97354         0.14437
| 35>    C        0.91894         7.47090        -0.34475
| 36>    S       -0.28520         7.88906         0.85849
| 37>    C       -1.36259         8.51263        -0.34477
| 38>    C       -0.79751         8.37058        -1.62101
| 39>    C        0.47257         7.78902        -1.61439
| 40>    C       -1.43523         8.80335        -2.79854
| 41>    N       -1.92614         9.14973        -3.77460
| 42>    C       -2.60242         9.10578        -0.03068
| 43>    C       -3.07076         9.21301         1.24336
| 44>    C       -4.28185         9.85889         1.57069
| 45>    N       -4.77769         9.95820         2.85590
| 46>    C       -4.22602         9.34473         4.03903
| 47>    C       -4.54023         7.85261         4.10829
| 48>    C       -5.97992        10.68851         2.90128
| 49>    O       -6.58554        10.92539         3.92841
| 50>    C       -6.21646        11.05931         1.52778
| 51>    C       -5.16624        10.53953         0.73729
| 52>    C       -5.35884        11.02880        -0.61085
| 53>    O       -4.70866        10.88500        -1.62478
| 54>    N       -6.54102        11.79587        -0.54727
| 55>    C       -7.02101        12.48081        -1.72137
| 56>    C       -8.04833        11.64392        -2.48131
| 57>    C       -7.05217        11.83039         0.72179
| 58>    C       -8.17329        12.54119         1.23722
| 59>    C       -9.19829        13.15625         0.61274
| 60>    C      -10.19779        13.88914         1.35630
| 61>    C      -11.52945        13.95075         1.04515
| 62>    S      -12.44097        14.81896         2.20521
| 63>    C      -11.03022        15.14272         3.13086
| 64>    C       -9.91700        14.60414         2.56974
| 65>    C       -8.51874        14.83478         3.00651
| 66>    O       -7.69649        15.37979         2.32474
| 67>    O       -8.30127        14.36457         4.26139
| 68>    C       -7.05959        14.04127         4.70566
| 69>    C       -5.95617        13.86732         3.95864
| 70>    C       -4.76556        13.34001         4.52851
| 71>    C       -3.69402        12.92245         3.80024
| 72>    C       -2.47610        12.31401         4.31351
| 73>    C       -2.16363        12.08387         5.62719
| 74>    C       -0.98370        11.44158         6.06040
| 75>    N       -0.05874        10.90925         6.48296
| 76>    C       -2.95830        12.43220         6.73979
| 77>    N       -3.53061        12.68196         7.70361
| 78>    C       -1.63308        11.97173         3.17273
| 79>    C       -2.30352        12.36012         1.97780
| 80>    C       -3.60531        12.95560         2.31569
| 81>    O       -4.43484        13.36001         1.52655
| 82>    C       -1.75246        12.16909         0.74314
| 83>    C       -0.47047        11.58466         0.64602
| 84>    C        0.21061        11.19380         1.83575
| 85>    C       -0.39428        11.38860         3.09861
| 86>    C        1.49399        10.61855         1.72739
| 87>    C        2.07935        10.44778         0.50197
| 88>    C        1.40706        10.82841        -0.66919
| 89>    C        0.15597        11.38026        -0.59930
| 90>    H        4.63030         4.65967        -4.03474
| 91>    H        6.87907         4.47514         0.41368
| 92>    H        8.58852         3.03131        -0.51288
| 93>    H        9.55411         1.80555        -2.41796
| 94>    H        8.47092         1.89112        -4.62849
| 95>    H        6.40902         3.20020        -4.95048
| 96>    H        2.19800         6.98290         1.22750
| 97>    H        1.05239         7.60644        -2.50134
| 98>    H       -3.17679         9.50441        -0.85773
| 99>    H       -2.48007         8.80112         2.05157
|100>    H       -4.68868         9.85741         4.88784
|101>    H       -3.14462         9.51126         4.07056
|102>    H       -5.61663         7.70087         4.12073
|103>    H       -4.11803         7.43089         5.01606
|104>    H       -4.12476         7.32794         3.25063
|105>    H       -6.14862        12.64128        -2.36171
|106>    H       -7.42576        13.45114        -1.42611
|107>    H       -7.58038        10.73318        -2.84670
|108>    H       -8.42560        12.20445        -3.33221
|109>    H       -8.88350        11.36637        -1.84113
|110>    H       -8.17469        12.52422         2.32087
|111>    H       -9.35051        13.09224        -0.45323
|112>    H      -12.02550        13.49603         0.21064
|113>    H      -11.09726        15.74161         4.01694
|114>    H       -7.08485        13.82614         5.76654
|115>    H       -5.95950        14.06322         2.89707
|116>    H       -4.75166        13.23429         5.60500
|117>    H       -2.28664        12.46216        -0.14836
|118>    H        0.14824        11.07842         3.97756
|119>    H        2.01029        10.31040         2.62396
|120>    H        3.06467        10.01124         0.43310
|121>    H        1.88198        10.67921        -1.62770
|122>    H       -0.37165        11.66866        -1.49686
|123> *
|124>
|125>                          ****END OF INPUT****

CARTESIAN COORDINATES (ANGSTROEM)
---------------------------------
  C      4.457870    6.083310    0.185630
  C      4.859280    6.505570    1.426780
  C      6.055470    6.089150    2.047360
  N      7.009630    5.776130    2.603300
  C      4.179190    7.464080    2.206700
  N      3.698220    8.273450    2.864760
  C      5.236180    5.255540   -0.724340
  C      4.605460    5.283070   -2.000710
  C      5.122530    4.617440   -3.074430
  C      6.309810    3.868620   -2.913000
  C      6.937710    3.822870   -1.634400
  C      6.384180    4.531140   -0.543060
  C      8.115770    3.063670   -1.483520
  C      8.651310    2.384160   -2.543760
  C      8.034390    2.432700   -3.802730
  C      6.888760    3.159420   -3.983510
  C      3.381050    6.099480   -1.933000
  O      2.648010    6.365730   -2.862150
  C      3.243220    6.486960   -0.505750
  C      2.144890    6.973540    0.144370
  C      0.918940    7.470900   -0.344750
  S     -0.285200    7.889060    0.858490
  C     -1.362590    8.512630   -0.344770
  C     -0.797510    8.370580   -1.621010
  C      0.472570    7.789020   -1.614390
  C     -1.435230    8.803350   -2.798540
  N     -1.926140    9.149730   -3.774600
  C     -2.602420    9.105780   -0.030680
  C     -3.070760    9.213010    1.243360
  C     -4.281850    9.858890    1.570690
  N     -4.777690    9.958200    2.855900
  C     -4.226020    9.344730    4.039030
  C     -4.540230    7.852610    4.108290
  C     -5.979920   10.688510    2.901280
  O     -6.585540   10.925390    3.928410
  C     -6.216460   11.059310    1.527780
  C     -5.166240   10.539530    0.737290
  C     -5.358840   11.028800   -0.610850
  O     -4.708660   10.885000   -1.624780
  N     -6.541020   11.795870   -0.547270
  C     -7.021010   12.480810   -1.721370
  C     -8.048330   11.643920   -2.481310
  C     -7.052170   11.830390    0.721790
  C     -8.173290   12.541190    1.237220
  C     -9.198290   13.156250    0.612740
  C    -10.197790   13.889140    1.356300
  C    -11.529450   13.950750    1.045150
  S    -12.440970   14.818960    2.205210
  C    -11.030220   15.142720    3.130860
  C     -9.917000   14.604140    2.569740
  C     -8.518740   14.834780    3.006510
  O     -7.696490   15.379790    2.324740
  O     -8.301270   14.364570    4.261390
  C     -7.059590   14.041270    4.705660
  C     -5.956170   13.867320    3.958640
  C     -4.765560   13.340010    4.528510
  C     -3.694020   12.922450    3.800240
  C     -2.476100   12.314010    4.313510
  C     -2.163630   12.083870    5.627190
  C     -0.983700   11.441580    6.060400
  N     -0.058740   10.909250    6.482960
  C     -2.958300   12.432200    6.739790
  N     -3.530610   12.681960    7.703610
  C     -1.633080   11.971730    3.172730
  C     -2.303520   12.360120    1.977800
  C     -3.605310   12.955600    2.315690
  O     -4.434840   13.360010    1.526550
  C     -1.752460   12.169090    0.743140
  C     -0.470470   11.584660    0.646020
  C      0.210610   11.193800    1.835750
  C     -0.394280   11.388600    3.098610
  C      1.493990   10.618550    1.727390
  C      2.079350   10.447780    0.501970
  C      1.407060   10.828410   -0.669190
  C      0.155970   11.380260   -0.599300
  H      4.630300    4.659670   -4.034740
  H      6.879070    4.475140    0.413680
  H      8.588520    3.031310   -0.512880
  H      9.554110    1.805550   -2.417960
  H      8.470920    1.891120   -4.628490
  H      6.409020    3.200200   -4.950480
  H      2.198000    6.982900    1.227500
  H      1.052390    7.606440   -2.501340
  H     -3.176790    9.504410   -0.857730
  H     -2.480070    8.801120    2.051570
  H     -4.688680    9.857410    4.887840
  H     -3.144620    9.511260    4.070560
  H     -5.616630    7.700870    4.120730
  H     -4.118030    7.430890    5.016060
  H     -4.124760    7.327940    3.250630
  H     -6.148620   12.641280   -2.361710
  H     -7.425760   13.451140   -1.426110
  H     -7.580380   10.733180   -2.846700
  H     -8.425600   12.204450   -3.332210
  H     -8.883500   11.366370   -1.841130
  H     -8.174690   12.524220    2.320870
  H     -9.350510   13.092240   -0.453230
  H    -12.025500   13.496030    0.210640
  H    -11.097260   15.741610    4.016940
  H     -7.084850   13.826140    5.766540
  H     -5.959500   14.063220    2.897070
  H     -4.751660   13.234290    5.605000
  H     -2.286640   12.462160   -0.148360
  H      0.148240   11.078420    3.977560
  H      2.010290   10.310400    2.623960
  H      3.064670   10.011240    0.433100
  H      1.881980   10.679210   -1.627700
  H     -0.371650   11.668660   -1.496860

 Total Charge           Charge          ....    0
 Multiplicity           Mult            ....    1
 Number of Electrons    NEL             ....  522
 Basis Dimension        Dim             .... 1223

ORBITAL ENERGIES
----------------

  NO   OCC          E(Eh)            E(eV)
   0   2.0000     -88.983477     -2421.3635
   1   2.0000     -88.977224     -2421.1933
   2   2.0000     -19.299218      -525.1584
   3   2.0000     -19.229906      -523.2723
   4   2.0000     -19.225537      -523.1535
   5   2.0000     -19.212370      -522.7952
   6   2.0000     -19.202000      -522.5130
   7   2.0000     -19.190798      -522.2082
   8   2.0000     -14.459426      -393.4610
   9   2.0000     -14.457395      -393.4057
  10   2.0000     -14.425002      -392.5243
  11   2.0000     -14.418975      -392.3603
  12   2.0000     -14.412148      -392.1745
  13   2.0000     -14.409634      -392.1061
  14   2.0000     -14.407063      -392.0361
  15   2.0000     -10.428320      -283.7690
  16   2.0000     -10.381230      -282.4876
  17   2.0000     -10.376853      -282.3685
  18   2.0000     -10.374827      -282.3134
  19   2.0000     -10.361799      -281.9589
  20   2.0000     -10.359944      -281.9084
  21   2.0000     -10.347723      -281.5759
  22   2.0000     -10.346758      -281.5496
  23   2.0000     -10.345683      -281.5204
  24   2.0000     -10.342064      -281.4219
  25   2.0000     -10.341856      -281.4162
  26   2.0000     -10.336467      -281.2696
  27   2.0000     -10.335877      -281.2535
  28   2.0000     -10.333170      -281.1799
  29   2.0000     -10.328889      -281.0634
  30   2.0000     -10.328320      -281.0479
  31   2.0000     -10.322179      -280.8808
  32   2.0000     -10.321651      -280.8664
  33   2.0000     -10.317455      -280.7522
  34   2.0000     -10.315139      -280.6892
  35   2.0000     -10.313432      -280.6428
  36   2.0000     -10.312609      -280.6204
  37   2.0000     -10.312601      -280.6201
  38   2.0000     -10.311179      -280.5814
  39   2.0000     -10.309477      -280.5351
  40   2.0000     -10.308879      -280.5189
  41   2.0000     -10.307646      -280.4853
  42   2.0000     -10.307565      -280.4831
  43   2.0000     -10.306495      -280.4540
  44   2.0000     -10.306419      -280.4519
  45   2.0000     -10.304304      -280.3944
  46   2.0000     -10.303012      -280.3592
  47   2.0000     -10.303003      -280.3590
  48   2.0000     -10.302580      -280.3475
  49   2.0000     -10.302087      -280.3340
  50   2.0000     -10.301908      -280.3292
  51   2.0000     -10.301620      -280.3213
  52   2.0000     -10.301314      -280.3130
  53   2.0000     -10.298607      -280.2393
  54   2.0000     -10.297507      -280.2094
  55   2.0000     -10.293903      -280.1113
  56   2.0000     -10.292533      -280.0741
  57   2.0000     -10.292057      -280.0611
  58   2.0000     -10.291320      -280.0410
  59   2.0000     -10.290643      -280.0226
  60   2.0000     -10.290605      -280.0216
  61   2.0000     -10.290359      -280.0149
  62   2.0000     -10.289820      -280.0002
  63   2.0000     -10.289592      -279.9940
  64   2.0000     -10.289122      -279.9812
  65   2.0000     -10.282445      -279.7996
  66   2.0000     -10.281624      -279.7772
  67   2.0000     -10.280216      -279.7389
  68   2.0000     -10.278236      -279.6850
  69   2.0000     -10.275543      -279.6117
  70   2.0000     -10.275342      -279.6063
  71   2.0000     -10.268555      -279.4216
  72   2.0000     -10.266392      -279.3627
  73   2.0000     -10.265946      -279.3506
  74   2.0000     -10.262398      -279.2541
  75   2.0000      -8.078358      -219.8233
  76   2.0000      -8.073432      -219.6893
  77   2.0000      -6.047442      -164.5593
  78   2.0000      -6.043486      -164.4516
  79   2.0000      -6.042645      -164.4287
  80   2.0000      -6.040744      -164.3770
  81   2.0000      -6.038165      -164.3068
  82   2.0000      -6.035943      -164.2463
  83   2.0000      -1.225219       -33.3399
  84   2.0000      -1.140247       -31.0277
  85   2.0000      -1.140187       -31.0261
  86   2.0000      -1.132592       -30.8194
  87   2.0000      -1.130251       -30.7557
  88   2.0000      -1.126153       -30.6442
  89   2.0000      -1.068421       -29.0732
  90   2.0000      -1.059236       -28.8233
  91   2.0000      -1.025613       -27.9084
  92   2.0000      -1.019390       -27.7390
  93   2.0000      -1.013474       -27.5780
  94   2.0000      -1.005218       -27.3534
  95   2.0000      -1.005070       -27.3494
  96   2.0000      -0.999445       -27.1963
  97   2.0000      -0.993675       -27.0393
  98   2.0000      -0.989306       -26.9204
  99   2.0000      -0.986909       -26.8552
 100   2.0000      -0.976615       -26.5750
 101   2.0000      -0.965676       -26.2774
 102   2.0000      -0.937074       -25.4991
 103   2.0000      -0.932217       -25.3669
 104   2.0000      -0.925802       -25.1924
 105   2.0000      -0.923779       -25.1373
 106   2.0000      -0.918441       -24.9921
 107   2.0000      -0.911561       -24.8048
 108   2.0000      -0.907594       -24.6969
 109   2.0000      -0.889162       -24.1953
 110   2.0000      -0.886959       -24.1354
 111   2.0000      -0.885113       -24.0851
 112   2.0000      -0.878244       -23.8982
 113   2.0000      -0.875497       -23.8235
 114   2.0000      -0.868780       -23.6407
 115   2.0000      -0.865818       -23.5601
 116   2.0000      -0.851803       -23.1787
 117   2.0000      -0.845371       -23.0037
 118   2.0000      -0.836332       -22.7577
 119   2.0000      -0.832721       -22.6595
 120   2.0000      -0.823922       -22.4201
 121   2.0000      -0.822213       -22.3735
 122   2.0000      -0.808212       -21.9926
 123   2.0000      -0.799051       -21.7433
 124   2.0000      -0.789959       -21.4959
 125   2.0000      -0.774321       -21.0704
 126   2.0000      -0.767261       -20.8782
 127   2.0000      -0.764083       -20.7918
 128   2.0000      -0.759125       -20.6569
 129   2.0000      -0.755722       -20.5642
 130   2.0000      -0.736604       -20.0440
 131   2.0000      -0.724040       -19.7021
 132   2.0000      -0.715925       -19.4813
 133   2.0000      -0.708659       -19.2836
 134   2.0000      -0.707176       -19.2432
 135   2.0000      -0.703694       -19.1485
 136   2.0000      -0.700377       -19.0582
 137   2.0000      -0.696383       -18.9495
 138   2.0000      -0.693534       -18.8720
 139   2.0000      -0.689238       -18.7551
 140   2.0000      -0.685732       -18.6597
 141   2.0000      -0.685286       -18.6476
 142   2.0000      -0.672519       -18.3002
 143   2.0000      -0.669255       -18.2113
 144   2.0000      -0.668222       -18.1832
 145   2.0000      -0.662516       -18.0280
 146   2.0000      -0.653286       -17.7768
 147   2.0000      -0.639507       -17.4019
 148   2.0000      -0.637347       -17.3431
 149   2.0000      -0.632133       -17.2012
 150   2.0000      -0.623345       -16.9621
 151   2.0000      -0.620212       -16.8768
 152   2.0000      -0.617047       -16.7907
 153   2.0000      -0.611141       -16.6300
 154   2.0000      -0.610103       -16.6017
 155   2.0000      -0.601949       -16.3799
 156   2.0000      -0.600128       -16.3303
 157   2.0000      -0.592956       -16.1352
 158   2.0000      -0.591340       -16.0912
 159   2.0000      -0.587271       -15.9804
 160   2.0000      -0.586295       -15.9539
 161   2.0000      -0.582513       -15.8510
 162   2.0000      -0.574272       -15.6267
 163   2.0000      -0.566920       -15.4267
 164   2.0000      -0.564077       -15.3493
 165   2.0000      -0.559768       -15.2321
 166   2.0000      -0.555390       -15.1129
 167   2.0000      -0.553502       -15.0616
 168   2.0000      -0.551833       -15.0162
 169   2.0000      -0.550253       -14.9731
 170   2.0000      -0.544027       -14.8037
 171   2.0000      -0.542281       -14.7562
 172   2.0000      -0.540061       -14.6958
 173   2.0000      -0.539223       -14.6730
 174   2.0000      -0.537423       -14.6240
 175   2.0000      -0.534179       -14.5358
 176   2.0000      -0.532382       -14.4868
 177   2.0000      -0.529402       -14.4058
 178   2.0000      -0.527609       -14.3570
 179   2.0000      -0.526655       -14.3310
 180   2.0000      -0.522742       -14.2245
 181   2.0000      -0.521888       -14.2013
 182   2.0000      -0.519071       -14.1247
 183   2.0000      -0.517021       -14.0689
 184   2.0000      -0.516509       -14.0549
 185   2.0000      -0.514215       -13.9925
 186   2.0000      -0.512390       -13.9428
 187   2.0000      -0.509025       -13.8513
 188   2.0000      -0.508152       -13.8275
 189   2.0000      -0.505268       -13.7490
 190   2.0000      -0.502485       -13.6733
 191   2.0000      -0.501419       -13.6443
 192   2.0000      -0.499085       -13.5808
 193   2.0000      -0.496966       -13.5231
 194   2.0000      -0.494800       -13.4642
 195   2.0000      -0.493214       -13.4210
 196   2.0000      -0.492826       -13.4105
 197   2.0000      -0.490993       -13.3606
 198   2.0000      -0.490389       -13.3442
 199   2.0000      -0.484801       -13.1921
 200   2.0000      -0.481104       -13.0915
 201   2.0000      -0.474908       -12.9229
 202   2.0000      -0.472103       -12.8466
 203   2.0000      -0.469994       -12.7892
 204   2.0000      -0.469037       -12.7631
 205   2.0000      -0.465829       -12.6759
 206   2.0000      -0.465349       -12.6628
 207   2.0000      -0.459815       -12.5122
 208   2.0000      -0.459304       -12.4983
 209   2.0000      -0.458354       -12.4724
 210   2.0000      -0.456768       -12.4293
 211   2.0000      -0.455745       -12.4014
 212   2.0000      -0.450666       -12.2632
 213   2.0000      -0.449427       -12.2295
 214   2.0000      -0.447595       -12.1797
 215   2.0000      -0.444754       -12.1024
 216   2.0000      -0.444653       -12.0996
 217   2.0000      -0.443727       -12.0744
 218   2.0000      -0.441981       -12.0269
 219   2.0000      -0.440169       -11.9776
 220   2.0000      -0.439405       -11.9568
 221   2.0000      -0.438526       -11.9329
 222   2.0000      -0.437444       -11.9035
 223   2.0000      -0.435618       -11.8538
 224   2.0000      -0.433840       -11.8054
 225   2.0000      -0.432636       -11.7726
 226   2.0000      -0.432370       -11.7654
 227   2.0000      -0.431393       -11.7388
 228   2.0000      -0.426962       -11.6182
 229   2.0000      -0.426910       -11.6168
 230   2.0000      -0.425766       -11.5857
 231   2.0000      -0.423293       -11.5184
 232   2.0000      -0.421827       -11.4785
 233   2.0000      -0.417179       -11.3520
 234   2.0000      -0.413782       -11.2596
 235   2.0000      -0.412772       -11.2321
 236   2.0000      -0.409973       -11.1559
 237   2.0000      -0.401553       -10.9268
 238   2.0000      -0.400243       -10.8912
 239   2.0000      -0.395292       -10.7564
 240   2.0000      -0.384045       -10.4504
 241   2.0000      -0.380157       -10.3446
 242   2.0000      -0.373238       -10.1563
 243   2.0000      -0.371811       -10.1175
 244   2.0000      -0.363877        -9.9016
 245   2.0000      -0.354458        -9.6453
 246   2.0000      -0.349792        -9.5183
 247   2.0000      -0.343289        -9.3414
 248   2.0000      -0.338877        -9.2213
 249   2.0000      -0.336622        -9.1600
 250   2.0000      -0.333936        -9.0869
 251   2.0000      -0.329711        -8.9719
 252   2.0000      -0.322665        -8.7802
 253   2.0000      -0.320967        -8.7339
 254   2.0000      -0.316236        -8.6052
 255   2.0000      -0.315462        -8.5842
 256   2.0000      -0.301330        -8.1996
 257   2.0000      -0.294655        -8.0180
 258   2.0000      -0.290211        -7.8970
 259   2.0000      -0.279851        -7.6151
 260   2.0000      -0.241437        -6.5698
 261   0.0000      -0.114246        -3.1088
 262   0.0000      -0.084242        -2.2923
 263   0.0000      -0.081241        -2.2107
 264   0.0000      -0.062246        -1.6938
 265   0.0000      -0.051778        -1.4089

MULLIKEN ATOMIC CHARGES
-----------------------
   0 C :    0.293727
   1 C :   -0.345068
   2 C :   -0.178647
   3 N :    0.153699
   4 C :   -0.198461
   5 N :    0.162575
   6 C :    0.044664
   7 C :    0.001350
   8 C :   -0.081140
   9 C :    0.098123
  10 C :    0.095687
  11 C :   -0.079486
  12 C :   -0.018017
  13 C :    0.036236
  14 C :    0.038499
  15 C :   -0.016392
  16 C :    0.163358
  17 O :   -0.152808
  18 C :   -0.091673
  19 C :    0.041283
  20 C :   -0.091902
  21 S :    0.148629
  22 C :   -0.024111
  23 C :   -0.076454
  24 C :    0.033192
  25 C :   -0.193073
  26 N :    0.168652
  27 C :   -0.006063
  28 C :   -0.010948
  29 C :    0.123257
  30 N :   -0.283569
  31 C :    0.081505
  32 C :    0.019148
  33 C :    0.151516
  34 O :   -0.209468
  35 C :   -0.025320
  36 C :   -0.042966
  37 C :    0.167022
  38 O :   -0.192646
  39 N :   -0.257046
  40 C :    0.105291
  41 C :    0.003063
  42 C :    0.121852
  43 C :   -0.030493
  44 C :    0.015709
  45 C :    0.098219
  46 C :   -0.130096
  47 S :    0.144225
  48 C :   -0.100590
  49 C :    0.045098
  50 C :    0.163896
  51 O :   -0.154691
  52 O :   -0.230772
  53 C :    0.188505
  54 C :   -0.012965
  55 C :   -0.025125
  56 C :   -0.079974
  57 C :    0.334938
  58 C :   -0.368921
  59 C :   -0.196694
  60 N :    0.158914
  61 C :   -0.194974
  62 N :    0.149539
  63 C :    0.045248
  64 C :    0.009098
  65 C :    0.154948
  66 O :   -0.157948
  67 C :   -0.091703
  68 C :    0.082207
  69 C :    0.107970
  70 C :   -0.114030
  71 C :   -0.033140
  72 C :    0.036359
  73 C :    0.035297
  74 C :   -0.011679
  75 H :   -0.010790
  76 H :   -0.005323
  77 H :   -0.008494
  78 H :   -0.002942
  79 H :   -0.003403
  80 H :   -0.016089
  81 H :    0.021761
  82 H :    0.023155
  83 H :    0.038520
  84 H :   -0.012151
  85 H :    0.044485
  86 H :    0.035044
  87 H :    0.029506
  88 H :    0.028302
  89 H :    0.013184
  90 H :    0.044350
  91 H :    0.033523
  92 H :    0.033438
  93 H :    0.023582
  94 H :    0.014103
  95 H :    0.020710
  96 H :   -0.001745
  97 H :    0.029899
  98 H :    0.036211
  99 H :    0.040012
 100 H :    0.065776
 101 H :    0.010260
 102 H :   -0.011239
 103 H :   -0.008106
 104 H :    0.000416
 105 H :   -0.006414
 106 H :   -0.005766
 107 H :   -0.007219
Sum of atomic charges:   -0.0000000

LOEWDIN ATOMIC CHARGES
----------------------
   0 C :    0.078114
   1 C :   -0.143352
   2 C :   -0.018729
   3 N :   -0.049653
   4 C :   -0.017816
   5 N :   -0.053028
   6 C :   -0.027183
   7 C :   -0.055396
   8 C :    0.033530
   9 C :   -0.007758
  10 C :   -0.005873
  11 C :    0.020935
  12 C :   -0.004913
  13 C :   -0.011770
  14 C :   -0.010496
  15 C :   -0.008923
  16 C :    0.088031
  17 O :   -0.139973
  18 C :   -0.090920
  19 C :    0.045741
  20 C :   -0.173540
  21 S :    0.488813
  22 C :   -0.117871
  23 C :   -0.102912
  24 C :    0.020670
  25 C :   -0.034800
  26 N :   -0.039808
  27 C :   -0.006907
  28 C :   -0.018666
  29 C :    0.059051
  30 N :    0.000585
  31 C :    0.032268
  32 C :   -0.058715
  33 C :    0.075052
  34 O :   -0.207760
  35 C :   -0.117228
  36 C :   -0.103959
  37 C :    0.089071
  38 O :   -0.180229
  39 N :    0.011234
  40 C :    0.038681
  41 C :   -0.062915
  42 C :    0.091165
  43 C :   -0.030125
  44 C :    0.012856
  45 C :   -0.054222
  46 C :   -0.174497
  47 S :    0.470414
  48 C :   -0.160725
  49 C :   -0.089463
  50 C :    0.103512
  51 O :   -0.119187
  52 O :   -0.032680
  53 C :    0.119659
  54 C :   -0.068520
  55 C :    0.087774
  56 C :   -0.102621
  57 C :    0.076410
  58 C :   -0.145642
  59 C :   -0.021295
  60 N :   -0.053019
  61 C :   -0.021171
  62 N :   -0.054875
  63 C :   -0.032929
  64 C :   -0.059951
  65 C :    0.085201
  66 O :   -0.143155
  67 C :    0.034919
  68 C :   -0.013018
  69 C :   -0.015138
  70 C :    0.014356
  71 C :   -0.008355
  72 C :   -0.017759
  73 C :   -0.011901
  74 C :   -0.011304
  75 H :    0.039769
  76 H :    0.039575
  77 H :    0.035134
  78 H :    0.033963
  79 H :    0.033556
  80 H :    0.032478
  81 H :    0.044142
  82 H :    0.041627
  83 H :    0.046095
  84 H :    0.024952
  85 H :    0.037506
  86 H :    0.021506
  87 H :    0.032455
  88 H :    0.033233
  89 H :    0.021289
  90 H :    0.039047
  91 H :    0.027615
  92 H :    0.034747
  93 H :    0.030832
  94 H :    0.018979
  95 H :    0.044624
  96 H :    0.033987
  97 H :    0.027903
  98 H :    0.031658
  99 H :    0.037229
 100 H :    0.037199
 101 H :    0.041828
 102 H :    0.039807
 103 H :    0.040062
 104 H :    0.034898
 105 H :    0.029956
 106 H :    0.032068
 107 H :    0.034882

  Mayer bond orders larger than 0.100000
B(  0-C ,  1-C ) :   1.6334 B(  0-C ,  6-C ) :   0.9902 B(  0-C , 18-C ) :   1.0646
B(  1-C ,  2-C ) :   1.1410 B(  1-C ,  4-C ) :   1.1438 B(  2-C ,  3-N ) :   2.9748
B(  4-C ,  5-N ) :   2.9703 B(  6-C ,  7-C ) :   1.2145 B(  6-C , 11-C ) :   1.4516
B(  7-C ,  8-C ) :   1.4703 B(  7-C , 16-C ) :   0.9532 B(  8-C ,  9-C ) :   1.1789
B(  8-C , 75-H ) :   1.0167 B(  9-C , 10-C ) :   1.2559 B(  9-C , 15-C ) :   1.2448
B( 10-C , 11-C ) :   1.2035 B( 10-C , 12-C ) :   1.2413 B( 11-C , 76-H ) :   0.9916
B( 12-C , 13-C ) :   1.4870 B( 12-C , 77-H ) :   0.9975 B( 13-C , 14-C ) :   1.2614
B( 13-C , 78-H ) :   0.9889 B( 14-C , 15-C ) :   1.4866 B( 14-C , 79-H ) :   0.9892
B( 15-C , 80-H ) :   0.9981 B( 16-C , 17-O ) :   2.1727 B( 16-C , 18-C ) :   0.9380
B( 18-C , 19-C ) :   1.6045 B( 19-C , 20-C ) :   1.1943 B( 19-C , 81-H ) :   0.9238
B( 20-C , 21-S ) :   1.1011 B( 20-C , 24-C ) :   1.4264 B( 21-S , 22-C ) :   1.1609
B( 22-C , 23-C ) :   1.3804 B( 22-C , 27-C ) :   1.2020 B( 23-C , 24-C ) :   1.3013
B( 23-C , 25-C ) :   1.1198 B( 24-C , 82-H ) :   0.9871 B( 25-C , 26-N ) :   3.0305
B( 27-C , 28-C ) :   1.5486 B( 27-C , 83-H ) :   0.9500 B( 28-C , 29-C ) :   1.1662
B( 28-C , 84-H ) :   0.9628 B( 29-C , 30-N ) :   1.1400 B( 29-C , 36-C ) :   1.3635
B( 30-N , 31-C ) :   0.9430 B( 30-N , 33-C ) :   1.0414 B( 31-C , 32-C ) :   1.1217
B( 31-C , 85-H ) :   0.9270 B( 31-C , 86-H ) :   0.9415 B( 32-C , 87-H ) :   0.9631
B( 32-C , 88-H ) :   0.9673 B( 32-C , 89-H ) :   0.9665 B( 33-C , 34-O ) :   2.0765
B( 33-C , 35-C ) :   0.9996 B( 35-C , 36-C ) :   1.2471 B( 35-C , 42-C ) :   1.3275
B( 36-C , 37-C ) :   0.9704 B( 37-C , 38-O ) :   2.0429 B( 37-C , 39-N ) :   1.0506
B( 39-N , 40-C ) :   0.9402 B( 39-N , 42-C ) :   1.1924 B( 40-C , 41-C ) :   1.1177
B( 40-C , 90-H ) :   0.9280 B( 40-C , 91-H ) :   0.9491 B( 41-C , 92-H ) :   0.9607
B( 41-C , 93-H ) :   0.9691 B( 41-C , 94-H ) :   0.9662 B( 42-C , 43-C ) :   1.1865
B( 43-C , 44-C ) :   1.6471 B( 43-C , 95-H ) :   0.9231 B( 44-C , 45-C ) :   1.0666
B( 44-C , 96-H ) :   0.9723 B( 45-C , 46-C ) :   1.5153 B( 45-C , 49-C ) :   1.2698
B( 46-C , 47-S ) :   1.1869 B( 46-C , 97-H ) :   0.9708 B( 47-S , 48-C ) :   1.1829
B( 48-C , 49-C ) :   1.5912 B( 48-C , 98-H ) :   0.9703 B( 49-C , 50-C ) :   0.8898
B( 50-C , 51-O ) :   2.1514 B( 50-C , 52-O ) :   1.0846 B( 52-O , 53-C ) :   1.0589
B( 53-C , 54-C ) :   1.6445 B( 53-C , 99-H ) :   0.9823 B( 54-C , 55-C ) :   1.1343
B( 54-C ,100-H ) :   0.9481 B( 55-C , 56-C ) :   1.5940 B( 55-C ,101-H ) :   0.9488
B( 56-C , 57-C ) :   1.0500 B( 56-C , 65-C ) :   0.9494 B( 57-C , 58-C ) :   1.6263
B( 57-C , 63-C ) :   0.9821 B( 58-C , 59-C ) :   1.1474 B( 58-C , 61-C ) :   1.1499
B( 59-C , 60-N ) :   2.9680 B( 61-C , 62-N ) :   2.9611 B( 63-C , 64-C ) :   1.2180
B( 63-C , 70-C ) :   1.4175 B( 64-C , 65-C ) :   0.9482 B( 64-C , 67-C ) :   1.4477
B( 65-C , 66-O ) :   2.1447 B( 67-C , 68-C ) :   1.1681 B( 67-C ,102-H ) :   1.0263
B( 68-C , 69-C ) :   1.2607 B( 68-C , 74-C ) :   1.2429 B( 69-C , 70-C ) :   1.1996
B( 69-C , 71-C ) :   1.2102 B( 70-C ,103-H ) :   0.9985 B( 71-C , 72-C ) :   1.4908
B( 71-C ,104-H ) :   0.9993 B( 72-C , 73-C ) :   1.2496 B( 72-C ,105-H ) :   0.9855
B( 73-C , 74-C ) :   1.4769 B( 73-C ,106-H ) :   0.9838 B( 74-C ,107-H ) :   1.0024

-----------------------------------------------------------------------------
         ABSORPTION SPECTRUM VIA TRANSITION ELECTRIC DIPOLE MOMENTS
-----------------------------------------------------------------------------
State   Energy  Wavelength   fosc         T2         TX        TY        TZ
        (cm-1)    (nm)                  (au**2)     (au)      (au)      (au)
-----------------------------------------------------------------------------
   0   13188.9    758.2   0.902074059  22.51700  -4.16113   2.28054  -0.03337
   1   16937.6    590.4   0.010139621   0.19708  -0.34482   0.23631   0.14946
   2   19441.1    514.4   0.055441995   0.93884   0.81257  -0.45187  -0.27275
   3   21218.4    471.3   0.024026042   0.37277  -0.39263   0.00933   0.46747
   4   22565.1    443.2   0.019914289   0.29054  -0.36424   0.39573  -0.03567
   5   22675.3    441.0   0.021247771   0.30849  -0.51216  -0.20005   0.07849
   6   23370.0    427.9   0.296145880   4.17179  -1.85349   0.82606   0.23234
   7   25397.8    393.7   0.056289358   0.72964   0.51347  -0.61140  -0.30361
   8   26044.2    384.0   0.092221525   1.16573   0.86329  -0.50504   0.40668
   9   26503.2    377.3   0.031603049   0.39256  -0.60646   0.14386   0.06377
  10   26699.2    374.5   0.099791672   1.23047   0.50564   0.00119   0.98732
  11   27184.1    367.9   0.148673969   1.80051   1.18992  -0.45816  -0.41797
  12   27591.4    362.4   0.463894932   5.53505   2.16871  -0.88250   0.23007
  13   27812.2    359.6   0.009724844   0.11511   0.24543  -0.08902  -0.21668
  14   28093.2    356.0   0.006130025   0.07184   0.24596  -0.10111   0.03338
  15   28269.7    353.7   0.194356684   2.26336  -1.19959   0.64018   0.64383
  16   28781.7    347.4   0.099764349   1.14113   0.68996  -0.59701  -0.55557
  17   28850.2    346.6   0.012970763   0.14801  -0.36403   0.12446  -0.00157
  18   29079.4    343.9   0.028769321   0.32570  -0.54649   0.14523  -0.07722
  19   29270.3    341.6   0.018112771   0.20372   0.31588   0.12458  -0.29735
  20   29348.6    340.7   0.010919130   0.12248  -0.15614   0.18619  -0.25187
  21   30442.3    328.5   0.066821663   0.72263   0.09554  -0.19096  -0.82282
  22   30699.2    325.7   0.347811014   3.72986  -1.26800   1.13629   0.91152
  23   31143.0    321.1   0.029787343   0.31488  -0.45135   0.22941  -0.24194
  24   31303.5    319.5   0.068325910   0.71857   0.64356   0.06260   0.54815
  25   31929.5    313.2   0.044194461   0.45567  -0.39790   0.11679   0.53264
  26   32180.3    310.7   0.454703976   4.65172   0.84253  -0.70692  -1.85530
  27   32303.1    309.6   0.076397155   0.77859   0.56000  -0.24285   0.63719
  28   32645.1    306.3   0.981403655   9.89705   2.13568  -1.55573  -1.70752
  29   32903.3    303.9   0.061556455   0.61590  -0.65986  -0.41614   0.08552
  30   33134.4    301.8   0.045968518   0.45673   0.55811  -0.11952  -0.36188
  31   33288.7    300.4   0.002888459   0.02857  -0.06806   0.01027   0.15436
  32   33645.3    297.2   0.013677045   0.13383   0.21454  -0.13954  -0.26139
  33   34374.6    290.9   0.151124021   1.44734  -0.65668   0.36278   0.94048
  34   34561.1    289.3   0.038537741   0.36709   0.07548   0.03720  -0.60001
  35   34621.3    288.8   0.177625212   1.68903  -0.94289   0.62390   0.64089
  36   34908.3    286.5   0.028271395   0.26662  -0.10419   0.00187   0.50573
  37   35223.2    283.9   0.053530228   0.50032   0.56940  -0.35852  -0.21809
  38   35508.5    281.6   0.028831948   0.26731  -0.30771  -0.04968  -0.41251
  39   35603.0    280.9   0.006332824   0.05856   0.21595  -0.10609   0.02583
  40   35787.6    279.4   0.172956453   1.59103  -0.31381  -0.27697   1.18989
  41   36017.1    277.6   0.027036293   0.24712   0.49584  -0.03235  -0.01467
  42   36092.8    277.1   0.028228478   0.25748   0.31639  -0.28441  -0.27656
  43   36739.2    272.2   0.003332471   0.02986  -0.04636  -0.11716   0.11826
  44   36768.9    272.0   0.013098197   0.11728  -0.19744   0.27154  -0.06752
  45   37123.8    269.4   0.037573054   0.33320  -0.51385   0.22826   0.13060
  46   37941.1    263.6   0.014046104   0.12188   0.27783  -0.00805  -0.21124
  47   38040.3    262.9   0.061626770   0.53334   0.36569   0.17425   0.60765
  48   38070.3    262.7   0.000064714   0.00056   0.00423  -0.00481  -0.02277
  49   38212.2    261.7   0.153511551   1.32256  -0.55207  -0.13721  -0.99947
  50   38383.2    260.5   0.086072910   0.73824   0.57092   0.33356   0.54866
  51   38670.2    258.6   0.367164556   3.12579   0.91481  -0.26536  -1.48946
  52   38897.0    257.1   0.088851874   0.75201  -0.30871   0.34102   0.73513
  53   39088.3    255.8   0.045445065   0.38275   0.56590  -0.19589   0.15535
  54   39185.9    255.2   0.069743649   0.58594  -0.68123   0.25525   0.23813
  55   39360.9    254.1   0.046919849   0.39243  -0.49520   0.08495   0.37416
  56   39498.8    253.2   0.018147362   0.15125  -0.25476   0.12622  -0.26537
  57   39728.1    251.7   0.141924887   1.17608  -0.95805   0.47167   0.18910
  58   40053.1    249.7   0.045514187   0.37410  -0.24886   0.17355  -0.53108
  59   40269.4    248.3   0.116136527   0.94944   0.10342  -0.02498  -0.96857

FINAL SINGLE POINT ENERGY     -3932.973643090271

DIPOLE MOMENT
-------------
                                X             Y             Z
Electronic contribution:      7.04788      10.15318      15.80123
Nuclear contribution   :     -8.57266     -11.44962     -18.30545
                        -----------------------------------------
Total Dipole Moment    :     -1.52478      -1.29645      -2.50422
                        -----------------------------------------
Magnitude (a.u.)       :      3.20575
Magnitude (Debye)      :      8.14838

Rotational constants in cm-1:     0.002331     0.000393     0.000355
Rotational constants in MHz :    69.887890    11.774327    10.642014

                             ****ORCA TERMINATED NORMALLY****
TOTAL RUN TIME: 0 days 0 hours 15 minutes 33 seconds 974 msec
