                         Program Version 4.2.0 -  RELEASE  -
|  1> # ORCA input file
|  2> # SCF done       -161.065940550739          0.000516381220
|  3> ! CAM-B3LYP def2-SVP def2/J RIJCOSX Grid4 TightSCF
|  4> %maxcore 5000
|  5> %tddft
|  6>     Mode sTDDFT
|  7>     Ethresh 5.0
|  8>     maxcore 5000
|  9> end
| 10>
| 11> %pal
| 12>   nprocs 6
| 13>   end
| 14> * xyz 0 1
| 15>    C       -2.70015         0.51300        -5.39703
| 16>    N       -2.26694         0.55444        -4.10825
| 17>    C       -1.72117        -0.55479        -3.36686
| 18>    C       -0.28467        -0.85666        -3.78587
| 19>    C       -2.35020         1.85971        -3.57864
| 20>    O       -2.02893         2.14225        -2.43801
| 21>    C       -2.88539         2.64346        -4.66269
| 22>    C       -3.09361         1.76526        -5.77533
| 23>    C       -3.62923         2.55045        -6.86872
| 24>    O       -3.96504         2.26400        -7.99536
| 25>    N       -3.69507         3.85974        -6.34729
| 26>    C       -4.25294         4.94117        -7.12103
| 27>    C       -5.68629         5.25879        -6.70086
| 28>    C       -3.25978         3.92387        -5.04216
| 29>    C       -3.20086         5.12864        -4.29224
| 30>    C       -2.83110         5.16036        -2.98916
| 31>    C       -2.74494         6.34465        -2.21454
| 32>    S       -3.00026         7.93629        -2.88593
| 33>    C       -2.72025         8.70350        -1.35430
| 34>    C       -2.44361         7.74629        -0.37693
| 35>    C       -2.45435         6.43011        -0.87090
| 36>    C       -2.15275         8.02255         0.97012
| 37>    N       -1.90493         8.19821         2.07661
| 38>    C       -2.78580        10.12116        -1.27821
| 39>    C       -2.73700        10.84999        -0.14020
| 40>    C       -2.78005        12.27517        -0.09259
| 41>    S       -2.93568        13.06948         1.44470
| 42>    C       -2.88744        14.62281         0.69711
| 43>    C       -2.93684        15.78399         1.60136
| 44>    O       -3.48371        15.74604         2.66886
| 45>    O       -2.29584        16.89552         1.18878
| 46>    C       -2.77525        14.53087        -0.68471
| 47>    C       -2.71109        13.19162        -1.11812
| 48>    C       -2.79207        15.63122        -1.62692
| 49>    S       -3.85050        17.00268        -1.42429
| 50>    C       -3.30850        17.71024        -2.92135
| 51>    C       -2.36540        16.88793        -3.53093
| 52>    C       -2.09025        15.71343        -2.79955
| 53>    C       -1.74583        17.17136        -4.76070
| 54>    N       -1.22377        17.34715        -5.76626
| 55>    C       -3.79190        18.95494        -3.39183
| 56>    C       -4.75140        19.67020        -2.75139
| 57>    C       -5.22713        20.92176        -3.21485
| 58>    N       -6.24732        21.62316        -2.61076
| 59>    C       -7.03849        21.19293        -1.48410
| 60>    C       -8.07660        20.14634        -1.88231
| 61>    C       -6.51263        22.83879        -3.26564
| 62>    O       -7.37726        23.61405        -2.90808
| 63>    C       -5.55619        22.87697        -4.34907
| 64>    C       -4.78714        21.68157        -4.29162
| 65>    C       -3.81468        21.72749        -5.35654
| 66>    O       -2.94743        20.95086        -5.70558
| 67>    N       -4.05459        22.96138        -5.99135
| 68>    C       -3.29315        23.35573        -7.15148
| 69>    C       -4.05637        23.09691        -8.44821
| 70>    C       -5.09004        23.64794        -5.40490
| 71>    C       -5.53832        24.93543        -5.85217
| 72>    C       -6.55866        25.58381        -5.28609
| 73>    H       -2.70270        -0.40793        -5.95017
| 74>    H       -2.35519        -1.43345        -3.51788
| 75>    H       -1.74954        -0.26764        -2.31234
| 76>    H       -0.23857        -1.11569        -4.84144
| 77>    H        0.10267        -1.68866        -3.20468
| 78>    H        0.34523         0.01252        -3.61310
| 79>    H       -4.24208         4.60252        -8.16090
| 80>    H       -3.61599         5.82617        -7.03258
| 81>    H       -6.31457         4.38216        -6.83799
| 82>    H       -6.07946         6.06701        -7.31124
| 83>    H       -5.73006         5.55535        -5.65500
| 84>    H       -3.46015         6.05218        -4.79278
| 85>    H       -2.58295         4.23965        -2.47657
| 86>    H       -2.25545         5.56690        -0.26093
| 87>    H       -2.90102        10.62361        -2.22918
| 88>    H       -2.67331        10.35167         0.81589
| 89>    H       -1.83783        16.78003         0.34568
| 90>    H       -2.62870        12.92322        -2.15529
| 91>    H       -1.37728        14.97453        -3.12001
| 92>    H       -3.35255        19.32683        -4.30942
| 93>    H       -5.18003        19.27627        -1.83872
| 94>    H       -7.54490        22.08864        -1.11353
| 95>    H       -6.38170        20.80998        -0.69762
| 96>    H       -8.75383        20.55995        -2.62553
| 97>    H       -8.65431        19.85136        -1.01077
| 98>    H       -7.60022        19.26298        -2.30230
| 99>    H       -2.38439        22.74713        -7.13535
|100>    H       -3.01300        24.40939        -7.06650
|101>    H       -4.28200        22.03727        -8.53872
|102>    H       -3.44945        23.39643        -9.29812
|103>    H       -4.99088        23.65352        -8.46962
|104>    H       -5.00611        25.37589        -6.68398
|105>    H       -7.10268        25.16482        -4.45607
|106>    H       -6.87008        26.55065        -5.64223
|107> *
|108>
|109>                          ****END OF INPUT****

CARTESIAN COORDINATES (ANGSTROEM)
---------------------------------
  C     -2.700150    0.513000   -5.397030
  N     -2.266940    0.554440   -4.108250
  C     -1.721170   -0.554790   -3.366860
  C     -0.284670   -0.856660   -3.785870
  C     -2.350200    1.859710   -3.578640
  O     -2.028930    2.142250   -2.438010
  C     -2.885390    2.643460   -4.662690
  C     -3.093610    1.765260   -5.775330
  C     -3.629230    2.550450   -6.868720
  O     -3.965040    2.264000   -7.995360
  N     -3.695070    3.859740   -6.347290
  C     -4.252940    4.941170   -7.121030
  C     -5.686290    5.258790   -6.700860
  C     -3.259780    3.923870   -5.042160
  C     -3.200860    5.128640   -4.292240
  C     -2.831100    5.160360   -2.989160
  C     -2.744940    6.344650   -2.214540
  S     -3.000260    7.936290   -2.885930
  C     -2.720250    8.703500   -1.354300
  C     -2.443610    7.746290   -0.376930
  C     -2.454350    6.430110   -0.870900
  C     -2.152750    8.022550    0.970120
  N     -1.904930    8.198210    2.076610
  C     -2.785800   10.121160   -1.278210
  C     -2.737000   10.849990   -0.140200
  C     -2.780050   12.275170   -0.092590
  S     -2.935680   13.069480    1.444700
  C     -2.887440   14.622810    0.697110
  C     -2.936840   15.783990    1.601360
  O     -3.483710   15.746040    2.668860
  O     -2.295840   16.895520    1.188780
  C     -2.775250   14.530870   -0.684710
  C     -2.711090   13.191620   -1.118120
  C     -2.792070   15.631220   -1.626920
  S     -3.850500   17.002680   -1.424290
  C     -3.308500   17.710240   -2.921350
  C     -2.365400   16.887930   -3.530930
  C     -2.090250   15.713430   -2.799550
  C     -1.745830   17.171360   -4.760700
  N     -1.223770   17.347150   -5.766260
  C     -3.791900   18.954940   -3.391830
  C     -4.751400   19.670200   -2.751390
  C     -5.227130   20.921760   -3.214850
  N     -6.247320   21.623160   -2.610760
  C     -7.038490   21.192930   -1.484100
  C     -8.076600   20.146340   -1.882310
  C     -6.512630   22.838790   -3.265640
  O     -7.377260   23.614050   -2.908080
  C     -5.556190   22.876970   -4.349070
  C     -4.787140   21.681570   -4.291620
  C     -3.814680   21.727490   -5.356540
  O     -2.947430   20.950860   -5.705580
  N     -4.054590   22.961380   -5.991350
  C     -3.293150   23.355730   -7.151480
  C     -4.056370   23.096910   -8.448210
  C     -5.090040   23.647940   -5.404900
  C     -5.538320   24.935430   -5.852170
  C     -6.558660   25.583810   -5.286090
  H     -2.702700   -0.407930   -5.950170
  H     -2.355190   -1.433450   -3.517880
  H     -1.749540   -0.267640   -2.312340
  H     -0.238570   -1.115690   -4.841440
  H      0.102670   -1.688660   -3.204680
  H      0.345230    0.012520   -3.613100
  H     -4.242080    4.602520   -8.160900
  H     -3.615990    5.826170   -7.032580
  H     -6.314570    4.382160   -6.837990
  H     -6.079460    6.067010   -7.311240
  H     -5.730060    5.555350   -5.655000
  H     -3.460150    6.052180   -4.792780
  H     -2.582950    4.239650   -2.476570
  H     -2.255450    5.566900   -0.260930
  H     -2.901020   10.623610   -2.229180
  H     -2.673310   10.351670    0.815890
  H     -1.837830   16.780030    0.345680
  H     -2.628700   12.923220   -2.155290
  H     -1.377280   14.974530   -3.120010
  H     -3.352550   19.326830   -4.309420
  H     -5.180030   19.276270   -1.838720
  H     -7.544900   22.088640   -1.113530
  H     -6.381700   20.809980   -0.697620
  H     -8.753830   20.559950   -2.625530
  H     -8.654310   19.851360   -1.010770
  H     -7.600220   19.262980   -2.302300
  H     -2.384390   22.747130   -7.135350
  H     -3.013000   24.409390   -7.066500
  H     -4.282000   22.037270   -8.538720
  H     -3.449450   23.396430   -9.298120
  H     -4.990880   23.653520   -8.469620
  H     -5.006110   25.375890   -6.683980
  H     -7.102680   25.164820   -4.456070
  H     -6.870080   26.550650   -5.642230

 Total Charge           Charge          ....    0
 Multiplicity           Mult            ....    1
 Number of Electrons    NEL             ....  430
 Basis Dimension        Dim             ....  994

ORBITAL ENERGIES
----------------

  NO   OCC          E(Eh)            E(eV)
   0   2.0000     -88.986928     -2421.4574
   1   2.0000     -88.983919     -2421.3755
   2   2.0000     -88.981184     -2421.3011
   3   2.0000     -19.264742      -524.2203
   4   2.0000     -19.204865      -522.5909
   5   2.0000     -19.194332      -522.3043
   6   2.0000     -19.190764      -522.2072
   7   2.0000     -19.187932      -522.1302
   8   2.0000     -19.186963      -522.1038
   9   2.0000     -14.455143      -393.3444
  10   2.0000     -14.453929      -393.3114
  11   2.0000     -14.452797      -393.2806
  12   2.0000     -14.452124      -393.2623
  13   2.0000     -14.415961      -392.2782
  14   2.0000     -14.408889      -392.0858
  15   2.0000     -10.414577      -283.3951
  16   2.0000     -10.375319      -282.3268
  17   2.0000     -10.373210      -282.2694
  18   2.0000     -10.372529      -282.2509
  19   2.0000     -10.372275      -282.2440
  20   2.0000     -10.343568      -281.4628
  21   2.0000     -10.342594      -281.4363
  22   2.0000     -10.340530      -281.3801
  23   2.0000     -10.339279      -281.3461
  24   2.0000     -10.337468      -281.2968
  25   2.0000     -10.336349      -281.2663
  26   2.0000     -10.328994      -281.0662
  27   2.0000     -10.328436      -281.0510
  28   2.0000     -10.326055      -280.9862
  29   2.0000     -10.325260      -280.9646
  30   2.0000     -10.325126      -280.9610
  31   2.0000     -10.324386      -280.9408
  32   2.0000     -10.322354      -280.8855
  33   2.0000     -10.316801      -280.7344
  34   2.0000     -10.311577      -280.5923
  35   2.0000     -10.310412      -280.5606
  36   2.0000     -10.309862      -280.5456
  37   2.0000     -10.309796      -280.5438
  38   2.0000     -10.309738      -280.5422
  39   2.0000     -10.308861      -280.5184
  40   2.0000     -10.308688      -280.5137
  41   2.0000     -10.308472      -280.5078
  42   2.0000     -10.306647      -280.4581
  43   2.0000     -10.304159      -280.3904
  44   2.0000     -10.302869      -280.3553
  45   2.0000     -10.302154      -280.3359
  46   2.0000     -10.300617      -280.2940
  47   2.0000     -10.297694      -280.2145
  48   2.0000     -10.289123      -279.9813
  49   2.0000     -10.281133      -279.7638
  50   2.0000     -10.266330      -279.3610
  51   2.0000     -10.265708      -279.3441
  52   2.0000     -10.265003      -279.3249
  53   2.0000     -10.264075      -279.2997
  54   2.0000     -10.263215      -279.2763
  55   2.0000     -10.259571      -279.1771
  56   2.0000     -10.259332      -279.1706
  57   2.0000     -10.258669      -279.1526
  58   2.0000      -8.082150      -219.9265
  59   2.0000      -8.079489      -219.8541
  60   2.0000      -8.076566      -219.7745
  61   2.0000      -6.051294      -164.6641
  62   2.0000      -6.048570      -164.5900
  63   2.0000      -6.047246      -164.5539
  64   2.0000      -6.045699      -164.5118
  65   2.0000      -6.044662      -164.4836
  66   2.0000      -6.044404      -164.4766
  67   2.0000      -6.041776      -164.4051
  68   2.0000      -6.041471      -164.3968
  69   2.0000      -6.038979      -164.3290
  70   2.0000      -1.188286       -32.3349
  71   2.0000      -1.134425       -30.8693
  72   2.0000      -1.131739       -30.7962
  73   2.0000      -1.126606       -30.6565
  74   2.0000      -1.125070       -30.6147
  75   2.0000      -1.104174       -30.0461
  76   2.0000      -1.064433       -28.9647
  77   2.0000      -1.062737       -28.9186
  78   2.0000      -1.055871       -28.7317
  79   2.0000      -1.054329       -28.6898
  80   2.0000      -1.025627       -27.9087
  81   2.0000      -1.021383       -27.7932
  82   2.0000      -1.007465       -27.4145
  83   2.0000      -0.995188       -27.0804
  84   2.0000      -0.987457       -26.8701
  85   2.0000      -0.936970       -25.4963
  86   2.0000      -0.930916       -25.3315
  87   2.0000      -0.927323       -25.2338
  88   2.0000      -0.923096       -25.1187
  89   2.0000      -0.911784       -24.8109
  90   2.0000      -0.895170       -24.3588
  91   2.0000      -0.889839       -24.2137
  92   2.0000      -0.877008       -23.8646
  93   2.0000      -0.872847       -23.7514
  94   2.0000      -0.872456       -23.7407
  95   2.0000      -0.867486       -23.6055
  96   2.0000      -0.864075       -23.5127
  97   2.0000      -0.842118       -22.9152
  98   2.0000      -0.830056       -22.5870
  99   2.0000      -0.821189       -22.3457
 100   2.0000      -0.821040       -22.3416
 101   2.0000      -0.803759       -21.8714
 102   2.0000      -0.795804       -21.6549
 103   2.0000      -0.779538       -21.2123
 104   2.0000      -0.777187       -21.1483
 105   2.0000      -0.762017       -20.7355
 106   2.0000      -0.761617       -20.7247
 107   2.0000      -0.756126       -20.5752
 108   2.0000      -0.738127       -20.0855
 109   2.0000      -0.725862       -19.7517
 110   2.0000      -0.712510       -19.3884
 111   2.0000      -0.710486       -19.3333
 112   2.0000      -0.709282       -19.3005
 113   2.0000      -0.705073       -19.1860
 114   2.0000      -0.701206       -19.0808
 115   2.0000      -0.693090       -18.8599
 116   2.0000      -0.684335       -18.6217
 117   2.0000      -0.679209       -18.4822
 118   2.0000      -0.665101       -18.0983
 119   2.0000      -0.661953       -18.0127
 120   2.0000      -0.658920       -17.9301
 121   2.0000      -0.652266       -17.7491
 122   2.0000      -0.648752       -17.6534
 123   2.0000      -0.640856       -17.4386
 124   2.0000      -0.624129       -16.9834
 125   2.0000      -0.618291       -16.8245
 126   2.0000      -0.610897       -16.6233
 127   2.0000      -0.604515       -16.4497
 128   2.0000      -0.590971       -16.0811
 129   2.0000      -0.589377       -16.0378
 130   2.0000      -0.587028       -15.9739
 131   2.0000      -0.584614       -15.9082
 132   2.0000      -0.581515       -15.8238
 133   2.0000      -0.576911       -15.6985
 134   2.0000      -0.574807       -15.6413
 135   2.0000      -0.565135       -15.3781
 136   2.0000      -0.560070       -15.2403
 137   2.0000      -0.556553       -15.1446
 138   2.0000      -0.550950       -14.9921
 139   2.0000      -0.549840       -14.9619
 140   2.0000      -0.544426       -14.8146
 141   2.0000      -0.540759       -14.7148
 142   2.0000      -0.532825       -14.4989
 143   2.0000      -0.532310       -14.4849
 144   2.0000      -0.531537       -14.4639
 145   2.0000      -0.531286       -14.4570
 146   2.0000      -0.529752       -14.4153
 147   2.0000      -0.528326       -14.3765
 148   2.0000      -0.524405       -14.2698
 149   2.0000      -0.522001       -14.2044
 150   2.0000      -0.521369       -14.1872
 151   2.0000      -0.521030       -14.1779
 152   2.0000      -0.518371       -14.1056
 153   2.0000      -0.514497       -14.0002
 154   2.0000      -0.512552       -13.9472
 155   2.0000      -0.511899       -13.9295
 156   2.0000      -0.508054       -13.8249
 157   2.0000      -0.502766       -13.6810
 158   2.0000      -0.501064       -13.6346
 159   2.0000      -0.498617       -13.5680
 160   2.0000      -0.495810       -13.4917
 161   2.0000      -0.494351       -13.4520
 162   2.0000      -0.493528       -13.4296
 163   2.0000      -0.483257       -13.1501
 164   2.0000      -0.478727       -13.0268
 165   2.0000      -0.476956       -12.9786
 166   2.0000      -0.472957       -12.8698
 167   2.0000      -0.471030       -12.8174
 168   2.0000      -0.467750       -12.7281
 169   2.0000      -0.465161       -12.6577
 170   2.0000      -0.462776       -12.5928
 171   2.0000      -0.458373       -12.4730
 172   2.0000      -0.457255       -12.4426
 173   2.0000      -0.456358       -12.4181
 174   2.0000      -0.455409       -12.3923
 175   2.0000      -0.455286       -12.3890
 176   2.0000      -0.453537       -12.3414
 177   2.0000      -0.452756       -12.3201
 178   2.0000      -0.445570       -12.1246
 179   2.0000      -0.444033       -12.0827
 180   2.0000      -0.443548       -12.0696
 181   2.0000      -0.442369       -12.0375
 182   2.0000      -0.441891       -12.0245
 183   2.0000      -0.439522       -11.9600
 184   2.0000      -0.437220       -11.8974
 185   2.0000      -0.435908       -11.8617
 186   2.0000      -0.434518       -11.8238
 187   2.0000      -0.434074       -11.8118
 188   2.0000      -0.432411       -11.7665
 189   2.0000      -0.429293       -11.6817
 190   2.0000      -0.427458       -11.6317
 191   2.0000      -0.421428       -11.4676
 192   2.0000      -0.416539       -11.3346
 193   2.0000      -0.412693       -11.2300
 194   2.0000      -0.411532       -11.1984
 195   2.0000      -0.405049       -11.0219
 196   2.0000      -0.398932       -10.8555
 197   2.0000      -0.394575       -10.7369
 198   2.0000      -0.374948       -10.2028
 199   2.0000      -0.362244        -9.8572
 200   2.0000      -0.352403        -9.5894
 201   2.0000      -0.348725        -9.4893
 202   2.0000      -0.346626        -9.4322
 203   2.0000      -0.346090        -9.4176
 204   2.0000      -0.345100        -9.3906
 205   2.0000      -0.342837        -9.3291
 206   2.0000      -0.331683        -9.0256
 207   2.0000      -0.330142        -8.9836
 208   2.0000      -0.329778        -8.9737
 209   2.0000      -0.315603        -8.5880
 210   2.0000      -0.313748        -8.5375
 211   2.0000      -0.303027        -8.2458
 212   2.0000      -0.281468        -7.6591
 213   2.0000      -0.246259        -6.7010
 214   2.0000      -0.241926        -6.5831
 215   0.0000      -0.092282        -2.5111
 216   0.0000      -0.088533        -2.4091
 217   0.0000      -0.056080        -1.5260
 218   0.0000      -0.035873        -0.9762
 219   0.0000      -0.014971        -0.4074

MULLIKEN ATOMIC CHARGES
-----------------------
   0 C :    0.033784
   1 N :   -0.255453
   2 C :    0.110670
   3 C :   -0.002895
   4 C :    0.170532
   5 O :   -0.219247
   6 C :   -0.101609
   7 C :    0.008640
   8 C :    0.161267
   9 O :   -0.183588
  10 N :   -0.269972
  11 C :    0.097224
  12 C :    0.001215
  13 C :    0.154971
  14 C :   -0.043711
  15 C :    0.048673
  16 C :   -0.047819
  17 S :    0.134001
  18 C :   -0.053563
  19 C :   -0.066609
  20 C :    0.024286
  21 C :   -0.173885
  22 N :    0.120350
  23 C :    0.042963
  24 C :    0.058547
  25 C :   -0.078217
  26 S :    0.225584
  27 C :   -0.255833
  28 C :    0.171914
  29 O :   -0.168254
  30 O :   -0.159926
  31 C :    0.181059
  32 C :   -0.030497
  33 C :   -0.206772
  34 S :    0.155562
  35 C :   -0.054101
  36 C :   -0.059059
  37 C :    0.041037
  38 C :   -0.184130
  39 N :    0.152287
  40 C :    0.002082
  41 C :   -0.029799
  42 C :    0.130833
  43 N :   -0.261461
  44 C :    0.098043
  45 C :    0.005191
  46 C :    0.165259
  47 O :   -0.210669
  48 C :   -0.065323
  49 C :   -0.063077
  50 C :    0.164164
  51 O :   -0.198241
  52 N :   -0.259726
  53 C :    0.096811
  54 C :    0.005815
  55 C :    0.112176
  56 C :   -0.038171
  57 C :    0.017359
  58 H :    0.015366
  59 H :    0.018995
  60 H :    0.042713
  61 H :    0.015238
  62 H :    0.024375
  63 H :    0.031126
  64 H :    0.045654
  65 H :    0.021097
  66 H :    0.031730
  67 H :    0.023614
  68 H :    0.013635
  69 H :   -0.019765
  70 H :    0.021380
  71 H :    0.013116
  72 H :   -0.013113
  73 H :    0.009958
  74 H :    0.187647
  75 H :   -0.011602
  76 H :    0.001146
  77 H :    0.040064
  78 H :   -0.013787
  79 H :    0.045168
  80 H :    0.025279
  81 H :    0.029699
  82 H :    0.024721
  83 H :    0.012680
  84 H :    0.046924
  85 H :    0.024239
  86 H :    0.030998
  87 H :    0.024055
  88 H :    0.014777
  89 H :   -0.016852
  90 H :    0.057932
  91 H :    0.031101
Sum of atomic charges:   -0.0000000

LOEWDIN ATOMIC CHARGES
----------------------
   0 C :    0.087882
   1 N :    0.001573
   2 C :    0.038460
   3 C :   -0.060634
   4 C :    0.076270
   5 O :   -0.210365
   6 C :   -0.132951
   7 C :   -0.127469
   8 C :    0.082511
   9 O :   -0.188876
  10 N :   -0.009847
  11 C :    0.035209
  12 C :   -0.061794
  13 C :    0.084687
  14 C :   -0.059093
  15 C :    0.019529
  16 C :   -0.168487
  17 S :    0.456499
  18 C :   -0.130817
  19 C :   -0.108430
  20 C :   -0.003877
  21 C :   -0.028678
  22 N :   -0.053617
  23 C :   -0.040034
  24 C :   -0.014726
  25 C :   -0.159266
  26 S :    0.518986
  27 C :   -0.239265
  28 C :    0.048931
  29 O :   -0.152921
  30 O :   -0.031226
  31 C :   -0.068044
  32 C :   -0.044766
  33 C :   -0.183137
  34 S :    0.469795
  35 C :   -0.136852
  36 C :   -0.098347
  37 C :   -0.024690
  38 C :   -0.035003
  39 N :   -0.039070
  40 C :    0.000394
  41 C :   -0.036730
  42 C :    0.066948
  43 N :   -0.001799
  44 C :    0.036064
  45 C :   -0.060848
  46 C :    0.080432
  47 O :   -0.202281
  48 C :   -0.126971
  49 C :   -0.113997
  50 C :    0.080979
  51 O :   -0.188609
  52 N :    0.001429
  53 C :    0.036470
  54 C :   -0.060598
  55 C :    0.085615
  56 C :   -0.055240
  57 C :    0.029349
  58 H :    0.032713
  59 H :    0.024893
  60 H :    0.036281
  61 H :    0.022597
  62 H :    0.030447
  63 H :    0.031796
  64 H :    0.038408
  65 H :    0.021326
  66 H :    0.032992
  67 H :    0.030438
  68 H :    0.021131
  69 H :    0.021298
  70 H :    0.045547
  71 H :    0.047755
  72 H :    0.030102
  73 H :    0.039652
  74 H :    0.082585
  75 H :    0.030299
  76 H :    0.041224
  77 H :    0.047718
  78 H :    0.023624
  79 H :    0.038693
  80 H :    0.023252
  81 H :    0.032385
  82 H :    0.031427
  83 H :    0.020733
  84 H :    0.039100
  85 H :    0.023338
  86 H :    0.032826
  87 H :    0.031114
  88 H :    0.021904
  89 H :    0.030189
  90 H :    0.033365
  91 H :    0.030192

  Mayer bond orders larger than 0.100000
B(  0-C ,  1-N ) :   1.1869 B(  0-C ,  7-C ) :   1.4580 B(  0-C , 58-H ) :   0.9910
B(  1-N ,  2-C ) :   0.9425 B(  1-N ,  4-C ) :   1.0625 B(  2-C ,  3-C ) :   1.1188
B(  2-C , 59-H ) :   0.9538 B(  2-C , 60-H ) :   0.9350 B(  3-C , 61-H ) :   0.9693
B(  3-C , 62-H ) :   0.9688 B(  3-C , 63-H ) :   0.9675 B(  4-C ,  5-O ) :   2.0117
B(  4-C ,  6-C ) :   1.0073 B(  5-O , 70-H ) :   0.1155 B(  6-C ,  7-C ) :   1.1996
B(  6-C , 13-C ) :   1.3816 B(  7-C ,  8-C ) :   0.9493 B(  8-C ,  9-O ) :   2.1782
B(  8-C , 10-N ) :   1.0152 B( 10-N , 11-C ) :   0.9490 B( 10-N , 13-C ) :   1.1567
B( 11-C , 12-C ) :   1.1195 B( 11-C , 64-H ) :   0.9278 B( 11-C , 65-H ) :   0.9497
B( 12-C , 66-H ) :   0.9643 B( 12-C , 67-H ) :   0.9678 B( 12-C , 68-H ) :   0.9683
B( 13-C , 14-C ) :   1.1617 B( 14-C , 15-C ) :   1.5965 B( 14-C , 69-H ) :   0.9581
B( 15-C , 16-C ) :   1.1474 B( 15-C , 70-H ) :   0.9523 B( 16-C , 17-S ) :   1.0929
B( 16-C , 20-C ) :   1.4632 B( 17-S , 18-C ) :   1.1437 B( 18-C , 19-C ) :   1.4536
B( 18-C , 23-C ) :   1.1491 B( 19-C , 20-C ) :   1.2719 B( 19-C , 21-C ) :   1.1115
B( 20-C , 71-H ) :   1.0126 B( 21-C , 22-N ) :   2.9746 B( 23-C , 24-C ) :   1.7086
B( 23-C , 72-H ) :   0.9465 B( 24-C , 25-C ) :   1.1085 B( 24-C , 73-H ) :   0.9499
B( 25-C , 26-S ) :   1.1564 B( 25-C , 32-C ) :   1.4826 B( 26-S , 27-C ) :   1.1513
B( 27-C , 28-C ) :   0.9355 B( 27-C , 31-C ) :   1.4699 B( 28-C , 29-O ) :   2.1984
B( 28-C , 30-O ) :   1.2321 B( 30-O , 74-H ) :   0.9484 B( 31-C , 32-C ) :   1.2976
B( 31-C , 33-C ) :   0.9801 B( 32-C , 75-H ) :   0.9973 B( 33-C , 34-S ) :   1.1385
B( 33-C , 37-C ) :   1.5307 B( 34-S , 35-C ) :   1.1162 B( 35-C , 36-C ) :   1.4532
B( 35-C , 40-C ) :   1.1816 B( 36-C , 37-C ) :   1.2514 B( 36-C , 38-C ) :   1.1043
B( 37-C , 76-H ) :   1.0081 B( 38-C , 39-N ) :   3.0253 B( 40-C , 41-C ) :   1.5904
B( 40-C , 77-H ) :   0.9456 B( 41-C , 42-C ) :   1.1570 B( 41-C , 78-H ) :   0.9588
B( 42-C , 43-N ) :   1.1543 B( 42-C , 49-C ) :   1.3705 B( 43-N , 44-C ) :   0.9468
B( 43-N , 46-C ) :   1.0553 B( 44-C , 45-C ) :   1.1192 B( 44-C , 79-H ) :   0.9272
B( 44-C , 80-H ) :   0.9501 B( 45-C , 81-H ) :   0.9639 B( 45-C , 82-H ) :   0.9681
B( 45-C , 83-H ) :   0.9683 B( 46-C , 47-O ) :   2.0450 B( 46-C , 48-C ) :   0.9839
B( 48-C , 49-C ) :   1.2385 B( 48-C , 55-C ) :   1.3671 B( 49-C , 50-C ) :   0.9822
B( 50-C , 51-O ) :   2.0403 B( 50-C , 52-N ) :   1.0528 B( 51-O , 77-H ) :   0.1046
B( 52-N , 53-C ) :   0.9459 B( 52-N , 55-C ) :   1.1731 B( 53-C , 54-C ) :   1.1196
B( 53-C , 84-H ) :   0.9282 B( 53-C , 85-H ) :   0.9509 B( 54-C , 86-H ) :   0.9639
B( 54-C , 87-H ) :   0.9681 B( 54-C , 88-H ) :   0.9687 B( 55-C , 56-C ) :   1.1259
B( 56-C , 57-C ) :   1.8861 B( 56-C , 89-H ) :   0.9540 B( 57-C , 90-H ) :   0.9269
B( 57-C , 91-H ) :   0.9447

-----------------------------------------------------------------------------
         ABSORPTION SPECTRUM VIA TRANSITION ELECTRIC DIPOLE MOMENTS
-----------------------------------------------------------------------------
State   Energy  Wavelength   fosc         T2         TX        TY        TZ
        (cm-1)    (nm)                  (au**2)     (au)      (au)      (au)
-----------------------------------------------------------------------------
   0   17215.2    580.9   0.781276355  14.94063  -0.47759   3.54981  -1.45305
   1   19126.5    522.8   0.654184090  11.26007  -0.22672   3.14458   1.14905
   2   23558.3    424.5   0.020645799   0.28851   0.04527   0.44389   0.29904
   3   25539.1    391.6   0.121452132   1.56558   0.24994   0.75407   0.96669
   4   26058.0    383.8   0.850517974  10.74528   0.07705  -3.00746  -1.30174
   5   26948.0    371.1   0.019028032   0.23246  -0.04906  -0.47707   0.04951
   6   27162.2    368.2   0.023456374   0.28430   0.00476   0.17820  -0.50251
   7   28176.1    354.9   0.067558471   0.78936   0.00648  -0.71911   0.52173
   8   28585.8    349.8   0.013246227   0.15255   0.01397   0.31319   0.23295
   9   29205.4    342.4   0.016236282   0.18302   0.33036  -0.24341   0.12097
  10   29560.1    338.3   0.306867651   3.41760   1.14836  -1.35620   0.50950
  11   30527.7    327.6   0.000734215   0.00792   0.07654  -0.03336  -0.03077
  12   31174.1    320.8   0.110894027   1.17109   0.52287  -0.84785   0.42291
  13   32378.3    308.8   0.130093285   1.32275   0.78479  -0.83357  -0.10955
  14   33187.1    301.3   0.014937450   0.14818  -0.15633   0.15815  -0.31421
  15   33544.1    298.1   0.003288587   0.03228   0.09276  -0.14829   0.04098
  16   34458.3    290.2   0.104487806   0.99827  -0.06798   0.51942  -0.85080
  17   35616.6    280.8   0.017385580   0.16070  -0.32387  -0.05632   0.22942
  18   35879.7    278.7   0.012572617   0.11536  -0.06890   0.02910  -0.33131
  19   37013.0    270.2   0.001344515   0.01196  -0.07051  -0.03738  -0.07477
  20   37906.1    263.8   0.005789019   0.05028   0.17341  -0.05103   0.13267
  21   38137.1    262.2   0.000778855   0.00672   0.02724  -0.07722  -0.00426
  22   38514.9    259.6   0.022198777   0.18975  -0.17619  -0.05378   0.39473
  23   38719.9    258.3   0.025598397   0.21765   0.22424   0.07582  -0.40201
  24   39403.5    253.8   0.071118015   0.59418   0.16902   0.29271  -0.69277
  25   39603.9    252.5   0.277089524   2.30334  -0.38489   0.04102  -1.46749
  26   40250.0    248.4   0.229097768   1.87383   0.42254  -0.21823   1.28361

FINAL SINGLE POINT ENERGY     -3630.076106535445

DIPOLE MOMENT
-------------
                                X             Y             Z
Electronic contribution:     14.91054       0.61521      36.37062
Nuclear contribution   :    -15.34790      -1.07511     -38.11553
                        -----------------------------------------
Total Dipole Moment    :     -0.43735      -0.45990      -1.74490
                        -----------------------------------------
Magnitude (a.u.)       :      1.85674
Magnitude (Debye)      :      4.71945

Rotational constants in cm-1:     0.002258     0.000316     0.000289
Rotational constants in MHz :    67.695697     9.466187     8.669053

                             ****ORCA TERMINATED NORMALLY****
TOTAL RUN TIME: 0 days 0 hours 6 minutes 29 seconds 795 msec
