                         Program Version 4.2.0 -  RELEASE  -
|  1> # ORCA input file
|  2> # SCF done       -194.315581727184          0.000864391855
|  3> ! CAM-B3LYP def2-SVP def2/J RIJCOSX Grid4 TightSCF
|  4> %maxcore 5000
|  5> %tddft
|  6>     Mode sTDDFT
|  7>     Ethresh 5.0
|  8>     maxcore 5000
|  9> end
| 10>
| 11> %pal
| 12>   nprocs 6
| 13>   end
| 14> * xyz 0 1
| 15>    C       -5.63341        -3.82440        -2.04884
| 16>    C       -6.18413        -3.97756        -3.29549
| 17>    C       -5.94296        -5.08616        -4.13541
| 18>    N       -5.79719        -5.95667        -4.86929
| 19>    C       -7.03707        -3.06461        -3.95117
| 20>    N       -7.71856        -2.37501        -4.56776
| 21>    C       -4.68483        -4.74447        -1.43628
| 22>    C       -4.24313        -4.18984        -0.20992
| 23>    C       -3.32578        -4.81364         0.60130
| 24>    C       -2.81986        -6.04774         0.18378
| 25>    C       -3.27196        -6.59981        -1.03969
| 26>    C       -4.19865        -5.96772        -1.85989
| 27>    S       -2.51845        -8.13090        -1.35421
| 28>    C       -1.62175        -8.02003         0.12058
| 29>    C       -1.87003        -6.89299         0.82301
| 30>    C       -4.91126        -2.89933         0.02044
| 31>    O       -4.75210        -2.18157         0.98500
| 32>    C       -5.82207        -2.70369        -1.13689
| 33>    C       -6.75605        -1.72376        -1.32376
| 34>    C       -7.03147        -0.54352        -0.60142
| 35>    C       -6.39384         0.08818         0.45889
| 36>    C       -7.01167         1.28297         0.80365
| 37>    C       -8.14039         1.57681         0.00576
| 38>    S       -8.42857         0.38578        -1.16913
| 39>    C       -8.69179         2.80818         0.43687
| 40>    C       -7.91188         3.29722         1.50293
| 41>    C       -6.83142         2.35781         1.76679
| 42>    C       -5.85651         2.47787         2.71123
| 43>    C       -4.82346         1.53083         2.88913
| 44>    N       -3.96167         0.79501         3.05906
| 45>    C       -5.80158         3.58428         3.58727
| 46>    N       -5.75307         4.48072         4.30014
| 47>    C       -8.37227         4.51721         1.99106
| 48>    C       -9.49328         4.94986         1.30366
| 49>    S       -9.99062         3.84546         0.04044
| 50>    C      -10.23193         6.13621         1.51813
| 51>    N      -11.29698         6.46336         0.84482
| 52>    C      -11.78259         7.62842         1.26667
| 53>    C      -11.08155         8.25955         2.31205
| 54>    S       -9.73308         7.30186         2.77256
| 55>    N      -11.56829         9.42102         2.73967
| 56>    C      -12.64018         9.74661         2.07668
| 57>    S      -13.13597         8.58429         0.81655
| 58>    C      -13.37752        10.92684         2.33605
| 59>    C      -13.06263        11.88053         3.29105
| 60>    C      -13.99832        12.91043         3.31337
| 61>    C      -15.02991        12.73515         2.37005
| 62>    S      -14.84132        11.30677         1.45573
| 63>    C      -15.94057        13.81550         2.48683
| 64>    C      -15.47976        14.67464         3.50365
| 65>    C      -14.25088        14.13413         4.05849
| 66>    C      -13.52183        14.65643         5.08518
| 67>    C      -12.33755        14.05402         5.56092
| 68>    N      -11.37019        13.57707         5.94879
| 69>    C      -13.91845        15.84540         5.73438
| 70>    N      -14.25151        16.81427         6.24880
| 71>    C      -16.33016        15.74946         3.73052
| 72>    C      -17.44301        15.72068         2.90431
| 73>    S      -17.40273        14.35202         1.80091
| 74>    C      -18.51692        16.63976         2.84019
| 75>    C      -18.92426        17.52769         3.78552
| 76>    C      -18.62659        17.68781         5.19561
| 77>    C      -18.32428        16.69376         6.08961
| 78>    C      -18.18925        16.90056         7.47897
| 79>    N      -18.07575        17.01095         8.61525
| 80>    C      -18.21038        15.33227         5.74844
| 81>    N      -18.13411        14.20809         5.52661
| 82>    C      -18.98389        19.05413         5.55723
| 83>    C      -19.71084        19.63581         4.48543
| 84>    C      -19.78336        18.67744         3.37042
| 85>    O      -20.36377        18.79374         2.31609
| 86>    C      -20.22045        20.91076         4.55030
| 87>    C      -19.99157        21.64731         5.71652
| 88>    C      -19.24747        21.06349         6.77138
| 89>    C      -18.73907        19.77122         6.71174
| 90>    S      -19.07612        22.16135         8.10273
| 91>    C      -19.98750        23.36482         7.25937
| 92>    C      -20.40235        22.97228         6.03492
| 93>    H       -3.00941        -4.35889         1.52716
| 94>    H       -4.51118        -6.43286        -2.77956
| 95>    H       -0.95299        -8.81949         0.37427
| 96>    H       -1.40502        -6.65355         1.76207
| 97>    H       -7.41561        -1.85323        -2.17398
| 98>    H       -5.52833        -0.32985         0.94161
| 99>    H       -7.93338         5.07502         2.79858
|100>    H      -12.19519        11.79393         3.91870
|101>    H      -16.14284        16.54137         4.43251
|102>    H      -19.05338        16.69264         1.89774
|103>    H      -20.77824        21.32673         3.72575
|104>    H      -18.16906        19.36969         7.53330
|105>    H      -20.15859        24.30843         7.74005
|106>    H      -20.97919        23.58753         5.36847
|107> *
|108>
|109>                          ****END OF INPUT****

CARTESIAN COORDINATES (ANGSTROEM)
---------------------------------
  C     -5.633410   -3.824400   -2.048840
  C     -6.184130   -3.977560   -3.295490
  C     -5.942960   -5.086160   -4.135410
  N     -5.797190   -5.956670   -4.869290
  C     -7.037070   -3.064610   -3.951170
  N     -7.718560   -2.375010   -4.567760
  C     -4.684830   -4.744470   -1.436280
  C     -4.243130   -4.189840   -0.209920
  C     -3.325780   -4.813640    0.601300
  C     -2.819860   -6.047740    0.183780
  C     -3.271960   -6.599810   -1.039690
  C     -4.198650   -5.967720   -1.859890
  S     -2.518450   -8.130900   -1.354210
  C     -1.621750   -8.020030    0.120580
  C     -1.870030   -6.892990    0.823010
  C     -4.911260   -2.899330    0.020440
  O     -4.752100   -2.181570    0.985000
  C     -5.822070   -2.703690   -1.136890
  C     -6.756050   -1.723760   -1.323760
  C     -7.031470   -0.543520   -0.601420
  C     -6.393840    0.088180    0.458890
  C     -7.011670    1.282970    0.803650
  C     -8.140390    1.576810    0.005760
  S     -8.428570    0.385780   -1.169130
  C     -8.691790    2.808180    0.436870
  C     -7.911880    3.297220    1.502930
  C     -6.831420    2.357810    1.766790
  C     -5.856510    2.477870    2.711230
  C     -4.823460    1.530830    2.889130
  N     -3.961670    0.795010    3.059060
  C     -5.801580    3.584280    3.587270
  N     -5.753070    4.480720    4.300140
  C     -8.372270    4.517210    1.991060
  C     -9.493280    4.949860    1.303660
  S     -9.990620    3.845460    0.040440
  C    -10.231930    6.136210    1.518130
  N    -11.296980    6.463360    0.844820
  C    -11.782590    7.628420    1.266670
  C    -11.081550    8.259550    2.312050
  S     -9.733080    7.301860    2.772560
  N    -11.568290    9.421020    2.739670
  C    -12.640180    9.746610    2.076680
  S    -13.135970    8.584290    0.816550
  C    -13.377520   10.926840    2.336050
  C    -13.062630   11.880530    3.291050
  C    -13.998320   12.910430    3.313370
  C    -15.029910   12.735150    2.370050
  S    -14.841320   11.306770    1.455730
  C    -15.940570   13.815500    2.486830
  C    -15.479760   14.674640    3.503650
  C    -14.250880   14.134130    4.058490
  C    -13.521830   14.656430    5.085180
  C    -12.337550   14.054020    5.560920
  N    -11.370190   13.577070    5.948790
  C    -13.918450   15.845400    5.734380
  N    -14.251510   16.814270    6.248800
  C    -16.330160   15.749460    3.730520
  C    -17.443010   15.720680    2.904310
  S    -17.402730   14.352020    1.800910
  C    -18.516920   16.639760    2.840190
  C    -18.924260   17.527690    3.785520
  C    -18.626590   17.687810    5.195610
  C    -18.324280   16.693760    6.089610
  C    -18.189250   16.900560    7.478970
  N    -18.075750   17.010950    8.615250
  C    -18.210380   15.332270    5.748440
  N    -18.134110   14.208090    5.526610
  C    -18.983890   19.054130    5.557230
  C    -19.710840   19.635810    4.485430
  C    -19.783360   18.677440    3.370420
  O    -20.363770   18.793740    2.316090
  C    -20.220450   20.910760    4.550300
  C    -19.991570   21.647310    5.716520
  C    -19.247470   21.063490    6.771380
  C    -18.739070   19.771220    6.711740
  S    -19.076120   22.161350    8.102730
  C    -19.987500   23.364820    7.259370
  C    -20.402350   22.972280    6.034920
  H     -3.009410   -4.358890    1.527160
  H     -4.511180   -6.432860   -2.779560
  H     -0.952990   -8.819490    0.374270
  H     -1.405020   -6.653550    1.762070
  H     -7.415610   -1.853230   -2.173980
  H     -5.528330   -0.329850    0.941610
  H     -7.933380    5.075020    2.798580
  H    -12.195190   11.793930    3.918700
  H    -16.142840   16.541370    4.432510
  H    -19.053380   16.692640    1.897740
  H    -20.778240   21.326730    3.725750
  H    -18.169060   19.369690    7.533300
  H    -20.158590   24.308430    7.740050
  H    -20.979190   23.587530    5.368470

 Total Charge           Charge          ....    0
 Multiplicity           Mult            ....    1
 Number of Electrons    NEL             ....  576
 Basis Dimension        Dim             .... 1194

ORBITAL ENERGIES
----------------

  NO   OCC          E(Eh)            E(eV)
   0   2.0000     -89.003796     -2421.9164
   1   2.0000     -89.001155     -2421.8446
   2   2.0000     -89.000219     -2421.8191
   3   2.0000     -88.999036     -2421.7869
   4   2.0000     -88.986057     -2421.4337
   5   2.0000     -88.985011     -2421.4053
   6   2.0000     -88.968336     -2420.9515
   7   2.0000     -88.967339     -2420.9244
   8   2.0000     -19.220625      -523.0198
   9   2.0000     -19.218037      -522.9494
  10   2.0000     -14.440719      -392.9519
  11   2.0000     -14.437504      -392.8644
  12   2.0000     -14.436630      -392.8407
  13   2.0000     -14.435950      -392.8222
  14   2.0000     -14.434058      -392.7707
  15   2.0000     -14.431849      -392.7106
  16   2.0000     -14.420146      -392.3921
  17   2.0000     -14.419371      -392.3710
  18   2.0000     -14.415709      -392.2714
  19   2.0000     -14.415369      -392.2621
  20   2.0000     -10.371941      -282.2349
  21   2.0000     -10.371935      -282.2347
  22   2.0000     -10.371570      -282.2248
  23   2.0000     -10.369285      -282.1626
  24   2.0000     -10.368126      -282.1310
  25   2.0000     -10.367609      -282.1170
  26   2.0000     -10.358427      -281.8671
  27   2.0000     -10.358395      -281.8663
  28   2.0000     -10.349080      -281.6128
  29   2.0000     -10.346539      -281.5436
  30   2.0000     -10.346517      -281.5430
  31   2.0000     -10.346465      -281.5416
  32   2.0000     -10.345875      -281.5256
  33   2.0000     -10.345749      -281.5221
  34   2.0000     -10.344453      -281.4869
  35   2.0000     -10.344032      -281.4754
  36   2.0000     -10.343340      -281.4566
  37   2.0000     -10.342319      -281.4288
  38   2.0000     -10.339094      -281.3410
  39   2.0000     -10.336778      -281.2780
  40   2.0000     -10.336636      -281.2742
  41   2.0000     -10.335823      -281.2520
  42   2.0000     -10.333602      -281.1916
  43   2.0000     -10.332140      -281.1518
  44   2.0000     -10.331967      -281.1471
  45   2.0000     -10.330732      -281.1135
  46   2.0000     -10.329593      -281.0825
  47   2.0000     -10.327572      -281.0275
  48   2.0000     -10.322709      -280.8952
  49   2.0000     -10.322485      -280.8891
  50   2.0000     -10.321660      -280.8666
  51   2.0000     -10.321337      -280.8579
  52   2.0000     -10.318531      -280.7815
  53   2.0000     -10.318022      -280.7676
  54   2.0000     -10.317513      -280.7538
  55   2.0000     -10.315731      -280.7053
  56   2.0000     -10.315413      -280.6967
  57   2.0000     -10.315344      -280.6948
  58   2.0000     -10.315021      -280.6860
  59   2.0000     -10.314909      -280.6829
  60   2.0000     -10.312294      -280.6118
  61   2.0000     -10.311905      -280.6012
  62   2.0000     -10.311479      -280.5896
  63   2.0000     -10.309237      -280.5286
  64   2.0000     -10.308374      -280.5051
  65   2.0000     -10.307305      -280.4760
  66   2.0000     -10.305179      -280.4182
  67   2.0000     -10.304629      -280.4032
  68   2.0000     -10.304250      -280.3929
  69   2.0000     -10.304105      -280.3890
  70   2.0000     -10.303530      -280.3733
  71   2.0000     -10.302564      -280.3470
  72   2.0000     -10.301620      -280.3213
  73   2.0000     -10.299335      -280.2592
  74   2.0000     -10.293650      -280.1045
  75   2.0000     -10.291053      -280.0338
  76   2.0000     -10.290421      -280.0166
  77   2.0000     -10.289558      -279.9931
  78   2.0000      -8.098483      -220.3709
  79   2.0000      -8.095339      -220.2854
  80   2.0000      -8.094828      -220.2715
  81   2.0000      -8.093778      -220.2429
  82   2.0000      -8.082066      -219.9242
  83   2.0000      -8.080723      -219.8877
  84   2.0000      -8.064496      -219.4461
  85   2.0000      -8.063602      -219.4218
  86   2.0000      -6.067706      -165.1107
  87   2.0000      -6.064664      -165.0279
  88   2.0000      -6.064005      -165.0100
  89   2.0000      -6.063576      -164.9983
  90   2.0000      -6.062862      -164.9789
  91   2.0000      -6.060829      -164.9236
  92   2.0000      -6.060342      -164.9103
  93   2.0000      -6.059828      -164.8963
  94   2.0000      -6.058728      -164.8664
  95   2.0000      -6.057668      -164.8375
  96   2.0000      -6.057341      -164.8286
  97   2.0000      -6.056359      -164.8019
  98   2.0000      -6.051260      -164.6632
  99   2.0000      -6.049889      -164.6259
 100   2.0000      -6.047569      -164.5627
 101   2.0000      -6.046231      -164.5263
 102   2.0000      -6.043735      -164.4584
 103   2.0000      -6.042409      -164.4223
 104   2.0000      -6.034004      -164.1936
 105   2.0000      -6.033089      -164.1687
 106   2.0000      -6.029687      -164.0761
 107   2.0000      -6.028818      -164.0525
 108   2.0000      -6.026216      -163.9817
 109   2.0000      -6.025284      -163.9563
 110   2.0000      -1.136173       -30.9169
 111   2.0000      -1.133526       -30.8448
 112   2.0000      -1.111552       -30.2469
 113   2.0000      -1.072779       -29.1918
 114   2.0000      -1.054551       -28.6958
 115   2.0000      -1.053400       -28.6645
 116   2.0000      -1.027796       -27.9678
 117   2.0000      -1.026815       -27.9411
 118   2.0000      -1.023645       -27.8548
 119   2.0000      -1.022340       -27.8193
 120   2.0000      -1.012997       -27.5650
 121   2.0000      -1.011104       -27.5135
 122   2.0000      -1.010894       -27.5078
 123   2.0000      -1.009949       -27.4821
 124   2.0000      -1.007982       -27.4286
 125   2.0000      -1.006797       -27.3963
 126   2.0000      -0.995975       -27.1019
 127   2.0000      -0.995785       -27.0967
 128   2.0000      -0.987734       -26.8776
 129   2.0000      -0.986685       -26.8491
 130   2.0000      -0.968524       -26.3549
 131   2.0000      -0.967408       -26.3245
 132   2.0000      -0.937038       -25.4981
 133   2.0000      -0.935607       -25.4592
 134   2.0000      -0.933117       -25.3914
 135   2.0000      -0.925487       -25.1838
 136   2.0000      -0.920686       -25.0531
 137   2.0000      -0.904751       -24.6195
 138   2.0000      -0.901510       -24.5313
 139   2.0000      -0.898358       -24.4456
 140   2.0000      -0.883510       -24.0415
 141   2.0000      -0.882763       -24.0212
 142   2.0000      -0.882118       -24.0037
 143   2.0000      -0.880823       -23.9684
 144   2.0000      -0.877719       -23.8840
 145   2.0000      -0.870081       -23.6761
 146   2.0000      -0.865917       -23.5628
 147   2.0000      -0.863926       -23.5086
 148   2.0000      -0.850745       -23.1500
 149   2.0000      -0.827092       -22.5063
 150   2.0000      -0.825014       -22.4498
 151   2.0000      -0.824034       -22.4231
 152   2.0000      -0.806189       -21.9375
 153   2.0000      -0.798641       -21.7321
 154   2.0000      -0.785129       -21.3644
 155   2.0000      -0.782251       -21.2861
 156   2.0000      -0.769853       -20.9488
 157   2.0000      -0.761096       -20.7105
 158   2.0000      -0.759237       -20.6599
 159   2.0000      -0.748157       -20.3584
 160   2.0000      -0.728967       -19.8362
 161   2.0000      -0.721414       -19.6307
 162   2.0000      -0.712183       -19.3795
 163   2.0000      -0.705512       -19.1980
 164   2.0000      -0.701344       -19.0845
 165   2.0000      -0.695782       -18.9332
 166   2.0000      -0.693908       -18.8822
 167   2.0000      -0.691000       -18.8031
 168   2.0000      -0.688654       -18.7392
 169   2.0000      -0.685538       -18.6544
 170   2.0000      -0.683311       -18.5938
 171   2.0000      -0.677318       -18.4308
 172   2.0000      -0.667815       -18.1722
 173   2.0000      -0.663792       -18.0627
 174   2.0000      -0.662650       -18.0316
 175   2.0000      -0.652670       -17.7601
 176   2.0000      -0.648346       -17.6424
 177   2.0000      -0.639731       -17.4080
 178   2.0000      -0.636202       -17.3119
 179   2.0000      -0.630191       -17.1484
 180   2.0000      -0.625666       -17.0252
 181   2.0000      -0.623090       -16.9551
 182   2.0000      -0.621937       -16.9238
 183   2.0000      -0.618147       -16.8206
 184   2.0000      -0.606475       -16.5030
 185   2.0000      -0.604070       -16.4376
 186   2.0000      -0.599247       -16.3063
 187   2.0000      -0.595789       -16.2122
 188   2.0000      -0.592786       -16.1305
 189   2.0000      -0.580535       -15.7971
 190   2.0000      -0.570375       -15.5207
 191   2.0000      -0.569293       -15.4912
 192   2.0000      -0.565192       -15.3797
 193   2.0000      -0.557428       -15.1684
 194   2.0000      -0.556923       -15.1547
 195   2.0000      -0.553688       -15.0666
 196   2.0000      -0.553277       -15.0554
 197   2.0000      -0.551059       -14.9951
 198   2.0000      -0.544006       -14.8031
 199   2.0000      -0.541511       -14.7353
 200   2.0000      -0.540743       -14.7144
 201   2.0000      -0.539120       -14.6702
 202   2.0000      -0.537931       -14.6378
 203   2.0000      -0.535237       -14.5645
 204   2.0000      -0.531025       -14.4499
 205   2.0000      -0.526690       -14.3320
 206   2.0000      -0.524363       -14.2687
 207   2.0000      -0.521910       -14.2019
 208   2.0000      -0.518631       -14.1127
 209   2.0000      -0.516933       -14.0665
 210   2.0000      -0.513551       -13.9744
 211   2.0000      -0.511446       -13.9171
 212   2.0000      -0.510203       -13.8833
 213   2.0000      -0.509062       -13.8523
 214   2.0000      -0.508463       -13.8360
 215   2.0000      -0.503155       -13.6915
 216   2.0000      -0.501891       -13.6572
 217   2.0000      -0.501113       -13.6360
 218   2.0000      -0.499750       -13.5989
 219   2.0000      -0.497580       -13.5399
 220   2.0000      -0.494418       -13.4538
 221   2.0000      -0.494136       -13.4461
 222   2.0000      -0.491530       -13.3752
 223   2.0000      -0.489653       -13.3241
 224   2.0000      -0.487979       -13.2786
 225   2.0000      -0.482474       -13.1288
 226   2.0000      -0.477183       -12.9848
 227   2.0000      -0.474506       -12.9120
 228   2.0000      -0.472784       -12.8651
 229   2.0000      -0.470477       -12.8023
 230   2.0000      -0.466660       -12.6985
 231   2.0000      -0.465249       -12.6601
 232   2.0000      -0.463150       -12.6030
 233   2.0000      -0.461929       -12.5697
 234   2.0000      -0.461102       -12.5472
 235   2.0000      -0.457939       -12.4612
 236   2.0000      -0.455742       -12.4014
 237   2.0000      -0.452810       -12.3216
 238   2.0000      -0.452667       -12.3177
 239   2.0000      -0.452098       -12.3022
 240   2.0000      -0.451265       -12.2795
 241   2.0000      -0.449728       -12.2377
 242   2.0000      -0.445042       -12.1102
 243   2.0000      -0.444491       -12.0952
 244   2.0000      -0.444371       -12.0920
 245   2.0000      -0.443659       -12.0726
 246   2.0000      -0.443452       -12.0669
 247   2.0000      -0.443235       -12.0610
 248   2.0000      -0.438665       -11.9367
 249   2.0000      -0.438022       -11.9192
 250   2.0000      -0.437107       -11.8943
 251   2.0000      -0.436148       -11.8682
 252   2.0000      -0.433946       -11.8083
 253   2.0000      -0.433303       -11.7908
 254   2.0000      -0.431507       -11.7419
 255   2.0000      -0.429523       -11.6879
 256   2.0000      -0.429222       -11.6797
 257   2.0000      -0.428699       -11.6655
 258   2.0000      -0.426744       -11.6123
 259   2.0000      -0.423143       -11.5143
 260   2.0000      -0.422523       -11.4974
 261   2.0000      -0.413197       -11.2436
 262   2.0000      -0.410386       -11.1672
 263   2.0000      -0.410273       -11.1641
 264   2.0000      -0.407685       -11.0937
 265   2.0000      -0.406305       -11.0561
 266   2.0000      -0.394163       -10.7257
 267   2.0000      -0.392873       -10.6906
 268   2.0000      -0.384939       -10.4747
 269   2.0000      -0.378349       -10.2954
 270   2.0000      -0.373329       -10.1588
 271   2.0000      -0.364266        -9.9122
 272   2.0000      -0.361102        -9.8261
 273   2.0000      -0.359284        -9.7766
 274   2.0000      -0.356965        -9.7135
 275   2.0000      -0.345091        -9.3904
 276   2.0000      -0.343179        -9.3384
 277   2.0000      -0.341065        -9.2809
 278   2.0000      -0.336658        -9.1609
 279   2.0000      -0.330191        -8.9850
 280   2.0000      -0.328281        -8.9330
 281   2.0000      -0.315888        -8.5957
 282   2.0000      -0.315399        -8.5824
 283   2.0000      -0.309462        -8.4209
 284   2.0000      -0.297266        -8.0890
 285   2.0000      -0.295363        -8.0372
 286   2.0000      -0.279365        -7.6019
 287   2.0000      -0.254555        -6.9268
 288   0.0000      -0.120324        -3.2742
 289   0.0000      -0.114017        -3.1026
 290   0.0000      -0.091941        -2.5018
 291   0.0000      -0.090654        -2.4668
 292   0.0000      -0.068427        -1.8620

MULLIKEN ATOMIC CHARGES
-----------------------
   0 C :    0.311058
   1 C :   -0.357588
   2 C :   -0.187131
   3 N :    0.151130
   4 C :   -0.189450
   5 N :    0.149969
   6 C :    0.011094
   7 C :   -0.015731
   8 C :   -0.062649
   9 C :    0.114329
  10 C :   -0.096833
  11 C :   -0.018456
  12 S :    0.142846
  13 C :   -0.049896
  14 C :    0.027907
  15 C :    0.155863
  16 O :   -0.148872
  17 C :   -0.081381
  18 C :    0.034058
  19 C :   -0.114212
  20 C :   -0.010350
  21 C :   -0.002863
  22 C :   -0.086218
  23 S :    0.209444
  24 C :   -0.110194
  25 C :    0.023138
  26 C :    0.308492
  27 C :   -0.295837
  28 C :   -0.191849
  29 N :    0.197266
  30 C :   -0.194692
  31 N :    0.178884
  32 C :   -0.055155
  33 C :   -0.041224
  34 S :    0.259234
  35 C :   -0.111092
  36 N :   -0.039170
  37 C :   -0.057744
  38 C :   -0.047896
  39 S :    0.143524
  40 N :   -0.022335
  41 C :   -0.109362
  42 S :    0.128755
  43 C :   -0.039818
  44 C :   -0.033570
  45 C :    0.019030
  46 C :   -0.098361
  47 S :    0.205928
  48 C :   -0.071811
  49 C :   -0.002851
  50 C :    0.303624
  51 C :   -0.288148
  52 C :   -0.192007
  53 N :    0.190885
  54 C :   -0.185025
  55 N :    0.172646
  56 C :   -0.005532
  57 C :   -0.113822
  58 S :    0.217419
  59 C :    0.081944
  60 C :   -0.132069
  61 C :    0.265608
  62 C :   -0.334480
  63 C :   -0.172298
  64 N :    0.160627
  65 C :   -0.194927
  66 N :    0.164855
  67 C :   -0.000328
  68 C :    0.006694
  69 C :    0.131961
  70 O :   -0.144484
  71 C :   -0.070891
  72 C :    0.112045
  73 C :   -0.094085
  74 C :   -0.020281
  75 S :    0.145120
  76 C :   -0.049225
  77 C :    0.024803
  78 H :   -0.007607
  79 H :   -0.007041
  80 H :    0.039769
  81 H :   -0.005389
  82 H :    0.007660
  83 H :    0.039904
  84 H :    0.021675
  85 H :    0.026879
  86 H :    0.027128
  87 H :    0.021939
  88 H :   -0.010281
  89 H :    0.003262
  90 H :    0.039420
  91 H :   -0.005303
Sum of atomic charges:   -0.0000000

LOEWDIN ATOMIC CHARGES
----------------------
   0 C :    0.077763
   1 C :   -0.143523
   2 C :   -0.018153
   3 N :   -0.053183
   4 C :   -0.023890
   5 N :   -0.054501
   6 C :   -0.023898
   7 C :   -0.053463
   8 C :    0.026048
   9 C :   -0.034040
  10 C :   -0.145178
  11 C :   -0.007925
  12 S :    0.430751
  13 C :   -0.148321
  14 C :   -0.056650
  15 C :    0.087494
  16 O :   -0.136278
  17 C :   -0.092914
  18 C :    0.039484
  19 C :   -0.174600
  20 C :    0.015703
  21 C :   -0.072850
  22 C :   -0.162184
  23 S :    0.500012
  24 C :   -0.185065
  25 C :   -0.056195
  26 C :    0.074451
  27 C :   -0.092012
  28 C :   -0.023370
  29 N :   -0.012654
  30 C :   -0.016171
  31 N :   -0.028341
  32 C :   -0.026167
  33 C :   -0.187965
  34 S :    0.518954
  35 C :   -0.135589
  36 N :   -0.106397
  37 C :   -0.210375
  38 C :   -0.206097
  39 S :    0.430284
  40 N :   -0.092968
  41 C :   -0.131413
  42 S :    0.405032
  43 C :   -0.195759
  44 C :    0.001950
  45 C :   -0.058623
  46 C :   -0.177418
  47 S :    0.484186
  48 C :   -0.163311
  49 C :   -0.063178
  50 C :    0.080305
  51 C :   -0.092613
  52 C :   -0.019658
  53 N :   -0.020923
  54 C :   -0.012397
  55 N :   -0.030156
  56 C :    0.005135
  57 C :   -0.179401
  58 S :    0.501031
  59 C :    0.039950
  60 C :   -0.085545
  61 C :    0.066021
  62 C :   -0.136380
  63 C :   -0.019511
  64 N :   -0.044804
  65 C :   -0.015638
  66 N :   -0.048316
  67 C :   -0.019313
  68 C :   -0.056433
  69 C :    0.083763
  70 O :   -0.143567
  71 C :    0.024660
  72 C :   -0.035044
  73 C :   -0.143895
  74 C :   -0.007739
  75 S :    0.433822
  76 C :   -0.148619
  77 C :   -0.057787
  78 H :    0.042177
  79 H :    0.040699
  80 H :    0.029910
  81 H :    0.036064
  82 H :    0.042306
  83 H :    0.043289
  84 H :    0.039402
  85 H :    0.049595
  86 H :    0.042761
  87 H :    0.046161
  88 H :    0.040988
  89 H :    0.042793
  90 H :    0.029812
  91 H :    0.035603

  Mayer bond orders larger than 0.100000
B(  0-C ,  1-C ) :   1.6200 B(  0-C ,  6-C ) :   1.0006 B(  0-C , 17-C ) :   1.0787
B(  1-C ,  2-C ) :   1.1465 B(  1-C ,  4-C ) :   1.1399 B(  2-C ,  3-N ) :   2.9701
B(  4-C ,  5-N ) :   2.9700 B(  6-C ,  7-C ) :   1.2699 B(  6-C , 11-C ) :   1.4073
B(  7-C ,  8-C ) :   1.4240 B(  7-C , 15-C ) :   0.9580 B(  8-C ,  9-C ) :   1.2427
B(  8-C , 78-H ) :   1.0177 B(  9-C , 10-C ) :   1.2995 B(  9-C , 14-C ) :   1.1721
B( 10-C , 11-C ) :   1.3269 B( 10-C , 12-S ) :   1.1006 B( 11-C , 79-H ) :   0.9822
B( 12-S , 13-C ) :   1.1270 B( 13-C , 14-C ) :   1.6263 B( 13-C , 80-H ) :   0.9689
B( 14-C , 81-H ) :   1.0000 B( 15-C , 16-O ) :   2.1654 B( 15-C , 17-C ) :   0.9342
B( 17-C , 18-C ) :   1.6068 B( 18-C , 19-C ) :   1.2085 B( 18-C , 82-H ) :   0.9090
B( 19-C , 20-C ) :   1.4054 B( 19-C , 23-S ) :   1.0806 B( 20-C , 21-C ) :   1.3061
B( 20-C , 83-H ) :   0.9695 B( 21-C , 22-C ) :   1.3862 B( 21-C , 26-C ) :   0.9967
B( 22-C , 23-S ) :   1.1657 B( 22-C , 24-C ) :   1.2035 B( 24-C , 25-C ) :   1.4285
B( 24-C , 34-S ) :   1.1185 B( 25-C , 26-C ) :   0.9950 B( 25-C , 32-C ) :   1.3202
B( 26-C , 27-C ) :   1.7177 B( 27-C , 28-C ) :   1.1361 B( 27-C , 30-C ) :   1.1368
B( 28-C , 29-N ) :   2.9982 B( 30-C , 31-N ) :   2.9909 B( 32-C , 33-C ) :   1.4513
B( 32-C , 84-H ) :   0.9827 B( 33-C , 34-S ) :   1.1149 B( 33-C , 35-C ) :   1.1516
B( 35-C , 36-N ) :   1.7159 B( 35-C , 39-S ) :   1.0962 B( 36-N , 37-C ) :   1.4069
B( 37-C , 38-C ) :   1.2942 B( 37-C , 42-S ) :   1.0983 B( 38-C , 39-S ) :   1.0997
B( 38-C , 40-N ) :   1.4013 B( 40-N , 41-C ) :   1.7317 B( 40-N , 42-S ) :   0.1002
B( 41-C , 42-S ) :   1.0802 B( 41-C , 43-C ) :   1.1078 B( 43-C , 44-C ) :   1.4655
B( 43-C , 47-S ) :   1.1086 B( 44-C , 45-C ) :   1.2796 B( 44-C , 85-H ) :   1.0096
B( 45-C , 46-C ) :   1.4280 B( 45-C , 50-C ) :   0.9864 B( 46-C , 47-S ) :   1.1314
B( 46-C , 48-C ) :   1.1987 B( 48-C , 49-C ) :   1.4173 B( 48-C , 58-S ) :   1.1495
B( 49-C , 50-C ) :   1.0018 B( 49-C , 56-C ) :   1.3505 B( 50-C , 51-C ) :   1.7254
B( 51-C , 52-C ) :   1.1327 B( 51-C , 54-C ) :   1.1359 B( 52-C , 53-N ) :   3.0008
B( 54-C , 55-N ) :   2.9811 B( 56-C , 57-C ) :   1.4099 B( 56-C , 86-H ) :   0.9811
B( 57-C , 58-S ) :   1.0945 B( 57-C , 59-C ) :   1.1151 B( 59-C , 60-C ) :   1.6944
B( 59-C , 87-H ) :   0.9295 B( 60-C , 61-C ) :   1.0285 B( 60-C , 69-C ) :   0.9373
B( 61-C , 62-C ) :   1.6537 B( 61-C , 67-C ) :   1.0141 B( 62-C , 63-C ) :   1.1254
B( 62-C , 65-C ) :   1.1707 B( 63-C , 64-N ) :   2.9952 B( 65-C , 66-N ) :   2.9969
B( 67-C , 68-C ) :   1.2671 B( 67-C , 74-C ) :   1.4173 B( 68-C , 69-C ) :   0.9251
B( 68-C , 71-C ) :   1.4244 B( 69-C , 70-O ) :   2.2649 B( 71-C , 72-C ) :   1.2528
B( 71-C , 88-H ) :   1.0164 B( 72-C , 73-C ) :   1.2990 B( 72-C , 77-C ) :   1.1738
B( 73-C , 74-C ) :   1.3221 B( 73-C , 75-S ) :   1.0999 B( 74-C , 89-H ) :   0.9857
B( 75-S , 76-C ) :   1.1282 B( 76-C , 77-C ) :   1.6277 B( 76-C , 90-H ) :   0.9687
B( 77-C , 91-H ) :   0.9997

-----------------------------------------------------------------------------
         ABSORPTION SPECTRUM VIA TRANSITION ELECTRIC DIPOLE MOMENTS
-----------------------------------------------------------------------------
State   Energy  Wavelength   fosc         T2         TX        TY        TZ
        (cm-1)    (nm)                  (au**2)     (au)      (au)      (au)
-----------------------------------------------------------------------------
   0   13255.5    754.4   0.846145685  21.01479   2.36386  -3.76392  -1.12243
   1   14205.3    704.0   0.069236140   1.60457   0.34406  -1.15400  -0.39304
   2   19753.9    506.2   1.942595168  32.37471  -2.94823   4.55616   1.70999
   3   21483.4    465.5   0.295854240   4.53368   0.33811  -2.05211  -0.45629
   4   22236.6    449.7   0.020988713   0.31074   0.00908  -0.55540  -0.04680
   5   23312.6    429.0   0.164210603   2.31892  -0.44625   1.07284   0.98427
   6   25349.4    394.5   0.011710412   0.15208   0.35836   0.08899   0.12547
   7   25711.9    388.9   0.006251006   0.08004  -0.13820  -0.07570  -0.23496
   8   26246.9    381.0   0.625235799   7.84228   1.53307  -2.32360   0.30468
   9   27898.6    358.4   0.017850995   0.21065  -0.27154  -0.15003  -0.33824
  10   28157.6    355.1   0.003157684   0.03692   0.14850   0.02334   0.11967
  11   28412.9    352.0   0.023488962   0.27216  -0.21816   0.30082  -0.36616
  12   28644.7    349.1   0.003148800   0.03619  -0.15346   0.02633   0.10930
  13   28791.2    347.3   0.005034922   0.05757  -0.05032   0.08728  -0.21777
  14   29207.5    342.4   0.015719234   0.17718   0.37693  -0.14788   0.11505
  15   29327.1    341.0   0.030240686   0.33947  -0.36187  -0.45253  -0.06114
  16   29918.9    334.2   0.000845164   0.00930   0.00663   0.05542   0.07864
  17   30135.4    331.8   0.127221509   1.38982  -0.95125  -0.41098  -0.56218
  18   30255.4    330.5   0.091812273   0.99902   0.17406   0.31095   0.93383
  19   30448.8    328.4   0.249016986   2.69237   0.02346   1.40833   0.84169
  20   30660.8    326.1   0.550359814   5.90935  -1.29202   2.05902   0.02107
  21   31048.0    322.1   0.147054501   1.55927  -0.71232  -0.49942  -0.89579
  22   31164.1    320.9   0.571587256   6.03814  -1.75101   0.27070  -1.70259
  23   32128.6    311.2   0.028176670   0.28872  -0.20957  -0.33187  -0.36696
  24   32504.1    307.7   0.064366614   0.65193  -0.08131   0.52246   0.61020
  25   32649.2    306.3   0.015818316   0.15950   0.38192   0.03701   0.11077
  26   32845.5    304.5   0.403479702   4.04409  -0.88072   1.75157   0.44768
  27   33134.0    301.8   0.061361387   0.60967   0.25878   0.57159   0.46474
  28   33745.5    296.3   0.019941467   0.19454  -0.12413   0.41782  -0.06752
  29   33825.9    295.6   0.025791233   0.25101  -0.29995   0.35070  -0.19507
  30   33873.9    295.2   0.141433319   1.37455   0.54942  -0.91569   0.48394
  31   34086.1    293.4   0.005925959   0.05723  -0.17266  -0.14610  -0.07796
  32   34153.4    292.8   0.134298669   1.29454  -0.67419   0.86314  -0.30820
  33   34307.4    291.5   0.062802665   0.60265   0.44770  -0.20036   0.60172
  34   34527.3    289.6   0.361560171   3.44741   1.15365  -0.54006   1.35087
  35   34805.8    287.3   0.336432713   3.18216  -0.60667   1.66928  -0.16625
  36   35119.9    284.7   0.104691996   0.98138  -0.76118  -0.09163  -0.62737
  37   35304.9    283.2   0.021681272   0.20217   0.32515   0.18090   0.25245
  38   35498.3    281.7   0.156588667   1.45221  -0.71081  -0.40516  -0.88476
  39   35675.8    280.3   0.008046510   0.07425   0.20785   0.00886   0.17599
  40   35743.2    279.8   0.150984687   1.39064  -0.85531  -0.06135  -0.80952
  41   36150.9    276.6   0.010777099   0.09814   0.04457   0.28858   0.11349
  42   36617.7    273.1   0.027501433   0.24725   0.10407   0.36396   0.32242
  43   37154.9    269.1   0.034788336   0.30824  -0.03463  -0.53981  -0.12507
  44   37170.6    269.0   0.023205184   0.20552  -0.29124   0.28114  -0.20411
  45   37267.3    268.3   0.048242500   0.42616   0.43581  -0.48558   0.02121
  46   37706.8    265.2   0.066545036   0.58099   0.07685   0.55389   0.51797
  47   37792.0    264.6   0.091035183   0.79302  -0.54038  -0.09243  -0.70176
  48   38042.3    262.9   0.049190280   0.42568  -0.31062  -0.09103  -0.56649
  49   38154.7    262.1   0.017190821   0.14833  -0.10821   0.36901  -0.02115
  50   38327.3    260.9   0.006889411   0.05918  -0.07542  -0.03326  -0.22887
  51   38569.6    259.3   0.004646087   0.03966   0.01966   0.05686   0.18983
  52   38589.6    259.1   0.049693840   0.42394  -0.22392  -0.30121  -0.53205
  53   38962.7    256.7   0.062494308   0.52804  -0.42229   0.58272  -0.10073
  54   39132.4    255.5   0.174274278   1.46613   0.18845   0.56412   1.05469
  55   39903.2    250.6   0.048129827   0.39708   0.04498  -0.21317  -0.59128
  56   40238.2    248.5   0.023381074   0.19129   0.18047   0.04450   0.39591
  57   40261.4    248.4   0.038626106   0.31584  -0.16772   0.23887  -0.48026

FINAL SINGLE POINT ENERGY     -6097.258495138039

DIPOLE MOMENT
-------------
                                X             Y             Z
Electronic contribution:     -3.46003      -2.40686      -7.43152
Nuclear contribution   :      2.51008       3.50595       6.60705
                        -----------------------------------------
Total Dipole Moment    :     -0.94995       1.09909      -0.82446
                        -----------------------------------------
Magnitude (a.u.)       :      1.67037
Magnitude (Debye)      :      4.24575

Rotational constants in cm-1:     0.003212     0.000121     0.000118
Rotational constants in MHz :    96.290895     3.632882     3.530403

                             ****ORCA TERMINATED NORMALLY****
TOTAL RUN TIME: 0 days 0 hours 10 minutes 7 seconds 951 msec
