                         Program Version 4.2.0 -  RELEASE  -
|  1> # ORCA input file
|  2> # SCF done       -186.180355692785          0.001166643361
|  3> ! CAM-B3LYP def2-SVP def2/J RIJCOSX Grid4 TightSCF
|  4> %maxcore 5000
|  5> %tddft
|  6>     Mode sTDDFT
|  7>     Ethresh 5.0
|  8>     maxcore 5000
|  9> end
| 10>
| 11> %pal
| 12>   nprocs 6
| 13>   end
| 14> * xyz 0 1
| 15>    C        0.77222       -11.44551        -6.16373
| 16>    C        0.90683       -10.64144        -7.28485
| 17>    C       -0.14853        -9.86139        -7.73855
| 18>    C       -1.37123        -9.86412        -7.08504
| 19>    C       -1.51670       -10.66002        -5.96125
| 20>    C       -0.44337       -11.45442        -5.49625
| 21>    C       -0.86874       -12.17551        -4.30638
| 22>    C       -0.17596       -13.16284        -3.66361
| 23>    C        1.10223       -13.61717        -4.05740
| 24>    N        2.13991       -14.03023        -4.32017
| 25>    C       -0.65058       -13.89963        -2.55650
| 26>    N       -0.98283       -14.54238        -1.66551
| 27>    C       -2.17865       -11.63466        -3.94034
| 28>    C       -2.66177       -10.87294        -5.09036
| 29>    C       -3.97338       -10.65031        -5.41147
| 30>    C       -5.06369       -11.11968        -4.65112
| 31>    N       -5.98705       -11.51623        -4.09631
| 32>    C       -4.38991        -9.94749        -6.56080
| 33>    N       -4.78734        -9.35712        -7.46084
| 34>    C       -2.73273       -11.72560        -2.70136
| 35>    C       -3.76061       -10.91433        -2.15185
| 36>    C       -4.65725       -11.34223        -1.06613
| 37>    N       -5.47093       -10.41710        -0.65402
| 38>    C       -5.18151        -9.31204        -1.39111
| 39>    C       -4.10322        -9.59437        -2.35328
| 40>    C       -3.74792        -8.37925        -3.05008
| 41>    S       -2.47707        -8.13523        -4.07781
| 42>    C       -4.67205        -7.40384        -2.56165
| 43>    C       -5.52699        -7.98780        -1.53345
| 44>    N       -6.38893        -7.04970        -1.03467
| 45>    C       -6.11815        -5.94685        -1.66138
| 46>    C       -5.03884        -6.06176        -2.65588
| 47>    C       -4.52607        -5.10630        -3.53538
| 48>    C       -4.77362        -3.74959        -3.57563
| 49>    C       -4.25372        -2.86454        -4.54848
| 50>    C       -4.59745        -1.55698        -4.35973
| 51>    C       -5.39117        -1.34302        -3.21531
| 52>    S       -5.72021        -2.85223        -2.40828
| 53>    C       -5.84429        -0.12849        -2.71070
| 54>    C       -5.64216         1.15682        -3.25101
| 55>    C       -6.15778         2.15935        -2.48112
| 56>    C       -6.79161         1.71684        -1.29688
| 57>    S       -6.73028        -0.03030        -1.21260
| 58>    C       -7.31933         2.55295        -0.33431
| 59>    C       -7.93795         2.22354         0.87235
| 60>    C       -8.35675         0.91599         1.40330
| 61>    N       -8.90735         0.96653         2.57727
| 62>    C       -8.90019         2.28599         2.93992
| 63>    C       -8.31376         3.10504         1.88608
| 64>    C       -8.28723         4.48060         2.27837
| 65>    S       -7.73146         5.78102         1.43471
| 66>    C       -8.85534         4.47593         3.60829
| 67>    C       -9.24123         3.11627         3.98677
| 68>    N       -9.77220         3.10306         5.24137
| 69>    C       -9.77725         4.34029         5.63936
| 70>    C       -9.20951         5.28579         4.66378
| 71>    C       -8.96823         6.67273         4.84445
| 72>    C       -9.69537         7.52089         5.62256
| 73>    C       -9.23325         8.80671         6.14168
| 74>    C       -8.17522         9.54575         5.69210
| 75>    C       -7.34568         9.20831         4.59919
| 76>    N       -6.62818         9.00256         3.72766
| 77>    C       -7.78312        10.78335         6.24899
| 78>    N       -7.41179        11.79172         6.65086
| 79>    C      -10.11366         9.14461         7.25177
| 80>    C      -11.16576         8.20074         7.31114
| 81>    C      -12.13413         8.28220         8.29868
| 82>    C      -12.04734         9.30921         9.22643
| 83>    C      -11.01994        10.24089         9.16624
| 84>    C      -10.04579        10.17090         8.18184
| 85>    C      -11.00878         7.26780         6.20809
| 86>    C      -11.98448         6.47544         5.66794
| 87>    C      -13.26114         6.30549         6.24556
| 88>    N      -14.30573         6.12961         6.68543
| 89>    C      -11.87673         5.83195         4.41512
| 90>    N      -11.87455         5.36006         3.36901
| 91>    H        1.60353       -12.03973        -5.82101
| 92>    H        1.85024       -10.62058        -7.80888
| 93>    H       -0.01592        -9.23969        -8.61084
| 94>    H       -2.18071        -9.24514        -7.43652
| 95>    H       -2.31175       -12.44109        -2.00594
| 96>    H       -4.67798       -12.33175        -0.64560
| 97>    H       -6.68408        -5.05663        -1.45032
| 98>    H       -3.83262        -5.48092        -4.27978
| 99>    H       -3.64440        -3.22152        -5.35963
|100>    H       -4.29017        -0.75288        -5.00314
|101>    H       -5.12422         1.31388        -4.17947
|102>    H       -6.09573         3.20518        -2.72398
|103>    H       -7.21014         3.61490        -0.52383
|104>    H       -8.25712        -0.02807         0.89714
|105>    H      -10.11374         4.59396         6.62972
|106>    H       -8.07667         7.04787         4.35757
|107>    H      -12.93184         7.55951         8.35859
|108>    H      -12.78902         9.38132        10.00695
|109>    H      -10.97352        11.03220         9.89878
|110>    H       -9.25314        10.90040         8.15382
|111> *
|112>
|113>                          ****END OF INPUT****

CARTESIAN COORDINATES (ANGSTROEM)
---------------------------------
  C      0.772220  -11.445510   -6.163730
  C      0.906830  -10.641440   -7.284850
  C     -0.148530   -9.861390   -7.738550
  C     -1.371230   -9.864120   -7.085040
  C     -1.516700  -10.660020   -5.961250
  C     -0.443370  -11.454420   -5.496250
  C     -0.868740  -12.175510   -4.306380
  C     -0.175960  -13.162840   -3.663610
  C      1.102230  -13.617170   -4.057400
  N      2.139910  -14.030230   -4.320170
  C     -0.650580  -13.899630   -2.556500
  N     -0.982830  -14.542380   -1.665510
  C     -2.178650  -11.634660   -3.940340
  C     -2.661770  -10.872940   -5.090360
  C     -3.973380  -10.650310   -5.411470
  C     -5.063690  -11.119680   -4.651120
  N     -5.987050  -11.516230   -4.096310
  C     -4.389910   -9.947490   -6.560800
  N     -4.787340   -9.357120   -7.460840
  C     -2.732730  -11.725600   -2.701360
  C     -3.760610  -10.914330   -2.151850
  C     -4.657250  -11.342230   -1.066130
  N     -5.470930  -10.417100   -0.654020
  C     -5.181510   -9.312040   -1.391110
  C     -4.103220   -9.594370   -2.353280
  C     -3.747920   -8.379250   -3.050080
  S     -2.477070   -8.135230   -4.077810
  C     -4.672050   -7.403840   -2.561650
  C     -5.526990   -7.987800   -1.533450
  N     -6.388930   -7.049700   -1.034670
  C     -6.118150   -5.946850   -1.661380
  C     -5.038840   -6.061760   -2.655880
  C     -4.526070   -5.106300   -3.535380
  C     -4.773620   -3.749590   -3.575630
  C     -4.253720   -2.864540   -4.548480
  C     -4.597450   -1.556980   -4.359730
  C     -5.391170   -1.343020   -3.215310
  S     -5.720210   -2.852230   -2.408280
  C     -5.844290   -0.128490   -2.710700
  C     -5.642160    1.156820   -3.251010
  C     -6.157780    2.159350   -2.481120
  C     -6.791610    1.716840   -1.296880
  S     -6.730280   -0.030300   -1.212600
  C     -7.319330    2.552950   -0.334310
  C     -7.937950    2.223540    0.872350
  C     -8.356750    0.915990    1.403300
  N     -8.907350    0.966530    2.577270
  C     -8.900190    2.285990    2.939920
  C     -8.313760    3.105040    1.886080
  C     -8.287230    4.480600    2.278370
  S     -7.731460    5.781020    1.434710
  C     -8.855340    4.475930    3.608290
  C     -9.241230    3.116270    3.986770
  N     -9.772200    3.103060    5.241370
  C     -9.777250    4.340290    5.639360
  C     -9.209510    5.285790    4.663780
  C     -8.968230    6.672730    4.844450
  C     -9.695370    7.520890    5.622560
  C     -9.233250    8.806710    6.141680
  C     -8.175220    9.545750    5.692100
  C     -7.345680    9.208310    4.599190
  N     -6.628180    9.002560    3.727660
  C     -7.783120   10.783350    6.248990
  N     -7.411790   11.791720    6.650860
  C    -10.113660    9.144610    7.251770
  C    -11.165760    8.200740    7.311140
  C    -12.134130    8.282200    8.298680
  C    -12.047340    9.309210    9.226430
  C    -11.019940   10.240890    9.166240
  C    -10.045790   10.170900    8.181840
  C    -11.008780    7.267800    6.208090
  C    -11.984480    6.475440    5.667940
  C    -13.261140    6.305490    6.245560
  N    -14.305730    6.129610    6.685430
  C    -11.876730    5.831950    4.415120
  N    -11.874550    5.360060    3.369010
  H      1.603530  -12.039730   -5.821010
  H      1.850240  -10.620580   -7.808880
  H     -0.015920   -9.239690   -8.610840
  H     -2.180710   -9.245140   -7.436520
  H     -2.311750  -12.441090   -2.005940
  H     -4.677980  -12.331750   -0.645600
  H     -6.684080   -5.056630   -1.450320
  H     -3.832620   -5.480920   -4.279780
  H     -3.644400   -3.221520   -5.359630
  H     -4.290170   -0.752880   -5.003140
  H     -5.124220    1.313880   -4.179470
  H     -6.095730    3.205180   -2.723980
  H     -7.210140    3.614900   -0.523830
  H     -8.257120   -0.028070    0.897140
  H    -10.113740    4.593960    6.629720
  H     -8.076670    7.047870    4.357570
  H    -12.931840    7.559510    8.358590
  H    -12.789020    9.381320   10.006950
  H    -10.973520   11.032200    9.898780
  H     -9.253140   10.900400    8.153820

 Total Charge           Charge          ....    0
 Multiplicity           Mult            ....    1
 Number of Electrons    NEL             ....  528
 Basis Dimension        Dim             .... 1180

ORBITAL ENERGIES
----------------

  NO   OCC          E(Eh)            E(eV)
   0   2.0000     -88.980135     -2421.2726
   1   2.0000     -88.980067     -2421.2707
   2   2.0000     -88.919089     -2419.6114
   3   2.0000     -88.913264     -2419.4529
   4   2.0000     -14.431856      -392.7108
   5   2.0000     -14.430104      -392.6631
   6   2.0000     -14.430041      -392.6614
   7   2.0000     -14.430007      -392.6604
   8   2.0000     -14.429487      -392.6463
   9   2.0000     -14.429238      -392.6395
  10   2.0000     -14.429127      -392.6365
  11   2.0000     -14.426360      -392.5612
  12   2.0000     -14.426304      -392.5597
  13   2.0000     -14.424211      -392.5027
  14   2.0000     -14.423967      -392.4961
  15   2.0000     -14.423416      -392.4811
  16   2.0000     -10.365767      -282.0669
  17   2.0000     -10.363187      -281.9967
  18   2.0000     -10.358692      -281.8743
  19   2.0000     -10.358650      -281.8732
  20   2.0000     -10.358577      -281.8712
  21   2.0000     -10.355908      -281.7986
  22   2.0000     -10.355580      -281.7897
  23   2.0000     -10.354033      -281.7476
  24   2.0000     -10.353065      -281.7212
  25   2.0000     -10.350282      -281.6455
  26   2.0000     -10.349888      -281.6348
  27   2.0000     -10.348857      -281.6067
  28   2.0000     -10.346483      -281.5421
  29   2.0000     -10.346123      -281.5323
  30   2.0000     -10.345769      -281.5227
  31   2.0000     -10.344978      -281.5012
  32   2.0000     -10.343720      -281.4669
  33   2.0000     -10.343409      -281.4585
  34   2.0000     -10.342494      -281.4336
  35   2.0000     -10.340970      -281.3921
  36   2.0000     -10.340161      -281.3701
  37   2.0000     -10.339054      -281.3400
  38   2.0000     -10.336009      -281.2571
  39   2.0000     -10.333288      -281.1831
  40   2.0000     -10.333076      -281.1773
  41   2.0000     -10.332103      -281.1508
  42   2.0000     -10.331767      -281.1417
  43   2.0000     -10.331447      -281.1330
  44   2.0000     -10.331289      -281.1287
  45   2.0000     -10.330797      -281.1153
  46   2.0000     -10.330752      -281.1141
  47   2.0000     -10.328343      -281.0485
  48   2.0000     -10.326263      -280.9919
  49   2.0000     -10.325958      -280.9836
  50   2.0000     -10.323719      -280.9227
  51   2.0000     -10.323413      -280.9143
  52   2.0000     -10.321478      -280.8617
  53   2.0000     -10.320762      -280.8422
  54   2.0000     -10.319838      -280.8171
  55   2.0000     -10.319642      -280.8117
  56   2.0000     -10.319158      -280.7986
  57   2.0000     -10.318527      -280.7814
  58   2.0000     -10.317573      -280.7554
  59   2.0000     -10.317254      -280.7467
  60   2.0000     -10.315634      -280.7027
  61   2.0000     -10.314886      -280.6823
  62   2.0000     -10.314096      -280.6608
  63   2.0000     -10.314010      -280.6585
  64   2.0000     -10.310981      -280.5760
  65   2.0000     -10.310533      -280.5639
  66   2.0000     -10.310526      -280.5637
  67   2.0000     -10.309504      -280.5359
  68   2.0000     -10.309337      -280.5313
  69   2.0000     -10.308660      -280.5129
  70   2.0000     -10.305096      -280.4159
  71   2.0000     -10.304382      -280.3965
  72   2.0000     -10.303762      -280.3796
  73   2.0000     -10.302864      -280.3552
  74   2.0000     -10.302279      -280.3393
  75   2.0000     -10.301664      -280.3225
  76   2.0000      -8.076378      -219.7694
  77   2.0000      -8.076312      -219.7676
  78   2.0000      -8.014124      -218.0754
  79   2.0000      -8.008478      -217.9218
  80   2.0000      -6.046057      -164.5216
  81   2.0000      -6.045998      -164.5200
  82   2.0000      -6.041950      -164.4098
  83   2.0000      -6.041884      -164.4080
  84   2.0000      -6.037419      -164.2865
  85   2.0000      -6.037396      -164.2859
  86   2.0000      -5.982889      -162.8027
  87   2.0000      -5.982383      -162.7889
  88   2.0000      -5.977228      -162.6486
  89   2.0000      -5.977136      -162.6461
  90   2.0000      -5.973822      -162.5560
  91   2.0000      -5.967742      -162.3905
  92   2.0000      -1.096477       -29.8367
  93   2.0000      -1.095283       -29.8042
  94   2.0000      -1.077693       -29.3255
  95   2.0000      -1.075884       -29.2763
  96   2.0000      -1.046967       -28.4894
  97   2.0000      -1.041638       -28.3444
  98   2.0000      -1.029218       -28.0064
  99   2.0000      -1.027547       -27.9610
 100   2.0000      -1.023245       -27.8439
 101   2.0000      -1.017102       -27.6768
 102   2.0000      -1.012323       -27.5467
 103   2.0000      -1.008990       -27.4560
 104   2.0000      -1.007825       -27.4243
 105   2.0000      -1.006777       -27.3958
 106   2.0000      -1.005717       -27.3670
 107   2.0000      -1.002511       -27.2797
 108   2.0000      -0.977220       -26.5915
 109   2.0000      -0.976129       -26.5618
 110   2.0000      -0.970689       -26.4138
 111   2.0000      -0.964978       -26.2584
 112   2.0000      -0.951526       -25.8923
 113   2.0000      -0.945827       -25.7373
 114   2.0000      -0.934740       -25.4356
 115   2.0000      -0.925585       -25.1865
 116   2.0000      -0.922758       -25.1095
 117   2.0000      -0.919977       -25.0339
 118   2.0000      -0.904729       -24.6189
 119   2.0000      -0.899282       -24.4707
 120   2.0000      -0.888818       -24.1860
 121   2.0000      -0.876377       -23.8474
 122   2.0000      -0.873298       -23.7636
 123   2.0000      -0.870544       -23.6887
 124   2.0000      -0.870436       -23.6858
 125   2.0000      -0.868447       -23.6316
 126   2.0000      -0.860703       -23.4209
 127   2.0000      -0.854789       -23.2600
 128   2.0000      -0.853889       -23.2355
 129   2.0000      -0.844192       -22.9716
 130   2.0000      -0.811691       -22.0872
 131   2.0000      -0.805656       -21.9230
 132   2.0000      -0.802235       -21.8299
 133   2.0000      -0.801287       -21.8041
 134   2.0000      -0.796660       -21.6782
 135   2.0000      -0.785663       -21.3790
 136   2.0000      -0.779770       -21.2186
 137   2.0000      -0.763925       -20.7875
 138   2.0000      -0.750266       -20.4158
 139   2.0000      -0.737983       -20.0815
 140   2.0000      -0.728009       -19.8101
 141   2.0000      -0.726923       -19.7806
 142   2.0000      -0.723692       -19.6927
 143   2.0000      -0.721165       -19.6239
 144   2.0000      -0.717933       -19.5360
 145   2.0000      -0.715744       -19.4764
 146   2.0000      -0.710674       -19.3384
 147   2.0000      -0.709025       -19.2935
 148   2.0000      -0.701080       -19.0773
 149   2.0000      -0.681881       -18.5549
 150   2.0000      -0.678235       -18.4557
 151   2.0000      -0.676528       -18.4093
 152   2.0000      -0.673265       -18.3205
 153   2.0000      -0.671768       -18.2797
 154   2.0000      -0.664130       -18.0719
 155   2.0000      -0.661803       -18.0086
 156   2.0000      -0.659996       -17.9594
 157   2.0000      -0.653348       -17.7785
 158   2.0000      -0.646896       -17.6029
 159   2.0000      -0.643783       -17.5182
 160   2.0000      -0.642644       -17.4872
 161   2.0000      -0.622984       -16.9523
 162   2.0000      -0.618089       -16.8191
 163   2.0000      -0.613578       -16.6963
 164   2.0000      -0.606451       -16.5024
 165   2.0000      -0.599574       -16.3152
 166   2.0000      -0.597780       -16.2664
 167   2.0000      -0.592513       -16.1231
 168   2.0000      -0.591979       -16.1086
 169   2.0000      -0.585506       -15.9324
 170   2.0000      -0.580074       -15.7846
 171   2.0000      -0.575297       -15.6546
 172   2.0000      -0.568567       -15.4715
 173   2.0000      -0.563487       -15.3333
 174   2.0000      -0.560721       -15.2580
 175   2.0000      -0.558624       -15.2009
 176   2.0000      -0.557549       -15.1717
 177   2.0000      -0.553278       -15.0555
 178   2.0000      -0.552295       -15.0287
 179   2.0000      -0.550522       -14.9805
 180   2.0000      -0.547192       -14.8899
 181   2.0000      -0.544301       -14.8112
 182   2.0000      -0.543232       -14.7821
 183   2.0000      -0.537193       -14.6178
 184   2.0000      -0.536632       -14.6025
 185   2.0000      -0.532343       -14.4858
 186   2.0000      -0.529565       -14.4102
 187   2.0000      -0.527029       -14.3412
 188   2.0000      -0.522896       -14.2287
 189   2.0000      -0.520036       -14.1509
 190   2.0000      -0.518174       -14.1002
 191   2.0000      -0.516499       -14.0547
 192   2.0000      -0.513845       -13.9824
 193   2.0000      -0.511658       -13.9229
 194   2.0000      -0.509560       -13.8658
 195   2.0000      -0.507004       -13.7963
 196   2.0000      -0.503530       -13.7018
 197   2.0000      -0.502808       -13.6821
 198   2.0000      -0.500029       -13.6065
 199   2.0000      -0.497880       -13.5480
 200   2.0000      -0.492740       -13.4081
 201   2.0000      -0.488889       -13.3033
 202   2.0000      -0.488578       -13.2949
 203   2.0000      -0.486395       -13.2355
 204   2.0000      -0.485408       -13.2086
 205   2.0000      -0.482820       -13.1382
 206   2.0000      -0.474507       -12.9120
 207   2.0000      -0.469373       -12.7723
 208   2.0000      -0.468819       -12.7572
 209   2.0000      -0.466681       -12.6990
 210   2.0000      -0.463205       -12.6044
 211   2.0000      -0.463058       -12.6004
 212   2.0000      -0.460979       -12.5439
 213   2.0000      -0.459470       -12.5028
 214   2.0000      -0.457626       -12.4526
 215   2.0000      -0.457325       -12.4445
 216   2.0000      -0.457206       -12.4412
 217   2.0000      -0.455150       -12.3853
 218   2.0000      -0.455047       -12.3825
 219   2.0000      -0.453725       -12.3465
 220   2.0000      -0.452729       -12.3194
 221   2.0000      -0.452020       -12.3001
 222   2.0000      -0.450701       -12.2642
 223   2.0000      -0.447278       -12.1711
 224   2.0000      -0.442442       -12.0394
 225   2.0000      -0.440332       -11.9820
 226   2.0000      -0.438876       -11.9424
 227   2.0000      -0.438716       -11.9381
 228   2.0000      -0.438311       -11.9271
 229   2.0000      -0.436993       -11.8912
 230   2.0000      -0.435025       -11.8376
 231   2.0000      -0.433899       -11.8070
 232   2.0000      -0.433434       -11.7943
 233   2.0000      -0.432918       -11.7803
 234   2.0000      -0.432303       -11.7636
 235   2.0000      -0.428050       -11.6478
 236   2.0000      -0.424653       -11.5554
 237   2.0000      -0.421433       -11.4678
 238   2.0000      -0.420460       -11.4413
 239   2.0000      -0.417563       -11.3625
 240   2.0000      -0.396266       -10.7830
 241   2.0000      -0.395034       -10.7494
 242   2.0000      -0.392203       -10.6724
 243   2.0000      -0.385405       -10.4874
 244   2.0000      -0.381415       -10.3788
 245   2.0000      -0.368899       -10.0383
 246   2.0000      -0.365663        -9.9502
 247   2.0000      -0.365601        -9.9485
 248   2.0000      -0.362789        -9.8720
 249   2.0000      -0.360299        -9.8042
 250   2.0000      -0.355787        -9.6815
 251   2.0000      -0.352140        -9.5822
 252   2.0000      -0.344408        -9.3718
 253   2.0000      -0.340149        -9.2559
 254   2.0000      -0.336084        -9.1453
 255   2.0000      -0.333802        -9.0832
 256   2.0000      -0.324801        -8.8383
 257   2.0000      -0.322344        -8.7714
 258   2.0000      -0.308330        -8.3901
 259   2.0000      -0.304489        -8.2856
 260   2.0000      -0.300614        -8.1801
 261   2.0000      -0.299201        -8.1417
 262   2.0000      -0.298079        -8.1111
 263   2.0000      -0.239173        -6.5082
 264   0.0000      -0.143928        -3.9165
 265   0.0000      -0.129833        -3.5329
 266   0.0000      -0.120351        -3.2749
 267   0.0000      -0.103883        -2.8268
 268   0.0000      -0.097097        -2.6422

MULLIKEN ATOMIC CHARGES
-----------------------
   0 C :   -0.032528
   1 C :    0.047013
   2 C :    0.048158
   3 C :   -0.032551
   4 C :    0.031843
   5 C :    0.013757
   6 C :    0.282123
   7 C :   -0.336206
   8 C :   -0.186894
   9 N :    0.169530
  10 C :   -0.182928
  11 N :    0.164011
  12 C :   -0.033162
  13 C :    0.226732
  14 C :   -0.323136
  15 C :   -0.194165
  16 N :    0.185063
  17 C :   -0.179458
  18 N :    0.165030
  19 C :    0.012497
  20 C :   -0.056536
  21 C :    0.083913
  22 N :   -0.014814
  23 C :    0.005895
  24 C :    0.014943
  25 C :   -0.003647
  26 S :   -0.131688
  27 C :   -0.013079
  28 C :    0.038929
  29 N :   -0.019756
  30 C :    0.058687
  31 C :    0.013917
  32 C :   -0.049659
  33 C :   -0.016911
  34 C :    0.037537
  35 C :    0.038190
  36 C :   -0.037071
  37 S :    0.087734
  38 C :   -0.032892
  39 C :    0.037186
  40 C :    0.038944
  41 C :   -0.016967
  42 S :    0.084895
  43 C :   -0.050523
  44 C :    0.011593
  45 C :    0.058508
  46 N :   -0.023646
  47 C :    0.017854
  48 C :   -0.004156
  49 C :   -0.009412
  50 S :   -0.091089
  51 C :    0.060862
  52 C :    0.021772
  53 N :   -0.010968
  54 C :    0.069227
  55 C :   -0.099629
  56 C :    0.025408
  57 C :   -0.070334
  58 C :    0.293095
  59 C :   -0.331166
  60 C :   -0.190708
  61 N :    0.175835
  62 C :   -0.189059
  63 N :    0.171059
  64 C :    0.016912
  65 C :    0.006793
  66 C :   -0.030078
  67 C :    0.047287
  68 C :    0.047083
  69 C :   -0.033084
  70 C :    0.230093
  71 C :   -0.337025
  72 C :   -0.183064
  73 N :    0.174022
  74 C :   -0.182446
  75 N :    0.186589
  76 H :    0.006458
  77 H :    0.004647
  78 H :    0.004753
  79 H :    0.005613
  80 H :    0.023044
  81 H :    0.019040
  82 H :    0.023714
  83 H :    0.003890
  84 H :    0.006294
  85 H :   -0.000037
  86 H :   -0.000515
  87 H :    0.009554
  88 H :    0.005783
  89 H :    0.025367
  90 H :    0.019914
  91 H :    0.033660
  92 H :    0.009970
  93 H :    0.009815
  94 H :    0.009312
  95 H :    0.009640
Sum of atomic charges:   -0.0000000

LOEWDIN ATOMIC CHARGES
----------------------
   0 C :    0.005692
   1 C :    0.001291
   2 C :    0.006492
   3 C :    0.001114
   4 C :   -0.004683
   5 C :   -0.013304
   6 C :    0.080210
   7 C :   -0.126098
   8 C :   -0.018974
   9 N :   -0.039858
  10 C :   -0.021848
  11 N :   -0.039376
  12 C :   -0.023531
  13 C :    0.062317
  14 C :   -0.128826
  15 C :   -0.020311
  16 N :   -0.040483
  17 C :   -0.020556
  18 N :   -0.044864
  19 C :    0.046484
  20 C :   -0.048635
  21 C :    0.096955
  22 N :   -0.064011
  23 C :    0.034772
  24 C :   -0.011689
  25 C :   -0.139360
  26 S :    0.074722
  27 C :   -0.050943
  28 C :    0.051415
  29 N :   -0.067050
  30 C :    0.085978
  31 C :   -0.037099
  32 C :   -0.042217
  33 C :   -0.129029
  34 C :   -0.021312
  35 C :   -0.019429
  36 C :   -0.172482
  37 S :    0.400783
  38 C :   -0.166625
  39 C :   -0.022885
  40 C :   -0.016307
  41 C :   -0.133426
  42 S :    0.399132
  43 C :   -0.035309
  44 C :   -0.041245
  45 C :    0.088629
  46 N :   -0.071340
  47 C :    0.055002
  48 C :   -0.042844
  49 C :   -0.145554
  50 S :    0.077160
  51 C :    0.009016
  52 C :    0.032910
  53 N :   -0.069741
  54 C :    0.081220
  55 C :   -0.063531
  56 C :    0.067803
  57 C :   -0.041196
  58 C :    0.074374
  59 C :   -0.119011
  60 C :   -0.025263
  61 N :   -0.027534
  62 C :   -0.018702
  63 N :   -0.037799
  64 C :   -0.012851
  65 C :   -0.012332
  66 C :    0.003611
  67 C :    0.007159
  68 C :    0.005201
  69 C :    0.006481
  70 C :    0.064315
  71 C :   -0.120234
  72 C :   -0.019631
  73 N :   -0.033339
  74 C :   -0.022000
  75 N :   -0.030765
  76 H :    0.041663
  77 H :    0.037929
  78 H :    0.037713
  79 H :    0.040422
  80 H :    0.050794
  81 H :    0.031738
  82 H :    0.016461
  83 H :    0.040128
  84 H :    0.041428
  85 H :    0.037674
  86 H :    0.037540
  87 H :    0.042583
  88 H :    0.040757
  89 H :    0.017128
  90 H :    0.025729
  91 H :    0.051567
  92 H :    0.042228
  93 H :    0.039599
  94 H :    0.039559
  95 H :    0.042554

  Mayer bond orders larger than 0.100000
B(  0-C ,  1-C ) :   1.3756 B(  0-C ,  5-C ) :   1.3723 B(  0-C , 76-H ) :   0.9844
B(  1-C ,  2-C ) :   1.3711 B(  1-C , 77-H ) :   0.9861 B(  2-C ,  3-C ) :   1.3670
B(  2-C , 78-H ) :   0.9868 B(  3-C ,  4-C ) :   1.3797 B(  3-C , 79-H ) :   0.9878
B(  4-C ,  5-C ) :   1.3133 B(  4-C , 13-C ) :   1.0103 B(  5-C ,  6-C ) :   1.0099
B(  6-C ,  7-C ) :   1.6578 B(  6-C , 12-C ) :   1.0335 B(  7-C ,  8-C ) :   1.1406
B(  7-C , 10-C ) :   1.1340 B(  8-C ,  9-N ) :   2.9841 B( 10-C , 11-N ) :   2.9826
B( 12-C , 13-C ) :   0.9970 B( 12-C , 19-C ) :   1.6803 B( 13-C , 14-C ) :   1.6600
B( 14-C , 15-C ) :   1.1625 B( 14-C , 17-C ) :   1.1390 B( 15-C , 16-N ) :   3.0046
B( 17-C , 18-N ) :   2.9957 B( 19-C , 20-C ) :   1.0888 B( 19-C , 80-H ) :   0.9261
B( 20-C , 21-C ) :   1.0140 B( 20-C , 24-C ) :   1.5101 B( 21-C , 22-N ) :   1.7192
B( 21-C , 81-H ) :   0.9943 B( 22-N , 23-C ) :   1.2834 B( 23-C , 24-C ) :   1.0795
B( 23-C , 28-C ) :   1.4846 B( 24-C , 25-C ) :   1.0355 B( 25-C , 26-S ) :   1.6268
B( 25-C , 27-C ) :   1.0698 B( 27-C , 28-C ) :   1.0890 B( 27-C , 31-C ) :   1.4395
B( 28-C , 29-N ) :   1.2481 B( 29-N , 30-C ) :   1.7519 B( 30-C , 31-C ) :   0.9890
B( 30-C , 82-H ) :   0.9800 B( 31-C , 32-C ) :   1.1865 B( 32-C , 33-C ) :   1.5024
B( 32-C , 83-H ) :   0.9634 B( 33-C , 34-C ) :   1.1659 B( 33-C , 37-S ) :   1.0518
B( 34-C , 35-C ) :   1.5591 B( 34-C , 84-H ) :   1.0017 B( 35-C , 36-C ) :   1.2077
B( 35-C , 85-H ) :   0.9942 B( 36-C , 37-S ) :   1.0587 B( 36-C , 38-C ) :   1.4606
B( 38-C , 39-C ) :   1.2064 B( 38-C , 42-S ) :   1.0616 B( 39-C , 40-C ) :   1.5609
B( 39-C , 86-H ) :   0.9943 B( 40-C , 41-C ) :   1.1632 B( 40-C , 87-H ) :   1.0024
B( 41-C , 42-S ) :   1.0460 B( 41-C , 43-C ) :   1.5064 B( 43-C , 44-C ) :   1.1799
B( 43-C , 88-H ) :   0.9622 B( 44-C , 45-C ) :   0.9882 B( 44-C , 48-C ) :   1.4504
B( 45-C , 46-N ) :   1.7490 B( 45-C , 89-H ) :   0.9811 B( 46-N , 47-C ) :   1.2474
B( 47-C , 48-C ) :   1.0926 B( 47-C , 52-C ) :   1.4835 B( 48-C , 49-C ) :   1.0569
B( 49-C , 50-S ) :   1.6874 B( 49-C , 51-C ) :   1.0114 B( 51-C , 52-C ) :   1.0891
B( 51-C , 55-C ) :   1.5351 B( 52-C , 53-N ) :   1.2608 B( 53-N , 54-C ) :   1.7434
B( 54-C , 55-C ) :   1.0037 B( 54-C , 90-H ) :   0.9870 B( 55-C , 56-C ) :   1.0767
B( 56-C , 57-C ) :   1.6567 B( 56-C , 91-H ) :   0.9359 B( 57-C , 58-C ) :   1.0288
B( 57-C , 70-C ) :   1.0106 B( 58-C , 59-C ) :   1.6640 B( 58-C , 64-C ) :   1.0045
B( 59-C , 60-C ) :   1.1333 B( 59-C , 62-C ) :   1.1442 B( 60-C , 61-N ) :   2.9822
B( 62-C , 63-N ) :   2.9804 B( 64-C , 65-C ) :   1.3075 B( 64-C , 69-C ) :   1.3792
B( 65-C , 66-C ) :   1.3817 B( 65-C , 70-C ) :   1.0164 B( 66-C , 67-C ) :   1.3678
B( 66-C , 92-H ) :   0.9873 B( 67-C , 68-C ) :   1.3737 B( 67-C , 93-H ) :   0.9864
B( 68-C , 69-C ) :   1.3736 B( 68-C , 94-H ) :   0.9862 B( 69-C , 95-H ) :   0.9841
B( 70-C , 71-C ) :   1.6516 B( 71-C , 72-C ) :   1.1440 B( 71-C , 74-C ) :   1.1465
B( 72-C , 73-N ) :   2.9938 B( 74-C , 75-N ) :   3.0051

-----------------------------------------------------------------------------
         ABSORPTION SPECTRUM VIA TRANSITION ELECTRIC DIPOLE MOMENTS
-----------------------------------------------------------------------------
State   Energy  Wavelength   fosc         T2         TX        TY        TZ
        (cm-1)    (nm)                  (au**2)     (au)      (au)      (au)
-----------------------------------------------------------------------------
   0    7713.3   1296.5   0.785652858  33.53230   1.84219  -4.97742  -2.31602
   1    9376.0   1066.6   0.040990719   1.43927  -0.37634  -0.01708   1.13901
   2   12226.1    817.9   0.737045309  19.84640   1.36062  -3.98446  -1.45573
   3   14545.3    687.5   0.002819959   0.06383   0.22654  -0.10822  -0.02817
   4   14592.2    685.3   0.000915257   0.02065  -0.06547   0.10791  -0.06870
   5   16197.7    617.4   0.050578125   1.02798   0.24795   0.16230  -0.96962
   6   16576.3    603.3   0.000142527   0.00283   0.02734  -0.01520  -0.04303
   7   16723.1    598.0   0.005308962   0.10451  -0.11542   0.27849  -0.11676
   8   18463.6    541.6   0.033431782   0.59610   0.11256  -0.14080  -0.75074
   9   19487.6    513.1   0.166351259   2.81023   0.57746  -1.51255  -0.43469
  10   19981.2    500.5   0.019679716   0.32424   0.21732  -0.30882  -0.42620
  11   20612.7    485.1   0.217778029   3.47820  -0.64518   1.55916   0.79434
  12   21154.0    472.7   0.054706841   0.85138  -0.09729  -0.91339  -0.08742
  13   21499.5    465.1   0.003848250   0.05893   0.00153  -0.18826  -0.15324
  14   22083.2    452.8   0.048395863   0.72148  -0.38430   0.39526   0.64619
  15   22322.4    448.0   0.087747956   1.29411  -0.38669   0.96653   0.45870
  16   22819.9    438.2   0.038950074   0.56192  -0.21578  -0.26576   0.66688
  17   23286.5    429.4   0.118922695   1.68126   0.42382  -0.75715  -0.96352
  18   23875.8    418.8   0.016162096   0.22285  -0.04357  -0.20143   0.42471
  19   24156.4    414.0   0.006881929   0.09379   0.26089   0.08209  -0.13779
  20   24357.4    410.6   0.041550843   0.56160  -0.12520   0.52321  -0.52171
  21   24655.6    405.6   0.002729188   0.03644   0.08951   0.01056   0.16828
  22   24932.8    401.1   0.003871590   0.05112  -0.07477   0.19398  -0.08890
  23   25198.2    396.9   0.072035070   0.94113   0.17282  -0.35894  -0.88455
  24   25379.7    394.0   0.062488312   0.81056   0.16957  -0.88136   0.07080
  25   25784.7    387.8   0.050363004   0.64302   0.53072  -0.51105  -0.31651
  26   26013.2    384.4   0.080435296   1.01795  -0.02810  -0.75533   0.66832
  27   26725.6    374.2   0.240202392   2.95886   1.28234  -0.37287  -1.08417
  28   26816.9    372.9   0.176892885   2.17159   0.14745  -1.11342  -0.95401
  29   26942.5    371.2   0.008777530   0.10725   0.32284   0.02119  -0.05075
  30   27185.5    367.8   0.112910713   1.36733  -0.21072  -0.86479  -0.75833
  31   27337.0    365.8   0.055510938   0.66850   0.41005   0.08612   0.70210
  32   27415.0    364.8   0.006263612   0.07522   0.15176  -0.22403  -0.04469
  33   28253.5    353.9   0.069904737   0.81454   0.69329  -0.45993  -0.34977
  34   28312.7    353.2   0.009586957   0.11147  -0.03788   0.23998   0.22902
  35   28596.2    349.7   0.172269277   1.98324  -0.31182   0.87974   1.05455
  36   28708.8    348.3   0.025845283   0.29638  -0.41377   0.12853   0.32963
  37   29037.9    344.4   0.031633656   0.35864   0.01733   0.55067   0.23474
  38   29231.3    342.1   0.257969027   2.90533   1.00526  -1.34124   0.30960
  39   29311.4    341.2   0.050562617   0.56790   0.73650  -0.07747   0.13952
  40   29465.5    339.4   0.020408367   0.22802  -0.05476  -0.26463  -0.39369
  41   29943.4    334.0   0.044145244   0.48535  -0.16702   0.15972   0.65723
  42   30168.8    331.5   0.090681333   0.98955  -0.44847   0.58657   0.66660
  43   30320.6    329.8   0.032312678   0.35084  -0.09906   0.53303   0.23856
  44   30417.4    328.8   0.053679209   0.58098   0.29163   0.69408   0.11912
  45   30657.9    326.2   0.008953768   0.09615   0.29214   0.08887   0.05389
  46   31086.8    321.7   0.078039890   0.82645   0.29364   0.38658   0.76862
  47   31471.5    317.7   0.182660183   1.91074  -1.09314   0.84263   0.07588
  48   31728.3    315.2   0.082269187   0.85362   0.86851  -0.28000   0.14462
  49   31736.2    315.1   0.026856742   0.27860  -0.51607   0.10184  -0.04355
  50   31950.9    313.0   0.090467449   0.93215  -0.06621  -0.91875   0.28925
  51   32037.7    312.1   0.100267054   1.03032   0.92234  -0.21021   0.36801
  52   32113.9    311.4   0.022156342   0.22713  -0.41835  -0.19814   0.11336
  53   32139.8    311.1   0.157558166   1.61389  -0.93877  -0.83424  -0.19141
  54   32390.9    308.7   0.063363318   0.64401  -0.52336  -0.60130  -0.09242
  55   32602.8    306.7   0.077263003   0.78017   0.21780   0.77820  -0.35657
  56   32673.9    306.1   0.012943314   0.13041  -0.25368   0.02475   0.25582
  57   32763.0    305.2   0.054744834   0.55009  -0.64670  -0.36249   0.02158
  58   32941.7    303.6   0.108911339   1.08844  -1.00785   0.26673   0.03903
  59   33151.6    301.6   0.014258109   0.14159   0.25990  -0.23563   0.13609
  60   33318.5    300.1   0.013091670   0.12936   0.02989   0.24373  -0.26278
  61   33413.7    299.3   0.155384600   1.53094  -0.77098  -0.45551   0.85384
  62   33882.7    295.1   0.081057114   0.78757  -0.04579  -0.52357  -0.71508
  63   34331.3    291.3   0.136402675   1.30800  -0.06123   0.63345   0.95026
  64   34374.6    290.9   0.018217010   0.17447  -0.25871  -0.21990  -0.24326
  65   34596.2    289.0   0.062817631   0.59776   0.68230   0.36326  -0.01644
  66   34631.7    288.8   0.029848911   0.28375   0.01780   0.39024  -0.36213
  67   34792.6    287.4   0.009599402   0.09083   0.18358  -0.06213   0.23080
  68   34903.7    286.5   0.107578448   1.01468  -0.36226   0.72764  -0.59498
  69   35024.7    285.5   0.069837488   0.65643   0.66496  -0.06988  -0.45758
  70   35190.5    284.2   0.026283822   0.24589  -0.47662   0.00521   0.13674
  71   35467.2    282.0   0.200467084   1.86077   0.29927  -0.07105  -1.32897
  72   35702.9    280.1   0.017679749   0.16302   0.10028  -0.39095  -0.01112
  73   35912.6    278.5   0.015141655   0.13880  -0.01815  -0.09119   0.36078
  74   36124.4    276.8   0.122933426   1.12033  -0.52885   0.21737   0.89073
  75   36441.1    274.4   0.088185820   0.79668  -0.35513  -0.04641   0.81756
  76   36542.4    273.7   0.076852698   0.69237  -0.41540   0.69033   0.20797
  77   36655.6    272.8   0.050444230   0.45305   0.09046   0.59422  -0.30293
  78   36956.0    270.6   0.070011998   0.62368   0.49485   0.52167  -0.32660
  79   37164.9    269.1   0.029123389   0.25798  -0.22118   0.22280   0.39927
  80   37311.2    268.0   0.122436571   1.08031  -0.86583   0.28428   0.49983
  81   37614.6    265.9   0.039217231   0.34324  -0.33622  -0.07892   0.47325
  82   37745.6    264.9   0.013362630   0.11655   0.08224  -0.32837   0.04427
  83   37868.4    264.1   0.085153787   0.74029   0.48613  -0.09664  -0.70330
  84   37926.7    263.7   0.003398813   0.02950   0.11502   0.02010  -0.12598
  85   38455.9    260.0   0.020345626   0.17417   0.14527  -0.30866  -0.24041
  86   38506.2    259.7   0.095970963   0.82051   0.32931  -0.16326  -0.82790
  87   38671.5    258.6   0.048959415   0.41679   0.37587  -0.51154   0.11765
  88   38965.2    256.6   0.089832517   0.75898   0.08803   0.66836  -0.55184
  89   39081.0    255.9   0.065516760   0.55190  -0.00238  -0.57524   0.47010
  90   39259.3    254.7   0.098391450   0.82507   0.40951   0.68559  -0.43282
  91   39305.7    254.4   0.026897340   0.22528   0.20969   0.14297   0.40109
  92   39423.0    253.7   0.113945050   0.95153   0.41300  -0.78653   0.40290
  93   39561.6    252.8   0.004505439   0.03749   0.04138   0.15757  -0.10465
  94   39661.8    252.1   0.025646785   0.21288  -0.01388   0.00951  -0.46108
  95   39771.4    251.4   0.039299925   0.32531  -0.49790   0.27784   0.01429
  96   39891.1    250.7   0.242956726   2.00507  -1.28347   0.02128   0.59776
  97   39961.0    250.2   0.017620565   0.14516   0.05853  -0.13691  -0.35070
  98   40025.2    249.8   0.250754604   2.06249   0.91537   0.28961  -1.06804
  99   40111.6    249.3   0.015226956   0.12497   0.15076   0.25979   0.18643
 100   40179.3    248.9   0.000045729   0.00037   0.00393  -0.01217   0.01453

FINAL SINGLE POINT ENERGY     -4543.527417158423

DIPOLE MOMENT
-------------
                                X             Y             Z
Electronic contribution:     -5.67333      -9.75853       4.83472
Nuclear contribution   :      7.19953      12.96031      -5.80063
                        -----------------------------------------
Total Dipole Moment    :      1.52620       3.20178      -0.96591
                        -----------------------------------------
Magnitude (a.u.)       :      3.67609
Magnitude (Debye)      :      9.34389

Rotational constants in cm-1:     0.002379     0.000172     0.000168
Rotational constants in MHz :    71.321548     5.169313     5.043842

                             ****ORCA TERMINATED NORMALLY****
TOTAL RUN TIME: 0 days 0 hours 12 minutes 31 seconds 463 msec
