                         Program Version 4.2.0 -  RELEASE  -
|  1> # ORCA input file
|  2> # SCF done       -210.027612368103          0.000437063779
|  3> ! CAM-B3LYP def2-SVP def2/J RIJCOSX Grid4 TightSCF
|  4> %maxcore 5000
|  5> %tddft
|  6>     Mode sTDDFT
|  7>     Ethresh 5.0
|  8>     maxcore 5000
|  9> end
| 10>
| 11> %pal
| 12>   nprocs 6
| 13>   end
| 14> * xyz 0 1
| 15>    C        1.00840         4.39307         2.71875
| 16>    C        1.38019         5.42917         3.53739
| 17>    C        2.71659         5.72153         3.88367
| 18>    N        3.77890         6.01963         4.20085
| 19>    C        0.51358         6.33776         4.18106
| 20>    N       -0.11246         7.10916         4.75810
| 21>    C        1.92549         3.41752         2.14095
| 22>    C        1.16926         2.43609         1.45769
| 23>    C        1.74371         1.36784         0.81308
| 24>    C        3.13804         1.26430         0.84115
| 25>    C        3.88845         2.25336         1.52107
| 26>    C        3.30543         3.33180         2.17455
| 27>    S        5.59461         1.93743         1.42752
| 28>    C        5.28061         0.49990         0.49169
| 29>    C        3.96711         0.26686         0.25895
| 30>   Br        6.71685        -0.55590        -0.09045
| 31>    C       -0.26682         2.75988         1.55598
| 32>    O       -1.16945         2.11014         1.07226
| 33>    C       -0.34134         4.02783         2.31805
| 34>    C       -1.43750         4.81809         2.54083
| 35>    C       -2.80207         4.62456         2.25848
| 36>    C       -3.53496         3.53712         1.79489
| 37>    C       -4.88661         3.82675         1.68043
| 38>    C       -5.20564         5.15391         2.05682
| 39>    S       -3.84427         6.02661         2.56844
| 40>    C       -6.59254         5.35823         1.86813
| 41>    C       -7.15438         4.16468         1.37656
| 42>    C       -6.10807         3.16181         1.25529
| 43>    C       -6.26460         1.87370         0.83533
| 44>    C       -5.20568         0.94181         0.77255
| 45>    N       -4.37580         0.15304         0.72094
| 46>    C       -7.52271         1.37078         0.43893
| 47>    N       -8.54086         0.95403         0.11422
| 48>    C       -8.51970         4.27200         1.13468
| 49>    C       -8.99921         5.53681         1.43305
| 50>    S       -7.74619         6.60434         2.03433
| 51>    C      -10.34761         5.97606         1.24522
| 52>    C      -10.80071         7.25796         1.53351
| 53>    F       -9.95327         8.14176         2.08997
| 54>    C      -12.10770         7.69834         1.27888
| 55>    F      -12.41935         8.94085         1.67053
| 56>    C      -13.07874         6.89266         0.70265
| 57>    C      -12.67319         5.56292         0.46492
| 58>    C      -11.34273         5.11593         0.71778
| 59>    N      -11.28989         3.82635         0.35812
| 60>    N      -12.49059         3.55142        -0.06652
| 61>    N      -13.35654         4.52463        -0.03796
| 62>    C      -12.82481         2.24206        -0.53381
| 63>    C      -14.40111         7.38078         0.36226
| 64>    C      -14.58847         8.60272        -0.21903
| 65>    C      -15.84438         9.14672        -0.50698
| 66>    C      -17.07283         8.49154        -0.04103
| 67>    C      -17.10464         7.24100         0.47494
| 68>    S      -15.71082         6.27579         0.72643
| 69>    C      -18.11431         9.42548        -0.29295
| 70>    C      -17.58240        10.57263        -0.88638
| 71>    C      -18.57552        11.53482        -1.17217
| 72>    C      -19.80785        11.10619        -0.79272
| 73>    S      -19.81788         9.52586        -0.08516
| 74>    C      -16.16738        10.38922        -1.07115
| 75>    C      -15.32075        11.29225        -1.77110
| 76>    C      -14.29279        10.92555        -2.57778
| 77>    C      -13.55046        11.84670        -3.37017
| 78>    C      -13.20706        13.12106        -3.04155
| 79>    C      -12.88051        14.13820        -4.07485
| 80>    O      -12.66075        13.92513        -5.24795
| 81>    C      -12.94098        15.43448        -3.36808
| 82>    C      -13.14914        15.21451        -2.00560
| 83>    C      -13.15799        13.77832        -1.75475
| 84>    C      -12.85710        13.16083        -0.56689
| 85>    C      -12.53214        11.79255        -0.52565
| 86>    N      -12.19124        10.69585        -0.51330
| 87>    C      -12.72761        13.82637         0.66623
| 88>    N      -12.63698        14.33188         1.69304
| 89>    C      -13.26405        16.28842        -1.11410
| 90>    C      -13.16076        17.56347        -1.60565
| 91>    C      -12.93065        17.82220        -2.97486
| 92>    C      -12.81787        16.73604        -3.89145
| 93>    C      -12.58410        17.00120        -5.25634
| 94>    C      -12.46321        18.29061        -5.69524
| 95>    C      -12.57332        19.36430        -4.79693
| 96>    C      -12.80310        19.13676        -3.46799
| 97>    H        1.13498         0.63646         0.30502
| 98>    H        3.92313         4.05836         2.67477
| 99>    H        3.59584        -0.57273        -0.29980
|100>    H       -1.23920         5.78043         2.99841
|101>    H       -3.07552         2.59648         1.54880
|102>    H       -9.15896         3.49677         0.75597
|103>    H      -11.93164         1.62487        -0.46396
|104>    H      -13.16848         2.29446        -1.56691
|105>    H      -13.62291         1.82306         0.07928
|106>    H      -13.71160         9.19940        -0.43939
|107>    H      -18.02614         6.75567         0.75598
|108>    H      -18.39448        12.49090        -1.62899
|109>    H      -20.74102        11.62685        -0.88443
|110>    H      -15.61305        12.33650        -1.74800
|111>    H      -14.11204         9.87418        -2.75460
|112>    H      -13.30013        11.53313        -4.37868
|113>    H      -13.43913        16.11549        -0.06423
|114>    H      -13.25145        18.40544        -0.93457
|115>    H      -12.50132        16.16818        -5.93649
|116>    H      -12.28074        18.49276        -6.74013
|117>    H      -12.47421        20.37473        -5.16528
|118>    H      -12.88685        19.96125        -2.77464
|119> *
|120>
|121>                          ****END OF INPUT****

CARTESIAN COORDINATES (ANGSTROEM)
---------------------------------
  C      1.008400    4.393070    2.718750
  C      1.380190    5.429170    3.537390
  C      2.716590    5.721530    3.883670
  N      3.778900    6.019630    4.200850
  C      0.513580    6.337760    4.181060
  N     -0.112460    7.109160    4.758100
  C      1.925490    3.417520    2.140950
  C      1.169260    2.436090    1.457690
  C      1.743710    1.367840    0.813080
  C      3.138040    1.264300    0.841150
  C      3.888450    2.253360    1.521070
  C      3.305430    3.331800    2.174550
  S      5.594610    1.937430    1.427520
  C      5.280610    0.499900    0.491690
  C      3.967110    0.266860    0.258950
  Br     6.716850   -0.555900   -0.090450
  C     -0.266820    2.759880    1.555980
  O     -1.169450    2.110140    1.072260
  C     -0.341340    4.027830    2.318050
  C     -1.437500    4.818090    2.540830
  C     -2.802070    4.624560    2.258480
  C     -3.534960    3.537120    1.794890
  C     -4.886610    3.826750    1.680430
  C     -5.205640    5.153910    2.056820
  S     -3.844270    6.026610    2.568440
  C     -6.592540    5.358230    1.868130
  C     -7.154380    4.164680    1.376560
  C     -6.108070    3.161810    1.255290
  C     -6.264600    1.873700    0.835330
  C     -5.205680    0.941810    0.772550
  N     -4.375800    0.153040    0.720940
  C     -7.522710    1.370780    0.438930
  N     -8.540860    0.954030    0.114220
  C     -8.519700    4.272000    1.134680
  C     -8.999210    5.536810    1.433050
  S     -7.746190    6.604340    2.034330
  C    -10.347610    5.976060    1.245220
  C    -10.800710    7.257960    1.533510
  F     -9.953270    8.141760    2.089970
  C    -12.107700    7.698340    1.278880
  F    -12.419350    8.940850    1.670530
  C    -13.078740    6.892660    0.702650
  C    -12.673190    5.562920    0.464920
  C    -11.342730    5.115930    0.717780
  N    -11.289890    3.826350    0.358120
  N    -12.490590    3.551420   -0.066520
  N    -13.356540    4.524630   -0.037960
  C    -12.824810    2.242060   -0.533810
  C    -14.401110    7.380780    0.362260
  C    -14.588470    8.602720   -0.219030
  C    -15.844380    9.146720   -0.506980
  C    -17.072830    8.491540   -0.041030
  C    -17.104640    7.241000    0.474940
  S    -15.710820    6.275790    0.726430
  C    -18.114310    9.425480   -0.292950
  C    -17.582400   10.572630   -0.886380
  C    -18.575520   11.534820   -1.172170
  C    -19.807850   11.106190   -0.792720
  S    -19.817880    9.525860   -0.085160
  C    -16.167380   10.389220   -1.071150
  C    -15.320750   11.292250   -1.771100
  C    -14.292790   10.925550   -2.577780
  C    -13.550460   11.846700   -3.370170
  C    -13.207060   13.121060   -3.041550
  C    -12.880510   14.138200   -4.074850
  O    -12.660750   13.925130   -5.247950
  C    -12.940980   15.434480   -3.368080
  C    -13.149140   15.214510   -2.005600
  C    -13.157990   13.778320   -1.754750
  C    -12.857100   13.160830   -0.566890
  C    -12.532140   11.792550   -0.525650
  N    -12.191240   10.695850   -0.513300
  C    -12.727610   13.826370    0.666230
  N    -12.636980   14.331880    1.693040
  C    -13.264050   16.288420   -1.114100
  C    -13.160760   17.563470   -1.605650
  C    -12.930650   17.822200   -2.974860
  C    -12.817870   16.736040   -3.891450
  C    -12.584100   17.001200   -5.256340
  C    -12.463210   18.290610   -5.695240
  C    -12.573320   19.364300   -4.796930
  C    -12.803100   19.136760   -3.467990
  H      1.134980    0.636460    0.305020
  H      3.923130    4.058360    2.674770
  H      3.595840   -0.572730   -0.299800
  H     -1.239200    5.780430    2.998410
  H     -3.075520    2.596480    1.548800
  H     -9.158960    3.496770    0.755970
  H    -11.931640    1.624870   -0.463960
  H    -13.168480    2.294460   -1.566910
  H    -13.622910    1.823060    0.079280
  H    -13.711600    9.199400   -0.439390
  H    -18.026140    6.755670    0.755980
  H    -18.394480   12.490900   -1.628990
  H    -20.741020   11.626850   -0.884430
  H    -15.613050   12.336500   -1.748000
  H    -14.112040    9.874180   -2.754600
  H    -13.300130   11.533130   -4.378680
  H    -13.439130   16.115490   -0.064230
  H    -13.251450   18.405440   -0.934570
  H    -12.501320   16.168180   -5.936490
  H    -12.280740   18.492760   -6.740130
  H    -12.474210   20.374730   -5.165280
  H    -12.886850   19.961250   -2.774640

 Total Charge           Charge          ....    0
 Multiplicity           Mult            ....    1
 Number of Electrons    NEL             ....  612
 Basis Dimension        Dim             .... 1296

ORBITAL ENERGIES
----------------

  NO   OCC          E(Eh)            E(eV)
   0   2.0000    -482.883897    -13139.9388
   1   2.0000     -88.993513     -2421.6366
   2   2.0000     -88.991257     -2421.5752
   3   2.0000     -88.977154     -2421.1915
   4   2.0000     -88.973728     -2421.0982
   5   2.0000     -88.956121     -2420.6191
   6   2.0000     -62.561629     -1702.3885
   7   2.0000     -56.395580     -1534.6017
   8   2.0000     -56.392861     -1534.5278
   9   2.0000     -56.392830     -1534.5269
  10   2.0000     -24.809252      -675.0941
  11   2.0000     -24.793975      -674.6784
  12   2.0000     -19.217461      -522.9337
  13   2.0000     -19.212535      -522.7996
  14   2.0000     -14.556385      -396.0994
  15   2.0000     -14.458284      -393.4299
  16   2.0000     -14.456986      -393.3946
  17   2.0000     -14.431921      -392.7125
  18   2.0000     -14.426905      -392.5760
  19   2.0000     -14.415638      -392.2695
  20   2.0000     -14.413845      -392.2206
  21   2.0000     -14.412464      -392.1831
  22   2.0000     -14.410157      -392.1203
  23   2.0000     -10.384471      -282.5758
  24   2.0000     -10.381773      -282.5024
  25   2.0000     -10.368398      -282.1385
  26   2.0000     -10.365217      -282.0519
  27   2.0000     -10.363440      -282.0035
  28   2.0000     -10.357173      -281.8330
  29   2.0000     -10.352566      -281.7076
  30   2.0000     -10.344717      -281.4941
  31   2.0000     -10.340836      -281.3885
  32   2.0000     -10.339828      -281.3610
  33   2.0000     -10.337327      -281.2930
  34   2.0000     -10.336581      -281.2727
  35   2.0000     -10.332129      -281.1515
  36   2.0000     -10.331894      -281.1451
  37   2.0000     -10.330406      -281.1046
  38   2.0000     -10.329171      -281.0710
  39   2.0000     -10.328839      -281.0620
  40   2.0000     -10.326352      -280.9943
  41   2.0000     -10.326227      -280.9909
  42   2.0000     -10.325868      -280.9811
  43   2.0000     -10.325621      -280.9744
  44   2.0000     -10.323965      -280.9294
  45   2.0000     -10.323770      -280.9241
  46   2.0000     -10.323522      -280.9173
  47   2.0000     -10.322687      -280.8946
  48   2.0000     -10.318783      -280.7884
  49   2.0000     -10.318325      -280.7759
  50   2.0000     -10.316610      -280.7292
  51   2.0000     -10.315763      -280.7062
  52   2.0000     -10.313373      -280.6411
  53   2.0000     -10.306809      -280.4625
  54   2.0000     -10.306683      -280.4591
  55   2.0000     -10.306304      -280.4488
  56   2.0000     -10.306275      -280.4480
  57   2.0000     -10.305829      -280.4359
  58   2.0000     -10.305480      -280.4264
  59   2.0000     -10.304620      -280.4030
  60   2.0000     -10.303706      -280.3781
  61   2.0000     -10.299564      -280.2654
  62   2.0000     -10.298761      -280.2435
  63   2.0000     -10.298533      -280.2373
  64   2.0000     -10.296647      -280.1860
  65   2.0000     -10.296293      -280.1764
  66   2.0000     -10.294862      -280.1374
  67   2.0000     -10.293864      -280.1103
  68   2.0000     -10.293847      -280.1098
  69   2.0000     -10.293012      -280.0871
  70   2.0000     -10.292667      -280.0777
  71   2.0000     -10.292146      -280.0635
  72   2.0000     -10.290145      -280.0091
  73   2.0000     -10.289632      -279.9951
  74   2.0000     -10.288989      -279.9776
  75   2.0000     -10.288420      -279.9621
  76   2.0000     -10.287145      -279.9274
  77   2.0000     -10.286391      -279.9069
  78   2.0000     -10.281601      -279.7766
  79   2.0000     -10.281088      -279.7626
  80   2.0000     -10.281018      -279.7607
  81   2.0000     -10.279058      -279.7074
  82   2.0000     -10.275297      -279.6051
  83   2.0000     -10.275201      -279.6024
  84   2.0000     -10.275018      -279.5974
  85   2.0000     -10.274042      -279.5709
  86   2.0000      -8.791073      -239.2173
  87   2.0000      -8.088319      -220.0944
  88   2.0000      -8.085233      -220.0104
  89   2.0000      -8.072272      -219.6577
  90   2.0000      -8.069741      -219.5888
  91   2.0000      -8.051586      -219.0948
  92   2.0000      -6.627393      -180.3405
  93   2.0000      -6.612801      -179.9435
  94   2.0000      -6.612593      -179.9378
  95   2.0000      -6.057393      -164.8300
  96   2.0000      -6.054560      -164.7530
  97   2.0000      -6.053261      -164.7176
  98   2.0000      -6.050897      -164.6533
  99   2.0000      -6.050111      -164.6319
 100   2.0000      -6.047701      -164.5663
 101   2.0000      -6.041704      -164.4031
 102   2.0000      -6.039429      -164.3412
 103   2.0000      -6.037113      -164.2782
 104   2.0000      -6.035162      -164.2251
 105   2.0000      -6.034410      -164.2046
 106   2.0000      -6.030948      -164.1104
 107   2.0000      -6.021058      -163.8413
 108   2.0000      -6.016800      -163.7254
 109   2.0000      -6.013556      -163.6372
 110   2.0000      -2.743226       -74.6470
 111   2.0000      -2.739185       -74.5370
 112   2.0000      -2.739029       -74.5328
 113   2.0000      -2.727423       -74.2169
 114   2.0000      -2.727417       -74.2168
 115   2.0000      -1.327456       -36.1219
 116   2.0000      -1.305681       -35.5294
 117   2.0000      -1.235338       -33.6152
 118   2.0000      -1.132969       -30.8297
 119   2.0000      -1.126602       -30.6564
 120   2.0000      -1.047390       -28.5009
 121   2.0000      -1.022090       -27.8125
 122   2.0000      -1.021443       -27.7949
 123   2.0000      -1.016002       -27.6468
 124   2.0000      -1.012518       -27.5520
 125   2.0000      -1.011728       -27.5305
 126   2.0000      -1.010931       -27.5088
 127   2.0000      -1.005796       -27.3691
 128   2.0000      -1.003787       -27.3144
 129   2.0000      -0.996321       -27.1113
 130   2.0000      -0.995501       -27.0890
 131   2.0000      -0.993016       -27.0213
 132   2.0000      -0.990911       -26.9641
 133   2.0000      -0.987885       -26.8817
 134   2.0000      -0.970700       -26.4141
 135   2.0000      -0.965966       -26.2853
 136   2.0000      -0.961051       -26.1515
 137   2.0000      -0.941600       -25.6222
 138   2.0000      -0.939218       -25.5574
 139   2.0000      -0.932800       -25.3828
 140   2.0000      -0.923186       -25.1212
 141   2.0000      -0.919382       -25.0177
 142   2.0000      -0.908893       -24.7322
 143   2.0000      -0.906915       -24.6784
 144   2.0000      -0.901272       -24.5249
 145   2.0000      -0.894256       -24.3339
 146   2.0000      -0.890599       -24.2344
 147   2.0000      -0.884043       -24.0560
 148   2.0000      -0.874307       -23.7911
 149   2.0000      -0.868457       -23.6319
 150   2.0000      -0.863018       -23.4839
 151   2.0000      -0.857733       -23.3401
 152   2.0000      -0.851545       -23.1717
 153   2.0000      -0.850024       -23.1303
 154   2.0000      -0.840034       -22.8585
 155   2.0000      -0.830496       -22.5989
 156   2.0000      -0.827492       -22.5172
 157   2.0000      -0.824206       -22.4278
 158   2.0000      -0.809422       -22.0255
 159   2.0000      -0.800019       -21.7696
 160   2.0000      -0.790120       -21.5003
 161   2.0000      -0.782391       -21.2899
 162   2.0000      -0.773306       -21.0427
 163   2.0000      -0.767002       -20.8712
 164   2.0000      -0.759915       -20.6783
 165   2.0000      -0.756449       -20.5840
 166   2.0000      -0.750720       -20.4281
 167   2.0000      -0.743256       -20.2250
 168   2.0000      -0.725058       -19.7298
 169   2.0000      -0.723296       -19.6819
 170   2.0000      -0.715945       -19.4818
 171   2.0000      -0.710822       -19.3425
 172   2.0000      -0.706117       -19.2144
 173   2.0000      -0.702283       -19.1101
 174   2.0000      -0.693441       -18.8695
 175   2.0000      -0.691374       -18.8132
 176   2.0000      -0.686203       -18.6725
 177   2.0000      -0.682641       -18.5756
 178   2.0000      -0.675612       -18.3843
 179   2.0000      -0.672908       -18.3108
 180   2.0000      -0.664362       -18.0782
 181   2.0000      -0.659617       -17.9491
 182   2.0000      -0.656439       -17.8626
 183   2.0000      -0.652645       -17.7594
 184   2.0000      -0.649689       -17.6789
 185   2.0000      -0.641212       -17.4483
 186   2.0000      -0.639729       -17.4079
 187   2.0000      -0.630157       -17.1474
 188   2.0000      -0.627826       -17.0840
 189   2.0000      -0.625276       -17.0146
 190   2.0000      -0.624062       -16.9816
 191   2.0000      -0.620343       -16.8804
 192   2.0000      -0.618786       -16.8380
 193   2.0000      -0.614380       -16.7181
 194   2.0000      -0.607620       -16.5342
 195   2.0000      -0.599186       -16.3047
 196   2.0000      -0.597872       -16.2689
 197   2.0000      -0.595026       -16.1915
 198   2.0000      -0.590457       -16.0672
 199   2.0000      -0.588917       -16.0253
 200   2.0000      -0.586696       -15.9648
 201   2.0000      -0.585790       -15.9402
 202   2.0000      -0.580576       -15.7983
 203   2.0000      -0.573292       -15.6001
 204   2.0000      -0.569132       -15.4869
 205   2.0000      -0.564974       -15.3737
 206   2.0000      -0.559859       -15.2345
 207   2.0000      -0.559356       -15.2209
 208   2.0000      -0.554333       -15.0842
 209   2.0000      -0.549138       -14.9428
 210   2.0000      -0.549090       -14.9415
 211   2.0000      -0.547503       -14.8983
 212   2.0000      -0.539730       -14.6868
 213   2.0000      -0.537450       -14.6248
 214   2.0000      -0.536617       -14.6021
 215   2.0000      -0.533056       -14.5052
 216   2.0000      -0.531531       -14.4637
 217   2.0000      -0.528681       -14.3861
 218   2.0000      -0.525792       -14.3075
 219   2.0000      -0.524760       -14.2794
 220   2.0000      -0.517314       -14.0768
 221   2.0000      -0.516476       -14.0540
 222   2.0000      -0.516308       -14.0495
 223   2.0000      -0.515146       -14.0178
 224   2.0000      -0.513724       -13.9791
 225   2.0000      -0.509872       -13.8743
 226   2.0000      -0.508438       -13.8353
 227   2.0000      -0.507368       -13.8062
 228   2.0000      -0.506203       -13.7745
 229   2.0000      -0.504639       -13.7319
 230   2.0000      -0.503671       -13.7056
 231   2.0000      -0.502786       -13.6815
 232   2.0000      -0.501861       -13.6563
 233   2.0000      -0.497401       -13.5350
 234   2.0000      -0.495740       -13.4898
 235   2.0000      -0.495025       -13.4703
 236   2.0000      -0.491737       -13.3808
 237   2.0000      -0.490290       -13.3415
 238   2.0000      -0.487275       -13.2594
 239   2.0000      -0.480089       -13.0639
 240   2.0000      -0.477660       -12.9978
 241   2.0000      -0.474782       -12.9195
 242   2.0000      -0.473150       -12.8751
 243   2.0000      -0.472219       -12.8497
 244   2.0000      -0.469868       -12.7858
 245   2.0000      -0.466004       -12.6806
 246   2.0000      -0.465468       -12.6660
 247   2.0000      -0.462487       -12.5849
 248   2.0000      -0.459968       -12.5164
 249   2.0000      -0.456477       -12.4214
 250   2.0000      -0.453785       -12.3481
 251   2.0000      -0.452533       -12.3141
 252   2.0000      -0.449646       -12.2355
 253   2.0000      -0.448068       -12.1926
 254   2.0000      -0.447709       -12.1828
 255   2.0000      -0.446400       -12.1472
 256   2.0000      -0.444488       -12.0951
 257   2.0000      -0.444047       -12.0831
 258   2.0000      -0.441689       -12.0190
 259   2.0000      -0.439061       -11.9475
 260   2.0000      -0.438386       -11.9291
 261   2.0000      -0.437866       -11.9149
 262   2.0000      -0.437238       -11.8979
 263   2.0000      -0.436237       -11.8706
 264   2.0000      -0.435580       -11.8527
 265   2.0000      -0.434443       -11.8218
 266   2.0000      -0.429625       -11.6907
 267   2.0000      -0.428399       -11.6573
 268   2.0000      -0.426838       -11.6148
 269   2.0000      -0.425693       -11.5837
 270   2.0000      -0.424564       -11.5530
 271   2.0000      -0.423308       -11.5188
 272   2.0000      -0.421232       -11.4623
 273   2.0000      -0.419047       -11.4028
 274   2.0000      -0.417079       -11.3493
 275   2.0000      -0.414387       -11.2760
 276   2.0000      -0.410052       -11.1581
 277   2.0000      -0.407780       -11.0963
 278   2.0000      -0.407177       -11.0799
 279   2.0000      -0.405889       -11.0448
 280   2.0000      -0.403273       -10.9736
 281   2.0000      -0.392416       -10.6782
 282   2.0000      -0.391734       -10.6596
 283   2.0000      -0.386484       -10.5168
 284   2.0000      -0.384000       -10.4492
 285   2.0000      -0.378059       -10.2875
 286   2.0000      -0.373346       -10.1593
 287   2.0000      -0.372903       -10.1472
 288   2.0000      -0.364468        -9.9177
 289   2.0000      -0.359849        -9.7920
 290   2.0000      -0.350408        -9.5351
 291   2.0000      -0.342348        -9.3158
 292   2.0000      -0.338965        -9.2237
 293   2.0000      -0.337630        -9.1874
 294   2.0000      -0.330154        -8.9840
 295   2.0000      -0.329642        -8.9700
 296   2.0000      -0.323345        -8.7987
 297   2.0000      -0.319543        -8.6952
 298   2.0000      -0.314034        -8.5453
 299   2.0000      -0.307369        -8.3639
 300   2.0000      -0.302626        -8.2349
 301   2.0000      -0.292108        -7.9487
 302   2.0000      -0.291023        -7.9191
 303   2.0000      -0.280266        -7.6264
 304   2.0000      -0.261636        -7.1195
 305   2.0000      -0.237497        -6.4626
 306   0.0000      -0.111581        -3.0363
 307   0.0000      -0.088555        -2.4097
 308   0.0000      -0.085048        -2.3143
 309   0.0000      -0.069067        -1.8794
 310   0.0000      -0.060939        -1.6582

MULLIKEN ATOMIC CHARGES
-----------------------
   0 C :    0.313844
   1 C :   -0.358699
   2 C :   -0.185499
   3 N :    0.148671
   4 C :   -0.193229
   5 N :    0.151518
   6 C :    0.012219
   7 C :   -0.013257
   8 C :   -0.071097
   9 C :    0.119067
  10 C :   -0.092060
  11 C :   -0.018744
  12 S :    0.186384
  13 C :   -0.122302
  14 C :    0.037610
  15 Br:    0.023397
  16 C :    0.153461
  17 O :   -0.148316
  18 C :   -0.088568
  19 C :    0.038913
  20 C :   -0.116476
  21 C :   -0.008686
  22 C :   -0.005720
  23 C :   -0.084487
  24 S :    0.207937
  25 C :   -0.096678
  26 C :    0.037087
  27 C :    0.319651
  28 C :   -0.307716
  29 C :   -0.196880
  30 N :    0.197047
  31 C :   -0.188120
  32 N :    0.170631
  33 C :   -0.070089
  34 C :   -0.125915
  35 S :    0.223683
  36 C :    0.098816
  37 C :    0.118137
  38 F :   -0.174543
  39 C :    0.171921
  40 F :   -0.156869
  41 C :   -0.008146
  42 C :   -0.024428
  43 C :   -0.038049
  44 N :   -0.059997
  45 N :   -0.065528
  46 N :   -0.058834
  47 C :    0.137406
  48 C :   -0.143741
  49 C :    0.027265
  50 C :    0.036893
  51 C :    0.061661
  52 C :   -0.129182
  53 S :    0.185405
  54 C :   -0.111307
  55 C :    0.062392
  56 C :    0.008182
  57 C :   -0.070748
  58 S :    0.126656
  59 C :    0.046360
  60 C :    0.009890
  61 C :   -0.040891
  62 C :    0.043898
  63 C :   -0.122591
  64 C :    0.125920
  65 O :   -0.149690
  66 C :    0.008196
  67 C :   -0.015275
  68 C :    0.233339
  69 C :   -0.327101
  70 C :   -0.122078
  71 N :    0.120484
  72 C :   -0.171185
  73 N :    0.150994
  74 C :   -0.018302
  75 C :    0.001464
  76 C :    0.082675
  77 C :    0.030565
  78 C :   -0.026041
  79 C :    0.037181
  80 C :    0.036755
  81 C :   -0.021212
  82 H :   -0.005576
  83 H :   -0.006490
  84 H :   -0.001674
  85 H :    0.006358
  86 H :    0.038339
  87 H :    0.019760
  88 H :    0.071936
  89 H :    0.055966
  90 H :    0.056388
  91 H :   -0.025606
  92 H :    0.037018
  93 H :   -0.019301
  94 H :    0.026813
  95 H :    0.002059
  96 H :    0.011917
  97 H :    0.024532
  98 H :    0.000873
  99 H :   -0.013161
 100 H :    0.000616
 101 H :   -0.007248
 102 H :   -0.007721
 103 H :   -0.021097
Sum of atomic charges:   -0.0000000

LOEWDIN ATOMIC CHARGES
----------------------
   0 C :    0.077713
   1 C :   -0.145233
   2 C :   -0.017889
   3 N :   -0.055382
   4 C :   -0.024681
   5 N :   -0.054072
   6 C :   -0.021815
   7 C :   -0.050098
   8 C :    0.023324
   9 C :   -0.032159
  10 C :   -0.143826
  11 C :   -0.009722
  12 S :    0.432375
  13 C :   -0.271392
  14 C :   -0.069772
  15 Br:    0.136757
  16 C :    0.086720
  17 O :   -0.137214
  18 C :   -0.099542
  19 C :    0.042095
  20 C :   -0.178056
  21 C :    0.018532
  22 C :   -0.076575
  23 C :   -0.154385
  24 S :    0.499077
  25 C :   -0.196099
  26 C :   -0.056636
  27 C :    0.078341
  28 C :   -0.097781
  29 C :   -0.023633
  30 N :   -0.017949
  31 C :   -0.010983
  32 N :   -0.038195
  33 C :   -0.022468
  34 C :   -0.154610
  35 S :    0.502552
  36 C :   -0.066600
  37 C :    0.063525
  38 F :   -0.048791
  39 C :    0.074570
  40 F :   -0.032855
  41 C :   -0.069892
  42 C :   -0.053239
  43 C :   -0.044850
  44 N :   -0.079820
  45 N :    0.160925
  46 N :   -0.095977
  47 C :    0.034433
  48 C :   -0.167110
  49 C :   -0.004728
  50 C :   -0.006505
  51 C :   -0.051025
  52 C :   -0.139582
  53 S :    0.488775
  54 C :   -0.206450
  55 C :   -0.039018
  56 C :   -0.064717
  57 C :   -0.164847
  58 S :    0.419418
  59 C :   -0.063483
  60 C :    0.026680
  61 C :   -0.044147
  62 C :    0.067585
  63 C :   -0.098331
  64 C :    0.086278
  65 O :   -0.144936
  66 C :   -0.032001
  67 C :   -0.007088
  68 C :    0.072683
  69 C :   -0.144327
  70 C :    0.010267
  71 N :   -0.062561
  72 C :   -0.023042
  73 N :   -0.054612
  74 C :   -0.017480
  75 C :    0.016486
  76 C :   -0.009556
  77 C :   -0.003905
  78 C :   -0.002126
  79 C :   -0.013662
  80 C :   -0.013554
  81 C :   -0.013319
  82 H :    0.042599
  83 H :    0.040949
  84 H :    0.039458
  85 H :    0.042320
  86 H :    0.043279
  87 H :    0.037527
  88 H :    0.049485
  89 H :    0.042910
  90 H :    0.042524
  91 H :    0.037581
  92 H :    0.036466
  93 H :    0.030027
  94 H :    0.023403
  95 H :    0.031196
  96 H :    0.036061
  97 H :    0.045446
  98 H :    0.039595
  99 H :    0.035101
 100 H :    0.035437
 101 H :    0.032241
 102 H :    0.031523
 103 H :    0.030066

  Mayer bond orders larger than 0.100000
B(  0-C ,  1-C ) :   1.6157 B(  0-C ,  6-C ) :   0.9977 B(  0-C , 18-C ) :   1.0849
B(  1-C ,  2-C ) :   1.1473 B(  1-C ,  4-C ) :   1.1416 B(  2-C ,  3-N ) :   2.9674
B(  4-C ,  5-N ) :   2.9712 B(  6-C ,  7-C ) :   1.2760 B(  6-C , 11-C ) :   1.4091
B(  7-C ,  8-C ) :   1.4230 B(  7-C , 16-C ) :   0.9528 B(  8-C ,  9-C ) :   1.2433
B(  8-C , 82-H ) :   1.0177 B(  9-C , 10-C ) :   1.3045 B(  9-C , 14-C ) :   1.1633
B( 10-C , 11-C ) :   1.3322 B( 10-C , 12-S ) :   1.0864 B( 11-C , 83-H ) :   0.9794
B( 12-S , 13-C ) :   1.0860 B( 13-C , 14-C ) :   1.6175 B( 13-C , 15-Br) :   1.0183
B( 14-C , 84-H ) :   1.0004 B( 16-C , 17-O ) :   2.1692 B( 16-C , 18-C ) :   0.9407
B( 18-C , 19-C ) :   1.5872 B( 19-C , 20-C ) :   1.2251 B( 19-C , 85-H ) :   0.9079
B( 20-C , 21-C ) :   1.3937 B( 20-C , 24-S ) :   1.0728 B( 21-C , 22-C ) :   1.3150
B( 21-C , 86-H ) :   0.9704 B( 22-C , 23-C ) :   1.3756 B( 22-C , 27-C ) :   0.9912
B( 23-C , 24-S ) :   1.1734 B( 23-C , 25-C ) :   1.2038 B( 25-C , 26-C ) :   1.4244
B( 25-C , 35-S ) :   1.1001 B( 26-C , 27-C ) :   1.0002 B( 26-C , 33-C ) :   1.2581
B( 27-C , 28-C ) :   1.7097 B( 28-C , 29-C ) :   1.1376 B( 28-C , 31-C ) :   1.1407
B( 29-C , 30-N ) :   3.0023 B( 31-C , 32-N ) :   2.9901 B( 33-C , 34-C ) :   1.4702
B( 33-C , 87-H ) :   0.9775 B( 34-C , 35-S ) :   1.1090 B( 34-C , 36-C ) :   1.1349
B( 36-C , 37-C ) :   1.3624 B( 36-C , 41-C ) :   0.1224 B( 36-C , 43-C ) :   1.1819
B( 37-C , 38-F ) :   1.1355 B( 37-C , 39-C ) :   1.1730 B( 39-C , 40-F ) :   1.1627
B( 39-C , 41-C ) :   1.4411 B( 41-C , 42-C ) :   1.1886 B( 41-C , 48-C ) :   1.0099
B( 42-C , 43-C ) :   1.2242 B( 42-C , 46-N ) :   1.4799 B( 43-C , 44-N ) :   1.4724
B( 44-N , 45-N ) :   1.2390 B( 44-N , 46-N ) :   0.1596 B( 45-N , 46-N ) :   1.2283
B( 45-N , 47-C ) :   0.9478 B( 47-C , 88-H ) :   0.9641 B( 47-C , 89-H ) :   0.9690
B( 47-C , 90-H ) :   0.9690 B( 48-C , 49-C ) :   1.5672 B( 48-C , 53-S ) :   1.0811
B( 49-C , 50-C ) :   1.2368 B( 49-C , 91-H ) :   0.9495 B( 50-C , 51-C ) :   1.0617
B( 50-C , 59-C ) :   1.3879 B( 51-C , 52-C ) :   1.5794 B( 51-C , 54-C ) :   1.1829
B( 52-C , 53-S ) :   1.1626 B( 52-C , 92-H ) :   0.9416 B( 54-C , 55-C ) :   1.4397
B( 54-C , 58-S ) :   1.0728 B( 55-C , 56-C ) :   1.2226 B( 55-C , 59-C ) :   1.1103
B( 56-C , 57-C ) :   1.5828 B( 56-C , 93-H ) :   0.9984 B( 57-C , 58-S ) :   1.1560
B( 57-C , 94-H ) :   0.9669 B( 59-C , 60-C ) :   1.1532 B( 60-C , 61-C ) :   1.6611
B( 60-C , 95-H ) :   0.9535 B( 61-C , 62-C ) :   1.1284 B( 61-C , 96-H ) :   0.9601
B( 62-C , 63-C ) :   1.6620 B( 62-C , 97-H ) :   0.9357 B( 63-C , 64-C ) :   0.9625
B( 63-C , 68-C ) :   1.0426 B( 64-C , 65-O ) :   2.2046 B( 64-C , 66-C ) :   0.9329
B( 66-C , 67-C ) :   1.4178 B( 66-C , 77-C ) :   1.2392 B( 67-C , 68-C ) :   1.0054
B( 67-C , 74-C ) :   1.2614 B( 68-C , 69-C ) :   1.6434 B( 69-C , 70-C ) :   1.1746
B( 69-C , 72-C ) :   1.1221 B( 70-C , 71-N ) :   2.8788 B( 71-N , 91-H ) :   0.1002
B( 72-C , 73-N ) :   2.9959 B( 74-C , 75-C ) :   1.4664 B( 74-C , 98-H ) :   0.9879
B( 75-C , 76-C ) :   1.2243 B( 75-C , 99-H ) :   0.9940 B( 76-C , 77-C ) :   1.2410
B( 76-C , 81-C ) :   1.2394 B( 77-C , 78-C ) :   1.2739 B( 78-C , 79-C ) :   1.4768
B( 78-C ,100-H ) :   0.9866 B( 79-C , 80-C ) :   1.2522 B( 79-C ,101-H ) :   0.9878
B( 80-C , 81-C ) :   1.4971 B( 80-C ,102-H ) :   0.9897 B( 81-C ,103-H ) :   0.9976

-----------------------------------------------------------------------------
         ABSORPTION SPECTRUM VIA TRANSITION ELECTRIC DIPOLE MOMENTS
-----------------------------------------------------------------------------
State   Energy  Wavelength   fosc         T2         TX        TY        TZ
        (cm-1)    (nm)                  (au**2)     (au)      (au)      (au)
-----------------------------------------------------------------------------
   0   13614.7    734.5   0.463140970  11.19900  -2.91949   1.45766  -0.74219
   1   15990.3    625.4   0.388958638   8.00798  -0.38106  -2.65608   0.89889
   2   18452.2    541.9   0.093457469   1.66740  -1.27381  -0.03315  -0.20908
   3   20589.2    485.7   1.254080838  20.05219  -4.24856   1.03495  -0.96477
   4   21445.8    466.3   0.474687698   7.28687   2.49212   0.98322  -0.33089
   5   23493.9    425.6   0.058718285   0.82280  -0.77404  -0.45788   0.11831
   6   24571.9    407.0   0.008052402   0.10789  -0.32839   0.00481   0.00460
   7   24896.5    401.7   0.245673774   3.24860   1.68822   0.54885  -0.31191
   8   25567.2    391.1   0.027787506   0.35780   0.15945   0.51077   0.26739
   9   26298.8    380.2   0.066526051   0.83278   0.70970  -0.37377   0.43520
  10   26585.5    376.1   0.297383751   3.68254   1.64261  -0.98865  -0.08340
  11   27410.9    364.8   0.143743963   1.72640   0.16602  -1.21971   0.45952
  12   27485.5    363.8   0.054809958   0.65649   0.44342  -0.38255  -0.55993
  13   28131.1    355.5   0.073047287   0.85485  -0.81510   0.06610   0.43139
  14   28428.2    351.8   0.036647498   0.42440   0.58112  -0.14946  -0.25369
  15   29050.8    344.2   0.101076972   1.14544  -0.26140   0.87974  -0.55060
  16   29172.6    342.8   0.056012216   0.63210   0.67325  -0.42206  -0.02619
  17   29433.1    339.8   0.013856850   0.15499   0.28376  -0.23442  -0.13970
  18   29726.3    336.4   0.063024476   0.69798   0.11579   0.59707  -0.57278
  19   30092.2    332.3   0.161456382   1.76635  -0.40414   1.20535   0.38750
  20   30536.7    327.5   0.224839167   2.42396  -0.16472  -1.52980  -0.23776
  21   30839.9    324.3   0.376682122   4.02103  -1.06548   1.57757   0.63011
  22   31162.5    320.9   0.006970489   0.07364  -0.18289   0.19713  -0.03642
  23   31437.6    318.1   0.214118452   2.24223   0.19483   0.05935   1.48349
  24   31614.7    316.3   0.023922570   0.24911   0.07449  -0.10160   0.48295
  25   32037.0    312.1   0.257467087   2.64573   1.59645   0.08588   0.29952
  26   32215.0    310.4   0.026991778   0.27583   0.32118   0.14644  -0.38889
  27   32289.6    309.7   0.057175505   0.58294  -0.22912   0.62941   0.36645
  28   32546.5    307.3   0.081139704   0.82074   0.15081  -0.76560   0.46027
  29   32820.6    304.7   0.276886237   2.77735  -0.65847   1.46200   0.45423
  30   32933.4    303.6   0.451068890   4.50902  -0.49916  -1.72345   1.13559
  31   33080.8    302.3   0.013849524   0.13783   0.28862  -0.06838  -0.22328
  32   33178.1    301.4   0.132448874   1.31423   0.06849   1.06039   0.43024
  33   33547.1    298.1   0.054322037   0.53309  -0.31104  -0.64564  -0.13961
  34   33741.4    296.4   0.041384107   0.40378  -0.20189  -0.59540   0.09228
  35   33953.3    294.5   0.073238502   0.71012  -0.44011  -0.49878   0.51735
  36   34191.8    292.5   0.024447932   0.23539  -0.15245  -0.35134   0.29784
  37   34346.4    291.2   0.131682250   1.26218   0.05884  -0.50365   1.00252
  38   34631.0    288.8   0.242628505   2.30649  -0.48788  -1.32919  -0.54928
  39   34704.0    288.2   0.091935792   0.87213  -0.22161   0.66857   0.61321
  40   35190.8    284.2   0.057869453   0.54137  -0.23352   0.63066   0.29850
  41   35499.4    281.7   0.015131024   0.14032  -0.02642  -0.22275   0.30001
  42   35828.2    279.1   0.177231919   1.62852  -0.87078   0.81974  -0.44529
  43   36203.0    276.2   0.095273612   0.86637  -0.18203  -0.82595  -0.38865
  44   36579.1    273.4   0.206524505   1.85872  -0.10395   1.16557  -0.69954
  45   37069.0    269.8   0.009679357   0.08596  -0.18132   0.17847   0.14572
  46   37485.4    266.8   0.057220684   0.50254  -0.09827  -0.66749  -0.21756
  47   37644.6    265.6   0.016470344   0.14404  -0.03138   0.37111   0.07300
  48   38007.4    263.1   0.004727151   0.04095  -0.15287   0.10272   0.08382
  49   38126.4    262.3   0.019049744   0.16449   0.17897  -0.35709  -0.07032
  50   38211.5    261.7   0.087448912   0.75342  -0.51529  -0.31847   0.62167
  51   38693.9    258.4   0.051830681   0.44098   0.63391  -0.19024  -0.05433
  52   39171.0    255.3   0.190820537   1.60375  -1.17418  -0.14133  -0.45286
  53   39259.0    254.7   0.084370494   0.70750  -0.29478  -0.68685  -0.38580
  54   39316.5    254.3   0.132954479   1.11328  -1.04544   0.12424  -0.06993
  55   39612.3    252.4   0.030949615   0.25722   0.45641   0.14549   0.16654
  56   39657.4    252.2   0.022712702   0.18855   0.41192   0.12846  -0.04862
  57   39860.0    250.9   0.049582022   0.40951   0.09580   0.61499  -0.14874
  58   39973.1    250.2   0.028924430   0.23822   0.29728  -0.30988  -0.23199
  59   40179.9    248.9   0.227610586   1.86491   0.65032  -1.08232   0.52017

FINAL SINGLE POINT ENERGY     -7816.899884737375

DIPOLE MOMENT
-------------
                                X             Y             Z
Electronic contribution:    185.78882    -114.74640      28.20404
Nuclear contribution   :   -189.08391     114.57130     -30.26295
                        -----------------------------------------
Total Dipole Moment    :     -3.29509      -0.17510      -2.05891
                        -----------------------------------------
Magnitude (a.u.)       :      3.88940
Magnitude (Debye)      :      9.88606

Rotational constants in cm-1:     0.000958     0.000172     0.000154
Rotational constants in MHz :    28.713091     5.162136     4.623813

                             ****ORCA TERMINATED NORMALLY****
TOTAL RUN TIME: 0 days 0 hours 12 minutes 33 seconds 483 msec
