                         Program Version 4.2.0 -  RELEASE  -
|  1> # ORCA input file
|  2> # SCF done       -134.860725275153          0.000721592970
|  3> ! CAM-B3LYP def2-SVP def2/J RIJCOSX Grid4 TightSCF
|  4> %maxcore 5000
|  5> %tddft
|  6>     Mode sTDDFT
|  7>     Ethresh 5.0
|  8>     maxcore 5000
|  9> end
| 10>
| 11> %pal
| 12>   nprocs 6
| 13>   end
| 14> * xyz 0 1
| 15>    C        2.75159         1.01883         4.82385
| 16>    C        3.28582         1.11910         3.54506
| 17>    C        2.89220         2.19751         2.69231
| 18>    N        3.40779         2.28835         1.46182
| 19>    C        4.26853         1.39038         1.05635
| 20>    C        4.65490         0.33295         1.90126
| 21>    N        4.17839         0.19941         3.10742
| 22>    C        1.96176         3.19891         3.09681
| 23>    C        1.42824         3.06933         4.41505
| 24>    C        1.83803         1.97481         5.25616
| 25>    N        1.33938         1.84465         6.50986
| 26>    C        0.48304         2.73024         6.93087
| 27>    C        0.07443         3.80033         6.11769
| 28>    N        0.53851         3.95605         4.90042
| 29>    C        1.66125         4.21863         2.16128
| 30>    S        2.41653         4.22209         0.57834
| 31>    C        1.60043         5.70544         0.05834
| 32>    C        0.76167         6.16997         1.08708
| 33>    C        0.81492         5.33062         2.23711
| 34>    N       -0.00962         5.83628         3.17676
| 35>    C       -0.59732         6.97021         2.67625
| 36>    C       -1.50579         7.73759         3.41206
| 37>    N       -2.25034         8.38124         4.00464
| 38>    C       -0.14514         7.20508         1.38832
| 39>    C        1.88862         6.18447        -1.20472
| 40>    C        1.58180         7.28413        -2.04203
| 41>    C        2.44504         6.74468        -3.11350
| 42>    C        3.04180         6.71421        -4.31449
| 43>    S        4.03871         5.27297        -4.42880
| 44>    C        3.61086         4.73532        -2.80656
| 45>    C        2.76969         5.62030        -2.26356
| 46>    C        0.80797         8.43805        -1.90315
| 47>    C        0.67899         9.41836        -2.83535
| 48>    C       -0.10251        10.60761        -2.61944
| 49>    C       -1.08248        10.69358        -1.63018
| 50>    C       -1.74971        11.89278        -1.38395
| 51>    C       -1.37595        12.98957        -2.17772
| 52>    N       -0.49528        12.90967        -3.15583
| 53>    C        0.11346        11.76485        -3.38552
| 54>    C       -2.71863        11.96832        -0.31993
| 55>    S       -2.56852        10.87935         1.02091
| 56>    C       -3.93799        11.53358         1.84505
| 57>    C       -4.48459        12.58624         1.11349
| 58>    C       -3.80874        12.81680        -0.13147
| 59>    C       -4.32848        13.78101        -1.01893
| 60>    C       -5.39786        14.56353        -0.66488
| 61>    C       -5.93683        15.54209        -1.60728
| 62>    C       -5.21821        16.20948        -2.50047
| 63>    C       -5.99019        14.41824         0.63017
| 64>    C       -7.09367        15.33922         1.05516
| 65>    C       -5.54503        13.44658         1.47752
| 66>    C       -4.31552        10.91744         3.08715
| 67>    C       -5.52567        10.92999         3.64407
| 68>    H        3.03771         0.21390         5.47866
| 69>    H        4.65927         1.50295         0.05549
| 70>    H        5.36689        -0.41280         1.57451
| 71>    H        0.09948         2.60585         7.93425
| 72>    H       -0.63900         4.53735         6.46260
| 73>    H       -0.10869         5.37190         4.08076
| 74>    H       -0.45987         8.02803         0.78089
| 75>    H        3.01014         7.37937        -5.15408
| 76>    H        4.03257         3.82398        -2.43454
| 77>    H        0.30625         8.54683        -0.95496
| 78>    H        1.22512         9.34527        -3.76606
| 79>    H       -1.35842         9.82291        -1.05345
| 80>    H       -1.78395        13.97366        -2.00048
| 81>    H        0.83206        11.76606        -4.19461
| 82>    H       -3.90652        13.87286        -2.00671
| 83>    H       -7.00196        15.72123        -1.54589
| 84>    H       -4.14999        16.09609        -2.57987
| 85>    H       -5.67229        16.91096        -3.17931
| 86>    H       -6.81069        16.37823         0.89349
| 87>    H       -7.32143        15.19926         2.10916
| 88>    H       -8.00096        15.14362         0.48270
| 89>    H       -5.98706        13.34536         2.45593
| 90>    H       -3.52763        10.34439         3.56045
| 91>    H       -6.37469        11.41034         3.19070
| 92>    H       -5.70338        10.42031         4.57468
| 93> *
| 94>
| 95>                          ****END OF INPUT****

CARTESIAN COORDINATES (ANGSTROEM)
---------------------------------
  C      2.751590    1.018830    4.823850
  C      3.285820    1.119100    3.545060
  C      2.892200    2.197510    2.692310
  N      3.407790    2.288350    1.461820
  C      4.268530    1.390380    1.056350
  C      4.654900    0.332950    1.901260
  N      4.178390    0.199410    3.107420
  C      1.961760    3.198910    3.096810
  C      1.428240    3.069330    4.415050
  C      1.838030    1.974810    5.256160
  N      1.339380    1.844650    6.509860
  C      0.483040    2.730240    6.930870
  C      0.074430    3.800330    6.117690
  N      0.538510    3.956050    4.900420
  C      1.661250    4.218630    2.161280
  S      2.416530    4.222090    0.578340
  C      1.600430    5.705440    0.058340
  C      0.761670    6.169970    1.087080
  C      0.814920    5.330620    2.237110
  N     -0.009620    5.836280    3.176760
  C     -0.597320    6.970210    2.676250
  C     -1.505790    7.737590    3.412060
  N     -2.250340    8.381240    4.004640
  C     -0.145140    7.205080    1.388320
  C      1.888620    6.184470   -1.204720
  C      1.581800    7.284130   -2.042030
  C      2.445040    6.744680   -3.113500
  C      3.041800    6.714210   -4.314490
  S      4.038710    5.272970   -4.428800
  C      3.610860    4.735320   -2.806560
  C      2.769690    5.620300   -2.263560
  C      0.807970    8.438050   -1.903150
  C      0.678990    9.418360   -2.835350
  C     -0.102510   10.607610   -2.619440
  C     -1.082480   10.693580   -1.630180
  C     -1.749710   11.892780   -1.383950
  C     -1.375950   12.989570   -2.177720
  N     -0.495280   12.909670   -3.155830
  C      0.113460   11.764850   -3.385520
  C     -2.718630   11.968320   -0.319930
  S     -2.568520   10.879350    1.020910
  C     -3.937990   11.533580    1.845050
  C     -4.484590   12.586240    1.113490
  C     -3.808740   12.816800   -0.131470
  C     -4.328480   13.781010   -1.018930
  C     -5.397860   14.563530   -0.664880
  C     -5.936830   15.542090   -1.607280
  C     -5.218210   16.209480   -2.500470
  C     -5.990190   14.418240    0.630170
  C     -7.093670   15.339220    1.055160
  C     -5.545030   13.446580    1.477520
  C     -4.315520   10.917440    3.087150
  C     -5.525670   10.929990    3.644070
  H      3.037710    0.213900    5.478660
  H      4.659270    1.502950    0.055490
  H      5.366890   -0.412800    1.574510
  H      0.099480    2.605850    7.934250
  H     -0.639000    4.537350    6.462600
  H     -0.108690    5.371900    4.080760
  H     -0.459870    8.028030    0.780890
  H      3.010140    7.379370   -5.154080
  H      4.032570    3.823980   -2.434540
  H      0.306250    8.546830   -0.954960
  H      1.225120    9.345270   -3.766060
  H     -1.358420    9.822910   -1.053450
  H     -1.783950   13.973660   -2.000480
  H      0.832060   11.766060   -4.194610
  H     -3.906520   13.872860   -2.006710
  H     -7.001960   15.721230   -1.545890
  H     -4.149990   16.096090   -2.579870
  H     -5.672290   16.910960   -3.179310
  H     -6.810690   16.378230    0.893490
  H     -7.321430   15.199260    2.109160
  H     -8.000960   15.143620    0.482700
  H     -5.987060   13.345360    2.455930
  H     -3.527630   10.344390    3.560450
  H     -6.374690   11.410340    3.190700
  H     -5.703380   10.420310    4.574680

 Total Charge           Charge          ....    0
 Multiplicity           Mult            ....    1
 Number of Electrons    NEL             ....  380
 Basis Dimension        Dim             ....  879

ORBITAL ENERGIES
----------------

  NO   OCC          E(Eh)            E(eV)
   0   2.0000     -88.958725     -2420.6900
   1   2.0000     -88.954745     -2420.5817
   2   2.0000     -88.936294     -2420.0796
   3   2.0000     -14.455909      -393.3653
   4   2.0000     -14.448500      -393.1637
   5   2.0000     -14.440411      -392.9436
   6   2.0000     -14.431287      -392.6953
   7   2.0000     -14.429942      -392.6587
   8   2.0000     -14.415468      -392.2648
   9   2.0000     -14.398148      -391.7935
  10   2.0000     -10.337341      -281.2934
  11   2.0000     -10.336422      -281.2683
  12   2.0000     -10.334552      -281.2174
  13   2.0000     -10.332165      -281.1525
  14   2.0000     -10.329581      -281.0822
  15   2.0000     -10.328419      -281.0506
  16   2.0000     -10.327442      -281.0240
  17   2.0000     -10.326614      -281.0014
  18   2.0000     -10.324977      -280.9569
  19   2.0000     -10.318164      -280.7715
  20   2.0000     -10.316846      -280.7356
  21   2.0000     -10.315371      -280.6955
  22   2.0000     -10.309452      -280.5345
  23   2.0000     -10.304186      -280.3912
  24   2.0000     -10.303202      -280.3644
  25   2.0000     -10.301793      -280.3261
  26   2.0000     -10.299470      -280.2628
  27   2.0000     -10.299371      -280.2601
  28   2.0000     -10.293665      -280.1049
  29   2.0000     -10.292195      -280.0649
  30   2.0000     -10.291254      -280.0393
  31   2.0000     -10.290154      -280.0093
  32   2.0000     -10.290117      -280.0083
  33   2.0000     -10.290103      -280.0079
  34   2.0000     -10.285693      -279.8879
  35   2.0000     -10.284893      -279.8662
  36   2.0000     -10.284104      -279.8447
  37   2.0000     -10.282833      -279.8101
  38   2.0000     -10.281343      -279.7696
  39   2.0000     -10.276071      -279.6261
  40   2.0000     -10.272159      -279.5196
  41   2.0000     -10.271670      -279.5064
  42   2.0000     -10.271322      -279.4969
  43   2.0000     -10.268019      -279.4070
  44   2.0000     -10.267790      -279.4008
  45   2.0000     -10.267650      -279.3970
  46   2.0000     -10.264952      -279.3235
  47   2.0000     -10.263509      -279.2843
  48   2.0000     -10.262404      -279.2542
  49   2.0000     -10.257934      -279.1326
  50   2.0000     -10.257162      -279.1116
  51   2.0000     -10.256811      -279.1020
  52   2.0000     -10.252152      -278.9752
  53   2.0000      -8.049938      -219.0500
  54   2.0000      -8.049782      -219.0457
  55   2.0000      -8.032123      -218.5652
  56   2.0000      -6.019954      -163.8113
  57   2.0000      -6.018639      -163.7755
  58   2.0000      -6.014814      -163.6714
  59   2.0000      -6.014637      -163.6666
  60   2.0000      -6.012795      -163.6165
  61   2.0000      -6.011990      -163.5946
  62   2.0000      -6.002169      -163.3273
  63   2.0000      -5.997429      -163.1983
  64   2.0000      -5.993288      -163.0857
  65   2.0000      -1.098416       -29.8894
  66   2.0000      -1.091503       -29.7013
  67   2.0000      -1.088152       -29.6101
  68   2.0000      -1.033418       -28.1207
  69   2.0000      -1.019577       -27.7441
  70   2.0000      -1.013935       -27.5906
  71   2.0000      -1.003719       -27.3126
  72   2.0000      -0.996610       -27.1191
  73   2.0000      -0.984947       -26.8018
  74   2.0000      -0.970753       -26.4155
  75   2.0000      -0.949833       -25.8463
  76   2.0000      -0.933749       -25.4086
  77   2.0000      -0.928512       -25.2661
  78   2.0000      -0.913882       -24.8680
  79   2.0000      -0.897191       -24.4138
  80   2.0000      -0.893617       -24.3166
  81   2.0000      -0.876065       -23.8389
  82   2.0000      -0.866955       -23.5910
  83   2.0000      -0.864138       -23.5144
  84   2.0000      -0.861914       -23.4539
  85   2.0000      -0.847035       -23.0490
  86   2.0000      -0.840840       -22.8804
  87   2.0000      -0.837999       -22.8031
  88   2.0000      -0.819116       -22.2893
  89   2.0000      -0.808206       -21.9924
  90   2.0000      -0.805644       -21.9227
  91   2.0000      -0.800674       -21.7874
  92   2.0000      -0.780134       -21.2285
  93   2.0000      -0.772398       -21.0180
  94   2.0000      -0.766366       -20.8539
  95   2.0000      -0.755034       -20.5455
  96   2.0000      -0.744470       -20.2581
  97   2.0000      -0.736665       -20.0457
  98   2.0000      -0.733392       -19.9566
  99   2.0000      -0.724211       -19.7068
 100   2.0000      -0.718604       -19.5542
 101   2.0000      -0.707381       -19.2488
 102   2.0000      -0.696528       -18.9535
 103   2.0000      -0.692946       -18.8560
 104   2.0000      -0.685651       -18.6575
 105   2.0000      -0.678655       -18.4671
 106   2.0000      -0.669689       -18.2232
 107   2.0000      -0.653933       -17.7944
 108   2.0000      -0.648304       -17.6412
 109   2.0000      -0.638733       -17.3808
 110   2.0000      -0.634061       -17.2537
 111   2.0000      -0.627079       -17.0637
 112   2.0000      -0.624982       -17.0066
 113   2.0000      -0.614968       -16.7341
 114   2.0000      -0.613431       -16.6923
 115   2.0000      -0.602519       -16.3954
 116   2.0000      -0.599968       -16.3260
 117   2.0000      -0.590338       -16.0639
 118   2.0000      -0.587723       -15.9928
 119   2.0000      -0.582933       -15.8624
 120   2.0000      -0.577523       -15.7152
 121   2.0000      -0.569896       -15.5077
 122   2.0000      -0.563669       -15.3382
 123   2.0000      -0.555933       -15.1277
 124   2.0000      -0.555142       -15.1062
 125   2.0000      -0.551058       -14.9950
 126   2.0000      -0.542563       -14.7639
 127   2.0000      -0.538544       -14.6545
 128   2.0000      -0.536263       -14.5925
 129   2.0000      -0.535818       -14.5803
 130   2.0000      -0.531090       -14.4517
 131   2.0000      -0.526602       -14.3296
 132   2.0000      -0.525139       -14.2898
 133   2.0000      -0.520362       -14.1598
 134   2.0000      -0.519750       -14.1431
 135   2.0000      -0.511573       -13.9206
 136   2.0000      -0.505946       -13.7675
 137   2.0000      -0.503335       -13.6964
 138   2.0000      -0.499470       -13.5913
 139   2.0000      -0.497537       -13.5387
 140   2.0000      -0.494196       -13.4478
 141   2.0000      -0.490884       -13.3576
 142   2.0000      -0.484426       -13.1819
 143   2.0000      -0.482670       -13.1341
 144   2.0000      -0.478895       -13.0314
 145   2.0000      -0.473785       -12.8924
 146   2.0000      -0.472958       -12.8698
 147   2.0000      -0.468542       -12.7497
 148   2.0000      -0.468421       -12.7464
 149   2.0000      -0.464054       -12.6276
 150   2.0000      -0.462253       -12.5785
 151   2.0000      -0.458077       -12.4649
 152   2.0000      -0.451671       -12.2906
 153   2.0000      -0.448453       -12.2030
 154   2.0000      -0.447483       -12.1766
 155   2.0000      -0.444592       -12.0980
 156   2.0000      -0.443370       -12.0647
 157   2.0000      -0.436258       -11.8712
 158   2.0000      -0.430077       -11.7030
 159   2.0000      -0.428281       -11.6541
 160   2.0000      -0.427714       -11.6387
 161   2.0000      -0.427165       -11.6238
 162   2.0000      -0.422228       -11.4894
 163   2.0000      -0.421134       -11.4596
 164   2.0000      -0.412268       -11.2184
 165   2.0000      -0.410366       -11.1666
 166   2.0000      -0.407884       -11.0991
 167   2.0000      -0.403327       -10.9751
 168   2.0000      -0.400808       -10.9065
 169   2.0000      -0.392727       -10.6867
 170   2.0000      -0.386352       -10.5132
 171   2.0000      -0.382909       -10.4195
 172   2.0000      -0.381206       -10.3731
 173   2.0000      -0.367234        -9.9930
 174   2.0000      -0.361904        -9.8479
 175   2.0000      -0.352067        -9.5802
 176   2.0000      -0.340610        -9.2685
 177   2.0000      -0.338574        -9.2131
 178   2.0000      -0.336635        -9.1603
 179   2.0000      -0.327651        -8.9158
 180   2.0000      -0.321860        -8.7583
 181   2.0000      -0.317453        -8.6383
 182   2.0000      -0.316912        -8.6236
 183   2.0000      -0.314963        -8.5706
 184   2.0000      -0.302837        -8.2406
 185   2.0000      -0.295191        -8.0326
 186   2.0000      -0.286458        -7.7949
 187   2.0000      -0.271286        -7.3821
 188   2.0000      -0.231566        -6.3012
 189   2.0000      -0.213774        -5.8171
 190   0.0000      -0.105610        -2.8738
 191   0.0000      -0.058865        -1.6018
 192   0.0000      -0.040291        -1.0964
 193   0.0000      -0.017872        -0.4863
 194   0.0000      -0.014556        -0.3961

MULLIKEN ATOMIC CHARGES
-----------------------
   0 C :   -0.104755
   1 C :    0.049788
   2 C :   -0.036177
   3 N :   -0.095142
   4 C :    0.056518
   5 C :    0.021803
   6 N :   -0.016081
   7 C :    0.174585
   8 C :   -0.036045
   9 C :    0.026748
  10 N :   -0.018275
  11 C :    0.036166
  12 C :    0.044841
  13 N :   -0.114080
  14 C :   -0.249237
  15 S :    0.182970
  16 C :   -0.131229
  17 C :    0.132828
  18 C :    0.075808
  19 N :    0.015525
  20 C :   -0.109304
  21 C :   -0.122242
  22 N :    0.152934
  23 C :   -0.052231
  24 C :    0.097425
  25 C :    0.015836
  26 C :    0.159445
  27 C :   -0.236902
  28 S :    0.050127
  29 C :   -0.222586
  30 C :    0.139008
  31 C :    0.019532
  32 C :    0.012138
  33 C :    0.072075
  34 C :   -0.048498
  35 C :    0.078728
  36 C :   -0.029266
  37 N :   -0.049597
  38 C :   -0.018972
  39 C :   -0.137048
  40 S :    0.136845
  41 C :   -0.140375
  42 C :    0.115398
  43 C :    0.140681
  44 C :   -0.123474
  45 C :    0.083028
  46 C :   -0.035780
  47 C :   -0.013674
  48 C :   -0.079010
  49 C :    0.099422
  50 C :   -0.098242
  51 C :    0.018849
  52 C :   -0.028523
  53 H :   -0.037353
  54 H :    0.010939
  55 H :    0.019402
  56 H :    0.019809
  57 H :    0.019184
  58 H :    0.129144
  59 H :   -0.041100
  60 H :    0.023968
  61 H :    0.015709
  62 H :   -0.067622
  63 H :   -0.012497
  64 H :   -0.006475
  65 H :    0.000442
  66 H :   -0.006467
  67 H :   -0.030143
  68 H :   -0.005033
  69 H :    0.020754
  70 H :    0.021297
  71 H :    0.028172
  72 H :    0.008188
  73 H :    0.027744
  74 H :   -0.043239
  75 H :    0.002251
  76 H :    0.016466
  77 H :    0.024151
Sum of atomic charges:    0.0000000

LOEWDIN ATOMIC CHARGES
----------------------
   0 C :   -0.031249
   1 C :   -0.006631
   2 C :   -0.019780
   3 N :   -0.049667
   4 C :    0.013367
   5 C :    0.011856
   6 N :   -0.034626
   7 C :   -0.023775
   8 C :   -0.012023
   9 C :   -0.003965
  10 N :   -0.031474
  11 C :    0.010605
  12 C :    0.004328
  13 N :   -0.032451
  14 C :   -0.201582
  15 S :    0.497591
  16 C :   -0.167836
  17 C :   -0.070142
  18 C :    0.007626
  19 N :    0.088938
  20 C :   -0.042721
  21 C :   -0.028144
  22 N :   -0.055396
  23 C :   -0.036144
  24 C :   -0.020718
  25 C :    0.017425
  26 C :   -0.049541
  27 C :   -0.177344
  28 S :    0.365400
  29 C :   -0.179366
  30 C :   -0.046338
  31 C :   -0.035765
  32 C :    0.011614
  33 C :   -0.048472
  34 C :    0.001266
  35 C :   -0.050886
  36 C :    0.019309
  37 N :   -0.061804
  38 C :    0.017335
  39 C :   -0.188489
  40 S :    0.480616
  41 C :   -0.174856
  42 C :   -0.044909
  43 C :   -0.040990
  44 C :   -0.012589
  45 C :   -0.026911
  46 C :   -0.021289
  47 C :   -0.038395
  48 C :   -0.021202
  49 C :   -0.045337
  50 C :   -0.024797
  51 C :   -0.042894
  52 C :   -0.047028
  53 H :    0.040983
  54 H :    0.026948
  55 H :    0.029118
  56 H :    0.030181
  57 H :    0.027120
  58 H :    0.062184
  59 H :    0.025029
  60 H :    0.022486
  61 H :    0.019951
  62 H :    0.028302
  63 H :    0.032734
  64 H :    0.018644
  65 H :    0.021132
  66 H :    0.019243
  67 H :    0.026676
  68 H :    0.027873
  69 H :    0.021595
  70 H :    0.024458
  71 H :    0.034043
  72 H :    0.029749
  73 H :    0.033389
  74 H :    0.025088
  75 H :    0.028997
  76 H :    0.018092
  77 H :    0.026239

  Mayer bond orders larger than 0.100000
B(  0-C ,  1-C ) :   1.2239 B(  0-C ,  7-C ) :   0.1136 B(  0-C ,  9-C ) :   1.2446
B(  0-C , 53-H ) :   1.0616 B(  1-C ,  2-C ) :   1.1812 B(  1-C ,  6-N ) :   1.3893
B(  2-C ,  3-N ) :   1.3992 B(  2-C ,  7-C ) :   1.2107 B(  3-N ,  4-C ) :   1.6085
B(  4-C ,  5-C ) :   1.2168 B(  4-C , 54-H ) :   0.9714 B(  5-C ,  6-N ) :   1.6944
B(  5-C , 55-H ) :   0.9757 B(  7-C ,  8-C ) :   1.2014 B(  7-C , 14-C ) :   1.2382
B(  8-C ,  9-C ) :   1.1575 B(  8-C , 13-N ) :   1.4279 B(  9-C , 10-N ) :   1.3836
B( 10-N , 11-C ) :   1.7016 B( 11-C , 12-C ) :   1.2227 B( 11-C , 56-H ) :   0.9762
B( 12-C , 13-N ) :   1.5811 B( 12-C , 57-H ) :   0.9675 B( 13-N , 58-H ) :   0.1330
B( 14-C , 15-S ) :   1.1011 B( 14-C , 16-C ) :   0.1006 B( 14-C , 18-C ) :   1.3125
B( 15-S , 16-C ) :   1.0658 B( 16-C , 17-C ) :   1.2399 B( 16-C , 24-C ) :   1.2650
B( 17-C , 18-C ) :   1.2428 B( 17-C , 23-C ) :   1.1877 B( 18-C , 19-N ) :   1.2775
B( 19-N , 20-C ) :   1.2141 B( 19-N , 58-H ) :   0.8584 B( 20-C , 21-C ) :   1.0656
B( 20-C , 23-C ) :   1.5558 B( 21-C , 22-N ) :   2.9884 B( 23-C , 59-H ) :   1.0109
B( 24-C , 25-C ) :   1.3695 B( 24-C , 30-C ) :   0.8944 B( 25-C , 26-C ) :   0.8826
B( 25-C , 31-C ) :   1.2118 B( 26-C , 27-C ) :   1.6282 B( 26-C , 30-C ) :   1.1371
B( 27-C , 28-S ) :   1.0887 B( 27-C , 60-H ) :   0.9782 B( 28-S , 29-C ) :   1.0778
B( 29-C , 30-C ) :   1.6656 B( 29-C , 61-H ) :   0.9760 B( 31-C , 32-C ) :   1.6206
B( 31-C , 62-H ) :   0.9470 B( 32-C , 33-C ) :   1.0530 B( 32-C , 63-H ) :   0.9880
B( 33-C , 34-C ) :   1.3639 B( 33-C , 38-C ) :   1.2999 B( 34-C , 35-C ) :   1.3804
B( 34-C , 64-H ) :   0.9736 B( 35-C , 36-C ) :   1.3173 B( 35-C , 39-C ) :   1.0295
B( 36-C , 37-N ) :   1.5616 B( 36-C , 65-H ) :   0.9859 B( 37-N , 38-C ) :   1.5661
B( 38-C , 66-H ) :   0.9893 B( 39-C , 40-S ) :   1.1596 B( 39-C , 41-C ) :   0.1192
B( 39-C , 43-C ) :   1.3827 B( 40-S , 41-C ) :   1.1638 B( 41-C , 42-C ) :   1.3870
B( 41-C , 51-C ) :   1.0927 B( 42-C , 43-C ) :   1.1968 B( 42-C , 50-C ) :   1.1668
B( 43-C , 44-C ) :   1.1686 B( 44-C , 45-C ) :   1.5407 B( 44-C , 67-H ) :   0.9894
B( 45-C , 46-C ) :   1.0288 B( 45-C , 48-C ) :   1.1812 B( 46-C , 47-C ) :   1.9781
B( 46-C , 68-H ) :   0.9504 B( 47-C , 69-H ) :   0.9579 B( 47-C , 70-H ) :   0.9502
B( 48-C , 49-C ) :   1.0866 B( 48-C , 50-C ) :   1.5777 B( 49-C , 71-H ) :   0.9446
B( 49-C , 72-H ) :   0.9545 B( 49-C , 73-H ) :   0.9404 B( 50-C , 74-H ) :   0.9894
B( 51-C , 52-C ) :   1.9407 B( 51-C , 75-H ) :   0.9346 B( 52-C , 76-H ) :   0.9571
B( 52-C , 77-H ) :   0.9463

-----------------------------------------------------------------------------
         ABSORPTION SPECTRUM VIA TRANSITION ELECTRIC DIPOLE MOMENTS
-----------------------------------------------------------------------------
State   Energy  Wavelength   fosc         T2         TX        TY        TZ
        (cm-1)    (nm)                  (au**2)     (au)      (au)      (au)
-----------------------------------------------------------------------------
   0    9393.2   1064.6   0.586934700  20.57081   0.76744  -3.21915   3.10144
   1   15896.1    629.1   0.001428597   0.02959  -0.03681   0.15094   0.07381
   2   18136.8    551.4   0.045960202   0.83425   0.17645  -0.71753   0.53690
   3   19437.9    514.5   0.078202533   1.32448   0.44335  -0.93640   0.50108
   4   23501.3    425.5   0.041492174   0.58123   0.35086  -0.66349   0.13386
   5   23705.8    421.8   0.005173547   0.07185  -0.19501   0.15882  -0.09270
   6   24510.7    408.0   0.446240011   5.99360  -1.70999   0.42388   1.69996
   7   25150.4    397.6   0.101517994   1.32884   0.81170  -0.27569  -0.77071
   8   25794.3    387.7   0.005102718   0.06513   0.12030  -0.21353   0.07112
   9   26008.9    384.5   0.003204456   0.04056   0.04531  -0.19559  -0.01584
  10   26368.5    379.2   0.127458973   1.59133   0.52097   0.19455  -1.13228
  11   26655.4    375.2   0.000322062   0.00398   0.02111   0.04435  -0.03957
  12   27991.9    357.2   0.004022915   0.04731   0.16220   0.11707   0.08543
  13   28367.0    352.5   0.158385439   1.83813   0.19197  -1.07772   0.79987
  14   28807.6    347.1   0.007030561   0.08035  -0.15452  -0.00081   0.23763
  15   29112.2    343.5   0.286484199   3.23967  -1.06388   1.26993   0.70363
  16   30200.8    331.1   0.070439785   0.76785  -0.36271   0.09776   0.79166
  17   31648.1    316.0   0.162890310   1.69443   0.46852  -1.16896   0.32933
  18   32077.2    311.7   0.000310338   0.00319   0.04574  -0.03305   0.00065
  19   32506.0    307.6   0.013479166   0.13651  -0.25479   0.24039   0.11750
  20   32956.0    303.4   0.033072561   0.33038  -0.49885   0.25776   0.12282
  21   33376.1    299.6   0.160758951   1.58568   0.55455  -0.11600  -1.12459
  22   33518.6    298.3   0.256585747   2.52013   0.97869  -0.59817  -1.09749
  23   33644.9    297.2   0.013116448   0.12834   0.34843   0.05385  -0.06358
  24   33901.4    295.0   0.240699707   2.33740  -0.95294   0.87861   0.81077
  25   34983.9    285.8   0.001311198   0.01234  -0.00747   0.09583  -0.05567
  26   35425.2    282.3   0.050286275   0.46732  -0.57764   0.31604   0.18377
  27   36096.2    277.0   0.166177067   1.51560   0.46720  -1.00955   0.52738
  28   36411.8    274.6   0.083448133   0.75448  -0.32742   0.71562  -0.36766
  29   36885.8    271.1   0.001152910   0.01029  -0.05775  -0.08173  -0.01660
  30   38014.6    263.1   0.000756796   0.00655  -0.07197   0.01668  -0.03311
  31   38072.0    262.7   0.058885855   0.50919  -0.44276   0.46508   0.31123
  32   38193.7    261.8   0.379696216   3.27281  -0.80451   1.38813  -0.83585
  33   38421.4    260.3   0.012324732   0.10560   0.20078  -0.25521  -0.01269
  34   38482.4    259.9   0.581433940   4.97410   0.90603  -1.85891   0.83525
  35   38680.8    258.5   0.079656912   0.67796   0.33328  -0.65969   0.36289
  36   38774.0    257.9   0.089425837   0.75927   0.39168  -0.74008   0.24111
  37   38811.8    257.7   0.019161023   0.16253  -0.11821  -0.18145   0.34005
  38   39106.7    255.7   0.155783086   1.31143   0.71580  -0.78865  -0.42083
  39   39306.4    254.4   0.071631990   0.59996   0.17526  -0.64378   0.39343
  40   39614.8    252.4   0.054697507   0.45455  -0.36575   0.32678   0.46259
  41   39711.5    251.8   0.062802712   0.52064  -0.49892   0.46136   0.24261

FINAL SINGLE POINT ENERGY     -3228.339870079109

DIPOLE MOMENT
-------------
                                X             Y             Z
Electronic contribution:     39.36749     -48.66007       3.54783
Nuclear contribution   :    -39.20316      47.53238      -3.07147
                        -----------------------------------------
Total Dipole Moment    :      0.16433      -1.12770       0.47636
                        -----------------------------------------
Magnitude (a.u.)       :      1.23516
Magnitude (Debye)      :      3.13953

Rotational constants in cm-1:     0.002437     0.000765     0.000586
Rotational constants in MHz :    73.073880    22.948147    17.575811

                             ****ORCA TERMINATED NORMALLY****
TOTAL RUN TIME: 0 days 0 hours 6 minutes 17 seconds 686 msec
