                         Program Version 4.2.0 -  RELEASE  -
|  1> # ORCA input file
|  2> # SCF done       -137.406977995851          0.000657277345
|  3> ! CAM-B3LYP def2-SVP def2/J RIJCOSX Grid4 TightSCF
|  4> %maxcore 5000
|  5> %tddft
|  6>     Mode sTDDFT
|  7>     Ethresh 5.0
|  8>     maxcore 5000
|  9> end
| 10>
| 11> %pal
| 12>   nprocs 6
| 13>   end
| 14> * xyz 0 1
| 15>    C        2.02619        -5.85534        -4.07741
| 16>    C        1.31690        -6.59529        -4.97003
| 17>    S        1.69133        -8.27575        -4.82619
| 18>    C        2.82991        -7.97676        -3.53338
| 19>   Cl        3.68506        -9.24264        -2.79959
| 20>    C        2.89221        -6.64491        -3.25376
| 21>    C        3.60960        -5.77106        -2.32469
| 22>    O        4.42777        -6.10544        -1.48351
| 23>    C        3.13547        -4.40964        -2.62058
| 24>    C        2.16892        -4.46005        -3.70272
| 25>    C        1.49323        -3.42865        -4.30305
| 26>    C        0.58255        -3.66594        -5.35363
| 27>    N       -0.16192        -3.83794        -6.20979
| 28>    C        1.60455        -2.06214        -3.98334
| 29>    N        1.64746        -0.93279        -3.77670
| 30>    C        3.53429        -3.26431        -1.97331
| 31>    C        4.44238        -3.08922        -0.92393
| 32>    C        4.73541        -1.83974        -0.36588
| 33>    C        5.65150        -1.87720         0.66307
| 34>    C        6.09656        -3.16838         0.93195
| 35>    S        5.35886        -4.33701        -0.11859
| 36>    C        7.02076        -3.58344         1.91077
| 37>    S        7.80966        -2.47662         3.00993
| 38>    C        8.70820        -3.72713         3.81866
| 39>    C        8.41015        -4.96556         3.25308
| 40>    C        7.45781        -4.86994         2.19082
| 41>    N        7.20808        -6.11414         1.71200
| 42>    C        7.96528        -7.00683         2.43782
| 43>    C        7.95771        -8.38997         2.20532
| 44>    N        7.99568        -9.52473         2.04273
| 45>    C        8.71555        -6.34418         3.38463
| 46>    C        9.53258        -3.42721         4.95345
| 47>    C       10.37797        -4.38795         5.50783
| 48>    C       11.04655        -4.12712         6.70096
| 49>    C       10.91594        -2.84167         7.24348
| 50>    N       10.18663        -1.90063         6.68022
| 51>    C        9.50453        -2.17525         5.59219
| 52>    C       11.83878        -5.15187         7.34362
| 53>    C       11.55460        -6.47098         7.37513
| 54>    C       12.63224        -7.45585         7.73127
| 55>    O       13.66884        -7.21018         8.29437
| 56>    C       12.15162        -8.72616         7.17515
| 57>    C       12.63010        -9.99273         7.01065
| 58>    S       11.44613       -10.99578         6.20476
| 59>    C       10.31294        -9.69904         6.11125
| 60>    C       10.82154        -8.56342         6.66152
| 61>    C       10.37811        -7.20904         6.92420
| 62>    C        9.07197        -6.80427         6.92987
| 63>    C        8.03593        -7.64396         6.46800
| 64>    N        7.18877        -8.29824         6.05598
| 65>    C        8.61262        -5.56219         7.41345
| 66>    N        8.17124        -4.59268         7.83951
| 67>   Cl       14.13630       -10.60866         7.47792
| 68>    H        0.60075        -6.27921        -5.70220
| 69>    H        3.08610        -2.33622        -2.30790
| 70>    H        4.26976        -0.93945        -0.72683
| 71>    H        5.99489        -1.01679         1.20980
| 72>    H        6.56581        -6.35588         0.97399
| 73>    H        9.38602        -6.82640         4.06630
| 74>    H       10.53900        -5.32598         5.00160
| 75>    H       11.40507        -2.57644         8.16987
| 76>    H        8.90360        -1.36936         5.19138
| 77>    H       12.77114        -4.84719         7.80568
| 78>    H        9.36098        -9.86300         5.64521
| 79> *
| 80>
| 81>                          ****END OF INPUT****

CARTESIAN COORDINATES (ANGSTROEM)
---------------------------------
  C      2.026190   -5.855340   -4.077410
  C      1.316900   -6.595290   -4.970030
  S      1.691330   -8.275750   -4.826190
  C      2.829910   -7.976760   -3.533380
  Cl     3.685060   -9.242640   -2.799590
  C      2.892210   -6.644910   -3.253760
  C      3.609600   -5.771060   -2.324690
  O      4.427770   -6.105440   -1.483510
  C      3.135470   -4.409640   -2.620580
  C      2.168920   -4.460050   -3.702720
  C      1.493230   -3.428650   -4.303050
  C      0.582550   -3.665940   -5.353630
  N     -0.161920   -3.837940   -6.209790
  C      1.604550   -2.062140   -3.983340
  N      1.647460   -0.932790   -3.776700
  C      3.534290   -3.264310   -1.973310
  C      4.442380   -3.089220   -0.923930
  C      4.735410   -1.839740   -0.365880
  C      5.651500   -1.877200    0.663070
  C      6.096560   -3.168380    0.931950
  S      5.358860   -4.337010   -0.118590
  C      7.020760   -3.583440    1.910770
  S      7.809660   -2.476620    3.009930
  C      8.708200   -3.727130    3.818660
  C      8.410150   -4.965560    3.253080
  C      7.457810   -4.869940    2.190820
  N      7.208080   -6.114140    1.712000
  C      7.965280   -7.006830    2.437820
  C      7.957710   -8.389970    2.205320
  N      7.995680   -9.524730    2.042730
  C      8.715550   -6.344180    3.384630
  C      9.532580   -3.427210    4.953450
  C     10.377970   -4.387950    5.507830
  C     11.046550   -4.127120    6.700960
  C     10.915940   -2.841670    7.243480
  N     10.186630   -1.900630    6.680220
  C      9.504530   -2.175250    5.592190
  C     11.838780   -5.151870    7.343620
  C     11.554600   -6.470980    7.375130
  C     12.632240   -7.455850    7.731270
  O     13.668840   -7.210180    8.294370
  C     12.151620   -8.726160    7.175150
  C     12.630100   -9.992730    7.010650
  S     11.446130  -10.995780    6.204760
  C     10.312940   -9.699040    6.111250
  C     10.821540   -8.563420    6.661520
  C     10.378110   -7.209040    6.924200
  C      9.071970   -6.804270    6.929870
  C      8.035930   -7.643960    6.468000
  N      7.188770   -8.298240    6.055980
  C      8.612620   -5.562190    7.413450
  N      8.171240   -4.592680    7.839510
  Cl    14.136300  -10.608660    7.477920
  H      0.600750   -6.279210   -5.702200
  H      3.086100   -2.336220   -2.307900
  H      4.269760   -0.939450   -0.726830
  H      5.994890   -1.016790    1.209800
  H      6.565810   -6.355880    0.973990
  H      9.386020   -6.826400    4.066300
  H     10.539000   -5.325980    5.001600
  H     11.405070   -2.576440    8.169870
  H      8.903600   -1.369360    5.191380
  H     12.771140   -4.847190    7.805680
  H      9.360980   -9.863000    5.645210

 Total Charge           Charge          ....    0
 Multiplicity           Mult            ....    1
 Number of Electrons    NEL             ....  402
 Basis Dimension        Dim             ....  821

ORBITAL ENERGIES
----------------

  NO   OCC          E(Eh)            E(eV)
   0   2.0000    -101.625454     -2765.3692
   1   2.0000    -101.617098     -2765.1418
   2   2.0000     -89.003193     -2421.9000
   3   2.0000     -88.990886     -2421.5651
   4   2.0000     -88.987123     -2421.4627
   5   2.0000     -88.976411     -2421.1712
   6   2.0000     -19.230800      -523.2967
   7   2.0000     -19.226341      -523.1753
   8   2.0000     -14.492062      -394.3490
   9   2.0000     -14.432072      -392.7167
  10   2.0000     -14.428335      -392.6150
  11   2.0000     -14.427409      -392.5898
  12   2.0000     -14.420708      -392.4074
  13   2.0000     -14.418674      -392.3521
  14   2.0000     -14.414433      -392.2367
  15   2.0000     -10.387550      -282.6596
  16   2.0000     -10.385818      -282.6125
  17   2.0000     -10.380178      -282.4590
  18   2.0000     -10.375141      -282.3219
  19   2.0000     -10.362952      -281.9903
  20   2.0000     -10.362625      -281.9814
  21   2.0000     -10.361704      -281.9563
  22   2.0000     -10.345571      -281.5173
  23   2.0000     -10.341640      -281.4103
  24   2.0000     -10.341186      -281.3980
  25   2.0000     -10.339506      -281.3523
  26   2.0000     -10.336797      -281.2785
  27   2.0000     -10.333065      -281.1770
  28   2.0000     -10.332930      -281.1733
  29   2.0000     -10.332107      -281.1509
  30   2.0000     -10.329789      -281.0879
  31   2.0000     -10.328962      -281.0654
  32   2.0000     -10.327852      -281.0351
  33   2.0000     -10.327478      -281.0250
  34   2.0000     -10.327210      -281.0177
  35   2.0000     -10.326469      -280.9975
  36   2.0000     -10.325904      -280.9821
  37   2.0000     -10.324425      -280.9419
  38   2.0000     -10.321639      -280.8661
  39   2.0000     -10.321567      -280.8641
  40   2.0000     -10.319456      -280.8067
  41   2.0000     -10.317457      -280.7523
  42   2.0000     -10.316440      -280.7246
  43   2.0000     -10.313581      -280.6468
  44   2.0000     -10.312008      -280.6040
  45   2.0000     -10.310870      -280.5730
  46   2.0000     -10.309875      -280.5460
  47   2.0000     -10.306725      -280.4602
  48   2.0000     -10.305811      -280.4354
  49   2.0000     -10.305274      -280.4208
  50   2.0000     -10.301164      -280.3089
  51   2.0000     -10.298499      -280.2364
  52   2.0000     -10.292681      -280.0781
  53   2.0000      -9.580225      -260.6912
  54   2.0000      -9.571874      -260.4639
  55   2.0000      -8.098735      -220.3778
  56   2.0000      -8.086598      -220.0475
  57   2.0000      -8.081379      -219.9055
  58   2.0000      -8.069801      -219.5905
  59   2.0000      -7.350850      -200.0268
  60   2.0000      -7.342501      -199.7996
  61   2.0000      -7.340284      -199.7393
  62   2.0000      -7.339714      -199.7238
  63   2.0000      -7.331906      -199.5113
  64   2.0000      -7.331390      -199.4973
  65   2.0000      -6.068106      -165.1216
  66   2.0000      -6.063471      -164.9954
  67   2.0000      -6.061061      -164.9299
  68   2.0000      -6.056050      -164.7935
  69   2.0000      -6.051395      -164.6668
  70   2.0000      -6.050827      -164.6514
  71   2.0000      -6.048761      -164.5952
  72   2.0000      -6.046528      -164.5344
  73   2.0000      -6.043550      -164.4534
  74   2.0000      -6.039530      -164.3440
  75   2.0000      -6.034720      -164.2131
  76   2.0000      -6.031781      -164.1331
  77   2.0000      -1.148261       -31.2458
  78   2.0000      -1.142310       -31.0838
  79   2.0000      -1.116640       -30.3853
  80   2.0000      -1.059549       -28.8318
  81   2.0000      -1.048413       -28.5288
  82   2.0000      -1.036516       -28.2050
  83   2.0000      -1.027614       -27.9628
  84   2.0000      -1.015463       -27.6321
  85   2.0000      -1.013841       -27.5880
  86   2.0000      -1.008321       -27.4378
  87   2.0000      -1.006308       -27.3830
  88   2.0000      -0.998956       -27.1830
  89   2.0000      -0.995553       -27.0904
  90   2.0000      -0.994782       -27.0694
  91   2.0000      -0.986017       -26.8309
  92   2.0000      -0.966627       -26.3033
  93   2.0000      -0.952944       -25.9309
  94   2.0000      -0.940087       -25.5811
  95   2.0000      -0.928164       -25.2566
  96   2.0000      -0.916560       -24.9409
  97   2.0000      -0.906946       -24.6793
  98   2.0000      -0.905329       -24.6353
  99   2.0000      -0.895214       -24.3600
 100   2.0000      -0.868879       -23.6434
 101   2.0000      -0.861501       -23.4426
 102   2.0000      -0.856777       -23.3141
 103   2.0000      -0.843084       -22.9415
 104   2.0000      -0.842677       -22.9304
 105   2.0000      -0.830975       -22.6120
 106   2.0000      -0.814700       -22.1691
 107   2.0000      -0.798566       -21.7301
 108   2.0000      -0.777396       -21.1540
 109   2.0000      -0.766765       -20.8647
 110   2.0000      -0.760307       -20.6890
 111   2.0000      -0.754544       -20.5322
 112   2.0000      -0.747862       -20.3503
 113   2.0000      -0.736299       -20.0357
 114   2.0000      -0.719676       -19.5834
 115   2.0000      -0.706977       -19.2378
 116   2.0000      -0.703717       -19.1491
 117   2.0000      -0.687710       -18.7136
 118   2.0000      -0.686350       -18.6765
 119   2.0000      -0.676462       -18.4075
 120   2.0000      -0.674872       -18.3642
 121   2.0000      -0.663677       -18.0596
 122   2.0000      -0.653075       -17.7711
 123   2.0000      -0.639750       -17.4085
 124   2.0000      -0.632217       -17.2035
 125   2.0000      -0.630064       -17.1449
 126   2.0000      -0.624398       -16.9907
 127   2.0000      -0.617033       -16.7903
 128   2.0000      -0.614827       -16.7303
 129   2.0000      -0.610304       -16.6072
 130   2.0000      -0.605974       -16.4894
 131   2.0000      -0.604285       -16.4434
 132   2.0000      -0.579626       -15.7724
 133   2.0000      -0.567952       -15.4547
 134   2.0000      -0.566913       -15.4265
 135   2.0000      -0.563340       -15.3293
 136   2.0000      -0.554960       -15.1012
 137   2.0000      -0.552656       -15.0385
 138   2.0000      -0.551276       -15.0010
 139   2.0000      -0.550744       -14.9865
 140   2.0000      -0.546239       -14.8639
 141   2.0000      -0.542619       -14.7654
 142   2.0000      -0.542457       -14.7610
 143   2.0000      -0.535362       -14.5679
 144   2.0000      -0.530206       -14.4276
 145   2.0000      -0.526363       -14.3231
 146   2.0000      -0.519950       -14.1486
 147   2.0000      -0.517609       -14.0848
 148   2.0000      -0.513921       -13.9845
 149   2.0000      -0.509228       -13.8568
 150   2.0000      -0.507294       -13.8042
 151   2.0000      -0.505087       -13.7441
 152   2.0000      -0.503204       -13.6929
 153   2.0000      -0.502816       -13.6823
 154   2.0000      -0.499939       -13.6040
 155   2.0000      -0.498138       -13.5550
 156   2.0000      -0.495053       -13.4711
 157   2.0000      -0.488981       -13.3059
 158   2.0000      -0.485101       -13.2003
 159   2.0000      -0.480673       -13.0798
 160   2.0000      -0.474524       -12.9125
 161   2.0000      -0.467397       -12.7185
 162   2.0000      -0.465085       -12.6556
 163   2.0000      -0.462504       -12.5854
 164   2.0000      -0.456075       -12.4104
 165   2.0000      -0.455524       -12.3954
 166   2.0000      -0.452844       -12.3225
 167   2.0000      -0.452725       -12.3193
 168   2.0000      -0.450534       -12.2597
 169   2.0000      -0.445299       -12.1172
 170   2.0000      -0.444253       -12.0887
 171   2.0000      -0.444077       -12.0840
 172   2.0000      -0.442807       -12.0494
 173   2.0000      -0.441165       -12.0047
 174   2.0000      -0.440021       -11.9736
 175   2.0000      -0.436168       -11.8687
 176   2.0000      -0.432957       -11.7814
 177   2.0000      -0.431230       -11.7344
 178   2.0000      -0.429608       -11.6902
 179   2.0000      -0.424948       -11.5634
 180   2.0000      -0.419806       -11.4235
 181   2.0000      -0.419240       -11.4081
 182   2.0000      -0.411807       -11.2058
 183   2.0000      -0.411518       -11.1980
 184   2.0000      -0.404932       -11.0188
 185   2.0000      -0.402100       -10.9417
 186   2.0000      -0.390814       -10.6346
 187   2.0000      -0.372712       -10.1420
 188   2.0000      -0.364694        -9.9238
 189   2.0000      -0.355857        -9.6834
 190   2.0000      -0.346591        -9.4312
 191   2.0000      -0.346250        -9.4219
 192   2.0000      -0.344569        -9.3762
 193   2.0000      -0.341285        -9.2868
 194   2.0000      -0.335492        -9.1292
 195   2.0000      -0.334017        -9.0891
 196   2.0000      -0.326079        -8.8731
 197   2.0000      -0.317403        -8.6370
 198   2.0000      -0.316032        -8.5997
 199   2.0000      -0.301692        -8.2094
 200   2.0000      -0.253718        -6.9040
 201   0.0000      -0.103595        -2.8190
 202   0.0000      -0.102400        -2.7865
 203   0.0000      -0.066301        -1.8041
 204   0.0000      -0.058465        -1.5909
 205   0.0000      -0.052062        -1.4167

MULLIKEN ATOMIC CHARGES
-----------------------
   0 C :    0.028501
   1 C :   -0.131458
   2 S :    0.181084
   3 C :   -0.174724
   4 Cl:   -0.004025
   5 C :    0.086081
   6 C :    0.173327
   7 O :   -0.192743
   8 C :   -0.125956
   9 C :    0.307930
  10 C :   -0.341889
  11 C :   -0.195759
  12 N :    0.149212
  13 C :   -0.184009
  14 N :    0.145372
  15 C :    0.003063
  16 C :   -0.055493
  17 C :    0.047183
  18 C :   -0.005889
  19 C :   -0.028341
  20 S :    0.132664
  21 C :   -0.133007
  22 S :    0.161385
  23 C :   -0.121850
  24 C :    0.109562
  25 C :    0.088197
  26 N :   -0.020592
  27 C :   -0.083054
  28 C :   -0.142027
  29 N :    0.163886
  30 C :   -0.031013
  31 C :    0.093603
  32 C :   -0.031149
  33 C :    0.008604
  34 C :    0.025766
  35 N :   -0.034515
  36 C :   -0.013124
  37 C :    0.057621
  38 C :   -0.126877
  39 C :    0.137332
  40 O :   -0.119125
  41 C :    0.086331
  42 C :   -0.173477
  43 S :    0.201130
  44 C :   -0.126704
  45 C :    0.017667
  46 C :    0.237658
  47 C :   -0.350358
  48 C :   -0.199092
  49 N :    0.174875
  50 C :   -0.171795
  51 N :    0.195451
  52 Cl:    0.007084
  53 H :    0.054050
  54 H :    0.007192
  55 H :    0.011698
  56 H :   -0.006002
  57 H :    0.148896
  58 H :   -0.023006
  59 H :   -0.012285
  60 H :    0.006500
  61 H :    0.013407
  62 H :    0.034891
  63 H :    0.062132
Sum of atomic charges:    0.0000000

LOEWDIN ATOMIC CHARGES
----------------------
   0 C :   -0.057535
   1 C :   -0.147689
   2 S :    0.469672
   3 C :   -0.272945
   4 Cl:    0.188573
   5 C :   -0.115760
   6 C :    0.084992
   7 O :   -0.180303
   8 C :   -0.117008
   9 C :    0.076729
  10 C :   -0.148300
  11 C :   -0.015835
  12 N :   -0.058523
  13 C :   -0.022815
  14 N :   -0.055648
  15 C :    0.058202
  16 C :   -0.191573
  17 C :    0.002081
  18 C :   -0.072532
  19 C :   -0.155896
  20 S :    0.489327
  21 C :   -0.228693
  22 S :    0.478508
  23 C :   -0.155974
  24 C :   -0.064607
  25 C :    0.005645
  26 N :    0.080260
  27 C :   -0.015823
  28 C :   -0.039751
  29 N :   -0.033795
  30 C :   -0.039018
  31 C :   -0.053706
  32 C :    0.024693
  33 C :   -0.059898
  34 C :    0.045692
  35 N :   -0.047935
  36 C :    0.038063
  37 C :    0.081007
  38 C :   -0.075300
  39 C :    0.082006
  40 O :   -0.124347
  41 C :   -0.119878
  42 C :   -0.270546
  43 S :    0.488092
  44 C :   -0.149790
  45 C :   -0.061927
  46 C :    0.061406
  47 C :   -0.131975
  48 C :   -0.020271
  49 N :   -0.040124
  50 C :   -0.021946
  51 N :   -0.033006
  52 Cl:    0.197391
  53 H :    0.037823
  54 H :    0.052200
  55 H :    0.042105
  56 H :    0.029491
  57 H :    0.089586
  58 H :    0.028158
  59 H :    0.031021
  60 H :    0.027073
  61 H :    0.019152
  62 H :    0.050970
  63 H :    0.040755

  Mayer bond orders larger than 0.100000
B(  0-C ,  1-C ) :   1.5538 B(  0-C ,  5-C ) :   1.2247 B(  0-C ,  9-C ) :   0.9889
B(  1-C ,  2-S ) :   1.1549 B(  1-C , 53-H ) :   0.9542 B(  2-S ,  3-C ) :   1.1464
B(  3-C ,  4-Cl) :   1.1246 B(  3-C ,  5-C ) :   1.4737 B(  5-C ,  6-C ) :   0.9755
B(  6-C ,  7-O ) :   2.1070 B(  6-C ,  8-C ) :   0.9867 B(  8-C ,  9-C ) :   1.1008
B(  8-C , 15-C ) :   1.4750 B(  9-C , 10-C ) :   1.6256 B( 10-C , 11-C ) :   1.1523
B( 10-C , 13-C ) :   1.1430 B( 11-C , 12-N ) :   2.9871 B( 13-C , 14-N ) :   2.9575
B( 15-C , 16-C ) :   1.2906 B( 15-C , 54-H ) :   0.9395 B( 16-C , 17-C ) :   1.3349
B( 16-C , 20-S ) :   1.0815 B( 17-C , 18-C ) :   1.3635 B( 17-C , 55-H ) :   1.0010
B( 18-C , 19-C ) :   1.3675 B( 18-C , 56-H ) :   0.9978 B( 19-C , 20-S ) :   1.1088
B( 19-C , 21-C ) :   1.2311 B( 21-C , 22-S ) :   1.0930 B( 21-C , 23-C ) :   0.1159
B( 21-C , 25-C ) :   1.3825 B( 22-S , 23-C ) :   1.1601 B( 23-C , 24-C ) :   1.3551
B( 23-C , 31-C ) :   1.0858 B( 24-C , 25-C ) :   1.2339 B( 24-C , 30-C ) :   1.1541
B( 25-C , 26-N ) :   1.1997 B( 26-N , 27-C ) :   1.2032 B( 26-N , 57-H ) :   0.9197
B( 27-C , 28-C ) :   1.0570 B( 27-C , 30-C ) :   1.6110 B( 28-C , 29-N ) :   3.0442
B( 30-C , 58-H ) :   0.9959 B( 31-C , 32-C ) :   1.3747 B( 31-C , 36-C ) :   1.3003
B( 32-C , 33-C ) :   1.3773 B( 32-C , 59-H ) :   0.9877 B( 33-C , 34-C ) :   1.3215
B( 33-C , 37-C ) :   0.9966 B( 34-C , 35-N ) :   1.5513 B( 34-C , 60-H ) :   0.9919
B( 35-N , 36-C ) :   1.5910 B( 36-C , 61-H ) :   0.9788 B( 37-C , 38-C ) :   1.7779
B( 37-C , 62-H ) :   0.9475 B( 38-C , 39-C ) :   0.9227 B( 38-C , 46-C ) :   1.0006
B( 39-C , 40-O ) :   2.2931 B( 39-C , 41-C ) :   0.9213 B( 41-C , 42-C ) :   1.4785
B( 41-C , 45-C ) :   1.2220 B( 42-C , 43-S ) :   1.1582 B( 42-C , 52-Cl) :   1.1352
B( 43-S , 44-C ) :   1.1667 B( 44-C , 45-C ) :   1.5416 B( 44-C , 63-H ) :   0.9579
B( 45-C , 46-C ) :   1.0177 B( 46-C , 47-C ) :   1.6905 B( 47-C , 48-C ) :   1.1376
B( 47-C , 50-C ) :   1.1526 B( 48-C , 49-N ) :   2.9918 B( 50-C , 51-N ) :   3.0079

-----------------------------------------------------------------------------
         ABSORPTION SPECTRUM VIA TRANSITION ELECTRIC DIPOLE MOMENTS
-----------------------------------------------------------------------------
State   Energy  Wavelength   fosc         T2         TX        TY        TZ
        (cm-1)    (nm)                  (au**2)     (au)      (au)      (au)
-----------------------------------------------------------------------------
   0   17365.2    575.9   0.992431565  18.81471  -2.79669   0.11530  -3.31360
   1   17639.5    566.9   0.492329765   9.18851   1.96296   0.44478   2.26660
   2   25600.2    390.6   0.033563661   0.43162  -0.18735   0.15197  -0.61109
   3   27014.2    370.2   0.087834974   1.07041   0.27828  -0.82863   0.55349
   4   27585.5    362.5   0.085478343   1.02012  -0.92649  -0.40217   0.00098
   5   28341.2    352.8   0.034429734   0.39994   0.28172   0.56484  -0.03906
   6   28971.2    345.2   0.001195054   0.01358  -0.09335   0.01336   0.06846
   7   29028.1    344.5   0.022351237   0.25349  -0.37931   0.24917  -0.21800
   8   29394.7    340.2   0.018625632   0.20860  -0.02644  -0.45350   0.04730
   9   29900.2    334.4   0.002372036   0.02612   0.01461   0.15813  -0.02996
  10   30227.1    330.8   0.090699542   0.98783  -0.07949   0.96874   0.20752
  11   30782.3    324.9   0.001036817   0.01109   0.02054  -0.08612   0.05701
  12   31310.3    319.4   0.006359173   0.06686  -0.25056  -0.03439   0.05385
  13   32241.2    310.2   0.008427867   0.08606   0.07545  -0.02032   0.28276
  14   32947.7    303.5   0.042497410   0.42463  -0.22671  -0.58566  -0.17390
  15   33313.6    300.2   0.055449743   0.54797  -0.44340  -0.54032  -0.24375
  16   33489.7    298.6   0.113759687   1.11829  -0.45892   0.93560   0.17980
  17   34081.3    293.4   0.061355924   0.59267  -0.17726   0.73463   0.14688
  18   34737.6    287.9   0.016187552   0.15341  -0.37350  -0.05922  -0.10200
  19   34857.4    286.9   0.002057560   0.01943  -0.10962   0.06845   0.05227
  20   34991.4    285.8   0.006300294   0.05928   0.23110  -0.06921  -0.03283
  21   35019.0    285.6   0.029395252   0.27634   0.15471  -0.49826  -0.06435
  22   35868.0    278.8   0.009413037   0.08640   0.07525  -0.28002  -0.04818
  23   36247.2    275.9   0.021044006   0.19113  -0.18205  -0.36527  -0.15673
  24   36544.1    273.6   0.242231621   2.18217   0.72638  -1.10055   0.66584
  25   36973.1    270.5   0.065863443   0.58645   0.58691  -0.46846   0.15014
  26   37705.5    265.2   0.472593322   4.12628  -0.13297  -2.02125  -0.15215
  27   37861.5    264.1   0.048229468   0.41936   0.48846  -0.41249   0.10305
  28   38054.4    262.8   0.046240749   0.40003   0.46019   0.23221   0.36651
  29   38248.9    261.4   1.086932699   9.35535  -1.76993   2.49347  -0.07279
  30   39000.9    256.4   0.059786003   0.50466   0.13096   0.37341   0.58998
  31   39153.9    255.4   0.037778605   0.31765  -0.29802   0.47753  -0.02812
  32   39555.3    252.8   0.026880412   0.22372  -0.03430   0.34739  -0.31916

FINAL SINGLE POINT ENERGY     -4498.122663110870

DIPOLE MOMENT
-------------
                                X             Y             Z
Electronic contribution:      2.77131     -28.40474      -4.82802
Nuclear contribution   :     -0.74910      27.32419       5.27316
                        -----------------------------------------
Total Dipole Moment    :      2.02222      -1.08055       0.44513
                        -----------------------------------------
Magnitude (a.u.)       :      2.33562
Magnitude (Debye)      :      5.93666

Rotational constants in cm-1:     0.002792     0.000574     0.000490
Rotational constants in MHz :    83.703528    17.219958    14.690497

                             ****ORCA TERMINATED NORMALLY****
TOTAL RUN TIME: 0 days 0 hours 5 minutes 11 seconds 181 msec
