                         Program Version 4.2.0 -  RELEASE  -
|  1> # ORCA input file
|  2> # SCF done       -116.655592126686          0.000757299740
|  3> ! CAM-B3LYP def2-SVP def2/J RIJCOSX Grid4 TightSCF
|  4> %maxcore 5000
|  5> %tddft
|  6>     Mode sTDDFT
|  7>     Ethresh 5.0
|  8>     maxcore 5000
|  9> end
| 10>
| 11> %pal
| 12>   nprocs 6
| 13>   end
| 14> * xyz 0 1
| 15>    C        3.97579         3.78259         3.98324
| 16>    N        4.59519         3.85109         5.12501
| 17>    C        5.91776         3.95792         4.81681
| 18>    C        6.11131         3.96362         3.35108
| 19>    C        7.54092         4.06389         3.03333
| 20>    O        8.08262         4.09121         1.94290
| 21>    C        8.17303         4.12898         4.35864
| 22>    C        7.13788         4.06179         5.42136
| 23>    N        7.71654         4.12863         6.64805
| 24>    C        8.99861         4.23051         6.41974
| 25>    C        9.35621         4.23746         5.00877
| 26>    C        4.85486         3.85002         2.81149
| 27>    C        4.44887         3.79032         1.42823
| 28>    C        5.34623         4.16501         0.42951
| 29>    C        4.99018         4.05148        -0.91290
| 30>    C        3.67830         3.62571        -1.18038
| 31>    N        2.82187         3.27984        -0.24354
| 32>    C        3.18743         3.33372         1.02231
| 33>    C        5.92645         4.35684        -1.96019
| 34>    S        5.39788         4.62613        -3.59927
| 35>    C        7.00742         4.87478        -4.20777
| 36>    C        7.92468         4.74982        -3.17385
| 37>    C        7.30467         4.46816        -1.90899
| 38>    N        8.28258         4.36996        -0.97026
| 39>    C        9.49232         4.59849        -1.58797
| 40>    C       10.69931         4.57858        -0.87283
| 41>    N       11.69510         4.57072        -0.30373
| 42>    C        9.31806         4.83893        -2.93366
| 43>    C        7.22619         5.16744        -5.59759
| 44>    C        6.21234         5.67850        -6.40590
| 45>    C        6.47489         5.97843        -7.74433
| 46>    C        7.77625         5.75215        -8.21795
| 47>    N        8.72600         5.22795        -7.47020
| 48>    C        8.46822         4.93139        -6.21402
| 49>    C        5.43423         6.54306        -8.56520
| 50>    N        4.26500         6.88108        -8.04281
| 51>    C        3.54217         7.38949        -9.05769
| 52>    C        4.32426         7.36726       -10.32252
| 53>    C        3.52565         7.93369       -11.43309
| 54>    O        3.83879         8.07294       -12.59056
| 55>    C        2.25905         8.28417       -10.76320
| 56>    C        2.31583         7.93226        -9.32213
| 57>    N        1.14978         8.25648        -8.70765
| 58>    C        0.39968         8.77245        -9.64671
| 59>    C        1.02918         8.82149       -10.95402
| 60>    C        5.52011         6.82982       -10.00204
| 61>    H        2.90361         3.69793         3.95380
| 62>    H        9.69328         4.30262         7.23853
| 63>    H       10.35134         4.31423         4.61736
| 64>    H        6.30385         4.56840         0.70697
| 65>    H        3.31766         3.56117        -2.19882
| 66>    H        2.45092         2.99234         1.73561
| 67>    H        8.19068         4.16709         0.01661
| 68>    H       10.09777         5.06190        -3.63304
| 69>    H        5.22155         5.85948        -6.01613
| 70>    H        8.06643         6.00268        -9.22800
| 71>    H        9.27533         4.46323        -5.66991
| 72>    H       -0.59430         9.11754        -9.41912
| 73>    H        0.58017         9.20764       -11.84747
| 74>    H        6.36505         6.63509       -10.63136
| 75> *
| 76>
| 77>                          ****END OF INPUT****

CARTESIAN COORDINATES (ANGSTROEM)
---------------------------------
  C      3.975790    3.782590    3.983240
  N      4.595190    3.851090    5.125010
  C      5.917760    3.957920    4.816810
  C      6.111310    3.963620    3.351080
  C      7.540920    4.063890    3.033330
  O      8.082620    4.091210    1.942900
  C      8.173030    4.128980    4.358640
  C      7.137880    4.061790    5.421360
  N      7.716540    4.128630    6.648050
  C      8.998610    4.230510    6.419740
  C      9.356210    4.237460    5.008770
  C      4.854860    3.850020    2.811490
  C      4.448870    3.790320    1.428230
  C      5.346230    4.165010    0.429510
  C      4.990180    4.051480   -0.912900
  C      3.678300    3.625710   -1.180380
  N      2.821870    3.279840   -0.243540
  C      3.187430    3.333720    1.022310
  C      5.926450    4.356840   -1.960190
  S      5.397880    4.626130   -3.599270
  C      7.007420    4.874780   -4.207770
  C      7.924680    4.749820   -3.173850
  C      7.304670    4.468160   -1.908990
  N      8.282580    4.369960   -0.970260
  C      9.492320    4.598490   -1.587970
  C     10.699310    4.578580   -0.872830
  N     11.695100    4.570720   -0.303730
  C      9.318060    4.838930   -2.933660
  C      7.226190    5.167440   -5.597590
  C      6.212340    5.678500   -6.405900
  C      6.474890    5.978430   -7.744330
  C      7.776250    5.752150   -8.217950
  N      8.726000    5.227950   -7.470200
  C      8.468220    4.931390   -6.214020
  C      5.434230    6.543060   -8.565200
  N      4.265000    6.881080   -8.042810
  C      3.542170    7.389490   -9.057690
  C      4.324260    7.367260  -10.322520
  C      3.525650    7.933690  -11.433090
  O      3.838790    8.072940  -12.590560
  C      2.259050    8.284170  -10.763200
  C      2.315830    7.932260   -9.322130
  N      1.149780    8.256480   -8.707650
  C      0.399680    8.772450   -9.646710
  C      1.029180    8.821490  -10.954020
  C      5.520110    6.829820  -10.002040
  H      2.903610    3.697930    3.953800
  H      9.693280    4.302620    7.238530
  H     10.351340    4.314230    4.617360
  H      6.303850    4.568400    0.706970
  H      3.317660    3.561170   -2.198820
  H      2.450920    2.992340    1.735610
  H      8.190680    4.167090    0.016610
  H     10.097770    5.061900   -3.633040
  H      5.221550    5.859480   -6.016130
  H      8.066430    6.002680   -9.228000
  H      9.275330    4.463230   -5.669910
  H     -0.594300    9.117540   -9.419120
  H      0.580170    9.207640  -11.847470
  H      6.365050    6.635090  -10.631360

 Total Charge           Charge          ....    0
 Multiplicity           Mult            ....    1
 Number of Electrons    NEL             ....  312
 Basis Dimension        Dim             ....  718

ORBITAL ENERGIES
----------------

  NO   OCC          E(Eh)            E(eV)
   0   2.0000     -88.971340     -2421.0332
   1   2.0000     -19.243489      -523.6420
   2   2.0000     -19.212028      -522.7859
   3   2.0000     -14.466577      -393.6556
   4   2.0000     -14.432429      -392.7264
   5   2.0000     -14.427178      -392.5835
   6   2.0000     -14.415864      -392.2756
   7   2.0000     -14.414629      -392.2420
   8   2.0000     -14.413864      -392.2212
   9   2.0000     -14.413015      -392.1981
  10   2.0000     -14.409276      -392.0963
  11   2.0000     -10.402603      -283.0692
  12   2.0000     -10.373650      -282.2814
  13   2.0000     -10.352210      -281.6979
  14   2.0000     -10.351870      -281.6887
  15   2.0000     -10.348530      -281.5978
  16   2.0000     -10.347742      -281.5764
  17   2.0000     -10.347262      -281.5633
  18   2.0000     -10.346178      -281.5338
  19   2.0000     -10.335365      -281.2396
  20   2.0000     -10.329582      -281.0822
  21   2.0000     -10.329261      -281.0735
  22   2.0000     -10.325744      -280.9778
  23   2.0000     -10.324198      -280.9357
  24   2.0000     -10.322579      -280.8917
  25   2.0000     -10.321489      -280.8620
  26   2.0000     -10.318714      -280.7865
  27   2.0000     -10.317070      -280.7417
  28   2.0000     -10.316350      -280.7221
  29   2.0000     -10.313486      -280.6442
  30   2.0000     -10.313199      -280.6364
  31   2.0000     -10.311408      -280.5877
  32   2.0000     -10.311405      -280.5876
  33   2.0000     -10.310043      -280.5505
  34   2.0000     -10.307398      -280.4786
  35   2.0000     -10.307289      -280.4756
  36   2.0000     -10.307264      -280.4749
  37   2.0000     -10.302235      -280.3381
  38   2.0000     -10.301837      -280.3272
  39   2.0000     -10.300782      -280.2985
  40   2.0000     -10.299222      -280.2561
  41   2.0000     -10.298592      -280.2389
  42   2.0000     -10.293105      -280.0896
  43   2.0000     -10.292394      -280.0703
  44   2.0000     -10.289798      -279.9996
  45   2.0000     -10.287900      -279.9480
  46   2.0000      -8.065716      -219.4793
  47   2.0000      -6.035030      -164.2215
  48   2.0000      -6.030829      -164.1072
  49   2.0000      -6.028076      -164.0323
  50   2.0000      -1.155673       -31.4475
  51   2.0000      -1.127957       -30.6933
  52   2.0000      -1.098206       -29.8837
  53   2.0000      -1.095466       -29.8091
  54   2.0000      -1.082505       -29.4564
  55   2.0000      -1.080138       -29.3920
  56   2.0000      -1.063941       -28.9513
  57   2.0000      -1.051807       -28.6211
  58   2.0000      -1.050711       -28.5913
  59   2.0000      -0.996484       -27.1157
  60   2.0000      -0.985119       -26.8065
  61   2.0000      -0.957110       -26.0443
  62   2.0000      -0.942292       -25.6411
  63   2.0000      -0.936334       -25.4789
  64   2.0000      -0.924106       -25.1462
  65   2.0000      -0.909669       -24.7533
  66   2.0000      -0.889491       -24.2043
  67   2.0000      -0.881847       -23.9963
  68   2.0000      -0.881360       -23.9830
  69   2.0000      -0.868669       -23.6377
  70   2.0000      -0.859090       -23.3770
  71   2.0000      -0.854824       -23.2609
  72   2.0000      -0.845862       -23.0171
  73   2.0000      -0.806764       -21.9532
  74   2.0000      -0.792943       -21.5771
  75   2.0000      -0.784677       -21.3521
  76   2.0000      -0.781704       -21.2713
  77   2.0000      -0.764443       -20.8016
  78   2.0000      -0.754838       -20.5402
  79   2.0000      -0.743918       -20.2430
  80   2.0000      -0.736712       -20.0470
  81   2.0000      -0.729708       -19.8564
  82   2.0000      -0.721309       -19.6278
  83   2.0000      -0.711920       -19.3723
  84   2.0000      -0.694987       -18.9116
  85   2.0000      -0.690214       -18.7817
  86   2.0000      -0.670445       -18.2437
  87   2.0000      -0.659169       -17.9369
  88   2.0000      -0.656857       -17.8740
  89   2.0000      -0.650339       -17.6966
  90   2.0000      -0.643648       -17.5145
  91   2.0000      -0.636380       -17.3168
  92   2.0000      -0.618769       -16.8376
  93   2.0000      -0.617201       -16.7949
  94   2.0000      -0.609613       -16.5884
  95   2.0000      -0.608351       -16.5541
  96   2.0000      -0.599724       -16.3193
  97   2.0000      -0.597583       -16.2611
  98   2.0000      -0.583818       -15.8865
  99   2.0000      -0.576374       -15.6839
 100   2.0000      -0.573107       -15.5950
 101   2.0000      -0.569494       -15.4967
 102   2.0000      -0.566062       -15.4033
 103   2.0000      -0.558751       -15.2044
 104   2.0000      -0.554933       -15.1005
 105   2.0000      -0.548549       -14.9268
 106   2.0000      -0.546227       -14.8636
 107   2.0000      -0.544739       -14.8231
 108   2.0000      -0.535974       -14.5846
 109   2.0000      -0.534063       -14.5326
 110   2.0000      -0.528828       -14.3901
 111   2.0000      -0.527095       -14.3430
 112   2.0000      -0.519696       -14.1417
 113   2.0000      -0.514223       -13.9927
 114   2.0000      -0.513291       -13.9673
 115   2.0000      -0.506428       -13.7806
 116   2.0000      -0.502838       -13.6829
 117   2.0000      -0.500476       -13.6187
 118   2.0000      -0.498927       -13.5765
 119   2.0000      -0.496872       -13.5206
 120   2.0000      -0.494706       -13.4616
 121   2.0000      -0.490901       -13.3581
 122   2.0000      -0.484650       -13.1880
 123   2.0000      -0.483693       -13.1619
 124   2.0000      -0.481900       -13.1132
 125   2.0000      -0.475500       -12.9390
 126   2.0000      -0.471617       -12.8334
 127   2.0000      -0.468068       -12.7368
 128   2.0000      -0.466496       -12.6940
 129   2.0000      -0.463700       -12.6179
 130   2.0000      -0.452451       -12.3118
 131   2.0000      -0.443192       -12.0599
 132   2.0000      -0.426848       -11.6151
 133   2.0000      -0.425179       -11.5697
 134   2.0000      -0.418977       -11.4010
 135   2.0000      -0.407501       -11.0887
 136   2.0000      -0.401405       -10.9228
 137   2.0000      -0.386232       -10.5099
 138   2.0000      -0.379487       -10.3264
 139   2.0000      -0.373963       -10.1760
 140   2.0000      -0.365788        -9.9536
 141   2.0000      -0.362751        -9.8710
 142   2.0000      -0.358177        -9.7465
 143   2.0000      -0.357175        -9.7192
 144   2.0000      -0.356168        -9.6918
 145   2.0000      -0.353000        -9.6056
 146   2.0000      -0.348398        -9.4804
 147   2.0000      -0.346468        -9.4279
 148   2.0000      -0.339692        -9.2435
 149   2.0000      -0.337359        -9.1800
 150   2.0000      -0.335443        -9.1279
 151   2.0000      -0.330865        -9.0033
 152   2.0000      -0.315224        -8.5777
 153   2.0000      -0.311061        -8.4644
 154   2.0000      -0.305896        -8.3239
 155   2.0000      -0.253508        -6.8983
 156   0.0000      -0.124676        -3.3926
 157   0.0000      -0.112438        -3.0596
 158   0.0000      -0.073886        -2.0105
 159   0.0000      -0.059615        -1.6222
 160   0.0000      -0.042643        -1.1604

MULLIKEN ATOMIC CHARGES
-----------------------
   0 C :    0.061520
   1 N :   -0.019541
   2 C :    0.042348
   3 C :   -0.149448
   4 C :    0.255977
   5 O :   -0.179747
   6 C :   -0.024260
   7 C :    0.004080
   8 N :   -0.043059
   9 C :    0.094899
  10 C :   -0.081695
  11 C :    0.018768
  12 C :    0.044308
  13 C :   -0.047058
  14 C :    0.091571
  15 C :   -0.028237
  16 N :   -0.045520
  17 C :   -0.029805
  18 C :   -0.175394
  19 S :    0.146062
  20 C :   -0.141492
  21 C :    0.125409
  22 C :    0.117245
  23 N :   -0.034066
  24 C :   -0.090924
  25 C :   -0.135090
  26 N :    0.157175
  27 C :   -0.058677
  28 C :    0.087139
  29 C :   -0.031138
  30 C :    0.037266
  31 C :   -0.005145
  32 N :   -0.048510
  33 C :   -0.015031
  34 C :    0.045232
  35 N :   -0.050427
  36 C :    0.054880
  37 C :   -0.033618
  38 C :    0.213550
  39 O :   -0.113381
  40 C :   -0.040781
  41 C :   -0.010994
  42 N :   -0.054667
  43 C :    0.091323
  44 C :   -0.091107
  45 C :   -0.098599
  46 H :    0.020494
  47 H :    0.023609
  48 H :    0.012094
  49 H :   -0.025267
  50 H :    0.012073
  51 H :   -0.003933
  52 H :    0.126171
  53 H :   -0.010439
  54 H :    0.020154
  55 H :    0.002002
  56 H :    0.005094
  57 H :    0.011396
  58 H :   -0.002506
  59 H :   -0.002282
Sum of atomic charges:    0.0000000

LOEWDIN ATOMIC CHARGES
----------------------
   0 C :    0.094876
   1 N :   -0.072885
   2 C :    0.050043
   3 C :   -0.058355
   4 C :    0.093471
   5 O :   -0.155497
   6 C :   -0.037488
   7 C :    0.038912
   8 N :   -0.084246
   9 C :    0.087940
  10 C :   -0.015322
  11 C :   -0.018843
  12 C :   -0.050771
  13 C :    0.017142
  14 C :   -0.048004
  15 C :    0.024035
  16 N :   -0.056331
  17 C :    0.017749
  18 C :   -0.214453
  19 S :    0.474176
  20 C :   -0.175788
  21 C :   -0.061606
  22 C :    0.001893
  23 N :    0.071308
  24 C :   -0.019917
  25 C :   -0.038612
  26 N :   -0.041605
  27 C :   -0.044881
  28 C :   -0.054779
  29 C :    0.042419
  30 C :   -0.065624
  31 C :    0.035679
  32 N :   -0.060054
  33 C :    0.041485
  34 C :    0.076123
  35 N :   -0.107450
  36 C :    0.041862
  37 C :   -0.025983
  38 C :    0.063533
  39 O :   -0.127756
  40 C :   -0.039760
  41 C :    0.028624
  42 N :   -0.095845
  43 C :    0.079252
  44 C :   -0.035570
  45 C :   -0.023138
  46 H :    0.029623
  47 H :    0.029250
  48 H :    0.041569
  49 H :    0.025355
  50 H :    0.018556
  51 H :    0.019892
  52 H :    0.074789
  53 H :    0.033877
  54 H :    0.033860
  55 H :    0.023049
  56 H :    0.024992
  57 H :    0.024621
  58 H :    0.035263
  59 H :    0.035343

  Mayer bond orders larger than 0.100000
B(  0-C ,  1-N ) :   1.7123 B(  0-C , 11-C ) :   1.0446 B(  0-C , 46-H ) :   0.9893
B(  1-N ,  2-C ) :   1.2866 B(  2-C ,  3-C ) :   1.0423 B(  2-C ,  7-C ) :   1.4990
B(  3-C ,  4-C ) :   0.9253 B(  3-C , 11-C ) :   1.6020 B(  4-C ,  5-O ) :   2.0768
B(  4-C ,  6-C ) :   0.9414 B(  5-O , 52-H ) :   0.1032 B(  6-C ,  7-C ) :   1.0460
B(  6-C , 10-C ) :   1.6230 B(  7-C ,  8-N ) :   1.2891 B(  8-N ,  9-C ) :   1.6791
B(  9-C , 10-C ) :   1.0487 B(  9-C , 47-H ) :   0.9882 B( 10-C , 48-H ) :   1.0124
B( 11-C , 12-C ) :   1.0003 B( 12-C , 13-C ) :   1.3828 B( 12-C , 17-C ) :   1.3248
B( 13-C , 14-C ) :   1.3791 B( 13-C , 49-H ) :   0.9739 B( 14-C , 15-C ) :   1.2961
B( 14-C , 18-C ) :   1.0559 B( 15-C , 16-N ) :   1.5805 B( 15-C , 50-H ) :   0.9825
B( 16-N , 17-C ) :   1.5593 B( 17-C , 51-H ) :   0.9880 B( 18-C , 19-S ) :   1.1135
B( 18-C , 20-C ) :   0.1336 B( 18-C , 22-C ) :   1.4373 B( 19-S , 20-C ) :   1.1529
B( 20-C , 21-C ) :   1.3736 B( 20-C , 28-C ) :   1.0551 B( 21-C , 22-C ) :   1.2077
B( 21-C , 27-C ) :   1.1553 B( 22-C , 23-N ) :   1.1869 B( 23-N , 24-C ) :   1.2202
B( 23-N , 52-H ) :   0.8957 B( 24-C , 25-C ) :   1.0468 B( 24-C , 27-C ) :   1.5906
B( 25-C , 26-N ) :   3.0560 B( 27-C , 53-H ) :   1.0086 B( 28-C , 29-C ) :   1.3339
B( 28-C , 33-C ) :   1.3121 B( 29-C , 30-C ) :   1.3781 B( 29-C , 54-H ) :   0.9860
B( 30-C , 31-C ) :   1.3225 B( 30-C , 34-C ) :   0.9977 B( 31-C , 32-N ) :   1.5617
B( 31-C , 55-H ) :   0.9832 B( 32-N , 33-C ) :   1.5668 B( 33-C , 56-H ) :   0.9866
B( 34-C , 35-N ) :   1.6333 B( 34-C , 36-C ) :   0.1161 B( 34-C , 45-C ) :   1.0599
B( 35-N , 36-C ) :   1.3437 B( 36-C , 37-C ) :   1.0290 B( 36-C , 41-C ) :   1.4333
B( 37-C , 38-C ) :   0.8637 B( 37-C , 45-C ) :   1.6330 B( 38-C , 39-O ) :   2.3300
B( 38-C , 40-C ) :   0.8831 B( 40-C , 41-C ) :   1.0382 B( 40-C , 44-C ) :   1.6225
B( 41-C , 42-N ) :   1.3071 B( 42-N , 43-C ) :   1.6637 B( 43-C , 44-C ) :   1.0715
B( 43-C , 57-H ) :   0.9887 B( 44-C , 58-H ) :   1.0094 B( 45-C , 59-H ) :   1.0072

-----------------------------------------------------------------------------
         ABSORPTION SPECTRUM VIA TRANSITION ELECTRIC DIPOLE MOMENTS
-----------------------------------------------------------------------------
State   Energy  Wavelength   fosc         T2         TX        TY        TZ
        (cm-1)    (nm)                  (au**2)     (au)      (au)      (au)
-----------------------------------------------------------------------------
   0   13974.5    715.6   0.020166718   0.47509  -0.27823  -0.01815  -0.63035
   1   17102.4    584.7   0.019048571   0.36668  -0.54631   0.22832  -0.12686
   2   21709.2    460.6   0.134534231   2.04016  -0.67535   0.11378  -1.25345
   3   22316.2    448.1   0.001254837   0.01851  -0.03612   0.11960  -0.05387
   4   22971.6    435.3   0.013709954   0.19648  -0.36640  -0.21633   0.12424
   5   23603.5    423.7   0.001308250   0.01825  -0.00917  -0.13333  -0.01964
   6   24465.1    408.7   0.849632682  11.43297   0.92809  -1.21413   3.01621
   7   25532.8    391.7   0.108950113   1.40477  -0.40498  -0.14308   1.10467
   8   25646.2    389.9   0.201215022   2.58293   0.40880   0.31062  -1.52293
   9   26402.9    378.7   0.000015338   0.00019   0.00097   0.00938   0.01012
  10   26654.5    375.2   0.002482575   0.03066  -0.16971  -0.00659   0.04262
  11   27179.5    367.9   0.123400506   1.49469   1.11345  -0.31681  -0.39311
  12   27248.4    367.0   0.013441619   0.16240   0.37496   0.02093   0.14618
  13   28587.1    349.8   0.001461393   0.01683  -0.00994   0.12541   0.03165
  14   28619.6    349.4   0.003161267   0.03636   0.07213   0.17250  -0.03748
  15   28967.3    345.2   0.010120461   0.11502  -0.13761   0.09242  -0.29587
  16   29503.0    338.9   0.269916075   3.01189  -1.60186   0.61241  -0.26622
  17   29767.6    335.9   0.003806977   0.04210  -0.02332   0.18291   0.09001
  18   29879.1    334.7   0.403095888   4.44137  -1.93426   0.78094  -0.30026
  19   31214.2    320.4   0.000019239   0.00020  -0.00526   0.00681  -0.01135
  20   31817.0    314.3   0.030890754   0.31963  -0.18441  -0.02245  -0.53396
  21   32405.1    308.6   0.006632257   0.06738   0.24738   0.02526   0.07445
  22   32452.2    308.1   0.015693580   0.15920  -0.39294  -0.03503  -0.05980
  23   32653.4    306.2   0.180514135   1.81994   0.86197   0.10212   1.03273
  24   33951.9    294.5   0.026258277   0.25461  -0.12757   0.01935  -0.48781
  25   34080.6    293.4   0.063129250   0.60982   0.68479   0.05771   0.37088
  26   34384.0    290.8   0.210506090   2.01551   0.94248   0.10419   1.05659
  27   34457.2    290.2   0.036367069   0.34746  -0.46556   0.06874  -0.35495
  28   35211.2    284.0   0.079981658   0.74780  -0.67335   0.05785  -0.53949
  29   35608.3    280.8   0.030177516   0.27900  -0.13046   0.00522  -0.51182
  30   36056.0    277.3   0.057933068   0.52896   0.70169   0.05553   0.18304
  31   36830.9    271.5   0.003501824   0.03130  -0.09900   0.13995  -0.04376
  32   37432.1    267.2   0.026318570   0.23147  -0.39984  -0.02638  -0.26627
  33   37840.5    264.3   0.001005293   0.00875  -0.08694  -0.02233  -0.02625
  34   38083.1    262.6   0.383898909   3.31864  -1.74944  -0.24684  -0.44405
  35   38240.7    261.5   0.003017646   0.02598  -0.15016  -0.03293   0.04842
  36   38391.3    260.5   0.002945803   0.02526   0.14284   0.02201  -0.06613
  37   38440.4    260.1   0.003761803   0.03222  -0.16226   0.02927  -0.07093
  38   38674.4    258.6   0.006805751   0.05793  -0.18523   0.13689  -0.06989
  39   38966.2    256.6   0.090914803   0.76811  -0.61897   0.24307  -0.57087
  40   39105.7    255.7   0.000735573   0.00619  -0.00553   0.03469  -0.07042
  41   39446.0    253.5   0.391946222   3.27114  -1.55078   0.13752  -0.92049
  42   39478.3    253.3   0.003588633   0.02993   0.12518   0.05886   0.10388
  43   39851.9    250.9   0.064715247   0.53461  -0.00102  -0.27664   0.67681
  44   40037.3    249.8   0.016004042   0.13160   0.09634   0.06927  -0.34280
  45   40058.7    249.6   0.022191381   0.18237  -0.37884  -0.15311   0.12415

FINAL SINGLE POINT ENERGY     -2326.104531982106

DIPOLE MOMENT
-------------
                                X             Y             Z
Electronic contribution:      0.06777      -0.40710       1.52080
Nuclear contribution   :     -0.47643       0.39160      -0.58386
                        -----------------------------------------
Total Dipole Moment    :     -0.40866      -0.01550       0.93694
                        -----------------------------------------
Magnitude (a.u.)       :      1.02230
Magnitude (Debye)      :      2.59848

Rotational constants in cm-1:     0.004771     0.000783     0.000691
Rotational constants in MHz :   143.021732    23.479670    20.721782

                             ****ORCA TERMINATED NORMALLY****
TOTAL RUN TIME: 0 days 0 hours 4 minutes 4 seconds 714 msec
