                         Program Version 4.2.0 -  RELEASE  -
|  1> # ORCA input file
|  2> # SCF done       -157.240924374182          0.000680232657
|  3> ! CAM-B3LYP def2-SVP def2/J RIJCOSX Grid4 TightSCF
|  4> %maxcore 5000
|  5> %tddft
|  6>     Mode sTDDFT
|  7>     Ethresh 5.0
|  8>     maxcore 5000
|  9> end
| 10>
| 11> %pal
| 12>   nprocs 6
| 13>   end
| 14> * xyz 0 1
| 15>    C        4.05449         0.14949         4.71647
| 16>    C        3.91581         1.18169         5.59342
| 17>    S        5.20883         2.31150         5.43643
| 18>    C        5.95694         1.37953         4.16101
| 19>   Cl        7.39618         1.88326         3.42562
| 20>    C        5.22397         0.26059         3.89606
| 21>    C        5.30776        -0.87900         2.97792
| 22>    O        6.14073        -1.09251         2.13051
| 23>    C        4.08335        -1.69572         3.27961
| 24>    C        3.34120        -1.05998         4.36711
| 25>    C        2.21192        -1.51239         4.99057
| 26>    C        1.62037        -0.79262         6.05187
| 27>    N        1.12982        -0.22021         6.91590
| 28>    C        1.52692        -2.70593         4.68424
| 29>    N        0.93073        -3.66632         4.48441
| 30>    C        3.67969        -2.75796         2.55125
| 31>    C        4.45818        -3.41315         1.51825
| 32>    C        3.87843        -3.74337         0.29937
| 33>    C        4.63585        -4.37673        -0.68917
| 34>    C        5.97826        -4.63895        -0.38099
| 35>    N        6.50912        -4.39525         0.79788
| 36>    C        5.78754        -3.81282         1.72786
| 37>    C        4.06197        -4.70415        -1.96678
| 38>    S        2.57100        -3.96631        -2.49091
| 39>    C        2.56938        -4.76730        -4.03717
| 40>    C        3.67326        -5.60762        -4.12919
| 41>    C        4.50306        -5.55621        -2.96007
| 42>    N        5.52418        -6.44120        -3.12858
| 43>    C        5.35426        -7.06940        -4.34582
| 44>    C        6.24513        -8.05295        -4.79970
| 45>    N        6.97206        -8.85599        -5.17669
| 46>    C        4.23715        -6.58393        -4.98762
| 47>    C        1.50305        -4.48434        -4.93465
| 48>    S       -0.04934        -4.08160        -4.25609
| 49>    C       -0.73975        -3.80684        -5.83282
| 50>    C        0.20662        -4.04409        -6.81660
| 51>    C        1.47143        -4.40435        -6.31331
| 52>    C        2.60536        -4.60444        -7.26677
| 53>    C        2.28404        -5.75123        -8.21164
| 54>    S        0.63377        -5.50809        -8.98341
| 55>    O       -0.22774        -6.56035        -8.52627
| 56>    O        0.80052        -5.33957       -10.39845
| 57>    C        0.01425        -3.92711        -8.27196
| 58>    C       -2.10124        -3.44842        -6.00006
| 59>    C       -2.89929        -2.77351        -5.13110
| 60>    C       -4.38705        -2.87333        -5.25957
| 61>    O       -5.00016        -3.30161        -6.20612
| 62>    C       -4.89150        -2.38231        -3.97003
| 63>    C       -6.09602        -2.26852        -3.34325
| 64>    S       -5.89681        -1.55983        -1.75658
| 65>    C       -4.18962        -1.41264        -1.96570
| 66>    C       -3.80136        -1.89046        -3.17729
| 67>    C       -2.57778        -1.99808        -3.94700
| 68>    C       -1.43456        -1.28116        -3.70581
| 69>    C       -1.26351        -0.53592        -2.52280
| 70>    N       -1.09633         0.05127        -1.55113
| 71>    C       -0.37859        -1.15821        -4.62958
| 72>    N        0.46948        -0.99913        -5.38732
| 73>   Cl       -7.62337        -2.71354        -3.92349
| 74>    H        3.14511         1.36054         6.31674
| 75>    H        2.69290        -3.17221         2.71869
| 76>    H        2.84766        -3.48438         0.10010
| 77>    H        6.65718        -5.04227        -1.11917
| 78>    H        6.26673        -3.67398         2.68550
| 79>    H        6.23522        -6.67963        -2.45833
| 80>    H        3.87199        -6.92205        -5.93547
| 81>    H        3.53580        -4.79271        -6.73115
| 82>    H        2.73876        -3.68707        -7.84792
| 83>    H        2.20618        -6.70152        -7.69048
| 84>    H        2.99228        -5.82262        -9.03149
| 85>    H       -1.02400        -3.82572        -8.57157
| 86>    H        0.61181        -3.13762        -8.72198
| 87>    H       -2.59227        -3.82378        -6.89259
| 88>    H       -3.59408        -0.99588        -1.17782
| 89> *
| 90>
| 91>                          ****END OF INPUT****

CARTESIAN COORDINATES (ANGSTROEM)
---------------------------------
  C      4.054490    0.149490    4.716470
  C      3.915810    1.181690    5.593420
  S      5.208830    2.311500    5.436430
  C      5.956940    1.379530    4.161010
  Cl     7.396180    1.883260    3.425620
  C      5.223970    0.260590    3.896060
  C      5.307760   -0.879000    2.977920
  O      6.140730   -1.092510    2.130510
  C      4.083350   -1.695720    3.279610
  C      3.341200   -1.059980    4.367110
  C      2.211920   -1.512390    4.990570
  C      1.620370   -0.792620    6.051870
  N      1.129820   -0.220210    6.915900
  C      1.526920   -2.705930    4.684240
  N      0.930730   -3.666320    4.484410
  C      3.679690   -2.757960    2.551250
  C      4.458180   -3.413150    1.518250
  C      3.878430   -3.743370    0.299370
  C      4.635850   -4.376730   -0.689170
  C      5.978260   -4.638950   -0.380990
  N      6.509120   -4.395250    0.797880
  C      5.787540   -3.812820    1.727860
  C      4.061970   -4.704150   -1.966780
  S      2.571000   -3.966310   -2.490910
  C      2.569380   -4.767300   -4.037170
  C      3.673260   -5.607620   -4.129190
  C      4.503060   -5.556210   -2.960070
  N      5.524180   -6.441200   -3.128580
  C      5.354260   -7.069400   -4.345820
  C      6.245130   -8.052950   -4.799700
  N      6.972060   -8.855990   -5.176690
  C      4.237150   -6.583930   -4.987620
  C      1.503050   -4.484340   -4.934650
  S     -0.049340   -4.081600   -4.256090
  C     -0.739750   -3.806840   -5.832820
  C      0.206620   -4.044090   -6.816600
  C      1.471430   -4.404350   -6.313310
  C      2.605360   -4.604440   -7.266770
  C      2.284040   -5.751230   -8.211640
  S      0.633770   -5.508090   -8.983410
  O     -0.227740   -6.560350   -8.526270
  O      0.800520   -5.339570  -10.398450
  C      0.014250   -3.927110   -8.271960
  C     -2.101240   -3.448420   -6.000060
  C     -2.899290   -2.773510   -5.131100
  C     -4.387050   -2.873330   -5.259570
  O     -5.000160   -3.301610   -6.206120
  C     -4.891500   -2.382310   -3.970030
  C     -6.096020   -2.268520   -3.343250
  S     -5.896810   -1.559830   -1.756580
  C     -4.189620   -1.412640   -1.965700
  C     -3.801360   -1.890460   -3.177290
  C     -2.577780   -1.998080   -3.947000
  C     -1.434560   -1.281160   -3.705810
  C     -1.263510   -0.535920   -2.522800
  N     -1.096330    0.051270   -1.551130
  C     -0.378590   -1.158210   -4.629580
  N      0.469480   -0.999130   -5.387320
  Cl    -7.623370   -2.713540   -3.923490
  H      3.145110    1.360540    6.316740
  H      2.692900   -3.172210    2.718690
  H      2.847660   -3.484380    0.100100
  H      6.657180   -5.042270   -1.119170
  H      6.266730   -3.673980    2.685500
  H      6.235220   -6.679630   -2.458330
  H      3.871990   -6.922050   -5.935470
  H      3.535800   -4.792710   -6.731150
  H      2.738760   -3.687070   -7.847920
  H      2.206180   -6.701520   -7.690480
  H      2.992280   -5.822620   -9.031490
  H     -1.024000   -3.825720   -8.571570
  H      0.611810   -3.137620   -8.721980
  H     -2.592270   -3.823780   -6.892590
  H     -3.594080   -0.995880   -1.177820

 Total Charge           Charge          ....    0
 Multiplicity           Mult            ....    1
 Number of Electrons    NEL             ....  456
 Basis Dimension        Dim             ....  929

ORBITAL ENERGIES
----------------

  NO   OCC          E(Eh)            E(eV)
   0   2.0000    -101.625287     -2765.3646
   1   2.0000    -101.618895     -2765.1907
   2   2.0000     -89.140175     -2425.6275
   3   2.0000     -89.003513     -2421.9087
   4   2.0000     -88.995510     -2421.6910
   5   2.0000     -88.988292     -2421.4945
   6   2.0000     -88.981326     -2421.3050
   7   2.0000     -19.232102      -523.3321
   8   2.0000     -19.221951      -523.0559
   9   2.0000     -19.193196      -522.2734
  10   2.0000     -19.192771      -522.2618
  11   2.0000     -14.495151      -394.4331
  12   2.0000     -14.432374      -392.7249
  13   2.0000     -14.432056      -392.7162
  14   2.0000     -14.430371      -392.6704
  15   2.0000     -14.425650      -392.5419
  16   2.0000     -14.423649      -392.4875
  17   2.0000     -14.420598      -392.4044
  18   2.0000     -10.389411      -282.7103
  19   2.0000     -10.385580      -282.6060
  20   2.0000     -10.378850      -282.4229
  21   2.0000     -10.378435      -282.4116
  22   2.0000     -10.368262      -282.1348
  23   2.0000     -10.360761      -281.9306
  24   2.0000     -10.359955      -281.9087
  25   2.0000     -10.353844      -281.7424
  26   2.0000     -10.352283      -281.6999
  27   2.0000     -10.343447      -281.4595
  28   2.0000     -10.340622      -281.3826
  29   2.0000     -10.339332      -281.3475
  30   2.0000     -10.337814      -281.3062
  31   2.0000     -10.334217      -281.2083
  32   2.0000     -10.334056      -281.2040
  33   2.0000     -10.332057      -281.1496
  34   2.0000     -10.331938      -281.1463
  35   2.0000     -10.331907      -281.1455
  36   2.0000     -10.330527      -281.1079
  37   2.0000     -10.330400      -281.1045
  38   2.0000     -10.329380      -281.0767
  39   2.0000     -10.329116      -281.0695
  40   2.0000     -10.327770      -281.0329
  41   2.0000     -10.326290      -280.9926
  42   2.0000     -10.324531      -280.9448
  43   2.0000     -10.322676      -280.8943
  44   2.0000     -10.321747      -280.8690
  45   2.0000     -10.321517      -280.8627
  46   2.0000     -10.318418      -280.7784
  47   2.0000     -10.318264      -280.7742
  48   2.0000     -10.316255      -280.7196
  49   2.0000     -10.316066      -280.7144
  50   2.0000     -10.313899      -280.6555
  51   2.0000     -10.312064      -280.6055
  52   2.0000     -10.311990      -280.6035
  53   2.0000     -10.311357      -280.5863
  54   2.0000     -10.309674      -280.5405
  55   2.0000     -10.309577      -280.5378
  56   2.0000     -10.309166      -280.5267
  57   2.0000     -10.308059      -280.4966
  58   2.0000     -10.303114      -280.3620
  59   2.0000      -9.580062      -260.6867
  60   2.0000      -9.573678      -260.5130
  61   2.0000      -8.206796      -223.3183
  62   2.0000      -8.099178      -220.3898
  63   2.0000      -8.091209      -220.1730
  64   2.0000      -8.082945      -219.9481
  65   2.0000      -8.076331      -219.7681
  66   2.0000      -7.350704      -200.0228
  67   2.0000      -7.344293      -199.8484
  68   2.0000      -7.340107      -199.7345
  69   2.0000      -7.339537      -199.7190
  70   2.0000      -7.333730      -199.5609
  71   2.0000      -7.333193      -199.5463
  72   2.0000      -6.175508      -168.0441
  73   2.0000      -6.175392      -168.0410
  74   2.0000      -6.174896      -168.0275
  75   2.0000      -6.068511      -165.1326
  76   2.0000      -6.063910      -165.0074
  77   2.0000      -6.061521      -164.9424
  78   2.0000      -6.060619      -164.9178
  79   2.0000      -6.055995      -164.7920
  80   2.0000      -6.053414      -164.7218
  81   2.0000      -6.052288      -164.6911
  82   2.0000      -6.048016      -164.5749
  83   2.0000      -6.045823      -164.5152
  84   2.0000      -6.045190      -164.4980
  85   2.0000      -6.041500      -164.3976
  86   2.0000      -6.038203      -164.3079
  87   2.0000      -1.201323       -32.6897
  88   2.0000      -1.149903       -31.2904
  89   2.0000      -1.139178       -30.9986
  90   2.0000      -1.118517       -30.4364
  91   2.0000      -1.080399       -29.3992
  92   2.0000      -1.059471       -28.8297
  93   2.0000      -1.047984       -28.5171
  94   2.0000      -1.041395       -28.3378
  95   2.0000      -1.028678       -27.9917
  96   2.0000      -1.028218       -27.9792
  97   2.0000      -1.020012       -27.7560
  98   2.0000      -1.013132       -27.5687
  99   2.0000      -1.009716       -27.4758
 100   2.0000      -1.003310       -27.3015
 101   2.0000      -0.998884       -27.1810
 102   2.0000      -0.998353       -27.1666
 103   2.0000      -0.991226       -26.9726
 104   2.0000      -0.965816       -26.2812
 105   2.0000      -0.958566       -26.0839
 106   2.0000      -0.943884       -25.6844
 107   2.0000      -0.940503       -25.5924
 108   2.0000      -0.932473       -25.3739
 109   2.0000      -0.917322       -24.9616
 110   2.0000      -0.914877       -24.8951
 111   2.0000      -0.907234       -24.6871
 112   2.0000      -0.898719       -24.4554
 113   2.0000      -0.886121       -24.1126
 114   2.0000      -0.870467       -23.6866
 115   2.0000      -0.862775       -23.4773
 116   2.0000      -0.848424       -23.0868
 117   2.0000      -0.842536       -22.9266
 118   2.0000      -0.837035       -22.7769
 119   2.0000      -0.835302       -22.7297
 120   2.0000      -0.812868       -22.1193
 121   2.0000      -0.798344       -21.7240
 122   2.0000      -0.782521       -21.2935
 123   2.0000      -0.767774       -20.8922
 124   2.0000      -0.765476       -20.8297
 125   2.0000      -0.761486       -20.7211
 126   2.0000      -0.754865       -20.5409
 127   2.0000      -0.745395       -20.2832
 128   2.0000      -0.735864       -20.0239
 129   2.0000      -0.716985       -19.5101
 130   2.0000      -0.716096       -19.4860
 131   2.0000      -0.700200       -19.0534
 132   2.0000      -0.698328       -19.0025
 133   2.0000      -0.689620       -18.7655
 134   2.0000      -0.687108       -18.6972
 135   2.0000      -0.679395       -18.4873
 136   2.0000      -0.678630       -18.4665
 137   2.0000      -0.668682       -18.1958
 138   2.0000      -0.645643       -17.5689
 139   2.0000      -0.640116       -17.4185
 140   2.0000      -0.632376       -17.2078
 141   2.0000      -0.627365       -17.0715
 142   2.0000      -0.626191       -17.0395
 143   2.0000      -0.621216       -16.9041
 144   2.0000      -0.617358       -16.7992
 145   2.0000      -0.610294       -16.6069
 146   2.0000      -0.606055       -16.4916
 147   2.0000      -0.600544       -16.3416
 148   2.0000      -0.589730       -16.0474
 149   2.0000      -0.587963       -15.9993
 150   2.0000      -0.578981       -15.7549
 151   2.0000      -0.573275       -15.5996
 152   2.0000      -0.568038       -15.4571
 153   2.0000      -0.564637       -15.3646
 154   2.0000      -0.561101       -15.2683
 155   2.0000      -0.559635       -15.2284
 156   2.0000      -0.552255       -15.0276
 157   2.0000      -0.551685       -15.0121
 158   2.0000      -0.549604       -14.9555
 159   2.0000      -0.543946       -14.8015
 160   2.0000      -0.543675       -14.7941
 161   2.0000      -0.540014       -14.6945
 162   2.0000      -0.535159       -14.5624
 163   2.0000      -0.533900       -14.5282
 164   2.0000      -0.530089       -14.4245
 165   2.0000      -0.527233       -14.3467
 166   2.0000      -0.525275       -14.2934
 167   2.0000      -0.520658       -14.1678
 168   2.0000      -0.516235       -14.0475
 169   2.0000      -0.516102       -14.0438
 170   2.0000      -0.515571       -14.0294
 171   2.0000      -0.511699       -13.9240
 172   2.0000      -0.509217       -13.8565
 173   2.0000      -0.506485       -13.7822
 174   2.0000      -0.503572       -13.7029
 175   2.0000      -0.501045       -13.6341
 176   2.0000      -0.499520       -13.5926
 177   2.0000      -0.496878       -13.5207
 178   2.0000      -0.494195       -13.4477
 179   2.0000      -0.488190       -13.2843
 180   2.0000      -0.486526       -13.2390
 181   2.0000      -0.479903       -13.0588
 182   2.0000      -0.473395       -12.8817
 183   2.0000      -0.467359       -12.7175
 184   2.0000      -0.466950       -12.7063
 185   2.0000      -0.463982       -12.6256
 186   2.0000      -0.463278       -12.6064
 187   2.0000      -0.459683       -12.5086
 188   2.0000      -0.459344       -12.4994
 189   2.0000      -0.458025       -12.4635
 190   2.0000      -0.457150       -12.4397
 191   2.0000      -0.453841       -12.3496
 192   2.0000      -0.451847       -12.2954
 193   2.0000      -0.450696       -12.2641
 194   2.0000      -0.445660       -12.1270
 195   2.0000      -0.444269       -12.0892
 196   2.0000      -0.442336       -12.0366
 197   2.0000      -0.441691       -12.0190
 198   2.0000      -0.438667       -11.9367
 199   2.0000      -0.438304       -11.9269
 200   2.0000      -0.433375       -11.7927
 201   2.0000      -0.432890       -11.7795
 202   2.0000      -0.428407       -11.6576
 203   2.0000      -0.425960       -11.5910
 204   2.0000      -0.422614       -11.4999
 205   2.0000      -0.413840       -11.2612
 206   2.0000      -0.411311       -11.1923
 207   2.0000      -0.407778       -11.0962
 208   2.0000      -0.404650       -11.0111
 209   2.0000      -0.399960       -10.8835
 210   2.0000      -0.391464       -10.6523
 211   2.0000      -0.389082       -10.5875
 212   2.0000      -0.376683       -10.2501
 213   2.0000      -0.370055       -10.0697
 214   2.0000      -0.366791        -9.9809
 215   2.0000      -0.362988        -9.8774
 216   2.0000      -0.360481        -9.8092
 217   2.0000      -0.347543        -9.4571
 218   2.0000      -0.346905        -9.4398
 219   2.0000      -0.342120        -9.3096
 220   2.0000      -0.338446        -9.2096
 221   2.0000      -0.334434        -9.1004
 222   2.0000      -0.332092        -9.0367
 223   2.0000      -0.323920        -8.8143
 224   2.0000      -0.322204        -8.7676
 225   2.0000      -0.315567        -8.5870
 226   2.0000      -0.307578        -8.3696
 227   2.0000      -0.261999        -7.1293
 228   0.0000      -0.107202        -2.9171
 229   0.0000      -0.102638        -2.7929
 230   0.0000      -0.068322        -1.8591
 231   0.0000      -0.060886        -1.6568
 232   0.0000      -0.050120        -1.3638

MULLIKEN ATOMIC CHARGES
-----------------------
   0 C :    0.031002
   1 C :   -0.126998
   2 S :    0.196001
   3 C :   -0.166235
   4 Cl:    0.006871
   5 C :    0.071682
   6 C :    0.139696
   7 O :   -0.115121
   8 C :   -0.087699
   9 C :    0.290229
  10 C :   -0.315922
  11 C :   -0.191417
  12 N :    0.162033
  13 C :   -0.191410
  14 N :    0.164349
  15 C :   -0.034147
  16 C :    0.041016
  17 C :   -0.036005
  18 C :    0.089448
  19 C :   -0.034666
  20 N :   -0.050579
  21 C :    0.057848
  22 C :   -0.161182
  23 S :    0.164636
  24 C :   -0.177226
  25 C :    0.151695
  26 C :    0.098041
  27 N :   -0.038984
  28 C :   -0.090028
  29 C :   -0.148505
  30 N :    0.176233
  31 C :   -0.033091
  32 C :   -0.110147
  33 S :    0.157784
  34 C :   -0.150261
  35 C :   -0.002545
  36 C :   -0.070232
  37 C :    0.091459
  38 C :    0.013356
  39 S :    0.631613
  40 O :   -0.452755
  41 O :   -0.451472
  42 C :    0.124710
  43 C :    0.026116
  44 C :   -0.154869
  45 C :    0.138514
  46 O :   -0.125554
  47 C :    0.087398
  48 C :   -0.171692
  49 S :    0.186697
  50 C :   -0.127256
  51 C :    0.019712
  52 C :    0.251340
  53 C :   -0.324676
  54 C :   -0.183999
  55 N :    0.154948
  56 C :   -0.187261
  57 N :    0.167726
  58 Cl:    0.003322
  59 H :    0.057716
  60 H :    0.041686
  61 H :    0.005321
  62 H :   -0.018355
  63 H :    0.004300
  64 H :    0.136870
  65 H :   -0.027824
  66 H :    0.030347
  67 H :    0.036763
  68 H :    0.063833
  69 H :    0.064819
  70 H :    0.064285
  71 H :    0.066008
  72 H :    0.037802
  73 H :    0.052890
Sum of atomic charges:    0.0000000

LOEWDIN ATOMIC CHARGES
----------------------
   0 C :   -0.060305
   1 C :   -0.147114
   2 S :    0.485640
   3 C :   -0.270294
   4 Cl:    0.197629
   5 C :   -0.118346
   6 C :    0.080781
   7 O :   -0.116827
   8 C :   -0.074368
   9 C :    0.074199
  10 C :   -0.127607
  11 C :   -0.015247
  12 N :   -0.043614
  13 C :   -0.022864
  14 N :   -0.040120
  15 C :    0.077548
  16 C :   -0.049228
  17 C :    0.015866
  18 C :   -0.056832
  19 C :    0.020672
  20 N :   -0.054019
  21 C :    0.053816
  22 C :   -0.200812
  23 S :    0.475206
  24 C :   -0.197781
  25 C :   -0.059887
  26 C :   -0.002054
  27 N :    0.070129
  28 C :   -0.017512
  29 C :   -0.045526
  30 N :   -0.026356
  31 C :   -0.039568
  32 C :   -0.159139
  33 S :    0.469197
  34 C :   -0.179423
  35 C :   -0.044350
  36 C :   -0.064983
  37 C :   -0.033625
  38 C :   -0.132732
  39 S :    1.157054
  40 O :   -0.512617
  41 O :   -0.512571
  42 C :   -0.124829
  43 C :    0.051275
  44 C :   -0.091944
  45 C :    0.080313
  46 O :   -0.130229
  47 C :   -0.117725
  48 C :   -0.271530
  49 S :    0.475270
  50 C :   -0.152594
  51 C :   -0.057092
  52 C :    0.061733
  53 C :   -0.143648
  54 C :   -0.017534
  55 N :   -0.053137
  56 C :   -0.033090
  57 N :   -0.053514
  58 Cl:    0.194279
  59 H :    0.039022
  60 H :    0.049075
  61 H :    0.028075
  62 H :    0.014871
  63 H :    0.024524
  64 H :    0.095023
  65 H :    0.033984
  66 H :    0.041973
  67 H :    0.043328
  68 H :    0.035579
  69 H :    0.040831
  70 H :    0.048215
  71 H :    0.047036
  72 H :    0.052779
  73 H :    0.037665

  Mayer bond orders larger than 0.100000
B(  0-C ,  1-C ) :   1.5365 B(  0-C ,  5-C ) :   1.2212 B(  0-C ,  9-C ) :   1.0099
B(  1-C ,  2-S ) :   1.1690 B(  1-C , 59-H ) :   0.9538 B(  2-S ,  3-C ) :   1.1548
B(  3-C ,  4-Cl) :   1.1337 B(  3-C ,  5-C ) :   1.4733 B(  5-C ,  6-C ) :   0.9507
B(  6-C ,  7-O ) :   2.2569 B(  6-C ,  8-C ) :   0.9138 B(  8-C ,  9-C ) :   1.0339
B(  8-C , 15-C ) :   1.7585 B(  9-C , 10-C ) :   1.6805 B( 10-C , 11-C ) :   1.1406
B( 10-C , 13-C ) :   1.1349 B( 11-C , 12-N ) :   2.9938 B( 13-C , 14-N ) :   2.9787
B( 15-C , 16-C ) :   1.0036 B( 15-C , 60-H ) :   0.9431 B( 16-C , 17-C ) :   1.3994
B( 16-C , 21-C ) :   1.3156 B( 17-C , 18-C ) :   1.3400 B( 17-C , 61-H ) :   0.9881
B( 18-C , 19-C ) :   1.3263 B( 18-C , 22-C ) :   1.0533 B( 19-C , 20-N ) :   1.5639
B( 19-C , 62-H ) :   0.9874 B( 20-N , 21-C ) :   1.5755 B( 21-C , 63-H ) :   0.9835
B( 22-C , 23-S ) :   1.1229 B( 22-C , 24-C ) :   0.1361 B( 22-C , 26-C ) :   1.4454
B( 23-S , 24-C ) :   1.1518 B( 24-C , 25-C ) :   1.3618 B( 24-C , 32-C ) :   1.1122
B( 25-C , 26-C ) :   1.2141 B( 25-C , 31-C ) :   1.1515 B( 26-C , 27-N ) :   1.1660
B( 27-N , 28-C ) :   1.2019 B( 27-N , 64-H ) :   0.9300 B( 28-C , 29-C ) :   1.0508
B( 28-C , 31-C ) :   1.6013 B( 29-C , 30-N ) :   3.0566 B( 31-C , 65-H ) :   1.0060
B( 32-C , 33-S ) :   1.1399 B( 32-C , 34-C ) :   0.1081 B( 32-C , 36-C ) :   1.5482
B( 33-S , 34-C ) :   1.1075 B( 34-C , 35-C ) :   1.4847 B( 34-C , 43-C ) :   1.1065
B( 35-C , 36-C ) :   1.2999 B( 35-C , 42-C ) :   1.0446 B( 36-C , 37-C ) :   1.0694
B( 37-C , 38-C ) :   1.1020 B( 37-C , 66-H ) :   0.9100 B( 37-C , 67-H ) :   0.8962
B( 38-C , 39-S ) :   0.8176 B( 38-C , 68-H ) :   0.9212 B( 38-C , 69-H ) :   0.9279
B( 39-S , 40-O ) :   1.7136 B( 39-S , 41-O ) :   1.7361 B( 39-S , 42-C ) :   0.8402
B( 42-C , 70-H ) :   0.9047 B( 42-C , 71-H ) :   0.9009 B( 43-C , 44-C ) :   1.6838
B( 43-C , 72-H ) :   0.9415 B( 44-C , 45-C ) :   0.9346 B( 44-C , 52-C ) :   1.0340
B( 45-C , 46-O ) :   2.2805 B( 45-C , 47-C ) :   0.9250 B( 47-C , 48-C ) :   1.4879
B( 47-C , 51-C ) :   1.2193 B( 48-C , 49-S ) :   1.1507 B( 48-C , 58-Cl) :   1.1324
B( 49-S , 50-C ) :   1.1587 B( 50-C , 51-C ) :   1.5543 B( 50-C , 73-H ) :   0.9563
B( 51-C , 52-C ) :   1.0166 B( 52-C , 53-C ) :   1.6643 B( 53-C , 54-C ) :   1.1406
B( 53-C , 56-C ) :   1.1521 B( 54-C , 55-N ) :   3.0016 B( 56-C , 57-N ) :   3.0100

-----------------------------------------------------------------------------
         ABSORPTION SPECTRUM VIA TRANSITION ELECTRIC DIPOLE MOMENTS
-----------------------------------------------------------------------------
State   Energy  Wavelength   fosc         T2         TX        TY        TZ
        (cm-1)    (nm)                  (au**2)     (au)      (au)      (au)
-----------------------------------------------------------------------------
   0   17366.6    575.8   0.567009255  10.74859   2.88022  -1.29947   0.87425
   1   21062.3    474.8   0.034743662   0.54306   0.45954  -0.39592  -0.41849
   2   25714.4    388.9   0.461581245   5.90946  -1.13958  -0.23908  -2.13393
   3   26481.2    377.6   0.264684201   3.29053   0.75840   0.90217   1.37893
   4   27063.3    369.5   0.102309061   1.24454   1.08507  -0.24935  -0.07058
   5   28556.2    350.2   0.020512511   0.23648   0.34329  -0.21673  -0.26769
   6   28906.0    345.9   0.042876939   0.48833   0.21065  -0.32543  -0.58142
   7   29674.9    337.0   0.071993132   0.79869   0.81443   0.11337  -0.35006
   8   29720.8    336.5   0.044775935   0.49597  -0.02782   0.12779   0.69200
   9   30249.3    330.6   0.048674047   0.52973  -0.49270   0.21885   0.48897
  10   30994.8    322.6   0.225607984   2.39630   0.70391  -0.60991  -1.23646
  11   31277.0    319.7   0.099929785   1.05183   0.42626  -0.71725  -0.59639
  12   31926.8    313.2   0.150614858   1.55306  -0.60973   0.74744   0.78907
  13   32642.8    306.3   0.165589813   1.67002   1.18543  -0.07652  -0.50885
  14   33194.6    301.3   0.062409155   0.61895   0.63422   0.01219  -0.46537
  15   33359.8    299.8   0.023658223   0.23347   0.33348   0.32108  -0.13847
  16   33985.1    294.2   0.053529254   0.51854   0.23613  -0.43015  -0.52702
  17   34435.2    290.4   0.022404238   0.21419  -0.16381  -0.29687  -0.31500
  18   34645.3    288.6   0.084375768   0.80177  -0.87586  -0.07115   0.17197
  19   35048.1    285.3   0.044445996   0.41749   0.27004   0.49312   0.31844
  20   35664.0    280.4   0.254330168   2.34771   0.61615  -0.90012  -1.07603
  21   35821.6    279.2   0.114066909   1.04831  -0.76388  -0.49512  -0.46867
  22   36037.1    277.5   0.042265565   0.38611  -0.42525   0.16625   0.42147
  23   36704.7    272.4   0.138057046   1.23826  -1.09374   0.18822   0.08101
  24   37112.8    269.4   0.019321240   0.17139   0.00789   0.11125   0.39869
  25   37360.1    267.7   0.461041856   4.06264  -1.42329  -1.42466   0.08500
  26   37394.3    267.4   0.115399279   1.01595  -0.29307  -0.94332  -0.20054
  27   37673.3    265.4   0.447809092   3.91323   1.47227   1.29860   0.24351
  28   37911.6    263.8   0.279432027   2.42650  -1.46379  -0.31057   0.43284
  29   38250.2    261.4   0.035461950   0.30521   0.20561  -0.47060   0.20367
  30   38602.8    259.0   0.006008571   0.05124  -0.11210   0.19441  -0.02970
  31   39741.5    251.6   0.032328764   0.26781   0.45018   0.05983  -0.24812
  32   39906.9    250.6   0.070602995   0.58244  -0.49462   0.57697   0.07001
  33   39978.7    250.1   0.020354717   0.16761   0.20594  -0.11562  -0.33442
  34   40077.6    249.5   0.025769795   0.21168   0.32937   0.03396  -0.31945

FINAL SINGLE POINT ENERGY     -5162.982954035150

DIPOLE MOMENT
-------------
                                X             Y             Z
Electronic contribution:    -17.88872      24.50103      30.78659
Nuclear contribution   :     18.86302     -22.92395     -28.98945
                        -----------------------------------------
Total Dipole Moment    :      0.97430       1.57708       1.79714
                        -----------------------------------------
Magnitude (a.u.)       :      2.58189
Magnitude (Debye)      :      6.56264

Rotational constants in cm-1:     0.001250     0.000619     0.000456
Rotational constants in MHz :    37.472678    18.560004    13.672277

                             ****ORCA TERMINATED NORMALLY****
TOTAL RUN TIME: 0 days 0 hours 6 minutes 32 seconds 858 msec
