                         Program Version 4.2.0 -  RELEASE  -
|  1> # ORCA input file
|  2> # SCF done       -137.613493782692          0.000710173289
|  3> ! CAM-B3LYP def2-SVP def2/J RIJCOSX Grid4 TightSCF
|  4> %maxcore 5000
|  5> %tddft
|  6>     Mode sTDDFT
|  7>     Ethresh 5.0
|  8>     maxcore 5000
|  9> end
| 10>
| 11> %pal
| 12>   nprocs 6
| 13>   end
| 14> * xyz 0 1
| 15>    C       -0.34450        -0.60377        -2.06017
| 16>    C       -1.56515        -0.32453        -2.59198
| 17>    S       -2.20689        -1.68914        -3.43158
| 18>    C       -0.80036        -2.65936        -3.06091
| 19>   Cl       -0.67234        -4.26467        -3.58643
| 20>    C        0.09404        -1.94087        -2.32594
| 21>    C        1.41010        -2.16880        -1.71759
| 22>    O        2.08608        -3.17022        -1.77799
| 23>    C        1.75859        -0.86453        -1.07288
| 24>    C        0.66759         0.07771        -1.27900
| 25>    C        0.55213         1.35613        -0.80175
| 26>    C       -0.59057         2.13836        -1.07196
| 27>    N       -1.51204         2.78811        -1.28454
| 28>    C        1.50054         2.02703        -0.00488
| 29>    N        2.22791         2.62605         0.65121
| 30>    C        2.96893        -0.56720        -0.52932
| 31>    C        4.02111        -1.49507        -0.24609
| 32>    C        5.37358        -1.13532        -0.40137
| 33>    N        6.35933        -1.96050        -0.17104
| 34>    C        6.05310        -3.20641         0.22693
| 35>    N        4.80693        -3.62029         0.49055
| 36>    C        3.82304        -2.78782         0.27408
| 37>    C        7.14159        -4.10610         0.39795
| 38>    C        7.14340        -5.45561         0.76989
| 39>    C        6.04627        -6.27229         1.10189
| 40>    C        6.27499        -7.56518         1.48604
| 41>    C        7.57466        -8.10147         1.52727
| 42>    C        8.67027        -7.35189         1.17400
| 43>    C        8.47182        -5.99035         0.80992
| 44>    C        9.42787        -5.03659         0.50358
| 45>    S        8.74799        -3.52608         0.13781
| 46>    C       10.01291        -7.92125         1.14907
| 47>    C       10.85907        -7.79569         0.04184
| 48>    N       12.08731        -8.26429         0.03023
| 49>    C       12.53133        -8.83483         1.14547
| 50>    N       11.78954        -9.07939         2.22643
| 51>    C       10.54584        -8.64901         2.21562
| 52>    C       13.91991        -9.26543         1.16751
| 53>    C       14.74331        -9.20838         2.22830
| 54>    C       16.02671        -9.99306         2.23522
| 55>    O       16.56876       -10.48913         1.28112
| 56>    C       16.40036       -10.04850         3.65219
| 57>    C       17.35915       -10.65540         4.40899
| 58>    S       17.15866       -10.24299         6.09513
| 59>    C       15.79057        -9.24813         5.75833
| 60>    C       15.50242        -9.24152         4.42873
| 61>    C       14.55200        -8.60085         3.54249
| 62>    C       13.79582        -7.51033         3.86159
| 63>    C       13.76042        -7.00658         5.18054
| 64>    N       13.71453        -6.59846         6.25118
| 65>    C       13.04491        -6.73423         2.95452
| 66>    N       12.44963        -6.02190         2.27952
| 67>   Cl       18.60628       -11.67652         3.89162
| 68>    H       -2.13271         0.58398        -2.55498
| 69>    H        3.19576         0.46918        -0.30790
| 70>    H        5.64856        -0.14902        -0.75452
| 71>    H        2.84104        -3.12660         0.57304
| 72>    H        5.05409        -5.85591         1.05201
| 73>    H        5.44538        -8.20144         1.75496
| 74>    H        7.70739        -9.13659         1.80672
| 75>    H       10.49400        -5.15690         0.51598
| 76>    H       10.52110        -7.32289        -0.87127
| 77>    H        9.96076        -8.86242         3.10141
| 78>    H       14.30070        -9.70355         0.25312
| 79>    H       15.29036        -8.74801         6.56381
| 80> *
| 81>
| 82>                          ****END OF INPUT****

CARTESIAN COORDINATES (ANGSTROEM)
---------------------------------
  C     -0.344500   -0.603770   -2.060170
  C     -1.565150   -0.324530   -2.591980
  S     -2.206890   -1.689140   -3.431580
  C     -0.800360   -2.659360   -3.060910
  Cl    -0.672340   -4.264670   -3.586430
  C      0.094040   -1.940870   -2.325940
  C      1.410100   -2.168800   -1.717590
  O      2.086080   -3.170220   -1.777990
  C      1.758590   -0.864530   -1.072880
  C      0.667590    0.077710   -1.279000
  C      0.552130    1.356130   -0.801750
  C     -0.590570    2.138360   -1.071960
  N     -1.512040    2.788110   -1.284540
  C      1.500540    2.027030   -0.004880
  N      2.227910    2.626050    0.651210
  C      2.968930   -0.567200   -0.529320
  C      4.021110   -1.495070   -0.246090
  C      5.373580   -1.135320   -0.401370
  N      6.359330   -1.960500   -0.171040
  C      6.053100   -3.206410    0.226930
  N      4.806930   -3.620290    0.490550
  C      3.823040   -2.787820    0.274080
  C      7.141590   -4.106100    0.397950
  C      7.143400   -5.455610    0.769890
  C      6.046270   -6.272290    1.101890
  C      6.274990   -7.565180    1.486040
  C      7.574660   -8.101470    1.527270
  C      8.670270   -7.351890    1.174000
  C      8.471820   -5.990350    0.809920
  C      9.427870   -5.036590    0.503580
  S      8.747990   -3.526080    0.137810
  C     10.012910   -7.921250    1.149070
  C     10.859070   -7.795690    0.041840
  N     12.087310   -8.264290    0.030230
  C     12.531330   -8.834830    1.145470
  N     11.789540   -9.079390    2.226430
  C     10.545840   -8.649010    2.215620
  C     13.919910   -9.265430    1.167510
  C     14.743310   -9.208380    2.228300
  C     16.026710   -9.993060    2.235220
  O     16.568760  -10.489130    1.281120
  C     16.400360  -10.048500    3.652190
  C     17.359150  -10.655400    4.408990
  S     17.158660  -10.242990    6.095130
  C     15.790570   -9.248130    5.758330
  C     15.502420   -9.241520    4.428730
  C     14.552000   -8.600850    3.542490
  C     13.795820   -7.510330    3.861590
  C     13.760420   -7.006580    5.180540
  N     13.714530   -6.598460    6.251180
  C     13.044910   -6.734230    2.954520
  N     12.449630   -6.021900    2.279520
  Cl    18.606280  -11.676520    3.891620
  H     -2.132710    0.583980   -2.554980
  H      3.195760    0.469180   -0.307900
  H      5.648560   -0.149020   -0.754520
  H      2.841040   -3.126600    0.573040
  H      5.054090   -5.855910    1.052010
  H      5.445380   -8.201440    1.754960
  H      7.707390   -9.136590    1.806720
  H     10.494000   -5.156900    0.515980
  H     10.521100   -7.322890   -0.871270
  H      9.960760   -8.862420    3.101410
  H     14.300700   -9.703550    0.253120
  H     15.290360   -8.748010    6.563810

 Total Charge           Charge          ....    0
 Multiplicity           Mult            ....    1
 Number of Electrons    NEL             ....  394
 Basis Dimension        Dim             ....  822

ORBITAL ENERGIES
----------------

  NO   OCC          E(Eh)            E(eV)
   0   2.0000    -101.620451     -2765.2330
   1   2.0000    -101.619798     -2765.2153
   2   2.0000     -88.996981     -2421.7310
   3   2.0000     -88.996846     -2421.7273
   4   2.0000     -88.973276     -2421.0859
   5   2.0000     -19.225646      -523.1564
   6   2.0000     -19.223571      -523.1000
   7   2.0000     -14.426115      -392.5545
   8   2.0000     -14.424852      -392.5202
   9   2.0000     -14.423952      -392.4957
  10   2.0000     -14.423798      -392.4915
  11   2.0000     -14.422783      -392.4639
  12   2.0000     -14.422536      -392.4572
  13   2.0000     -14.417437      -392.3184
  14   2.0000     -14.416425      -392.2909
  15   2.0000     -10.383033      -282.5367
  16   2.0000     -10.379733      -282.4469
  17   2.0000     -10.379569      -282.4424
  18   2.0000     -10.379105      -282.4298
  19   2.0000     -10.360126      -281.9134
  20   2.0000     -10.356641      -281.8185
  21   2.0000     -10.352664      -281.7103
  22   2.0000     -10.352104      -281.6951
  23   2.0000     -10.351901      -281.6895
  24   2.0000     -10.350823      -281.6602
  25   2.0000     -10.335106      -281.2325
  26   2.0000     -10.334649      -281.2201
  27   2.0000     -10.332865      -281.1716
  28   2.0000     -10.332179      -281.1529
  29   2.0000     -10.330315      -281.1022
  30   2.0000     -10.329793      -281.0880
  31   2.0000     -10.329183      -281.0713
  32   2.0000     -10.328682      -281.0577
  33   2.0000     -10.326038      -280.9858
  34   2.0000     -10.325423      -280.9690
  35   2.0000     -10.324602      -280.9467
  36   2.0000     -10.317032      -280.7407
  37   2.0000     -10.316395      -280.7234
  38   2.0000     -10.315913      -280.7103
  39   2.0000     -10.311253      -280.5835
  40   2.0000     -10.310655      -280.5672
  41   2.0000     -10.304821      -280.4084
  42   2.0000     -10.303995      -280.3860
  43   2.0000     -10.303651      -280.3766
  44   2.0000     -10.303324      -280.3677
  45   2.0000     -10.299719      -280.2696
  46   2.0000     -10.297602      -280.2120
  47   2.0000     -10.294199      -280.1194
  48   2.0000     -10.288327      -279.9596
  49   2.0000     -10.287793      -279.9451
  50   2.0000     -10.281021      -279.7608
  51   2.0000     -10.276773      -279.6452
  52   2.0000     -10.270947      -279.4867
  53   2.0000      -9.575216      -260.5549
  54   2.0000      -9.574583      -260.5376
  55   2.0000      -8.092699      -220.2135
  56   2.0000      -8.092508      -220.2083
  57   2.0000      -8.067813      -219.5364
  58   2.0000      -7.345868      -199.8912
  59   2.0000      -7.345240      -199.8742
  60   2.0000      -7.335255      -199.6024
  61   2.0000      -7.334695      -199.5872
  62   2.0000      -7.334612      -199.5849
  63   2.0000      -7.334060      -199.5699
  64   2.0000      -6.062083      -164.9577
  65   2.0000      -6.061871      -164.9519
  66   2.0000      -6.057450      -164.8316
  67   2.0000      -6.057249      -164.8261
  68   2.0000      -6.054960      -164.7638
  69   2.0000      -6.054820      -164.7600
  70   2.0000      -6.036565      -164.2633
  71   2.0000      -6.032247      -164.1458
  72   2.0000      -6.031347      -164.1213
  73   2.0000      -1.142911       -31.1002
  74   2.0000      -1.141104       -31.0510
  75   2.0000      -1.098098       -29.8808
  76   2.0000      -1.094213       -29.7750
  77   2.0000      -1.041561       -28.3423
  78   2.0000      -1.041094       -28.3296
  79   2.0000      -1.021510       -27.7967
  80   2.0000      -1.020563       -27.7709
  81   2.0000      -1.003565       -27.3084
  82   2.0000      -1.001743       -27.2588
  83   2.0000      -1.000796       -27.2330
  84   2.0000      -0.992194       -26.9990
  85   2.0000      -0.991675       -26.9849
  86   2.0000      -0.989547       -26.9270
  87   2.0000      -0.988950       -26.9107
  88   2.0000      -0.959553       -26.1108
  89   2.0000      -0.958166       -26.0730
  90   2.0000      -0.947033       -25.7701
  91   2.0000      -0.929047       -25.2807
  92   2.0000      -0.917794       -24.9744
  93   2.0000      -0.908580       -24.7237
  94   2.0000      -0.907702       -24.6998
  95   2.0000      -0.884423       -24.0664
  96   2.0000      -0.870543       -23.6887
  97   2.0000      -0.843474       -22.9521
  98   2.0000      -0.836117       -22.7519
  99   2.0000      -0.835753       -22.7420
 100   2.0000      -0.834552       -22.7093
 101   2.0000      -0.818876       -22.2827
 102   2.0000      -0.794032       -21.6067
 103   2.0000      -0.779906       -21.2223
 104   2.0000      -0.762027       -20.7358
 105   2.0000      -0.759760       -20.6741
 106   2.0000      -0.758189       -20.6314
 107   2.0000      -0.754230       -20.5236
 108   2.0000      -0.740712       -20.1558
 109   2.0000      -0.740230       -20.1427
 110   2.0000      -0.702717       -19.1219
 111   2.0000      -0.696471       -18.9519
 112   2.0000      -0.692053       -18.8317
 113   2.0000      -0.680165       -18.5082
 114   2.0000      -0.679746       -18.4968
 115   2.0000      -0.674020       -18.3410
 116   2.0000      -0.672240       -18.2926
 117   2.0000      -0.663886       -18.0653
 118   2.0000      -0.662055       -18.0154
 119   2.0000      -0.629294       -17.1240
 120   2.0000      -0.627983       -17.0883
 121   2.0000      -0.624814       -17.0021
 122   2.0000      -0.619789       -16.8653
 123   2.0000      -0.618168       -16.8212
 124   2.0000      -0.612270       -16.6607
 125   2.0000      -0.609339       -16.5810
 126   2.0000      -0.588328       -16.0092
 127   2.0000      -0.585853       -15.9419
 128   2.0000      -0.570014       -15.5109
 129   2.0000      -0.565400       -15.3853
 130   2.0000      -0.557233       -15.1631
 131   2.0000      -0.554932       -15.1005
 132   2.0000      -0.550958       -14.9923
 133   2.0000      -0.548889       -14.9360
 134   2.0000      -0.542641       -14.7660
 135   2.0000      -0.540749       -14.7145
 136   2.0000      -0.538151       -14.6438
 137   2.0000      -0.535448       -14.5703
 138   2.0000      -0.530471       -14.4349
 139   2.0000      -0.529336       -14.4040
 140   2.0000      -0.527325       -14.3493
 141   2.0000      -0.526039       -14.3143
 142   2.0000      -0.518335       -14.1046
 143   2.0000      -0.517339       -14.0775
 144   2.0000      -0.511737       -13.9251
 145   2.0000      -0.509909       -13.8753
 146   2.0000      -0.508293       -13.8314
 147   2.0000      -0.505787       -13.7632
 148   2.0000      -0.500486       -13.6189
 149   2.0000      -0.498650       -13.5690
 150   2.0000      -0.497004       -13.5242
 151   2.0000      -0.492897       -13.4124
 152   2.0000      -0.491314       -13.3693
 153   2.0000      -0.489250       -13.3132
 154   2.0000      -0.485989       -13.2244
 155   2.0000      -0.480894       -13.0858
 156   2.0000      -0.461550       -12.5594
 157   2.0000      -0.459230       -12.4963
 158   2.0000      -0.459154       -12.4942
 159   2.0000      -0.455864       -12.4047
 160   2.0000      -0.450962       -12.2713
 161   2.0000      -0.450311       -12.2536
 162   2.0000      -0.448203       -12.1962
 163   2.0000      -0.446809       -12.1583
 164   2.0000      -0.445432       -12.1208
 165   2.0000      -0.440351       -11.9826
 166   2.0000      -0.438579       -11.9344
 167   2.0000      -0.436713       -11.8836
 168   2.0000      -0.435193       -11.8422
 169   2.0000      -0.435049       -11.8383
 170   2.0000      -0.430728       -11.7207
 171   2.0000      -0.429909       -11.6984
 172   2.0000      -0.422691       -11.5020
 173   2.0000      -0.420666       -11.4469
 174   2.0000      -0.417924       -11.3723
 175   2.0000      -0.411992       -11.2109
 176   2.0000      -0.406908       -11.0725
 177   2.0000      -0.405775       -11.0417
 178   2.0000      -0.403264       -10.9734
 179   2.0000      -0.399793       -10.8789
 180   2.0000      -0.394806       -10.7432
 181   2.0000      -0.392102       -10.6696
 182   2.0000      -0.384883       -10.4732
 183   2.0000      -0.382168       -10.3993
 184   2.0000      -0.363111        -9.8808
 185   2.0000      -0.350751        -9.5444
 186   2.0000      -0.347610        -9.4590
 187   2.0000      -0.342489        -9.3196
 188   2.0000      -0.339985        -9.2515
 189   2.0000      -0.334834        -9.1113
 190   2.0000      -0.332262        -9.0413
 191   2.0000      -0.326168        -8.8755
 192   2.0000      -0.321498        -8.7484
 193   2.0000      -0.319640        -8.6978
 194   2.0000      -0.310985        -8.4623
 195   2.0000      -0.305437        -8.3114
 196   2.0000      -0.258407        -7.0316
 197   0.0000      -0.100369        -2.7312
 198   0.0000      -0.095870        -2.6088
 199   0.0000      -0.060011        -1.6330
 200   0.0000      -0.051917        -1.4127
 201   0.0000      -0.046023        -1.2524

MULLIKEN ATOMIC CHARGES
-----------------------
   0 C :    0.029450
   1 C :   -0.130114
   2 S :    0.189275
   3 C :   -0.171670
   4 Cl:    0.000907
   5 C :    0.078092
   6 C :    0.139257
   7 O :   -0.127949
   8 C :   -0.103112
   9 C :    0.291427
  10 C :   -0.326917
  11 C :   -0.193132
  12 N :    0.155243
  13 C :   -0.191805
  14 N :    0.164083
  15 C :   -0.013669
  16 C :   -0.032176
  17 C :    0.056789
  18 N :   -0.078091
  19 C :   -0.056131
  20 N :   -0.068482
  21 C :    0.122544
  22 C :   -0.120076
  23 C :    0.080752
  24 C :    0.000063
  25 C :    0.039439
  26 C :   -0.026922
  27 C :    0.089399
  28 C :    0.061532
  29 C :   -0.130590
  30 S :    0.236424
  31 C :   -0.020799
  32 C :    0.040074
  33 N :   -0.038588
  34 C :   -0.110142
  35 N :   -0.070517
  36 C :    0.049662
  37 C :    0.108252
  38 C :   -0.120434
  39 C :    0.133212
  40 O :   -0.115431
  41 C :    0.082060
  42 C :   -0.169726
  43 S :    0.189296
  44 C :   -0.123427
  45 C :    0.017061
  46 C :    0.301465
  47 C :   -0.306625
  48 C :   -0.199364
  49 N :    0.157876
  50 C :   -0.171242
  51 N :    0.165257
  52 Cl:    0.002545
  53 H :    0.055011
  54 H :    0.035770
  55 H :    0.012484
  56 H :    0.006573
  57 H :   -0.007788
  58 H :   -0.011401
  59 H :   -0.023320
  60 H :    0.047472
  61 H :    0.017218
  62 H :    0.009238
  63 H :    0.039688
  64 H :    0.054748
Sum of atomic charges:    0.0000000

LOEWDIN ATOMIC CHARGES
----------------------
   0 C :   -0.059738
   1 C :   -0.148118
   2 S :    0.477616
   3 C :   -0.271751
   4 Cl:    0.192696
   5 C :   -0.117295
   6 C :    0.080318
   7 O :   -0.126699
   8 C :   -0.090109
   9 C :    0.074190
  10 C :   -0.135710
  11 C :   -0.015287
  12 N :   -0.050329
  13 C :   -0.024620
  14 N :   -0.044091
  15 C :    0.078009
  16 C :   -0.104261
  17 C :    0.070879
  18 N :   -0.102944
  19 C :    0.036411
  20 N :   -0.081065
  21 C :    0.093969
  22 C :   -0.217886
  23 C :   -0.019906
  24 C :   -0.003779
  25 C :   -0.018526
  26 C :   -0.021504
  27 C :   -0.018571
  28 C :   -0.052106
  29 C :   -0.166847
  30 S :    0.548950
  31 C :   -0.040546
  32 C :    0.058866
  33 N :   -0.062872
  34 C :    0.005108
  35 N :   -0.075252
  36 C :    0.055509
  37 C :    0.073150
  38 C :   -0.060771
  39 C :    0.081990
  40 O :   -0.122288
  41 C :   -0.118596
  42 C :   -0.272349
  43 S :    0.479845
  44 C :   -0.150255
  45 C :   -0.055841
  46 C :    0.080211
  47 C :   -0.122242
  48 C :   -0.015523
  49 N :   -0.047367
  50 C :   -0.008134
  51 N :   -0.053984
  52 Cl:    0.194594
  53 H :    0.038165
  54 H :    0.048018
  55 H :    0.029665
  56 H :    0.027203
  57 H :    0.031088
  58 H :    0.031244
  59 H :    0.028189
  60 H :    0.029935
  61 H :    0.030203
  62 H :    0.028254
  63 H :    0.054579
  64 H :    0.038305

  Mayer bond orders larger than 0.100000
B(  0-C ,  1-C ) :   1.5430 B(  0-C ,  5-C ) :   1.2210 B(  0-C ,  9-C ) :   1.0011
B(  1-C ,  2-S ) :   1.1636 B(  1-C , 53-H ) :   0.9541 B(  2-S ,  3-C ) :   1.1527
B(  3-C ,  4-Cl) :   1.1294 B(  3-C ,  5-C ) :   1.4743 B(  5-C ,  6-C ) :   0.9509
B(  6-C ,  7-O ) :   2.2409 B(  6-C ,  8-C ) :   0.9283 B(  8-C ,  9-C ) :   1.0565
B(  8-C , 15-C ) :   1.6701 B(  9-C , 10-C ) :   1.6641 B( 10-C , 11-C ) :   1.1438
B( 10-C , 13-C ) :   1.1369 B( 11-C , 12-N ) :   2.9910 B( 13-C , 14-N ) :   2.9799
B( 15-C , 16-C ) :   1.0799 B( 15-C , 54-H ) :   0.9462 B( 16-C , 17-C ) :   1.2836
B( 16-C , 21-C ) :   1.2868 B( 17-C , 18-N ) :   1.6023 B( 17-C , 55-H ) :   0.9882
B( 18-N , 19-C ) :   1.5420 B( 19-C , 20-N ) :   1.5213 B( 19-C , 22-C ) :   1.0989
B( 20-N , 21-C ) :   1.5904 B( 21-C , 56-H ) :   0.9799 B( 22-C , 23-C ) :   1.3343
B( 22-C , 29-C ) :   0.1064 B( 22-C , 30-S ) :   1.1726 B( 23-C , 24-C ) :   1.2441
B( 23-C , 28-C ) :   1.2101 B( 24-C , 25-C ) :   1.4970 B( 24-C , 57-H ) :   0.9823
B( 25-C , 26-C ) :   1.2051 B( 25-C , 58-H ) :   0.9851 B( 26-C , 27-C ) :   1.5570
B( 26-C , 59-H ) :   0.9905 B( 27-C , 28-C ) :   1.1876 B( 27-C , 31-C ) :   0.9479
B( 28-C , 29-C ) :   1.4057 B( 29-C , 30-S ) :   1.2529 B( 29-C , 60-H ) :   0.9454
B( 31-C , 32-C ) :   1.3397 B( 31-C , 36-C ) :   1.3611 B( 32-C , 33-N ) :   1.5520
B( 32-C , 61-H ) :   0.9875 B( 33-N , 34-C ) :   1.5060 B( 34-C , 35-N ) :   1.4888
B( 34-C , 37-C ) :   0.9708 B( 35-N , 36-C ) :   1.5311 B( 36-C , 62-H ) :   0.9869
B( 37-C , 38-C ) :   1.7880 B( 37-C , 63-H ) :   0.9472 B( 38-C , 39-C ) :   0.9180
B( 38-C , 46-C ) :   1.0012 B( 39-C , 40-O ) :   2.3021 B( 39-C , 41-C ) :   0.9239
B( 41-C , 42-C ) :   1.4796 B( 41-C , 45-C ) :   1.2198 B( 42-C , 43-S ) :   1.1554
B( 42-C , 52-Cl) :   1.1317 B( 43-S , 44-C ) :   1.1626 B( 44-C , 45-C ) :   1.5446
B( 44-C , 64-H ) :   0.9561 B( 45-C , 46-C ) :   1.0201 B( 46-C , 47-C ) :   1.6960
B( 47-C , 48-C ) :   1.1383 B( 47-C , 50-C ) :   1.1439 B( 48-C , 49-N ) :   3.0016
B( 50-C , 51-N ) :   2.9901

-----------------------------------------------------------------------------
         ABSORPTION SPECTRUM VIA TRANSITION ELECTRIC DIPOLE MOMENTS
-----------------------------------------------------------------------------
State   Energy  Wavelength   fosc         T2         TX        TY        TZ
        (cm-1)    (nm)                  (au**2)     (au)      (au)      (au)
-----------------------------------------------------------------------------
   0   19312.4    517.8   1.110266355  18.92635   3.44444  -2.45883   1.00816
   1   21468.4    465.8   0.013934587   0.21368   0.34918   0.25369   0.16553
   2   27141.2    368.4   0.015961035   0.19360  -0.32019   0.30176   0.00450
   3   27242.5    367.1   0.007375157   0.08913   0.01347  -0.29163  -0.06240
   4   27561.2    362.8   0.047008749   0.56151  -0.55535   0.47141  -0.17570
   5   28314.9    353.2   0.049966707   0.58095   0.65930  -0.27807   0.26260
   6   28734.7    348.0   0.040068783   0.45907  -0.02360  -0.59059  -0.33122
   7   29794.2    335.6   0.028752656   0.31770  -0.44379  -0.20091  -0.28352
   8   29845.0    335.1   0.009506424   0.10486   0.02351   0.31783   0.05740
   9   30277.6    330.3   0.188240037   2.04676   0.86538  -1.11261  -0.24492
  10   31221.0    320.3   0.111911736   1.18006   0.77649  -0.16190   0.74223
  11   32519.4    307.5   0.153583961   1.55482  -1.04966   0.58316  -0.33610
  12   32777.8    305.1   0.010975968   0.11024   0.00291  -0.33073  -0.02909
  13   33640.9    297.3   0.043790415   0.42854  -0.23529  -0.54874   0.26845
  14   33985.5    294.2   0.194675457   1.88579  -1.19507  -0.08437  -0.67118
  15   34315.7    291.4   0.096595842   0.92670  -0.81070   0.39408  -0.33789
  16   34761.6    287.7   0.003006450   0.02847   0.07795  -0.07100   0.13174
  17   34982.9    285.9   0.012396324   0.11666   0.04805   0.20772  -0.26684
  18   35113.1    284.8   0.041546135   0.38953  -0.42597  -0.32022  -0.32487
  19   35592.9    281.0   0.058929447   0.54506   0.53013  -0.50394  -0.10034
  20   35736.6    279.8   0.008783930   0.08092   0.28046   0.04753   0.00076
  21   36494.5    274.0   0.202413601   1.82595  -0.47638   1.23544   0.26960
  22   37127.5    269.3   0.017845784   0.15824   0.26227  -0.23531   0.18461
  23   37285.3    268.2   0.165242745   1.45902   1.00346  -0.15657   0.65389
  24   37643.9    265.6   0.353989147   3.09578  -1.25478  -0.81208  -0.92836
  25   38028.0    263.0   0.256700122   2.22228  -0.27238   1.31857   0.63988
  26   38564.8    259.3   0.346480100   2.95776   1.03277  -1.35748   0.21993
  27   38990.4    256.5   0.365223270   3.08373   1.56323  -0.00772   0.80000
  28   39563.7    252.8   0.051198266   0.42602   0.41577  -0.49996   0.05651
  29   39991.7    250.1   0.051513922   0.42406  -0.32048   0.52822  -0.20577
  30   40198.1    248.8   0.068156146   0.55818  -0.50514   0.54146   0.09923
  31   40284.5    248.2   0.019996698   0.16342   0.12859  -0.37860  -0.05954

FINAL SINGLE POINT ENERGY     -4155.369623724554

DIPOLE MOMENT
-------------
                                X             Y             Z
Electronic contribution:      8.82065      -7.36792      -2.85420
Nuclear contribution   :     -9.21705       5.11869       2.62605
                        -----------------------------------------
Total Dipole Moment    :     -0.39640      -2.24923      -0.22816
                        -----------------------------------------
Magnitude (a.u.)       :      2.29527
Magnitude (Debye)      :      5.83410

Rotational constants in cm-1:     0.005106     0.000348     0.000335
Rotational constants in MHz :   153.084187    10.429306    10.035590

                             ****ORCA TERMINATED NORMALLY****
TOTAL RUN TIME: 0 days 0 hours 4 minutes 31 seconds 611 msec
