                         Program Version 4.2.0 -  RELEASE  -
|  1> # ORCA input file
|  2> # SCF done       -165.084663578649          0.000945678116
|  3> ! CAM-B3LYP def2-SVP def2/J RIJCOSX Grid4 TightSCF
|  4> %maxcore 5000
|  5> %tddft
|  6>     Mode sTDDFT
|  7>     Ethresh 5.0
|  8>     maxcore 5000
|  9> end
| 10>
| 11> %pal
| 12>   nprocs 6
| 13>   end
| 14> * xyz 0 1
| 15>    C        1.45500         0.84369        -0.86582
| 16>    C        0.53981         1.59759        -1.53498
| 17>    S        1.26010         2.40511        -2.87750
| 18>    C        2.82928         1.71222        -2.53749
| 19>   Cl        4.17726         2.06230        -3.49866
| 20>    C        2.76685         0.90993        -1.43723
| 21>    C        3.69770         0.06614        -0.67644
| 22>    O        4.84852        -0.17755        -0.92768
| 23>    C        2.85090        -0.52042         0.42325
| 24>    C        1.48568        -0.02245         0.29358
| 25>    C        0.42527        -0.25233         1.12655
| 26>    C       -0.83946         0.32541         0.88001
| 27>    N       -1.87461         0.78235         0.69237
| 28>    C        0.44877        -1.03646         2.29858
| 29>    N        0.39828        -1.64495         3.27011
| 30>    C        3.26498        -1.46773         1.29592
| 31>    C        4.61957        -1.85238         1.52603
| 32>    O        4.88734        -3.07363         2.04406
| 33>    C        6.22172        -3.04748         2.21004
| 34>    N        6.71776        -1.88390         1.84405
| 35>    N        5.71686        -1.14189         1.41723
| 36>    C        6.90251        -4.18795         2.72004
| 37>    N        8.24320        -4.23419         2.99601
| 38>    C        9.20734        -3.18460         2.77219
| 39>    C        9.60273        -3.07782         1.30309
| 40>    C        8.61178        -5.48688         3.51961
| 41>    O        9.74489        -5.77120         3.86285
| 42>    C        7.38128        -6.23982         3.53916
| 43>    C        6.34413        -5.41584         3.03726
| 44>    C        5.11535        -6.18802         3.06724
| 45>    O        3.98124        -5.93477         2.73805
| 46>    N        5.50669        -7.44034         3.60755
| 47>    C        4.53835        -8.49811         3.76302
| 48>    C        4.60287        -9.49546         2.60886
| 49>    C        6.84669        -7.47764         3.88619
| 50>    C        7.64643        -8.50583         4.45789
| 51>    C        7.38385        -9.77901         4.81098
| 52>    C        8.44221       -10.56275         5.42496
| 53>    N        8.17136       -11.82266         5.77591
| 54>    C        9.14695       -12.50049         6.35380
| 55>    C       10.39330       -11.94968         6.61752
| 56>    C       10.58336       -10.61852         6.22237
| 57>    N        9.60537        -9.95759         5.61296
| 58>    C       11.80572        -9.87964         6.47055
| 59>    C       11.90387        -8.58211         6.11926
| 60>    C       13.03622        -7.75919         6.36854
| 61>    C       13.06640        -6.40354         6.31766
| 62>    C       14.39007        -5.70347         6.25651
| 63>    O       15.47017        -6.19294         6.48265
| 64>    C       14.06113        -4.34258         5.82069
| 65>    C       14.73888        -3.20854         5.48492
| 66>    S       13.62362        -1.92935         5.07046
| 67>    C       12.25529        -2.93964         5.36773
| 68>    C       12.63677        -4.18743         5.74927
| 69>    C       11.99979        -5.42521         6.16236
| 70>    C       10.67860        -5.53536         6.49587
| 71>    C        9.78062        -4.46402         6.29547
| 72>    N        9.02741        -3.61370         6.13250
| 73>    C       10.06436        -6.62139         7.15351
| 74>    N        9.50123        -7.42374         7.75028
| 75>   Cl       16.41483        -2.96556         5.44479
| 76>    H       -0.50526         1.73283        -1.33838
| 77>    H        2.55080        -2.01356         1.89947
| 78>    H       10.07879        -3.45238         3.37491
| 79>    H        8.78820        -2.23776         3.11702
| 80>    H        9.96474        -4.03633         0.93800
| 81>    H       10.39279        -2.34071         1.19481
| 82>    H        8.75293        -2.76049         0.70601
| 83>    H        3.55786        -8.01291         3.76897
| 84>    H        4.69537        -8.99045         4.72519
| 85>    H        4.36203        -8.99460         1.67434
| 86>    H        3.88255       -10.29252         2.77024
| 87>    H        5.59605        -9.93014         2.52213
| 88>    H        8.66261        -8.17357         4.63557
| 89>    H        6.44098       -10.28506         4.68777
| 90>    H        8.91268       -13.52278         6.62300
| 91>    H       11.17125       -12.51326         7.10596
| 92>    H       12.60010       -10.38831         6.99884
| 93>    H       11.06384        -8.14003         5.60190
| 94>    H       13.98615        -8.24582         6.56558
| 95>    H       11.27068        -2.53618         5.24084
| 96> *
| 97>
| 98>                          ****END OF INPUT****

CARTESIAN COORDINATES (ANGSTROEM)
---------------------------------
  C      1.455000    0.843690   -0.865820
  C      0.539810    1.597590   -1.534980
  S      1.260100    2.405110   -2.877500
  C      2.829280    1.712220   -2.537490
  Cl     4.177260    2.062300   -3.498660
  C      2.766850    0.909930   -1.437230
  C      3.697700    0.066140   -0.676440
  O      4.848520   -0.177550   -0.927680
  C      2.850900   -0.520420    0.423250
  C      1.485680   -0.022450    0.293580
  C      0.425270   -0.252330    1.126550
  C     -0.839460    0.325410    0.880010
  N     -1.874610    0.782350    0.692370
  C      0.448770   -1.036460    2.298580
  N      0.398280   -1.644950    3.270110
  C      3.264980   -1.467730    1.295920
  C      4.619570   -1.852380    1.526030
  O      4.887340   -3.073630    2.044060
  C      6.221720   -3.047480    2.210040
  N      6.717760   -1.883900    1.844050
  N      5.716860   -1.141890    1.417230
  C      6.902510   -4.187950    2.720040
  N      8.243200   -4.234190    2.996010
  C      9.207340   -3.184600    2.772190
  C      9.602730   -3.077820    1.303090
  C      8.611780   -5.486880    3.519610
  O      9.744890   -5.771200    3.862850
  C      7.381280   -6.239820    3.539160
  C      6.344130   -5.415840    3.037260
  C      5.115350   -6.188020    3.067240
  O      3.981240   -5.934770    2.738050
  N      5.506690   -7.440340    3.607550
  C      4.538350   -8.498110    3.763020
  C      4.602870   -9.495460    2.608860
  C      6.846690   -7.477640    3.886190
  C      7.646430   -8.505830    4.457890
  C      7.383850   -9.779010    4.810980
  C      8.442210  -10.562750    5.424960
  N      8.171360  -11.822660    5.775910
  C      9.146950  -12.500490    6.353800
  C     10.393300  -11.949680    6.617520
  C     10.583360  -10.618520    6.222370
  N      9.605370   -9.957590    5.612960
  C     11.805720   -9.879640    6.470550
  C     11.903870   -8.582110    6.119260
  C     13.036220   -7.759190    6.368540
  C     13.066400   -6.403540    6.317660
  C     14.390070   -5.703470    6.256510
  O     15.470170   -6.192940    6.482650
  C     14.061130   -4.342580    5.820690
  C     14.738880   -3.208540    5.484920
  S     13.623620   -1.929350    5.070460
  C     12.255290   -2.939640    5.367730
  C     12.636770   -4.187430    5.749270
  C     11.999790   -5.425210    6.162360
  C     10.678600   -5.535360    6.495870
  C      9.780620   -4.464020    6.295470
  N      9.027410   -3.613700    6.132500
  C     10.064360   -6.621390    7.153510
  N      9.501230   -7.423740    7.750280
  Cl    16.414830   -2.965560    5.444790
  H     -0.505260    1.732830   -1.338380
  H      2.550800   -2.013560    1.899470
  H     10.078790   -3.452380    3.374910
  H      8.788200   -2.237760    3.117020
  H      9.964740   -4.036330    0.938000
  H     10.392790   -2.340710    1.194810
  H      8.752930   -2.760490    0.706010
  H      3.557860   -8.012910    3.768970
  H      4.695370   -8.990450    4.725190
  H      4.362030   -8.994600    1.674340
  H      3.882550  -10.292520    2.770240
  H      5.596050   -9.930140    2.522130
  H      8.662610   -8.173570    4.635570
  H      6.440980  -10.285060    4.687770
  H      8.912680  -13.522780    6.623000
  H     11.171250  -12.513260    7.105960
  H     12.600100  -10.388310    6.998840
  H     11.063840   -8.140030    5.601900
  H     13.986150   -8.245820    6.565580
  H     11.270680   -2.536180    5.240840

 Total Charge           Charge          ....    0
 Multiplicity           Mult            ....    1
 Number of Electrons    NEL             ....  448
 Basis Dimension        Dim             ....  970

ORBITAL ENERGIES
----------------

  NO   OCC          E(Eh)            E(eV)
   0   2.0000    -101.619218     -2765.1995
   1   2.0000    -101.614299     -2765.0657
   2   2.0000     -88.997488     -2421.7448
   3   2.0000     -88.989086     -2421.5161
   4   2.0000     -19.331606      -526.0397
   5   2.0000     -19.222792      -523.0788
   6   2.0000     -19.216884      -522.9180
   7   2.0000     -19.202411      -522.5242
   8   2.0000     -19.195590      -522.3386
   9   2.0000     -14.461931      -393.5292
  10   2.0000     -14.461864      -393.5273
  11   2.0000     -14.453681      -393.3046
  12   2.0000     -14.452307      -393.2673
  13   2.0000     -14.426621      -392.5683
  14   2.0000     -14.426544      -392.5662
  15   2.0000     -14.418416      -392.3450
  16   2.0000     -14.416318      -392.2880
  17   2.0000     -14.416001      -392.2793
  18   2.0000     -14.413683      -392.2163
  19   2.0000     -10.392654      -282.7985
  20   2.0000     -10.386200      -282.6229
  21   2.0000     -10.385167      -282.5948
  22   2.0000     -10.381052      -282.4828
  23   2.0000     -10.379695      -282.4459
  24   2.0000     -10.378886      -282.4238
  25   2.0000     -10.372580      -282.2523
  26   2.0000     -10.372547      -282.2514
  27   2.0000     -10.357253      -281.8352
  28   2.0000     -10.355566      -281.7893
  29   2.0000     -10.354653      -281.7644
  30   2.0000     -10.351784      -281.6864
  31   2.0000     -10.351675      -281.6834
  32   2.0000     -10.344956      -281.5006
  33   2.0000     -10.341214      -281.3987
  34   2.0000     -10.339061      -281.3401
  35   2.0000     -10.335476      -281.2426
  36   2.0000     -10.333696      -281.1942
  37   2.0000     -10.330019      -281.0941
  38   2.0000     -10.327958      -281.0380
  39   2.0000     -10.327633      -281.0292
  40   2.0000     -10.323938      -280.9286
  41   2.0000     -10.323846      -280.9261
  42   2.0000     -10.319228      -280.8005
  43   2.0000     -10.317353      -280.7494
  44   2.0000     -10.315819      -280.7077
  45   2.0000     -10.314215      -280.6640
  46   2.0000     -10.311436      -280.5884
  47   2.0000     -10.308513      -280.5089
  48   2.0000     -10.303551      -280.3739
  49   2.0000     -10.303328      -280.3678
  50   2.0000     -10.299244      -280.2567
  51   2.0000     -10.298586      -280.2388
  52   2.0000     -10.297094      -280.1982
  53   2.0000     -10.296396      -280.1792
  54   2.0000     -10.296292      -280.1763
  55   2.0000     -10.294479      -280.1270
  56   2.0000     -10.294200      -280.1194
  57   2.0000     -10.278995      -279.7057
  58   2.0000     -10.269134      -279.4373
  59   2.0000     -10.266142      -279.3559
  60   2.0000     -10.251363      -278.9538
  61   2.0000      -9.574000      -260.5218
  62   2.0000      -9.569076      -260.3878
  63   2.0000      -8.093195      -220.2270
  64   2.0000      -8.084901      -220.0013
  65   2.0000      -7.344663      -199.8584
  66   2.0000      -7.339708      -199.7236
  67   2.0000      -7.334022      -199.5689
  68   2.0000      -7.333475      -199.5540
  69   2.0000      -7.329119      -199.4355
  70   2.0000      -7.328582      -199.4209
  71   2.0000      -6.062539      -164.9701
  72   2.0000      -6.057946      -164.8451
  73   2.0000      -6.055498      -164.7785
  74   2.0000      -6.054296      -164.7458
  75   2.0000      -6.049692      -164.6205
  76   2.0000      -6.047104      -164.5501
  77   2.0000      -1.279946       -34.8291
  78   2.0000      -1.142580       -31.0912
  79   2.0000      -1.141944       -31.0739
  80   2.0000      -1.133730       -30.8504
  81   2.0000      -1.133537       -30.8451
  82   2.0000      -1.104956       -30.0674
  83   2.0000      -1.093083       -29.7443
  84   2.0000      -1.072863       -29.1941
  85   2.0000      -1.063830       -28.9483
  86   2.0000      -1.042344       -28.3636
  87   2.0000      -1.033744       -28.1296
  88   2.0000      -1.023235       -27.8436
  89   2.0000      -1.012484       -27.5511
  90   2.0000      -1.004685       -27.3389
  91   2.0000      -0.994092       -27.0506
  92   2.0000      -0.994052       -27.0495
  93   2.0000      -0.991445       -26.9786
  94   2.0000      -0.983832       -26.7714
  95   2.0000      -0.966602       -26.3026
  96   2.0000      -0.952552       -25.9203
  97   2.0000      -0.951260       -25.8851
  98   2.0000      -0.935792       -25.4642
  99   2.0000      -0.932284       -25.3687
 100   2.0000      -0.913080       -24.8462
 101   2.0000      -0.912308       -24.8252
 102   2.0000      -0.898937       -24.4613
 103   2.0000      -0.889829       -24.2135
 104   2.0000      -0.883075       -24.0297
 105   2.0000      -0.871991       -23.7281
 106   2.0000      -0.850575       -23.1453
 107   2.0000      -0.836859       -22.7721
 108   2.0000      -0.832767       -22.6607
 109   2.0000      -0.828255       -22.5380
 110   2.0000      -0.821740       -22.3607
 111   2.0000      -0.812217       -22.1016
 112   2.0000      -0.803140       -21.8546
 113   2.0000      -0.792328       -21.5603
 114   2.0000      -0.764189       -20.7946
 115   2.0000      -0.761405       -20.7189
 116   2.0000      -0.758770       -20.6472
 117   2.0000      -0.754393       -20.5281
 118   2.0000      -0.749579       -20.3971
 119   2.0000      -0.735424       -20.0119
 120   2.0000      -0.724250       -19.7078
 121   2.0000      -0.711314       -19.3558
 122   2.0000      -0.698919       -19.0185
 123   2.0000      -0.690218       -18.7818
 124   2.0000      -0.688870       -18.7451
 125   2.0000      -0.687399       -18.7051
 126   2.0000      -0.681471       -18.5438
 127   2.0000      -0.678033       -18.4502
 128   2.0000      -0.676233       -18.4012
 129   2.0000      -0.672092       -18.2885
 130   2.0000      -0.652564       -17.7572
 131   2.0000      -0.641332       -17.4515
 132   2.0000      -0.639314       -17.3966
 133   2.0000      -0.622620       -16.9423
 134   2.0000      -0.620435       -16.8829
 135   2.0000      -0.619424       -16.8554
 136   2.0000      -0.616335       -16.7713
 137   2.0000      -0.613017       -16.6810
 138   2.0000      -0.606514       -16.5041
 139   2.0000      -0.602608       -16.3978
 140   2.0000      -0.593274       -16.1438
 141   2.0000      -0.590399       -16.0656
 142   2.0000      -0.581532       -15.8243
 143   2.0000      -0.575588       -15.6626
 144   2.0000      -0.560885       -15.2625
 145   2.0000      -0.560111       -15.2414
 146   2.0000      -0.555528       -15.1167
 147   2.0000      -0.554131       -15.0787
 148   2.0000      -0.553090       -15.0503
 149   2.0000      -0.550203       -14.9718
 150   2.0000      -0.547916       -14.9096
 151   2.0000      -0.544393       -14.8137
 152   2.0000      -0.541248       -14.7281
 153   2.0000      -0.534972       -14.5573
 154   2.0000      -0.534663       -14.5489
 155   2.0000      -0.533236       -14.5101
 156   2.0000      -0.530713       -14.4414
 157   2.0000      -0.528435       -14.3795
 158   2.0000      -0.523931       -14.2569
 159   2.0000      -0.519412       -14.1339
 160   2.0000      -0.519049       -14.1241
 161   2.0000      -0.517821       -14.0906
 162   2.0000      -0.513389       -13.9700
 163   2.0000      -0.510417       -13.8892
 164   2.0000      -0.509290       -13.8585
 165   2.0000      -0.508088       -13.8258
 166   2.0000      -0.505819       -13.7640
 167   2.0000      -0.499390       -13.5891
 168   2.0000      -0.497730       -13.5439
 169   2.0000      -0.493187       -13.4203
 170   2.0000      -0.491386       -13.3713
 171   2.0000      -0.489030       -13.3072
 172   2.0000      -0.483731       -13.1630
 173   2.0000      -0.477381       -12.9902
 174   2.0000      -0.471038       -12.8176
 175   2.0000      -0.464479       -12.6391
 176   2.0000      -0.464086       -12.6284
 177   2.0000      -0.460693       -12.5361
 178   2.0000      -0.457880       -12.4595
 179   2.0000      -0.457767       -12.4565
 180   2.0000      -0.454619       -12.3708
 181   2.0000      -0.452999       -12.3267
 182   2.0000      -0.452745       -12.3198
 183   2.0000      -0.452016       -12.3000
 184   2.0000      -0.450350       -12.2547
 185   2.0000      -0.449000       -12.2179
 186   2.0000      -0.448152       -12.1948
 187   2.0000      -0.446823       -12.1587
 188   2.0000      -0.443084       -12.0569
 189   2.0000      -0.440791       -11.9945
 190   2.0000      -0.439132       -11.9494
 191   2.0000      -0.438534       -11.9331
 192   2.0000      -0.437361       -11.9012
 193   2.0000      -0.436493       -11.8776
 194   2.0000      -0.428952       -11.6724
 195   2.0000      -0.427383       -11.6297
 196   2.0000      -0.426246       -11.5988
 197   2.0000      -0.423195       -11.5157
 198   2.0000      -0.420399       -11.4396
 199   2.0000      -0.418529       -11.3887
 200   2.0000      -0.413228       -11.2445
 201   2.0000      -0.409656       -11.1473
 202   2.0000      -0.405780       -11.0418
 203   2.0000      -0.405172       -11.0253
 204   2.0000      -0.400188       -10.8897
 205   2.0000      -0.396498       -10.7893
 206   2.0000      -0.386975       -10.5301
 207   2.0000      -0.384984       -10.4760
 208   2.0000      -0.374547       -10.1919
 209   2.0000      -0.357808        -9.7365
 210   2.0000      -0.356207        -9.6929
 211   2.0000      -0.344870        -9.3844
 212   2.0000      -0.341416        -9.2904
 213   2.0000      -0.341085        -9.2814
 214   2.0000      -0.340345        -9.2613
 215   2.0000      -0.335300        -9.1240
 216   2.0000      -0.332111        -9.0372
 217   2.0000      -0.330396        -8.9905
 218   2.0000      -0.326505        -8.8846
 219   2.0000      -0.322076        -8.7641
 220   2.0000      -0.314193        -8.5496
 221   2.0000      -0.311634        -8.4800
 222   2.0000      -0.295501        -8.0410
 223   2.0000      -0.254294        -6.9197
 224   0.0000      -0.112870        -3.0714
 225   0.0000      -0.097056        -2.6410
 226   0.0000      -0.085098        -2.3156
 227   0.0000      -0.053425        -1.4538
 228   0.0000      -0.048182        -1.3111

MULLIKEN ATOMIC CHARGES
-----------------------
   0 C :    0.031263
   1 C :   -0.126930
   2 S :    0.191785
   3 C :   -0.167524
   4 Cl:    0.003812
   5 C :    0.067635
   6 C :    0.150691
   7 O :   -0.087095
   8 C :   -0.078093
   9 C :    0.289893
  10 C :   -0.323699
  11 C :   -0.192382
  12 N :    0.162729
  13 C :   -0.189653
  14 N :    0.178467
  15 C :   -0.067230
  16 C :    0.140467
  17 O :   -0.146285
  18 C :    0.079403
  19 N :   -0.095852
  20 N :   -0.016855
  21 C :    0.086178
  22 N :   -0.250107
  23 C :    0.124006
  24 C :    0.005761
  25 C :    0.171582
  26 O :   -0.223017
  27 C :   -0.046382
  28 C :   -0.013820
  29 C :    0.140308
  30 O :   -0.159290
  31 N :   -0.268482
  32 C :    0.103344
  33 C :    0.001386
  34 C :    0.158427
  35 C :   -0.007081
  36 C :    0.031704
  37 C :   -0.058557
  38 N :   -0.063330
  39 C :    0.084154
  40 C :   -0.032888
  41 C :    0.057941
  42 N :   -0.067682
  43 C :    0.005041
  44 C :    0.048485
  45 C :    0.027936
  46 C :   -0.109865
  47 C :    0.132781
  48 O :   -0.128358
  49 C :    0.081381
  50 C :   -0.171857
  51 S :    0.181698
  52 C :   -0.134247
  53 C :    0.025808
  54 C :    0.301095
  55 C :   -0.283037
  56 C :   -0.187350
  57 N :    0.137126
  58 C :   -0.228931
  59 N :    0.184023
  60 Cl:   -0.002827
  61 H :    0.055385
  62 H :    0.059182
  63 H :    0.020312
  64 H :    0.040120
  65 H :    0.014345
  66 H :    0.016804
  67 H :    0.028920
  68 H :    0.045742
  69 H :    0.029879
  70 H :    0.027614
  71 H :    0.026612
  72 H :    0.020592
  73 H :    0.034710
  74 H :   -0.010225
  75 H :    0.011542
  76 H :   -0.000668
  77 H :   -0.008343
  78 H :    0.058314
  79 H :    0.018978
  80 H :    0.052584
Sum of atomic charges:   -0.0000000

LOEWDIN ATOMIC CHARGES
----------------------
   0 C :   -0.060558
   1 C :   -0.149073
   2 S :    0.481432
   3 C :   -0.272233
   4 Cl:    0.196016
   5 C :   -0.116524
   6 C :    0.075122
   7 O :   -0.097241
   8 C :   -0.048469
   9 C :    0.069664
  10 C :   -0.122929
  11 C :   -0.014387
  12 N :   -0.043165
  13 C :   -0.026241
  14 N :   -0.031424
  15 C :    0.039583
  16 C :    0.021283
  17 O :    0.045344
  18 C :    0.034579
  19 N :   -0.066116
  20 N :   -0.033093
  21 C :    0.041498
  22 N :    0.021745
  23 C :    0.035804
  24 C :   -0.061028
  25 C :    0.085409
  26 O :   -0.209618
  27 C :   -0.115239
  28 C :   -0.097440
  29 C :    0.086874
  30 O :   -0.165752
  31 N :   -0.001878
  32 C :    0.037243
  33 C :   -0.061844
  34 C :    0.090640
  35 C :   -0.005118
  36 C :   -0.000666
  37 C :    0.030282
  38 N :   -0.086657
  39 C :    0.054726
  40 C :   -0.053478
  41 C :    0.038044
  42 N :   -0.065122
  43 C :   -0.001137
  44 C :    0.011643
  45 C :    0.062041
  46 C :   -0.068210
  47 C :    0.080096
  48 O :   -0.132784
  49 C :   -0.119083
  50 C :   -0.272887
  51 S :    0.471631
  52 C :   -0.155525
  53 C :   -0.049985
  54 C :    0.070133
  55 C :   -0.111881
  56 C :   -0.005503
  57 N :   -0.064221
  58 C :   -0.023156
  59 N :   -0.044833
  60 Cl:    0.190074
  61 H :    0.038157
  62 H :    0.059895
  63 H :    0.025191
  64 H :    0.029827
  65 H :    0.024444
  66 H :    0.030112
  67 H :    0.023274
  68 H :    0.038659
  69 H :    0.025877
  70 H :    0.032143
  71 H :    0.032333
  72 H :    0.022487
  73 H :    0.048191
  74 H :    0.033590
  75 H :    0.028708
  76 H :    0.035726
  77 H :    0.032423
  78 H :    0.042985
  79 H :    0.045477
  80 H :    0.034093

  Mayer bond orders larger than 0.100000
B(  0-C ,  1-C ) :   1.5381 B(  0-C ,  5-C ) :   1.2259 B(  0-C ,  9-C ) :   1.0035
B(  1-C ,  2-S ) :   1.1678 B(  1-C , 61-H ) :   0.9538 B(  2-S ,  3-C ) :   1.1523
B(  3-C ,  4-Cl) :   1.1311 B(  3-C ,  5-C ) :   1.4814 B(  5-C ,  6-C ) :   0.9439
B(  6-C ,  7-O ) :   2.2995 B(  6-C ,  8-C ) :   0.8981 B(  8-C ,  9-C ) :   1.0557
B(  8-C , 15-C ) :   1.7051 B(  9-C , 10-C ) :   1.6735 B( 10-C , 11-C ) :   1.1450
B( 10-C , 13-C ) :   1.1329 B( 11-C , 12-N ) :   2.9924 B( 13-C , 14-N ) :   2.9886
B( 15-C , 16-C ) :   1.1129 B( 15-C , 62-H ) :   0.9302 B( 16-C , 17-O ) :   1.1333
B( 16-C , 20-N ) :   1.6231 B( 17-O , 18-C ) :   1.2496 B( 18-C , 19-N ) :   1.5679
B( 18-C , 21-C ) :   1.0646 B( 19-N , 20-N ) :   1.2438 B( 21-C , 22-N ) :   1.2189
B( 21-C , 28-C ) :   1.3994 B( 22-N , 23-C ) :   0.9331 B( 22-N , 25-C ) :   1.0510
B( 23-C , 24-C ) :   1.1213 B( 23-C , 63-H ) :   0.9243 B( 23-C , 64-H ) :   0.9383
B( 24-C , 65-H ) :   0.9637 B( 24-C , 66-H ) :   0.9661 B( 24-C , 67-H ) :   0.9637
B( 25-C , 26-O ) :   2.0308 B( 25-C , 27-C ) :   0.9985 B( 27-C , 28-C ) :   1.2239
B( 27-C , 34-C ) :   1.3415 B( 28-C , 29-C ) :   0.9330 B( 29-C , 30-O ) :   2.1910
B( 29-C , 31-N ) :   1.0169 B( 31-N , 32-C ) :   0.9382 B( 31-N , 34-C ) :   1.1971
B( 32-C , 33-C ) :   1.1197 B( 32-C , 68-H ) :   0.9276 B( 32-C , 69-H ) :   0.9504
B( 33-C , 70-H ) :   0.9618 B( 33-C , 71-H ) :   0.9684 B( 33-C , 72-H ) :   0.9679
B( 34-C , 35-C ) :   1.1218 B( 35-C , 36-C ) :   1.6428 B( 35-C , 73-H ) :   0.9377
B( 36-C , 37-C ) :   1.0130 B( 36-C , 74-H ) :   0.9808 B( 37-C , 38-N ) :   1.5300
B( 37-C , 42-N ) :   1.5392 B( 38-N , 39-C ) :   1.5451 B( 39-C , 40-C ) :   1.3754
B( 39-C , 75-H ) :   0.9786 B( 40-C , 41-C ) :   1.3304 B( 40-C , 76-H ) :   0.9759
B( 41-C , 42-N ) :   1.5183 B( 41-C , 43-C ) :   1.0449 B( 43-C , 44-C ) :   1.7274
B( 43-C , 77-H ) :   0.9857 B( 44-C , 45-C ) :   1.0737 B( 44-C , 78-H ) :   0.9433
B( 45-C , 46-C ) :   1.6860 B( 45-C , 79-H ) :   0.9566 B( 46-C , 47-C ) :   0.9301
B( 46-C , 54-C ) :   1.0213 B( 47-C , 48-O ) :   2.2810 B( 47-C , 49-C ) :   0.9276
B( 49-C , 50-C ) :   1.4803 B( 49-C , 53-C ) :   1.2236 B( 50-C , 51-S ) :   1.1541
B( 50-C , 60-Cl) :   1.1264 B( 51-S , 52-C ) :   1.1533 B( 52-C , 53-C ) :   1.5618
B( 52-C , 80-H ) :   0.9455 B( 53-C , 54-C ) :   1.0106 B( 54-C , 55-C ) :   1.6800
B( 55-C , 56-C ) :   1.1391 B( 55-C , 58-C ) :   1.1572 B( 56-C , 57-N ) :   2.9514
B( 58-C , 59-N ) :   3.0059

-----------------------------------------------------------------------------
         ABSORPTION SPECTRUM VIA TRANSITION ELECTRIC DIPOLE MOMENTS
-----------------------------------------------------------------------------
State   Energy  Wavelength   fosc         T2         TX        TY        TZ
        (cm-1)    (nm)                  (au**2)     (au)      (au)      (au)
-----------------------------------------------------------------------------
   0   15416.6    648.6   0.482574053  10.30504  -1.08557   2.77160  -1.20202
   1   18263.6    547.5   0.050829443   0.91623   0.90675  -0.05834   0.30106
   2   21427.3    466.7   0.123819460   1.90238   1.07387   0.79116  -0.35106
   3   23858.7    419.1   0.039078194   0.53922  -0.67119   0.29332   0.05187
   4   25521.6    391.8   0.090723057   1.17027   0.13438  -1.06975   0.08863
   5   25891.3    386.2   0.218890560   2.78323   0.00291   1.66171   0.14807
   6   26754.9    373.8   0.064293258   0.79111   0.81270   0.11344   0.34316
   7   26985.7    370.6   0.032144831   0.39215   0.48734   0.01701  -0.39289
   8   27817.6    359.5   0.004982240   0.05896  -0.08203   0.22424  -0.04418
   9   28534.0    350.5   0.192238239   2.21795   0.31072   1.43576  -0.24493
  10   28836.0    346.8   0.075435633   0.86123  -0.19060   0.90116  -0.11320
  11   29275.8    341.6   0.007291149   0.08199  -0.07590   0.23541  -0.14426
  12   29454.1    339.5   0.142491260   1.59264   1.23870   0.23014   0.07274
  13   29535.7    338.6   0.070376373   0.78443   0.08578  -0.83674  -0.27739
  14   29866.6    334.8   0.047462351   0.52317  -0.55744   0.44408  -0.12335
  15   30289.9    330.1   0.031695711   0.34449  -0.48173   0.03195  -0.33378
  16   30421.9    328.7   0.191006053   2.06698  -1.26645   0.62786  -0.26244
  17   31321.4    319.3   0.003431729   0.03607   0.17739  -0.03186  -0.05990
  18   31789.7    314.6   0.144556061   1.49701   0.57505  -0.93187   0.54585
  19   32270.0    309.9   0.196759293   2.00730  -0.54811   0.97452  -0.87016
  20   32546.8    307.2   0.028156639   0.28480   0.39250   0.35810   0.05008
  21   32683.4    306.0   0.386044316   3.88853   1.07860  -1.07257   1.25489
  22   33200.9    301.2   0.007553367   0.07490  -0.03549   0.10893  -0.24854
  23   33282.7    300.5   0.002278663   0.02254  -0.07292  -0.11432   0.06444
  24   33564.5    297.9   0.047711196   0.46797   0.10905   0.58539  -0.33675
  25   33790.7    295.9   0.052359400   0.51012   0.22716  -0.43963   0.51502
  26   34215.1    292.3   0.008042041   0.07738  -0.23959  -0.14088  -0.01133
  27   34662.2    288.5   0.050466924   0.47932   0.43311  -0.44773   0.30212
  28   35066.1    285.2   0.086105707   0.80839  -0.89207   0.08860   0.06889
  29   35125.2    284.7   0.260129943   2.43808   1.51637   0.37208  -0.01648
  30   35721.7    279.9   0.022828056   0.21038  -0.42234  -0.17871   0.00879
  31   36462.2    274.3   0.615190965   5.55447  -1.45064  -1.79390   0.48171
  32   36728.0    272.3   0.316229485   2.83453   0.61704   1.06425  -1.14942
  33   36967.1    270.5   0.255310756   2.27368  -0.62935  -1.34380   0.26795
  34   37216.0    268.7   0.104907295   0.92801  -0.69227  -0.47972   0.46758
  35   37394.9    267.4   0.074734790   0.65794   0.21473   0.66852  -0.40609
  36   37468.5    266.9   0.137474601   1.20790  -0.18866  -0.27653   1.04682
  37   37923.7    263.7   0.121766819   1.05705   0.45519   0.34510  -0.85484
  38   38086.0    262.6   0.013225522   0.11432  -0.11403   0.30271  -0.09841
  39   38874.7    257.2   0.139368477   1.18025  -0.88955  -0.47793   0.40066
  40   39294.1    254.5   0.039398191   0.33008   0.37404   0.41539  -0.13277
  41   39833.2    251.0   0.003382061   0.02795  -0.10352  -0.11441   0.06439
  42   40172.2    248.9   0.067650172   0.55439   0.63686   0.37598   0.08629

FINAL SINGLE POINT ENERGY     -4249.108271515267

DIPOLE MOMENT
-------------
                                X             Y             Z
Electronic contribution:      2.98117      59.20840     -16.81000
Nuclear contribution   :     -1.77266     -60.38489      15.47931
                        -----------------------------------------
Total Dipole Moment    :      1.20851      -1.17649      -1.33068
                        -----------------------------------------
Magnitude (a.u.)       :      2.14834
Magnitude (Debye)      :      5.46064

Rotational constants in cm-1:     0.001754     0.000517     0.000424
Rotational constants in MHz :    52.596151    15.491873    12.697483

                             ****ORCA TERMINATED NORMALLY****
TOTAL RUN TIME: 0 days 0 hours 7 minutes 20 seconds 979 msec
