                         Program Version 4.2.0 -  RELEASE  -
|  1> # ORCA input file
|  2> # SCF done       -142.613953700316          0.000983675129
|  3> ! CAM-B3LYP def2-SVP def2/J RIJCOSX Grid4 TightSCF
|  4> %maxcore 5000
|  5> %tddft
|  6>     Mode sTDDFT
|  7>     Ethresh 5.0
|  8>     maxcore 5000
|  9> end
| 10>
| 11> %pal
| 12>   nprocs 6
| 13>   end
| 14> * xyz 0 1
| 15>    C       -5.10029         1.41435         6.46860
| 16>    C       -4.65487         1.82448         5.22279
| 17>    O       -3.97377         1.02915         4.34763
| 18>    C       -3.69471        -0.29853         4.71754
| 19>    C       -4.89123         3.15542         4.80757
| 20>    C       -5.57184         4.00992         5.66469
| 21>    C       -6.01846         3.59252         6.91492
| 22>    C       -5.77619         2.28440         7.31185
| 23>    O       -6.67614         4.53084         7.65508
| 24>    C       -7.14966         4.16671         8.92854
| 25>    C       -4.43565         3.56902         3.49506
| 26>    C       -4.24563         4.83419         3.09583
| 27>    C       -3.79108         5.22904         1.77778
| 28>    C       -3.27965         6.50979         1.57180
| 29>    C       -2.83725         6.89395         0.30529
| 30>    C       -2.96166         5.95182        -0.72574
| 31>    N       -3.46607         4.75003        -0.55005
| 32>    C       -3.86532         4.39266         0.65417
| 33>    C       -2.26673         8.19114         0.05646
| 34>    S       -2.28863         8.89192        -1.54153
| 35>    C       -1.44685        10.34832        -1.05357
| 36>    C       -1.14661        10.26942         0.30637
| 37>    C       -1.61915         9.06228         0.90991
| 38>    N       -1.26208         9.08453         2.22383
| 39>    C       -0.58076        10.26137         2.46576
| 40>    C       -0.07254        10.56161         3.73731
| 41>    N        0.34619        10.79476         4.77991
| 42>    C       -0.49810        11.01576         1.31418
| 43>    C       -1.17721        11.37564        -1.96680
| 44>    S       -0.25168        12.78685        -1.51865
| 45>    C       -0.38937        13.53936        -3.09890
| 46>    C       -1.11260        12.68161        -3.94375
| 47>    C       -1.55514        11.49499        -3.30187
| 48>    N       -2.26432        10.76057        -4.19700
| 49>    C       -2.28763        11.45099        -5.38934
| 50>    C       -2.94867        10.94746        -6.51867
| 51>    N       -3.48616        10.53519        -7.44457
| 52>    C       -1.58801        12.63708        -5.27002
| 53>    C        0.23158        14.73043        -3.47222
| 54>    C        0.86220        15.68665        -2.71419
| 55>    C        1.88781        16.54496        -3.36881
| 56>    O        2.09196        16.65146        -4.55641
| 57>    C        2.60894        17.16917        -2.24890
| 58>    C        3.68703        17.98150        -2.07621
| 59>    S        3.95337        18.29751        -0.37577
| 60>    C        2.59050        17.33589         0.07841
| 61>    C        1.98292        16.80231        -1.01199
| 62>    C        0.81442        15.98993        -1.30655
| 63>    C       -0.23668        15.80806        -0.43880
| 64>    C       -1.50119        15.33303        -0.82874
| 65>    N       -2.55813        14.99735        -1.12929
| 66>    C       -0.15020        16.19623         0.91087
| 67>    N       -0.08201        16.48328         2.02050
| 68>   Cl        4.69488        18.65203        -3.26262
| 69>    H       -4.93218         0.40483         6.80853
| 70>    H       -3.14259        -0.72553         3.88143
| 71>    H       -4.61173        -0.87516         4.87635
| 72>    H       -3.07456        -0.34314         5.61867
| 73>    H       -5.79237         5.02163         5.36618
| 74>    H       -6.10711         1.91865         8.27055
| 75>    H       -7.63070         5.05745         9.32932
| 76>    H       -6.33133         3.86897         9.59241
| 77>    H       -7.88351         3.35627         8.86917
| 78>    H       -4.20268         2.75365         2.82575
| 79>    H       -4.39856         5.64868         3.79202
| 80>    H       -3.25700         7.21239         2.39360
| 81>    H       -2.63185         6.19000        -1.72904
| 82>    H       -4.28792         3.40096         0.72556
| 83>    H       -1.39718         8.35219         2.89992
| 84>    H       -0.03077        11.97484         1.22115
| 85>    H       -2.71730         9.87748        -4.02941
| 86>    H       -1.44768        13.36590        -6.04213
| 87>    H        0.31597        14.88176        -4.54489
| 88>    H        2.34518        17.22797         1.11620
| 89> *
| 90>
| 91>                          ****END OF INPUT****

CARTESIAN COORDINATES (ANGSTROEM)
---------------------------------
  C     -5.100290    1.414350    6.468600
  C     -4.654870    1.824480    5.222790
  O     -3.973770    1.029150    4.347630
  C     -3.694710   -0.298530    4.717540
  C     -4.891230    3.155420    4.807570
  C     -5.571840    4.009920    5.664690
  C     -6.018460    3.592520    6.914920
  C     -5.776190    2.284400    7.311850
  O     -6.676140    4.530840    7.655080
  C     -7.149660    4.166710    8.928540
  C     -4.435650    3.569020    3.495060
  C     -4.245630    4.834190    3.095830
  C     -3.791080    5.229040    1.777780
  C     -3.279650    6.509790    1.571800
  C     -2.837250    6.893950    0.305290
  C     -2.961660    5.951820   -0.725740
  N     -3.466070    4.750030   -0.550050
  C     -3.865320    4.392660    0.654170
  C     -2.266730    8.191140    0.056460
  S     -2.288630    8.891920   -1.541530
  C     -1.446850   10.348320   -1.053570
  C     -1.146610   10.269420    0.306370
  C     -1.619150    9.062280    0.909910
  N     -1.262080    9.084530    2.223830
  C     -0.580760   10.261370    2.465760
  C     -0.072540   10.561610    3.737310
  N      0.346190   10.794760    4.779910
  C     -0.498100   11.015760    1.314180
  C     -1.177210   11.375640   -1.966800
  S     -0.251680   12.786850   -1.518650
  C     -0.389370   13.539360   -3.098900
  C     -1.112600   12.681610   -3.943750
  C     -1.555140   11.494990   -3.301870
  N     -2.264320   10.760570   -4.197000
  C     -2.287630   11.450990   -5.389340
  C     -2.948670   10.947460   -6.518670
  N     -3.486160   10.535190   -7.444570
  C     -1.588010   12.637080   -5.270020
  C      0.231580   14.730430   -3.472220
  C      0.862200   15.686650   -2.714190
  C      1.887810   16.544960   -3.368810
  O      2.091960   16.651460   -4.556410
  C      2.608940   17.169170   -2.248900
  C      3.687030   17.981500   -2.076210
  S      3.953370   18.297510   -0.375770
  C      2.590500   17.335890    0.078410
  C      1.982920   16.802310   -1.011990
  C      0.814420   15.989930   -1.306550
  C     -0.236680   15.808060   -0.438800
  C     -1.501190   15.333030   -0.828740
  N     -2.558130   14.997350   -1.129290
  C     -0.150200   16.196230    0.910870
  N     -0.082010   16.483280    2.020500
  Cl     4.694880   18.652030   -3.262620
  H     -4.932180    0.404830    6.808530
  H     -3.142590   -0.725530    3.881430
  H     -4.611730   -0.875160    4.876350
  H     -3.074560   -0.343140    5.618670
  H     -5.792370    5.021630    5.366180
  H     -6.107110    1.918650    8.270550
  H     -7.630700    5.057450    9.329320
  H     -6.331330    3.868970    9.592410
  H     -7.883510    3.356270    8.869170
  H     -4.202680    2.753650    2.825750
  H     -4.398560    5.648680    3.792020
  H     -3.257000    7.212390    2.393600
  H     -2.631850    6.190000   -1.729040
  H     -4.287920    3.400960    0.725560
  H     -1.397180    8.352190    2.899920
  H     -0.030770   11.974840    1.221150
  H     -2.717300    9.877480   -4.029410
  H     -1.447680   13.365900   -6.042130
  H      0.315970   14.881760   -4.544890
  H      2.345180   17.227970    1.116200

 Total Charge           Charge          ....    0
 Multiplicity           Mult            ....    1
 Number of Electrons    NEL             ....  398
 Basis Dimension        Dim             ....  872

ORBITAL ENERGIES
----------------

  NO   OCC          E(Eh)            E(eV)
   0   2.0000    -101.607423     -2764.8786
   1   2.0000     -88.991697     -2421.5872
   2   2.0000     -88.984184     -2421.3827
   3   2.0000     -88.981044     -2421.2973
   4   2.0000     -19.248385      -523.7752
   5   2.0000     -19.240599      -523.5633
   6   2.0000     -19.205199      -522.6000
   7   2.0000     -14.496105      -394.4591
   8   2.0000     -14.494208      -394.4074
   9   2.0000     -14.428312      -392.6143
  10   2.0000     -14.427634      -392.5959
  11   2.0000     -14.412992      -392.1975
  12   2.0000     -14.409213      -392.0946
  13   2.0000     -14.407406      -392.0454
  14   2.0000     -10.365695      -282.0649
  15   2.0000     -10.364803      -282.0406
  16   2.0000     -10.364771      -282.0398
  17   2.0000     -10.362763      -281.9851
  18   2.0000     -10.347151      -281.5603
  19   2.0000     -10.342150      -281.4242
  20   2.0000     -10.338908      -281.3360
  21   2.0000     -10.338861      -281.3347
  22   2.0000     -10.337619      -281.3009
  23   2.0000     -10.333895      -281.1996
  24   2.0000     -10.333457      -281.1877
  25   2.0000     -10.330485      -281.1068
  26   2.0000     -10.327310      -281.0204
  27   2.0000     -10.326953      -281.0107
  28   2.0000     -10.326439      -280.9967
  29   2.0000     -10.325954      -280.9835
  30   2.0000     -10.323445      -280.9152
  31   2.0000     -10.322357      -280.8856
  32   2.0000     -10.317840      -280.7627
  33   2.0000     -10.317637      -280.7572
  34   2.0000     -10.315282      -280.6931
  35   2.0000     -10.312172      -280.6085
  36   2.0000     -10.311256      -280.5835
  37   2.0000     -10.310475      -280.5623
  38   2.0000     -10.310162      -280.5538
  39   2.0000     -10.308312      -280.5034
  40   2.0000     -10.306850      -280.4637
  41   2.0000     -10.304715      -280.4056
  42   2.0000     -10.303615      -280.3756
  43   2.0000     -10.302288      -280.3395
  44   2.0000     -10.301550      -280.3194
  45   2.0000     -10.298345      -280.2322
  46   2.0000     -10.289584      -279.9938
  47   2.0000     -10.288804      -279.9726
  48   2.0000     -10.280805      -279.7549
  49   2.0000     -10.280669      -279.7512
  50   2.0000     -10.279969      -279.7322
  51   2.0000     -10.274599      -279.5861
  52   2.0000     -10.274198      -279.5751
  53   2.0000     -10.269739      -279.4538
  54   2.0000      -9.562190      -260.2004
  55   2.0000      -8.086124      -220.0346
  56   2.0000      -8.078080      -219.8157
  57   2.0000      -8.076852      -219.7823
  58   2.0000      -7.332815      -199.5360
  59   2.0000      -7.322227      -199.2479
  60   2.0000      -7.321719      -199.2341
  61   2.0000      -6.055650      -164.7826
  62   2.0000      -6.051435      -164.6679
  63   2.0000      -6.048089      -164.5769
  64   2.0000      -6.047700      -164.5663
  65   2.0000      -6.046282      -164.5277
  66   2.0000      -6.043293      -164.4464
  67   2.0000      -6.041723      -164.4036
  68   2.0000      -6.039951      -164.3554
  69   2.0000      -6.038945      -164.3281
  70   2.0000      -1.151815       -31.3425
  71   2.0000      -1.144657       -31.1477
  72   2.0000      -1.121937       -30.5295
  73   2.0000      -1.118550       -30.4373
  74   2.0000      -1.116788       -30.3893
  75   2.0000      -1.048878       -28.5414
  76   2.0000      -1.026810       -27.9409
  77   2.0000      -1.016112       -27.6498
  78   2.0000      -1.009095       -27.4589
  79   2.0000      -1.006427       -27.3863
  80   2.0000      -1.003894       -27.3173
  81   2.0000      -0.991929       -26.9918
  82   2.0000      -0.985857       -26.8265
  83   2.0000      -0.976485       -26.5715
  84   2.0000      -0.953258       -25.9395
  85   2.0000      -0.943975       -25.6869
  86   2.0000      -0.936652       -25.4876
  87   2.0000      -0.921824       -25.0841
  88   2.0000      -0.914718       -24.8907
  89   2.0000      -0.898036       -24.4368
  90   2.0000      -0.894686       -24.3456
  91   2.0000      -0.886350       -24.1188
  92   2.0000      -0.872606       -23.7448
  93   2.0000      -0.868068       -23.6213
  94   2.0000      -0.864294       -23.5186
  95   2.0000      -0.849251       -23.1093
  96   2.0000      -0.842961       -22.9381
  97   2.0000      -0.821463       -22.3531
  98   2.0000      -0.820449       -22.3256
  99   2.0000      -0.808908       -22.0115
 100   2.0000      -0.795430       -21.6447
 101   2.0000      -0.776248       -21.1228
 102   2.0000      -0.766073       -20.8459
 103   2.0000      -0.763297       -20.7704
 104   2.0000      -0.755216       -20.5505
 105   2.0000      -0.750091       -20.4110
 106   2.0000      -0.739388       -20.1198
 107   2.0000      -0.733848       -19.9690
 108   2.0000      -0.724674       -19.7194
 109   2.0000      -0.718699       -19.5568
 110   2.0000      -0.701388       -19.0857
 111   2.0000      -0.690761       -18.7966
 112   2.0000      -0.682745       -18.5784
 113   2.0000      -0.681427       -18.5426
 114   2.0000      -0.673885       -18.3373
 115   2.0000      -0.663584       -18.0570
 116   2.0000      -0.662960       -18.0400
 117   2.0000      -0.645448       -17.5635
 118   2.0000      -0.627382       -17.0719
 119   2.0000      -0.626448       -17.0465
 120   2.0000      -0.620294       -16.8791
 121   2.0000      -0.612501       -16.6670
 122   2.0000      -0.610334       -16.6080
 123   2.0000      -0.601967       -16.3804
 124   2.0000      -0.597368       -16.2552
 125   2.0000      -0.594705       -16.1827
 126   2.0000      -0.586936       -15.9713
 127   2.0000      -0.585565       -15.9340
 128   2.0000      -0.574468       -15.6321
 129   2.0000      -0.570815       -15.5327
 130   2.0000      -0.567675       -15.4472
 131   2.0000      -0.559459       -15.2236
 132   2.0000      -0.558606       -15.2004
 133   2.0000      -0.556568       -15.1450
 134   2.0000      -0.554862       -15.0986
 135   2.0000      -0.550890       -14.9905
 136   2.0000      -0.548835       -14.9346
 137   2.0000      -0.542733       -14.7685
 138   2.0000      -0.536445       -14.5974
 139   2.0000      -0.534068       -14.5327
 140   2.0000      -0.528992       -14.3946
 141   2.0000      -0.522053       -14.2058
 142   2.0000      -0.520695       -14.1688
 143   2.0000      -0.517243       -14.0749
 144   2.0000      -0.516486       -14.0543
 145   2.0000      -0.511821       -13.9274
 146   2.0000      -0.505496       -13.7552
 147   2.0000      -0.502040       -13.6612
 148   2.0000      -0.500384       -13.6161
 149   2.0000      -0.495659       -13.4876
 150   2.0000      -0.493170       -13.4198
 151   2.0000      -0.492360       -13.3978
 152   2.0000      -0.488251       -13.2860
 153   2.0000      -0.486500       -13.2383
 154   2.0000      -0.481132       -13.0923
 155   2.0000      -0.480277       -13.0690
 156   2.0000      -0.475799       -12.9471
 157   2.0000      -0.474134       -12.9018
 158   2.0000      -0.469418       -12.7735
 159   2.0000      -0.462577       -12.5874
 160   2.0000      -0.455490       -12.3945
 161   2.0000      -0.454839       -12.3768
 162   2.0000      -0.451184       -12.2774
 163   2.0000      -0.449372       -12.2280
 164   2.0000      -0.447232       -12.1698
 165   2.0000      -0.444037       -12.0829
 166   2.0000      -0.443215       -12.0605
 167   2.0000      -0.442078       -12.0295
 168   2.0000      -0.441271       -12.0076
 169   2.0000      -0.439015       -11.9462
 170   2.0000      -0.435437       -11.8488
 171   2.0000      -0.432595       -11.7715
 172   2.0000      -0.431817       -11.7503
 173   2.0000      -0.430212       -11.7067
 174   2.0000      -0.427887       -11.6434
 175   2.0000      -0.423973       -11.5369
 176   2.0000      -0.419893       -11.4259
 177   2.0000      -0.418221       -11.3804
 178   2.0000      -0.413001       -11.2383
 179   2.0000      -0.407189       -11.0802
 180   2.0000      -0.405408       -11.0317
 181   2.0000      -0.397426       -10.8145
 182   2.0000      -0.394631       -10.7384
 183   2.0000      -0.391352       -10.6492
 184   2.0000      -0.380570       -10.3558
 185   2.0000      -0.372566       -10.1380
 186   2.0000      -0.363654        -9.8955
 187   2.0000      -0.351149        -9.5553
 188   2.0000      -0.348027        -9.4703
 189   2.0000      -0.336107        -9.1459
 190   2.0000      -0.332351        -9.0437
 191   2.0000      -0.323755        -8.8098
 192   2.0000      -0.323061        -8.7909
 193   2.0000      -0.320141        -8.7115
 194   2.0000      -0.306858        -8.3500
 195   2.0000      -0.297043        -8.0830
 196   2.0000      -0.289393        -7.8748
 197   2.0000      -0.264655        -7.2016
 198   2.0000      -0.243186        -6.6174
 199   0.0000      -0.111323        -3.0292
 200   0.0000      -0.056316        -1.5324
 201   0.0000      -0.038213        -1.0398
 202   0.0000      -0.033995        -0.9251
 203   0.0000      -0.023380        -0.6362

MULLIKEN ATOMIC CHARGES
-----------------------
   0 C :   -0.090585
   1 C :    0.216198
   2 O :   -0.319512
   3 C :    0.178491
   4 C :    0.042405
   5 C :   -0.083160
   6 C :    0.248119
   7 C :   -0.091573
   8 O :   -0.313242
   9 C :    0.176248
  10 C :    0.027631
  11 C :   -0.005416
  12 C :    0.085395
  13 C :   -0.065906
  14 C :    0.076225
  15 C :   -0.035105
  16 N :   -0.041491
  17 C :   -0.015786
  18 C :   -0.151173
  19 S :    0.121420
  20 C :   -0.125181
  21 C :    0.085740
  22 C :    0.120189
  23 N :   -0.039168
  24 C :   -0.093634
  25 C :   -0.142207
  26 N :    0.180455
  27 C :   -0.023669
  28 C :   -0.116911
  29 S :    0.161409
  30 C :   -0.118269
  31 C :    0.150972
  32 C :    0.075981
  33 N :   -0.023895
  34 C :   -0.090147
  35 C :   -0.144233
  36 N :    0.176391
  37 C :   -0.022755
  38 C :    0.016635
  39 C :   -0.164797
  40 C :    0.136618
  41 O :   -0.141849
  42 C :    0.090782
  43 C :   -0.177551
  44 S :    0.171213
  45 C :   -0.134780
  46 C :    0.023180
  47 C :    0.256765
  48 C :   -0.331146
  49 C :   -0.214074
  50 N :    0.168516
  51 C :   -0.183634
  52 N :    0.144571
  53 Cl:   -0.008207
  54 H :   -0.030558
  55 H :    0.038154
  56 H :    0.023380
  57 H :    0.022880
  58 H :   -0.028319
  59 H :   -0.028651
  60 H :    0.037319
  61 H :    0.019881
  62 H :    0.020664
  63 H :    0.003060
  64 H :   -0.018219
  65 H :   -0.030945
  66 H :   -0.000820
  67 H :    0.004430
  68 H :    0.136125
  69 H :    0.002236
  70 H :    0.136557
  71 H :   -0.000601
  72 H :    0.020839
  73 H :    0.050097
Sum of atomic charges:   -0.0000000

LOEWDIN ATOMIC CHARGES
----------------------
   0 C :   -0.065453
   1 C :    0.047539
   2 O :   -0.107704
   3 C :    0.076522
   4 C :   -0.045033
   5 C :   -0.024196
   6 C :    0.040587
   7 C :   -0.062651
   8 O :   -0.111149
   9 C :    0.074897
  10 C :    0.009230
  11 C :   -0.033564
  12 C :   -0.030930
  13 C :   -0.005472
  14 C :   -0.061711
  15 C :    0.005215
  16 N :   -0.054163
  17 C :    0.026816
  18 C :   -0.185249
  19 S :    0.454432
  20 C :   -0.193397
  21 C :   -0.058080
  22 C :   -0.003262
  23 N :    0.071901
  24 C :   -0.013660
  25 C :   -0.044421
  26 N :   -0.024779
  27 C :   -0.032739
  28 C :   -0.169350
  29 S :    0.501446
  30 C :   -0.186479
  31 C :   -0.031523
  32 C :   -0.020284
  33 N :    0.080926
  34 C :   -0.014542
  35 C :   -0.044300
  36 N :   -0.026254
  37 C :   -0.026229
  38 C :    0.046239
  39 C :   -0.113165
  40 C :    0.077463
  41 O :   -0.147804
  42 C :   -0.115870
  43 C :   -0.274513
  44 S :    0.460115
  45 C :   -0.155390
  46 C :   -0.055573
  47 C :    0.060302
  48 C :   -0.161065
  49 C :   -0.042113
  50 N :   -0.056839
  51 C :   -0.020448
  52 N :   -0.061572
  53 Cl:    0.185056
  54 H :    0.028753
  55 H :    0.029221
  56 H :    0.014796
  57 H :    0.015086
  58 H :    0.030939
  59 H :    0.028237
  60 H :    0.028895
  61 H :    0.013330
  62 H :    0.013371
  63 H :    0.030323
  64 H :    0.024481
  65 H :    0.022241
  66 H :    0.013657
  67 H :    0.022726
  68 H :    0.095372
  69 H :    0.034922
  70 H :    0.086641
  71 H :    0.041475
  72 H :    0.051465
  73 H :    0.036308

  Mayer bond orders larger than 0.100000
B(  0-C ,  1-C ) :   1.3456 B(  0-C ,  7-C ) :   1.3116 B(  0-C , 54-H ) :   0.9943
B(  1-C ,  2-O ) :   1.1491 B(  1-C ,  4-C ) :   1.3127 B(  2-O ,  3-C ) :   0.9667
B(  3-C , 55-H ) :   0.9791 B(  3-C , 56-H ) :   0.9685 B(  3-C , 57-H ) :   0.9683
B(  4-C ,  5-C ) :   1.3724 B(  4-C , 10-C ) :   1.0704 B(  5-C ,  6-C ) :   1.3319
B(  5-C , 58-H ) :   1.0017 B(  6-C ,  7-C ) :   1.3311 B(  6-C ,  8-O ) :   1.1405
B(  7-C , 59-H ) :   0.9976 B(  8-O ,  9-C ) :   0.9734 B(  9-C , 60-H ) :   0.9796
B(  9-C , 61-H ) :   0.9684 B(  9-C , 62-H ) :   0.9684 B( 10-C , 11-C ) :   1.7361
B( 10-C , 63-H ) :   0.9664 B( 11-C , 12-C ) :   1.0430 B( 11-C , 64-H ) :   0.9774
B( 12-C , 13-C ) :   1.3713 B( 12-C , 17-C ) :   1.3267 B( 13-C , 14-C ) :   1.3600
B( 13-C , 65-H ) :   0.9916 B( 14-C , 15-C ) :   1.3140 B( 14-C , 18-C ) :   1.0397
B( 15-C , 16-N ) :   1.5738 B( 15-C , 66-H ) :   0.9845 B( 16-N , 17-C ) :   1.5643
B( 17-C , 67-H ) :   0.9822 B( 18-C , 19-S ) :   1.1258 B( 18-C , 20-C ) :   0.1115
B( 18-C , 22-C ) :   1.4394 B( 19-S , 20-C ) :   1.1011 B( 20-C , 21-C ) :   1.3175
B( 20-C , 28-C ) :   1.2824 B( 21-C , 22-C ) :   1.2230 B( 21-C , 27-C ) :   1.1784
B( 22-C , 23-N ) :   1.1681 B( 23-N , 24-C ) :   1.2030 B( 23-N , 68-H ) :   0.9307
B( 24-C , 25-C ) :   1.0553 B( 24-C , 27-C ) :   1.5822 B( 25-C , 26-N ) :   3.0554
B( 27-C , 69-H ) :   1.0057 B( 28-C , 29-S ) :   1.1558 B( 28-C , 32-C ) :   1.3293
B( 29-S , 30-C ) :   1.0754 B( 30-C , 31-C ) :   1.2432 B( 30-C , 38-C ) :   1.2732
B( 31-C , 32-C ) :   1.2621 B( 31-C , 37-C ) :   1.2117 B( 32-C , 33-N ) :   1.1848
B( 33-N , 34-C ) :   1.2171 B( 33-N , 70-H ) :   0.9255 B( 34-C , 35-C ) :   1.0535
B( 34-C , 37-C ) :   1.5558 B( 35-C , 36-N ) :   3.0563 B( 37-C , 71-H ) :   1.0105
B( 38-C , 39-C ) :   1.5359 B( 38-C , 72-H ) :   0.9391 B( 39-C , 40-C ) :   0.9606
B( 39-C , 47-C ) :   1.0825 B( 40-C , 41-O ) :   2.2607 B( 40-C , 42-C ) :   0.9240
B( 42-C , 43-C ) :   1.4952 B( 42-C , 46-C ) :   1.2231 B( 43-C , 44-S ) :   1.1426
B( 43-C , 53-Cl) :   1.1211 B( 44-S , 45-C ) :   1.1487 B( 45-C , 46-C ) :   1.5600
B( 45-C , 73-H ) :   0.9576 B( 46-C , 47-C ) :   1.0078 B( 47-C , 48-C ) :   1.6154
B( 48-C , 49-C ) :   1.1588 B( 48-C , 51-C ) :   1.1399 B( 49-C , 50-N ) :   3.0193
B( 51-C , 52-N ) :   2.9962

-----------------------------------------------------------------------------
         ABSORPTION SPECTRUM VIA TRANSITION ELECTRIC DIPOLE MOMENTS
-----------------------------------------------------------------------------
State   Energy  Wavelength   fosc         T2         TX        TY        TZ
        (cm-1)    (nm)                  (au**2)     (au)      (au)      (au)
-----------------------------------------------------------------------------
   0   13110.5    762.7   0.851827568  21.38980   1.45503   4.24291  -1.12713
   1   23067.5    433.5   0.019901736   0.28403   0.00319   0.01265  -0.53279
   2   23643.4    423.0   0.020190682   0.28114  -0.08665  -0.32507   0.40982
   3   24861.6    402.2   0.668019910   8.84578   0.33318   0.83647  -2.83462
   4   25980.8    384.9   0.070416884   0.89228  -0.75141  -0.55067   0.15628
   5   27514.4    363.4   0.003517528   0.04209  -0.17402  -0.09587  -0.05111
   6   28123.7    355.6   0.068033423   0.79639  -0.50148  -0.42205  -0.60562
   7   28471.4    351.2   0.018836236   0.21780   0.44074  -0.04985   0.14512
   8   28832.5    346.8   0.066884547   0.76369  -0.52395  -0.21638  -0.66509
   9   30229.6    330.8   0.140483870   1.52992  -0.53552  -0.84242  -0.73039
  10   30360.6    329.4   0.169308107   1.83587   1.00541   0.90825   0.01055
  11   31129.8    321.2   0.365688029   3.86731   0.19060   0.94431  -1.71443
  12   31522.0    317.2   0.086398684   0.90234  -0.29166  -0.90402  -0.00448
  13   31677.9    315.7   0.009882773   0.10271  -0.05091  -0.27634   0.15412
  14   33146.3    301.7   0.000395346   0.00393   0.05993  -0.00946   0.01566
  15   34468.3    290.1   0.048904198   0.46709   0.02454  -0.23371  -0.64177
  16   34812.2    287.3   0.277091192   2.62040  -0.98824  -1.27900  -0.08907
  17   35053.0    285.3   0.083205153   0.78145  -0.80021  -0.36015  -0.10680
  18   35640.0    280.6   0.048308628   0.44623  -0.24176   0.00145   0.62272
  19   36567.9    273.5   0.154753508   1.39321  -1.04382  -0.53510   0.13159
  20   36833.6    271.5   0.028227114   0.25229   0.18073   0.02644  -0.46789
  21   37499.3    266.7   0.153422782   1.34692  -1.02664  -0.43325  -0.32440
  22   37543.3    266.4   0.335301374   2.94021  -1.15875  -1.21271   0.35615
  23   38473.3    259.9   0.013662699   0.11691  -0.09406  -0.12657  -0.30339
  24   39338.9    254.2   0.378804768   3.17007   0.67766   0.62387  -1.52369
  25   39745.9    251.6   0.042242560   0.34989   0.27000   0.10821  -0.51506
  26   40014.7    249.9   0.019607400   0.16132  -0.38898   0.02246   0.09751
  27   40229.6    248.6   0.096878379   0.79279   0.46326   0.51260   0.56162

FINAL SINGLE POINT ENERGY     -3796.679259167758

DIPOLE MOMENT
-------------
                                X             Y             Z
Electronic contribution:     49.37168      93.87528     -56.32449
Nuclear contribution   :    -49.47578     -97.65625      58.46495
                        -----------------------------------------
Total Dipole Moment    :     -0.10409      -3.78097       2.14046
                        -----------------------------------------
Magnitude (a.u.)       :      4.34605
Magnitude (Debye)      :     11.04678

Rotational constants in cm-1:     0.002662     0.000476     0.000425
Rotational constants in MHz :    79.805511    14.267905    12.741122

                             ****ORCA TERMINATED NORMALLY****
TOTAL RUN TIME: 0 days 0 hours 5 minutes 33 seconds 72 msec
