                         Program Version 4.2.0 -  RELEASE  -
|  1> # ORCA input file
|  2> # SCF done       -164.027318572024          0.000589943481
|  3> ! CAM-B3LYP def2-SVP def2/J RIJCOSX Grid4 TightSCF
|  4> %maxcore 5000
|  5> %tddft
|  6>     Mode sTDDFT
|  7>     Ethresh 5.0
|  8>     maxcore 5000
|  9> end
| 10>
| 11> %pal
| 12>   nprocs 6
| 13>   end
| 14> * xyz 0 1
| 15>    C       -8.30763        -3.91305        -0.53014
| 16>    S       -7.14919        -3.49955         0.64186
| 17>    C       -5.96077        -4.59727        -0.01058
| 18>    C       -6.49944        -5.28824        -1.10648
| 19>    C       -7.84400        -4.88277        -1.39832
| 20>    C       -8.54516        -5.47706        -2.46696
| 21>    C       -7.96066        -6.46148        -3.22113
| 22>    C       -8.69256        -7.07409        -4.33001
| 23>    C      -10.00178        -7.28472        -4.33903
| 24>    C       -6.63102        -6.89101        -2.91505
| 25>    C       -6.00655        -7.99763        -3.70961
| 26>    C       -5.93513        -6.31813        -1.88491
| 27>    C       -4.70770        -4.62746         0.64441
| 28>    C       -3.55230        -5.17460         0.18576
| 29>    C       -2.30726        -5.21938         0.87954
| 30>    C       -2.10969        -4.86943         2.24027
| 31>    C       -0.79997        -4.89622         2.82555
| 32>    N       -0.62054        -4.48617         4.10439
| 33>    C       -1.66198        -4.12052         4.79208
| 34>    C       -2.95992        -4.17110         4.24430
| 35>    N       -3.16610        -4.52594         3.00721
| 36>    C        0.32693        -5.30488         2.09018
| 37>    C        0.13489        -5.69705         0.75504
| 38>    C       -1.16472        -5.65891         0.15748
| 39>    N       -1.32233        -6.04370        -1.12820
| 40>    C       -0.27154        -6.43741        -1.79144
| 41>    C        1.00647        -6.48970        -1.19548
| 42>    N        1.19949        -6.13782         0.04193
| 43>    C        1.65682        -5.28212         2.69262
| 44>    C        1.88037        -5.76001         3.97867
| 45>    C        3.15158        -5.66455         4.54846
| 46>    C        4.15447        -5.09173         3.75451
| 47>    N        3.95557        -4.64396         2.53112
| 48>    C        2.74689        -4.72625         2.01266
| 49>    C        3.46173        -6.10813         5.88954
| 50>    C        2.70303        -6.96004         6.60539
| 51>    C        2.94388        -7.42399         7.94095
| 52>    C        3.82455        -6.82000         8.86866
| 53>    C        4.00611        -7.35191        10.18919
| 54>    N        4.70541        -6.65133        11.10214
| 55>    C        5.27482        -5.53550        10.73980
| 56>    C        5.19826        -5.07352         9.41231
| 57>    N        4.47622        -5.68844         8.51967
| 58>    C        3.38537        -8.56537        10.58855
| 59>    C        2.42929        -9.10762         9.69066
| 60>    C        2.20346        -8.54097         8.39978
| 61>    N        1.26492        -9.08223         7.59182
| 62>    C        0.60189       -10.12260         8.01220
| 63>    C        0.84748       -10.70010         9.27289
| 64>    N        1.73728       -10.19248        10.08004
| 65>    C        3.60312        -9.19637        11.84208
| 66>    S        2.32816       -10.14737        12.52810
| 67>    C        3.17108       -10.37556        14.02070
| 68>    C        4.46497        -9.84988        13.94601
| 69>    C        4.71603        -9.18302        12.70559
| 70>    C        6.00911        -8.71046        12.44503
| 71>    C        7.01030        -8.81057        13.38560
| 72>    C        8.34385        -8.29597        13.08545
| 73>    C        8.58729        -7.25815        12.29469
| 74>    C        6.75041        -9.44949        14.63368
| 75>    C        7.83352        -9.56944        15.66338
| 76>    C        5.50981        -9.96858        14.88418
| 77>    C        2.48428       -11.05561        15.08035
| 78>    C        2.70983       -10.93140        16.38892
| 79>    H       -9.26909        -3.43890        -0.53199
| 80>    H       -9.54513        -5.13566        -2.68777
| 81>    H       -8.10017        -7.37197        -5.18481
| 82>    H      -10.62648        -7.03792        -3.49655
| 83>    H      -10.49779        -7.73025        -5.18449
| 84>    H       -6.66726        -8.86258        -3.75061
| 85>    H       -5.06173        -8.29973        -3.26466
| 86>    H       -5.81250        -7.67297        -4.73251
| 87>    H       -4.94672        -6.67951        -1.65273
| 88>    H       -4.68223        -4.13101         1.60460
| 89>    H       -3.49945        -5.57819        -0.81388
| 90>    H       -1.48430        -3.78693         5.80595
| 91>    H       -3.83490        -3.91800         4.82858
| 92>    H       -0.42952        -6.73878        -2.81867
| 93>    H        1.87178        -6.83926        -1.74294
| 94>    H        1.06409        -6.19270         4.53431
| 95>    H        5.16697        -5.00294         4.12831
| 96>    H        2.62721        -4.31414         1.02085
| 97>    H        4.37894        -5.72755         6.31348
| 98>    H        1.83140        -7.41288         6.15258
| 99>    H        5.79407        -4.98189        11.51095
|100>    H        5.71138        -4.17705         9.08978
|101>    H       -0.14907       -10.52293         7.34399
|102>    H        0.31256       -11.57339         9.61940
|103>    H        6.23502        -8.29598        11.47767
|104>    H        9.17278        -8.80183        13.56191
|105>    H        7.79392        -6.70011        11.82638
|106>    H        9.59048        -6.91944        12.09822
|107>    H        8.26239        -8.59334        15.88520
|108>    H        8.63459       -10.21774        15.30764
|109>    H        7.43860        -9.99306        16.58363
|110>    H        5.33242       -10.50957        15.80036
|111>    H        1.66572       -11.68256        14.74669
|112>    H        3.45474       -10.26658        16.78822
|113>    H        2.11988       -11.47630        17.10536
|114> *
|115>
|116>                          ****END OF INPUT****

CARTESIAN COORDINATES (ANGSTROEM)
---------------------------------
  C     -8.307630   -3.913050   -0.530140
  S     -7.149190   -3.499550    0.641860
  C     -5.960770   -4.597270   -0.010580
  C     -6.499440   -5.288240   -1.106480
  C     -7.844000   -4.882770   -1.398320
  C     -8.545160   -5.477060   -2.466960
  C     -7.960660   -6.461480   -3.221130
  C     -8.692560   -7.074090   -4.330010
  C    -10.001780   -7.284720   -4.339030
  C     -6.631020   -6.891010   -2.915050
  C     -6.006550   -7.997630   -3.709610
  C     -5.935130   -6.318130   -1.884910
  C     -4.707700   -4.627460    0.644410
  C     -3.552300   -5.174600    0.185760
  C     -2.307260   -5.219380    0.879540
  C     -2.109690   -4.869430    2.240270
  C     -0.799970   -4.896220    2.825550
  N     -0.620540   -4.486170    4.104390
  C     -1.661980   -4.120520    4.792080
  C     -2.959920   -4.171100    4.244300
  N     -3.166100   -4.525940    3.007210
  C      0.326930   -5.304880    2.090180
  C      0.134890   -5.697050    0.755040
  C     -1.164720   -5.658910    0.157480
  N     -1.322330   -6.043700   -1.128200
  C     -0.271540   -6.437410   -1.791440
  C      1.006470   -6.489700   -1.195480
  N      1.199490   -6.137820    0.041930
  C      1.656820   -5.282120    2.692620
  C      1.880370   -5.760010    3.978670
  C      3.151580   -5.664550    4.548460
  C      4.154470   -5.091730    3.754510
  N      3.955570   -4.643960    2.531120
  C      2.746890   -4.726250    2.012660
  C      3.461730   -6.108130    5.889540
  C      2.703030   -6.960040    6.605390
  C      2.943880   -7.423990    7.940950
  C      3.824550   -6.820000    8.868660
  C      4.006110   -7.351910   10.189190
  N      4.705410   -6.651330   11.102140
  C      5.274820   -5.535500   10.739800
  C      5.198260   -5.073520    9.412310
  N      4.476220   -5.688440    8.519670
  C      3.385370   -8.565370   10.588550
  C      2.429290   -9.107620    9.690660
  C      2.203460   -8.540970    8.399780
  N      1.264920   -9.082230    7.591820
  C      0.601890  -10.122600    8.012200
  C      0.847480  -10.700100    9.272890
  N      1.737280  -10.192480   10.080040
  C      3.603120   -9.196370   11.842080
  S      2.328160  -10.147370   12.528100
  C      3.171080  -10.375560   14.020700
  C      4.464970   -9.849880   13.946010
  C      4.716030   -9.183020   12.705590
  C      6.009110   -8.710460   12.445030
  C      7.010300   -8.810570   13.385600
  C      8.343850   -8.295970   13.085450
  C      8.587290   -7.258150   12.294690
  C      6.750410   -9.449490   14.633680
  C      7.833520   -9.569440   15.663380
  C      5.509810   -9.968580   14.884180
  C      2.484280  -11.055610   15.080350
  C      2.709830  -10.931400   16.388920
  H     -9.269090   -3.438900   -0.531990
  H     -9.545130   -5.135660   -2.687770
  H     -8.100170   -7.371970   -5.184810
  H    -10.626480   -7.037920   -3.496550
  H    -10.497790   -7.730250   -5.184490
  H     -6.667260   -8.862580   -3.750610
  H     -5.061730   -8.299730   -3.264660
  H     -5.812500   -7.672970   -4.732510
  H     -4.946720   -6.679510   -1.652730
  H     -4.682230   -4.131010    1.604600
  H     -3.499450   -5.578190   -0.813880
  H     -1.484300   -3.786930    5.805950
  H     -3.834900   -3.918000    4.828580
  H     -0.429520   -6.738780   -2.818670
  H      1.871780   -6.839260   -1.742940
  H      1.064090   -6.192700    4.534310
  H      5.166970   -5.002940    4.128310
  H      2.627210   -4.314140    1.020850
  H      4.378940   -5.727550    6.313480
  H      1.831400   -7.412880    6.152580
  H      5.794070   -4.981890   11.510950
  H      5.711380   -4.177050    9.089780
  H     -0.149070  -10.522930    7.343990
  H      0.312560  -11.573390    9.619400
  H      6.235020   -8.295980   11.477670
  H      9.172780   -8.801830   13.561910
  H      7.793920   -6.700110   11.826380
  H      9.590480   -6.919440   12.098220
  H      8.262390   -8.593340   15.885200
  H      8.634590  -10.217740   15.307640
  H      7.438600   -9.993060   16.583630
  H      5.332420  -10.509570   15.800360
  H      1.665720  -11.682560   14.746690
  H      3.454740  -10.266580   16.788220
  H      2.119880  -11.476300   17.105360

 Total Charge           Charge          ....    0
 Multiplicity           Mult            ....    1
 Number of Electrons    NEL             ....  448
 Basis Dimension        Dim             .... 1079

ORBITAL ENERGIES
----------------

  NO   OCC          E(Eh)            E(eV)
   0   2.0000     -88.956274     -2420.6233
   1   2.0000     -88.946835     -2420.3664
   2   2.0000     -14.426141      -392.5552
   3   2.0000     -14.423138      -392.4735
   4   2.0000     -14.421356      -392.4251
   5   2.0000     -14.421150      -392.4194
   6   2.0000     -14.419372      -392.3711
   7   2.0000     -14.419135      -392.3646
   8   2.0000     -14.418146      -392.3377
   9   2.0000     -14.417959      -392.3326
  10   2.0000     -14.376191      -391.1960
  11   2.0000     -10.320964      -280.8477
  12   2.0000     -10.318868      -280.7907
  13   2.0000     -10.316932      -280.7380
  14   2.0000     -10.316663      -280.7307
  15   2.0000     -10.316353      -280.7222
  16   2.0000     -10.315420      -280.6969
  17   2.0000     -10.315287      -280.6932
  18   2.0000     -10.314985      -280.6850
  19   2.0000     -10.314969      -280.6846
  20   2.0000     -10.314476      -280.6712
  21   2.0000     -10.314404      -280.6692
  22   2.0000     -10.313972      -280.6574
  23   2.0000     -10.313848      -280.6541
  24   2.0000     -10.313524      -280.6453
  25   2.0000     -10.312911      -280.6286
  26   2.0000     -10.312047      -280.6051
  27   2.0000     -10.292663      -280.0776
  28   2.0000     -10.288701      -279.9698
  29   2.0000     -10.288466      -279.9634
  30   2.0000     -10.287281      -279.9311
  31   2.0000     -10.286641      -279.9137
  32   2.0000     -10.283210      -279.8204
  33   2.0000     -10.280301      -279.7412
  34   2.0000     -10.280231      -279.7393
  35   2.0000     -10.279871      -279.7295
  36   2.0000     -10.279728      -279.7256
  37   2.0000     -10.272452      -279.5276
  38   2.0000     -10.270814      -279.4831
  39   2.0000     -10.270116      -279.4641
  40   2.0000     -10.269719      -279.4533
  41   2.0000     -10.268681      -279.4250
  42   2.0000     -10.267057      -279.3808
  43   2.0000     -10.266724      -279.3718
  44   2.0000     -10.266087      -279.3544
  45   2.0000     -10.265400      -279.3357
  46   2.0000     -10.265390      -279.3355
  47   2.0000     -10.263774      -279.2915
  48   2.0000     -10.262944      -279.2689
  49   2.0000     -10.262140      -279.2470
  50   2.0000     -10.261505      -279.2297
  51   2.0000     -10.260992      -279.2158
  52   2.0000     -10.259600      -279.1779
  53   2.0000     -10.258823      -279.1568
  54   2.0000     -10.258755      -279.1549
  55   2.0000     -10.258141      -279.1382
  56   2.0000     -10.257771      -279.1281
  57   2.0000     -10.255155      -279.0570
  58   2.0000     -10.254403      -279.0365
  59   2.0000     -10.254267      -279.0328
  60   2.0000     -10.254234      -279.0319
  61   2.0000     -10.254078      -279.0277
  62   2.0000     -10.252462      -278.9837
  63   2.0000     -10.252431      -278.9828
  64   2.0000      -8.051805      -219.1007
  65   2.0000      -8.040440      -218.7915
  66   2.0000      -6.020622      -163.8295
  67   2.0000      -6.016433      -163.7155
  68   2.0000      -6.015009      -163.6767
  69   2.0000      -6.009552      -163.5282
  70   2.0000      -6.005053      -163.4058
  71   2.0000      -6.003457      -163.3624
  72   2.0000      -1.083551       -29.4849
  73   2.0000      -1.079654       -29.3789
  74   2.0000      -1.074722       -29.2447
  75   2.0000      -1.072387       -29.1811
  76   2.0000      -1.013588       -27.5811
  77   2.0000      -1.008257       -27.4361
  78   2.0000      -1.002063       -27.2675
  79   2.0000      -0.998069       -27.1588
  80   2.0000      -0.996534       -27.1171
  81   2.0000      -0.983200       -26.7542
  82   2.0000      -0.976834       -26.5810
  83   2.0000      -0.944635       -25.7048
  84   2.0000      -0.944019       -25.6881
  85   2.0000      -0.932681       -25.3795
  86   2.0000      -0.925352       -25.1801
  87   2.0000      -0.898401       -24.4467
  88   2.0000      -0.891709       -24.2646
  89   2.0000      -0.880365       -23.9559
  90   2.0000      -0.870124       -23.6773
  91   2.0000      -0.865532       -23.5523
  92   2.0000      -0.863172       -23.4881
  93   2.0000      -0.860194       -23.4071
  94   2.0000      -0.859221       -23.3806
  95   2.0000      -0.855984       -23.2925
  96   2.0000      -0.845886       -23.0177
  97   2.0000      -0.838004       -22.8033
  98   2.0000      -0.828559       -22.5462
  99   2.0000      -0.814251       -22.1569
 100   2.0000      -0.805533       -21.9197
 101   2.0000      -0.797915       -21.7124
 102   2.0000      -0.786869       -21.4118
 103   2.0000      -0.785658       -21.3788
 104   2.0000      -0.777040       -21.1443
 105   2.0000      -0.772597       -21.0234
 106   2.0000      -0.759746       -20.6737
 107   2.0000      -0.758105       -20.6291
 108   2.0000      -0.754174       -20.5221
 109   2.0000      -0.750110       -20.4115
 110   2.0000      -0.722057       -19.6482
 111   2.0000      -0.720649       -19.6098
 112   2.0000      -0.720232       -19.5985
 113   2.0000      -0.718919       -19.5628
 114   2.0000      -0.706146       -19.2152
 115   2.0000      -0.703584       -19.1455
 116   2.0000      -0.698021       -18.9941
 117   2.0000      -0.693033       -18.8584
 118   2.0000      -0.681068       -18.5328
 119   2.0000      -0.668367       -18.1872
 120   2.0000      -0.662304       -18.0222
 121   2.0000      -0.658476       -17.9180
 122   2.0000      -0.650074       -17.6894
 123   2.0000      -0.645020       -17.5519
 124   2.0000      -0.642343       -17.4790
 125   2.0000      -0.635020       -17.2798
 126   2.0000      -0.629890       -17.1402
 127   2.0000      -0.625736       -17.0271
 128   2.0000      -0.624288       -16.9878
 129   2.0000      -0.614137       -16.7115
 130   2.0000      -0.611487       -16.6394
 131   2.0000      -0.604280       -16.4433
 132   2.0000      -0.595299       -16.1989
 133   2.0000      -0.588187       -16.0054
 134   2.0000      -0.586314       -15.9544
 135   2.0000      -0.585542       -15.9334
 136   2.0000      -0.581725       -15.8295
 137   2.0000      -0.578693       -15.7470
 138   2.0000      -0.572882       -15.5889
 139   2.0000      -0.569725       -15.5030
 140   2.0000      -0.565814       -15.3966
 141   2.0000      -0.564376       -15.3575
 142   2.0000      -0.551889       -15.0177
 143   2.0000      -0.544653       -14.8208
 144   2.0000      -0.543642       -14.7933
 145   2.0000      -0.538431       -14.6514
 146   2.0000      -0.537157       -14.6168
 147   2.0000      -0.534560       -14.5461
 148   2.0000      -0.534240       -14.5374
 149   2.0000      -0.530623       -14.4390
 150   2.0000      -0.526332       -14.3222
 151   2.0000      -0.522529       -14.2187
 152   2.0000      -0.520947       -14.1757
 153   2.0000      -0.517396       -14.0791
 154   2.0000      -0.511219       -13.9110
 155   2.0000      -0.510163       -13.8822
 156   2.0000      -0.509149       -13.8546
 157   2.0000      -0.506646       -13.7865
 158   2.0000      -0.504821       -13.7369
 159   2.0000      -0.504285       -13.7223
 160   2.0000      -0.502413       -13.6713
 161   2.0000      -0.495376       -13.4799
 162   2.0000      -0.493002       -13.4153
 163   2.0000      -0.491950       -13.3866
 164   2.0000      -0.489015       -13.3068
 165   2.0000      -0.483264       -13.1503
 166   2.0000      -0.482373       -13.1260
 167   2.0000      -0.480070       -13.0634
 168   2.0000      -0.477117       -12.9830
 169   2.0000      -0.471978       -12.8432
 170   2.0000      -0.471020       -12.8171
 171   2.0000      -0.468884       -12.7590
 172   2.0000      -0.464083       -12.6283
 173   2.0000      -0.460831       -12.5399
 174   2.0000      -0.460473       -12.5301
 175   2.0000      -0.457559       -12.4508
 176   2.0000      -0.455209       -12.3869
 177   2.0000      -0.454044       -12.3552
 178   2.0000      -0.452052       -12.3010
 179   2.0000      -0.445950       -12.1349
 180   2.0000      -0.441521       -12.0144
 181   2.0000      -0.437511       -11.9053
 182   2.0000      -0.436708       -11.8834
 183   2.0000      -0.434152       -11.8139
 184   2.0000      -0.431584       -11.7440
 185   2.0000      -0.426576       -11.6077
 186   2.0000      -0.420100       -11.4315
 187   2.0000      -0.417295       -11.3552
 188   2.0000      -0.415483       -11.3059
 189   2.0000      -0.413209       -11.2440
 190   2.0000      -0.409227       -11.1356
 191   2.0000      -0.408936       -11.1277
 192   2.0000      -0.406103       -11.0506
 193   2.0000      -0.405355       -11.0303
 194   2.0000      -0.404812       -11.0155
 195   2.0000      -0.400029       -10.8853
 196   2.0000      -0.398452       -10.8424
 197   2.0000      -0.392108       -10.6698
 198   2.0000      -0.380981       -10.3670
 199   2.0000      -0.379389       -10.3237
 200   2.0000      -0.376423       -10.2430
 201   2.0000      -0.372593       -10.1388
 202   2.0000      -0.368968       -10.0401
 203   2.0000      -0.367015        -9.9870
 204   2.0000      -0.358942        -9.7673
 205   2.0000      -0.355106        -9.6629
 206   2.0000      -0.349067        -9.4986
 207   2.0000      -0.338667        -9.2156
 208   2.0000      -0.327192        -8.9033
 209   2.0000      -0.325660        -8.8617
 210   2.0000      -0.324254        -8.8234
 211   2.0000      -0.320664        -8.7257
 212   2.0000      -0.318961        -8.6794
 213   2.0000      -0.316478        -8.6118
 214   2.0000      -0.312398        -8.5008
 215   2.0000      -0.308006        -8.3813
 216   2.0000      -0.300973        -8.1899
 217   2.0000      -0.298208        -8.1147
 218   2.0000      -0.289254        -7.8710
 219   2.0000      -0.278106        -7.5676
 220   2.0000      -0.274715        -7.4754
 221   2.0000      -0.262405        -7.1404
 222   2.0000      -0.223500        -6.0818
 223   2.0000      -0.214055        -5.8247
 224   0.0000      -0.082925        -2.2565
 225   0.0000      -0.078081        -2.1247
 226   0.0000      -0.028602        -0.7783
 227   0.0000      -0.023797        -0.6475
 228   0.0000      -0.003707        -0.1009

MULLIKEN ATOMIC CHARGES
-----------------------
   0 C :   -0.124864
   1 S :    0.153422
   2 C :   -0.156940
   3 C :    0.155498
   4 C :    0.093644
   5 C :   -0.075311
   6 C :    0.076243
   7 C :   -0.032955
   8 C :   -0.014624
   9 C :   -0.076012
  10 C :    0.097898
  11 C :   -0.094911
  12 C :    0.097102
  13 C :   -0.132120
  14 C :    0.107759
  15 C :   -0.056191
  16 C :   -0.037783
  17 N :   -0.013147
  18 C :    0.027803
  19 C :    0.030054
  20 N :   -0.030170
  21 C :    0.066475
  22 C :   -0.051647
  23 C :   -0.052866
  24 N :   -0.020498
  25 C :    0.021201
  26 C :    0.027903
  27 N :   -0.006228
  28 C :   -0.039397
  29 C :    0.042485
  30 C :    0.056997
  31 C :   -0.020433
  32 N :   -0.062794
  33 C :    0.033595
  34 C :    0.032972
  35 C :   -0.079837
  36 C :    0.091804
  37 C :   -0.048936
  38 C :   -0.095797
  39 N :   -0.019947
  40 C :    0.024039
  41 C :    0.032465
  42 N :   -0.024536
  43 C :    0.157473
  44 C :   -0.048758
  45 C :   -0.040240
  46 N :   -0.014624
  47 C :    0.021842
  48 C :    0.038592
  49 N :   -0.058097
  50 C :   -0.238381
  51 S :    0.187221
  52 C :   -0.129532
  53 C :    0.110363
  54 C :    0.175097
  55 C :   -0.074291
  56 C :    0.067094
  57 C :   -0.028522
  58 C :   -0.014597
  59 C :   -0.080144
  60 C :    0.100730
  61 C :   -0.103142
  62 C :    0.016173
  63 C :   -0.028495
  64 H :    0.014260
  65 H :   -0.039572
  66 H :   -0.003838
  67 H :    0.018288
  68 H :    0.020033
  69 H :    0.029137
  70 H :    0.010131
  71 H :    0.027957
  72 H :   -0.038486
  73 H :   -0.008284
  74 H :   -0.003373
  75 H :    0.013600
  76 H :    0.009485
  77 H :    0.009715
  78 H :    0.013636
  79 H :   -0.019326
  80 H :   -0.014285
  81 H :   -0.015798
  82 H :   -0.006334
  83 H :   -0.008871
  84 H :    0.021431
  85 H :    0.010456
  86 H :    0.013626
  87 H :    0.011379
  88 H :   -0.039581
  89 H :   -0.010644
  90 H :    0.003321
  91 H :    0.016399
  92 H :    0.025552
  93 H :    0.027750
  94 H :    0.004451
  95 H :   -0.048500
  96 H :   -0.007486
  97 H :    0.025212
  98 H :    0.021376
Sum of atomic charges:    0.0000000

LOEWDIN ATOMIC CHARGES
----------------------
   0 C :   -0.195570
   1 S :    0.485202
   2 C :   -0.184848
   3 C :   -0.038310
   4 C :   -0.054734
   5 C :   -0.003855
   6 C :   -0.032633
   7 C :   -0.019824
   8 C :   -0.041441
   9 C :   -0.014636
  10 C :   -0.045374
  11 C :   -0.027025
  12 C :   -0.016956
  13 C :   -0.045464
  14 C :   -0.007699
  15 C :   -0.011966
  16 C :   -0.004328
  17 N :   -0.025569
  18 C :    0.006453
  19 C :    0.003476
  20 N :   -0.024678
  21 C :   -0.022606
  22 C :   -0.007125
  23 C :   -0.011075
  24 N :   -0.032121
  25 C :    0.001782
  26 C :    0.006592
  27 N :   -0.027600
  28 C :   -0.037072
  29 C :    0.036520
  30 C :   -0.054726
  31 C :    0.020629
  32 N :   -0.076358
  33 C :    0.035229
  34 C :    0.004036
  35 C :   -0.029820
  36 C :   -0.026094
  37 C :   -0.005075
  38 C :   -0.015120
  39 N :   -0.019116
  40 C :   -0.002444
  41 C :    0.009060
  42 N :   -0.025731
  43 C :   -0.032497
  44 C :   -0.017857
  45 C :   -0.004863
  46 N :   -0.028778
  47 C :    0.005323
  48 C :    0.009575
  49 N :   -0.048414
  50 C :   -0.181188
  51 S :    0.521038
  52 C :   -0.180763
  53 C :   -0.048229
  54 C :   -0.028700
  55 C :    0.006867
  56 C :   -0.033879
  57 C :   -0.017585
  58 C :   -0.045743
  59 C :   -0.022158
  60 C :   -0.046089
  61 C :   -0.030675
  62 C :   -0.042277
  63 C :   -0.048875
  64 H :    0.022330
  65 H :    0.026627
  66 H :    0.027775
  67 H :    0.021030
  68 H :    0.023760
  69 H :    0.034208
  70 H :    0.030334
  71 H :    0.033847
  72 H :    0.027404
  73 H :    0.022477
  74 H :    0.025472
  75 H :    0.027058
  76 H :    0.025075
  77 H :    0.025326
  78 H :    0.027236
  79 H :    0.026295
  80 H :    0.016497
  81 H :    0.015567
  82 H :    0.024295
  83 H :    0.025947
  84 H :    0.026060
  85 H :    0.026072
  86 H :    0.026741
  87 H :    0.026613
  88 H :    0.022405
  89 H :    0.026513
  90 H :    0.017395
  91 H :    0.022442
  92 H :    0.033158
  93 H :    0.032545
  94 H :    0.028441
  95 H :    0.022798
  96 H :    0.027814
  97 H :    0.021854
  98 H :    0.024366

  Mayer bond orders larger than 0.100000
B(  0-C ,  1-S ) :   1.2146 B(  0-C ,  2-C ) :   0.1061 B(  0-C ,  4-C ) :   1.3861
B(  0-C , 64-H ) :   0.9701 B(  1-S ,  2-C ) :   1.1654 B(  2-C ,  3-C ) :   1.3276
B(  2-C , 12-C ) :   1.1495 B(  3-C ,  4-C ) :   1.2068 B(  3-C , 11-C ) :   1.1890
B(  4-C ,  5-C ) :   1.1617 B(  5-C ,  6-C ) :   1.5335 B(  5-C , 65-H ) :   1.0031
B(  6-C ,  7-C ) :   1.0271 B(  6-C ,  9-C ) :   1.1899 B(  7-C ,  8-C ) :   1.9826
B(  7-C , 66-H ) :   0.9498 B(  8-C , 67-H ) :   0.9578 B(  8-C , 68-H ) :   0.9504
B(  9-C , 10-C ) :   1.0881 B(  9-C , 11-C ) :   1.5607 B( 10-C , 69-H ) :   0.9433
B( 10-C , 70-H ) :   0.9542 B( 10-C , 71-H ) :   0.9403 B( 11-C , 72-H ) :   0.9921
B( 12-C , 13-C ) :   1.5924 B( 12-C , 73-H ) :   0.9249 B( 13-C , 14-C ) :   1.2167
B( 13-C , 74-H ) :   0.9535 B( 14-C , 15-C ) :   1.2086 B( 14-C , 21-C ) :   0.1378
B( 14-C , 23-C ) :   1.2185 B( 15-C , 16-C ) :   1.1541 B( 15-C , 20-N ) :   1.4361
B( 16-C , 17-N ) :   1.4369 B( 16-C , 21-C ) :   1.3221 B( 17-N , 18-C ) :   1.6950
B( 18-C , 19-C ) :   1.1870 B( 18-C , 75-H ) :   0.9743 B( 19-C , 20-N ) :   1.6731
B( 19-C , 76-H ) :   0.9733 B( 21-C , 22-C ) :   1.3126 B( 21-C , 28-C ) :   0.9543
B( 22-C , 23-C ) :   1.1461 B( 22-C , 27-N ) :   1.4482 B( 23-C , 24-N ) :   1.4546
B( 24-N , 25-C ) :   1.6943 B( 25-C , 26-C ) :   1.1843 B( 25-C , 77-H ) :   0.9742
B( 26-C , 27-N ) :   1.6989 B( 26-C , 78-H ) :   0.9739 B( 28-C , 29-C ) :   1.4081
B( 28-C , 33-C ) :   1.3476 B( 29-C , 30-C ) :   1.3667 B( 29-C , 79-H ) :   0.9751
B( 30-C , 31-C ) :   1.3211 B( 30-C , 34-C ) :   1.0304 B( 31-C , 32-N ) :   1.5573
B( 31-C , 80-H ) :   0.9870 B( 32-N , 33-C ) :   1.5630 B( 33-C , 81-H ) :   0.9791
B( 34-C , 35-C ) :   1.6668 B( 34-C , 82-H ) :   0.9669 B( 35-C , 36-C ) :   1.1612
B( 35-C , 83-H ) :   0.9502 B( 36-C , 37-C ) :   1.2370 B( 36-C , 43-C ) :   0.1304
B( 36-C , 45-C ) :   1.2355 B( 37-C , 38-C ) :   1.1325 B( 37-C , 42-N ) :   1.4399
B( 38-C , 39-N ) :   1.4759 B( 38-C , 43-C ) :   1.2475 B( 39-N , 40-C ) :   1.6690
B( 40-C , 41-C ) :   1.1913 B( 40-C , 84-H ) :   0.9662 B( 41-C , 42-N ) :   1.6821
B( 41-C , 85-H ) :   0.9744 B( 43-C , 44-C ) :   1.2407 B( 43-C , 50-C ) :   1.1579
B( 44-C , 45-C ) :   1.1632 B( 44-C , 49-N ) :   1.4144 B( 45-C , 46-N ) :   1.4546
B( 46-N , 47-C ) :   1.6878 B( 47-C , 48-C ) :   1.2027 B( 47-C , 86-H ) :   0.9756
B( 48-C , 49-N ) :   1.6552 B( 48-C , 87-H ) :   0.9734 B( 50-C , 51-S ) :   1.1658
B( 50-C , 52-C ) :   0.1089 B( 50-C , 54-C ) :   1.3000 B( 51-S , 52-C ) :   1.1489
B( 52-C , 53-C ) :   1.3409 B( 52-C , 62-C ) :   1.0987 B( 53-C , 54-C ) :   1.2135
B( 53-C , 61-C ) :   1.1810 B( 54-C , 55-C ) :   1.2153 B( 55-C , 56-C ) :   1.5177
B( 55-C , 88-H ) :   0.9766 B( 56-C , 57-C ) :   1.0288 B( 56-C , 59-C ) :   1.2013
B( 57-C , 58-C ) :   1.9748 B( 57-C , 89-H ) :   0.9533 B( 58-C , 90-H ) :   0.9515
B( 58-C , 91-H ) :   0.9495 B( 59-C , 60-C ) :   1.0863 B( 59-C , 61-C ) :   1.5537
B( 60-C , 92-H ) :   0.9438 B( 60-C , 93-H ) :   0.9414 B( 60-C , 94-H ) :   0.9540
B( 61-C , 95-H ) :   0.9882 B( 62-C , 63-C ) :   1.9282 B( 62-C , 96-H ) :   0.9470
B( 63-C , 97-H ) :   0.9579 B( 63-C , 98-H ) :   0.9482

-----------------------------------------------------------------------------
         ABSORPTION SPECTRUM VIA TRANSITION ELECTRIC DIPOLE MOMENTS
-----------------------------------------------------------------------------
State   Energy  Wavelength   fosc         T2         TX        TY        TZ
        (cm-1)    (nm)                  (au**2)     (au)      (au)      (au)
-----------------------------------------------------------------------------
   0   11994.6    833.7   0.512924885  14.07814  -1.08369   1.31860  -3.34141
   1   15316.5    652.9   0.531967084  11.43406   3.11993  -0.08649   1.30100
   2   18964.9    527.3   0.000793265   0.01377   0.05083  -0.06572   0.08287
   3   20948.8    477.4   0.016578943   0.26054   0.17870   0.23251  -0.41778
   4   22246.6    449.5   0.040937338   0.60580  -0.12304  -0.34186   0.68833
   5   23692.7    422.1   0.037414961   0.51988  -0.53522   0.20489  -0.43754
   6   24285.5    411.8   0.350495796   4.75130   0.32541  -0.75239   2.01973
   7   25206.5    396.7   0.006050366   0.07902   0.19252   0.01257   0.20445
   8   25312.2    395.1   0.007520119   0.09781   0.18045   0.25541   0.00311
   9   25793.8    387.7   0.033200560   0.42375  -0.62231   0.03992  -0.18677
  10   26060.9    383.7   0.337305931   4.26099   1.90507  -0.21441   0.76533
  11   26869.2    372.2   0.027696192   0.33935   0.15031   0.43967  -0.35135
  12   27092.2    369.1   0.047523532   0.57748  -0.00724  -0.27489   0.70843
  13   27250.2    367.0   0.038079196   0.46004   0.42226   0.44522  -0.28898
  14   27423.1    364.7   0.000275803   0.00331  -0.00989   0.03085  -0.04755
  15   28838.6    346.8   0.001974250   0.02254   0.13143  -0.05648   0.04554
  16   29268.6    341.7   0.002606410   0.02932  -0.10093   0.07308   0.11743
  17   29892.4    334.5   0.007127324   0.07850  -0.16890   0.13362   0.17921
  18   30827.4    324.4   0.046707833   0.49880   0.65438  -0.19370   0.18185
  19   30940.7    323.2   0.038263940   0.40713  -0.37914   0.35452  -0.37108
  20   31131.4    321.2   0.012226063   0.12929   0.26573  -0.24155   0.01827
  21   31783.8    314.6   0.107369132   1.11211   0.24236  -0.20751   1.00514
  22   32178.0    310.8   0.378880741   3.87631  -0.63280   0.38509  -1.82417
  23   32689.5    305.9   0.009000153   0.09064  -0.20757  -0.13196  -0.17362
  24   32849.3    304.4   0.118796597   1.19057  -0.11591   0.25470  -1.05464
  25   33216.3    301.1   0.066952950   0.66358   0.65292   0.47322   0.11553
  26   33257.0    300.7   0.057820490   0.57237   0.50765   0.31639   0.46320
  27   34069.3    293.5   0.359313418   3.47205  -0.93623  -1.58847  -0.26886
  28   34203.5    292.4   0.075624708   0.72790   0.66428  -0.08399   0.52875
  29   34710.8    288.1   0.069545559   0.65960   0.40194   0.55232  -0.43930
  30   35139.3    284.6   0.058282460   0.54604  -0.65164  -0.29476   0.18578
  31   35206.0    284.0   0.019511995   0.18246   0.31332   0.24356   0.15801
  32   35720.3    280.0   0.122680103   1.13067  -0.87857   0.05024   0.59688
  33   35814.6    279.2   0.361334961   3.32143  -0.83074   0.58524   1.51288
  34   35887.0    278.7   0.012328686   0.11310  -0.00994  -0.19763  -0.27192
  35   35972.3    278.0   0.065876970   0.60289  -0.40862   0.10182   0.65235
  36   36383.2    274.9   0.195721459   1.77098  -0.34878  -0.65390  -1.10533
  37   36931.2    270.8   0.013340410   0.11892  -0.27317  -0.12937  -0.16601
  38   37343.1    267.8   0.006205118   0.05470   0.17450   0.09661  -0.12215
  39   37481.4    266.8   0.255619119   2.24519  -1.36744  -0.58510   0.18157
  40   37803.1    264.5   0.009699667   0.08447  -0.26053  -0.11539   0.05726
  41   37832.7    264.3   0.005276413   0.04591   0.20139   0.07309   0.00388
  42   38035.5    262.9   0.003595183   0.03112  -0.15163  -0.00494  -0.09001
  43   38303.0    261.1   0.199067081   1.71097  -1.06259  -0.73352  -0.20936
  44   38422.7    260.3   0.024015829   0.20577   0.04083   0.45004  -0.03960
  45   38447.5    260.1   0.190185646   1.62849  -1.15692  -0.38189  -0.37972
  46   38855.5    257.4   0.007793618   0.06603   0.10563  -0.17965   0.15034
  47   39141.2    255.5   0.004058064   0.03413  -0.00652   0.12530  -0.13560
  48   39227.4    254.9   0.300051020   2.51815   1.44003   0.65856  -0.10379
  49   39447.2    253.5   0.034883126   0.29112   0.04245   0.51419   0.15789
  50   39508.5    253.1   0.063790733   0.53155  -0.17839   0.44348   0.55050
  51   39644.0    252.2   0.013694114   0.11372  -0.18961   0.25481   0.11330
  52   39902.0    250.6   0.028280742   0.23333   0.03854   0.20479   0.43578
  53   40153.7    249.0   0.072960615   0.59819  -0.62528  -0.35895  -0.27994

FINAL SINGLE POINT ENERGY     -3326.286328821651

DIPOLE MOMENT
-------------
                                X             Y             Z
Electronic contribution:     -3.64031      13.58961      -2.67940
Nuclear contribution   :      2.33148     -14.09430       2.87403
                        -----------------------------------------
Total Dipole Moment    :     -1.30883      -0.50469       0.19463
                        -----------------------------------------
Magnitude (a.u.)       :      1.41620
Magnitude (Debye)      :      3.59970

Rotational constants in cm-1:     0.002563     0.000335     0.000314
Rotational constants in MHz :    76.828489    10.029433     9.414805

                             ****ORCA TERMINATED NORMALLY****
TOTAL RUN TIME: 0 days 0 hours 9 minutes 6 seconds 795 msec
