                         Program Version 4.2.0 -  RELEASE  -
|  1> # ORCA input file
|  2> # SCF done       -210.143056942890          0.000388781406
|  3> ! CAM-B3LYP def2-SVP def2/J RIJCOSX Grid4 TightSCF
|  4> %maxcore 5000
|  5> %tddft
|  6>     Mode sTDDFT
|  7>     Ethresh 5.0
|  8>     maxcore 5000
|  9> end
| 10>
| 11> %pal
| 12>   nprocs 6
| 13>   end
| 14> * xyz 0 1
| 15>    C        8.30443         7.51274         5.78384
| 16>    C        7.57217         8.24125         6.67994
| 17>    F        8.00039         9.46145         7.04661
| 18>    C        6.37863         7.76416         7.23902
| 19>    C        5.92608         6.52613         6.87590
| 20>    C        6.64039         5.73292         5.95464
| 21>    C        7.85479         6.23443         5.40090
| 22>    C        8.59623         5.45229         4.48468
| 23>    C        8.13311         4.21368         4.13273
| 24>    C        6.90597         3.72674         4.67084
| 25>    C        6.17623         4.45652         5.56449
| 26>    C        6.61121         2.40251         4.09256
| 27>    O        5.68914         1.66318         4.34421
| 28>    C        7.67186         2.18299         3.06552
| 29>    C        8.69156         3.19026         3.25402
| 30>    C       10.00707         3.10484         2.87269
| 31>    C       10.57133         1.96918         2.26052
| 32>    N       11.07845         1.04623         1.80284
| 33>    C       10.95800         4.11937         3.10295
| 34>    N       11.75983         4.92978         3.23460
| 35>    C        7.50023         1.20894         2.12703
| 36>    C        8.16394         1.05752         0.89061
| 37>    S        8.31592        -0.51879         0.17531
| 38>    C        9.28246         0.06177        -1.15861
| 39>    C        9.42249         1.43934        -1.06232
| 40>    C        8.78546         2.00805         0.07790
| 41>    C        8.95625         3.40900         0.13014
| 42>    C        9.76293         3.85797        -0.87518
| 43>    C       10.23998         5.23133        -1.08894
| 44>    O       10.95376         5.56686        -1.99777
| 45>    O        9.79201         6.05420        -0.12958
| 46>    C       10.23775         7.40267        -0.21020
| 47>    S       10.28878         2.61755        -1.97650
| 48>    C        9.85560        -0.88130        -2.04676
| 49>    S       10.06860        -2.52036        -1.50016
| 50>    C       10.90686        -2.99221        -2.95399
| 51>    C       10.99722        -1.91777        -3.83139
| 52>    C       10.38899        -0.73788        -3.32472
| 53>    N       10.24178         0.40372        -4.14666
| 54>    O        9.37518         1.21003        -3.83999
| 55>    O       10.96446         0.50025        -5.11722
| 56>    C       11.54564        -2.00739        -5.12605
| 57>    N       11.98431        -2.15783        -6.17536
| 58>    C       11.36964        -4.33005        -3.06839
| 59>    C       12.27107        -4.76065        -3.98582
| 60>    C       12.74857        -6.09461        -4.13956
| 61>    C       12.20039        -7.21370        -3.54813
| 62>    C       12.67181        -8.50912        -3.72132
| 63>    C       13.84343        -8.78959        -4.55197
| 64>    C       14.53111        -7.84667        -5.23954
| 65>    S       14.12946        -6.18648        -5.22034
| 66>    C       14.02999       -10.19442        -4.48134
| 67>    C       13.03982       -10.77452        -3.67986
| 68>    C       13.20571       -12.17544        -3.59354
| 69>    C       14.27469       -12.60395        -4.31456
| 70>    S       15.13085       -11.34109        -5.12547
| 71>    C       12.16732        -9.73042        -3.20319
| 72>    C       10.99000        -9.84813        -2.44507
| 73>    C       10.39549       -11.02011        -2.06767
| 74>    C        9.16551       -11.06016        -1.39465
| 75>    C        8.39684       -12.16605        -1.13804
| 76>    C        7.34167       -12.10260        -0.09767
| 77>    O        6.91219       -11.10483         0.44000
| 78>    C        6.97442       -13.50682         0.17283
| 79>    C        6.11636       -14.00676         1.10840
| 80>    C        5.93976       -15.40569         1.20536
| 81>    C        6.66788       -16.26207         0.32969
| 82>    C        6.49438       -17.65556         0.43564
| 83>    C        5.63070       -18.15503         1.37029
| 84>    C        4.90355       -17.32989         2.23848
| 85>    C        5.06213       -15.97462         2.15046
| 86>    F        5.46256       -19.48668         1.47219
| 87>    C        7.54584       -15.71474        -0.63548
| 88>    C        7.69082       -14.35689        -0.71845
| 89>    C        8.47450       -13.51955        -1.62708
| 90>    C        8.99236       -13.94131        -2.82829
| 91>    C        9.47003       -13.09041        -3.84572
| 92>    N        9.82890       -12.45826        -4.73523
| 93>    C        9.01492       -15.28793        -3.24319
| 94>    N        9.09355       -16.36848        -3.62448
| 95>    H        9.22154         7.90973         5.37742
| 96>    H        5.84423         8.38327         7.94193
| 97>    H        5.00915         6.13782         7.29278
| 98>    H        9.50798         5.85750         4.07511
| 99>    H        5.25435         4.06596         5.96846
|100>    H        6.73050         0.47814         2.35600
|101>    H        8.50029         4.06668         0.84585
|102>    H        9.58423         7.97934         0.43940
|103>    H       10.17734         7.76046        -1.23957
|104>    H       11.27228         7.47259         0.13135
|105>    H       10.98243        -5.00885        -2.32112
|106>    H       12.70699        -4.03819        -4.66089
|107>    H       11.33218        -7.06134        -2.92348
|108>    H       15.38072        -8.08878        -5.85843
|109>    H       12.58790       -12.85366        -3.03591
|110>    H       14.62428       -13.61171        -4.42618
|111>    H       10.47371        -8.92752        -2.20300
|112>    H       10.87692       -11.95295        -2.30600
|113>    H        8.79153       -10.13413        -0.96964
|114>    H        5.57656       -13.34334         1.76745
|115>    H        7.03518       -18.32075        -0.21934
|116>    H        4.23603       -17.78085         2.95552
|117>    H        4.51279       -15.31836         2.80867
|118>    H        8.08693       -16.38843        -1.28071
|119> *
|120>
|121>                          ****END OF INPUT****

CARTESIAN COORDINATES (ANGSTROEM)
---------------------------------
  C      8.304430    7.512740    5.783840
  C      7.572170    8.241250    6.679940
  F      8.000390    9.461450    7.046610
  C      6.378630    7.764160    7.239020
  C      5.926080    6.526130    6.875900
  C      6.640390    5.732920    5.954640
  C      7.854790    6.234430    5.400900
  C      8.596230    5.452290    4.484680
  C      8.133110    4.213680    4.132730
  C      6.905970    3.726740    4.670840
  C      6.176230    4.456520    5.564490
  C      6.611210    2.402510    4.092560
  O      5.689140    1.663180    4.344210
  C      7.671860    2.182990    3.065520
  C      8.691560    3.190260    3.254020
  C     10.007070    3.104840    2.872690
  C     10.571330    1.969180    2.260520
  N     11.078450    1.046230    1.802840
  C     10.958000    4.119370    3.102950
  N     11.759830    4.929780    3.234600
  C      7.500230    1.208940    2.127030
  C      8.163940    1.057520    0.890610
  S      8.315920   -0.518790    0.175310
  C      9.282460    0.061770   -1.158610
  C      9.422490    1.439340   -1.062320
  C      8.785460    2.008050    0.077900
  C      8.956250    3.409000    0.130140
  C      9.762930    3.857970   -0.875180
  C     10.239980    5.231330   -1.088940
  O     10.953760    5.566860   -1.997770
  O      9.792010    6.054200   -0.129580
  C     10.237750    7.402670   -0.210200
  S     10.288780    2.617550   -1.976500
  C      9.855600   -0.881300   -2.046760
  S     10.068600   -2.520360   -1.500160
  C     10.906860   -2.992210   -2.953990
  C     10.997220   -1.917770   -3.831390
  C     10.388990   -0.737880   -3.324720
  N     10.241780    0.403720   -4.146660
  O      9.375180    1.210030   -3.839990
  O     10.964460    0.500250   -5.117220
  C     11.545640   -2.007390   -5.126050
  N     11.984310   -2.157830   -6.175360
  C     11.369640   -4.330050   -3.068390
  C     12.271070   -4.760650   -3.985820
  C     12.748570   -6.094610   -4.139560
  C     12.200390   -7.213700   -3.548130
  C     12.671810   -8.509120   -3.721320
  C     13.843430   -8.789590   -4.551970
  C     14.531110   -7.846670   -5.239540
  S     14.129460   -6.186480   -5.220340
  C     14.029990  -10.194420   -4.481340
  C     13.039820  -10.774520   -3.679860
  C     13.205710  -12.175440   -3.593540
  C     14.274690  -12.603950   -4.314560
  S     15.130850  -11.341090   -5.125470
  C     12.167320   -9.730420   -3.203190
  C     10.990000   -9.848130   -2.445070
  C     10.395490  -11.020110   -2.067670
  C      9.165510  -11.060160   -1.394650
  C      8.396840  -12.166050   -1.138040
  C      7.341670  -12.102600   -0.097670
  O      6.912190  -11.104830    0.440000
  C      6.974420  -13.506820    0.172830
  C      6.116360  -14.006760    1.108400
  C      5.939760  -15.405690    1.205360
  C      6.667880  -16.262070    0.329690
  C      6.494380  -17.655560    0.435640
  C      5.630700  -18.155030    1.370290
  C      4.903550  -17.329890    2.238480
  C      5.062130  -15.974620    2.150460
  F      5.462560  -19.486680    1.472190
  C      7.545840  -15.714740   -0.635480
  C      7.690820  -14.356890   -0.718450
  C      8.474500  -13.519550   -1.627080
  C      8.992360  -13.941310   -2.828290
  C      9.470030  -13.090410   -3.845720
  N      9.828900  -12.458260   -4.735230
  C      9.014920  -15.287930   -3.243190
  N      9.093550  -16.368480   -3.624480
  H      9.221540    7.909730    5.377420
  H      5.844230    8.383270    7.941930
  H      5.009150    6.137820    7.292780
  H      9.507980    5.857500    4.075110
  H      5.254350    4.065960    5.968460
  H      6.730500    0.478140    2.356000
  H      8.500290    4.066680    0.845850
  H      9.584230    7.979340    0.439400
  H     10.177340    7.760460   -1.239570
  H     11.272280    7.472590    0.131350
  H     10.982430   -5.008850   -2.321120
  H     12.706990   -4.038190   -4.660890
  H     11.332180   -7.061340   -2.923480
  H     15.380720   -8.088780   -5.858430
  H     12.587900  -12.853660   -3.035910
  H     14.624280  -13.611710   -4.426180
  H     10.473710   -8.927520   -2.203000
  H     10.876920  -11.952950   -2.306000
  H      8.791530  -10.134130   -0.969640
  H      5.576560  -13.343340    1.767450
  H      7.035180  -18.320750   -0.219340
  H      4.236030  -17.780850    2.955520
  H      4.512790  -15.318360    2.808670
  H      8.086930  -16.388430   -1.280710

 Total Charge           Charge          ....    0
 Multiplicity           Mult            ....    1
 Number of Electrons    NEL             ....  578
 Basis Dimension        Dim             .... 1260

ORBITAL ENERGIES
----------------

  NO   OCC          E(Eh)            E(eV)
   0   2.0000     -89.004919     -2421.9470
   1   2.0000     -88.995747     -2421.6974
   2   2.0000     -88.994100     -2421.6526
   3   2.0000     -88.978252     -2421.2213
   4   2.0000     -88.963969     -2420.8327
   5   2.0000     -24.793123      -674.6552
   6   2.0000     -24.780016      -674.2985
   7   2.0000     -19.271825      -524.4130
   8   2.0000     -19.255955      -523.9812
   9   2.0000     -19.254753      -523.9485
  10   2.0000     -19.224779      -523.1328
  11   2.0000     -19.217292      -522.9291
  12   2.0000     -19.202213      -522.5188
  13   2.0000     -14.662558      -398.9885
  14   2.0000     -14.425328      -392.5331
  15   2.0000     -14.424519      -392.5111
  16   2.0000     -14.416782      -392.3006
  17   2.0000     -14.406836      -392.0299
  18   2.0000     -14.404754      -391.9733
  19   2.0000     -10.417075      -283.4630
  20   2.0000     -10.377287      -282.3803
  21   2.0000     -10.376055      -282.3468
  22   2.0000     -10.365930      -282.0713
  23   2.0000     -10.362940      -281.9899
  24   2.0000     -10.361127      -281.9406
  25   2.0000     -10.357363      -281.8382
  26   2.0000     -10.354089      -281.7491
  27   2.0000     -10.353623      -281.7364
  28   2.0000     -10.351013      -281.6654
  29   2.0000     -10.350256      -281.6448
  30   2.0000     -10.345210      -281.5075
  31   2.0000     -10.343018      -281.4478
  32   2.0000     -10.342722      -281.4398
  33   2.0000     -10.341980      -281.4196
  34   2.0000     -10.334506      -281.2162
  35   2.0000     -10.332447      -281.1602
  36   2.0000     -10.331754      -281.1413
  37   2.0000     -10.331344      -281.1302
  38   2.0000     -10.328880      -281.0631
  39   2.0000     -10.328759      -281.0598
  40   2.0000     -10.327781      -281.0332
  41   2.0000     -10.326398      -280.9956
  42   2.0000     -10.320741      -280.8416
  43   2.0000     -10.319955      -280.8202
  44   2.0000     -10.319273      -280.8017
  45   2.0000     -10.317397      -280.7506
  46   2.0000     -10.316396      -280.7234
  47   2.0000     -10.315446      -280.6975
  48   2.0000     -10.314479      -280.6713
  49   2.0000     -10.313683      -280.6496
  50   2.0000     -10.312757      -280.6244
  51   2.0000     -10.310244      -280.5560
  52   2.0000     -10.309281      -280.5298
  53   2.0000     -10.309121      -280.5254
  54   2.0000     -10.308849      -280.5180
  55   2.0000     -10.307753      -280.4882
  56   2.0000     -10.306705      -280.4597
  57   2.0000     -10.306500      -280.4541
  58   2.0000     -10.305226      -280.4195
  59   2.0000     -10.305116      -280.4165
  60   2.0000     -10.303495      -280.3723
  61   2.0000     -10.302693      -280.3505
  62   2.0000     -10.301776      -280.3256
  63   2.0000     -10.299012      -280.2504
  64   2.0000     -10.298567      -280.2383
  65   2.0000     -10.297762      -280.2164
  66   2.0000     -10.297259      -280.2027
  67   2.0000     -10.296684      -280.1870
  68   2.0000     -10.293664      -280.1049
  69   2.0000     -10.291588      -280.0483
  70   2.0000     -10.291380      -280.0427
  71   2.0000     -10.290572      -280.0207
  72   2.0000     -10.289668      -279.9961
  73   2.0000     -10.288163      -279.9552
  74   2.0000     -10.286225      -279.9024
  75   2.0000     -10.282670      -279.8057
  76   2.0000     -10.281758      -279.7809
  77   2.0000     -10.280922      -279.7581
  78   2.0000     -10.280801      -279.7548
  79   2.0000     -10.280678      -279.7515
  80   2.0000      -8.100631      -220.4294
  81   2.0000      -8.090995      -220.1672
  82   2.0000      -8.089458      -220.1253
  83   2.0000      -8.072682      -219.6688
  84   2.0000      -8.059581      -219.3124
  85   2.0000      -6.069990      -165.1728
  86   2.0000      -6.065769      -165.0580
  87   2.0000      -6.062493      -164.9688
  88   2.0000      -6.060346      -164.9104
  89   2.0000      -6.058776      -164.8677
  90   2.0000      -6.056083      -164.7944
  91   2.0000      -6.054279      -164.7453
  92   2.0000      -6.053076      -164.7126
  93   2.0000      -6.051737      -164.6761
  94   2.0000      -6.042312      -164.4197
  95   2.0000      -6.037856      -164.2984
  96   2.0000      -6.034268      -164.2008
  97   2.0000      -6.028983      -164.0570
  98   2.0000      -6.024750      -163.9418
  99   2.0000      -6.021611      -163.8564
 100   2.0000      -1.335813       -36.3493
 101   2.0000      -1.308409       -35.6036
 102   2.0000      -1.294701       -35.2306
 103   2.0000      -1.203067       -32.7371
 104   2.0000      -1.155199       -31.4346
 105   2.0000      -1.140406       -31.0320
 106   2.0000      -1.116809       -30.3899
 107   2.0000      -1.111332       -30.2409
 108   2.0000      -1.050227       -28.5781
 109   2.0000      -1.035464       -28.1764
 110   2.0000      -1.025705       -27.9109
 111   2.0000      -1.020370       -27.7657
 112   2.0000      -1.009584       -27.4722
 113   2.0000      -1.009113       -27.4594
 114   2.0000      -1.003071       -27.2949
 115   2.0000      -0.999326       -27.1930
 116   2.0000      -0.992020       -26.9942
 117   2.0000      -0.989082       -26.9143
 118   2.0000      -0.985857       -26.8265
 119   2.0000      -0.984493       -26.7894
 120   2.0000      -0.976362       -26.5682
 121   2.0000      -0.967881       -26.3374
 122   2.0000      -0.950945       -25.8765
 123   2.0000      -0.942036       -25.6341
 124   2.0000      -0.939013       -25.5519
 125   2.0000      -0.927662       -25.2430
 126   2.0000      -0.924293       -25.1513
 127   2.0000      -0.918960       -25.0062
 128   2.0000      -0.908294       -24.7159
 129   2.0000      -0.905029       -24.6271
 130   2.0000      -0.895390       -24.3648
 131   2.0000      -0.890684       -24.2367
 132   2.0000      -0.885572       -24.0976
 133   2.0000      -0.877443       -23.8764
 134   2.0000      -0.870191       -23.6791
 135   2.0000      -0.867732       -23.6122
 136   2.0000      -0.860837       -23.4246
 137   2.0000      -0.859542       -23.3893
 138   2.0000      -0.843529       -22.9536
 139   2.0000      -0.838934       -22.8286
 140   2.0000      -0.833173       -22.6718
 141   2.0000      -0.826902       -22.5012
 142   2.0000      -0.825488       -22.4627
 143   2.0000      -0.813734       -22.1428
 144   2.0000      -0.810213       -22.0470
 145   2.0000      -0.804184       -21.8830
 146   2.0000      -0.785930       -21.3862
 147   2.0000      -0.774634       -21.0789
 148   2.0000      -0.767891       -20.8954
 149   2.0000      -0.755875       -20.5684
 150   2.0000      -0.752698       -20.4820
 151   2.0000      -0.738773       -20.1030
 152   2.0000      -0.737317       -20.0634
 153   2.0000      -0.733073       -19.9479
 154   2.0000      -0.727445       -19.7948
 155   2.0000      -0.717624       -19.5275
 156   2.0000      -0.716642       -19.5008
 157   2.0000      -0.708876       -19.2895
 158   2.0000      -0.701887       -19.0993
 159   2.0000      -0.697544       -18.9811
 160   2.0000      -0.689591       -18.7647
 161   2.0000      -0.685217       -18.6457
 162   2.0000      -0.681994       -18.5580
 163   2.0000      -0.674069       -18.3423
 164   2.0000      -0.672258       -18.2931
 165   2.0000      -0.665303       -18.1038
 166   2.0000      -0.662122       -18.0173
 167   2.0000      -0.657915       -17.9028
 168   2.0000      -0.652649       -17.7595
 169   2.0000      -0.645515       -17.5653
 170   2.0000      -0.644337       -17.5333
 171   2.0000      -0.640796       -17.4369
 172   2.0000      -0.637178       -17.3385
 173   2.0000      -0.635025       -17.2799
 174   2.0000      -0.629904       -17.1406
 175   2.0000      -0.624297       -16.9880
 176   2.0000      -0.624080       -16.9821
 177   2.0000      -0.619021       -16.8444
 178   2.0000      -0.610002       -16.5990
 179   2.0000      -0.607224       -16.5234
 180   2.0000      -0.604437       -16.4476
 181   2.0000      -0.600052       -16.3282
 182   2.0000      -0.594649       -16.1812
 183   2.0000      -0.590625       -16.0717
 184   2.0000      -0.586857       -15.9692
 185   2.0000      -0.581213       -15.8156
 186   2.0000      -0.578219       -15.7341
 187   2.0000      -0.577375       -15.7112
 188   2.0000      -0.575597       -15.6628
 189   2.0000      -0.571068       -15.5395
 190   2.0000      -0.567342       -15.4382
 191   2.0000      -0.567014       -15.4292
 192   2.0000      -0.565709       -15.3937
 193   2.0000      -0.558600       -15.2003
 194   2.0000      -0.557481       -15.1698
 195   2.0000      -0.554803       -15.0970
 196   2.0000      -0.554062       -15.0768
 197   2.0000      -0.552336       -15.0298
 198   2.0000      -0.548097       -14.9145
 199   2.0000      -0.544876       -14.8268
 200   2.0000      -0.542549       -14.7635
 201   2.0000      -0.541133       -14.7250
 202   2.0000      -0.539475       -14.6799
 203   2.0000      -0.533114       -14.5068
 204   2.0000      -0.531630       -14.4664
 205   2.0000      -0.530046       -14.4233
 206   2.0000      -0.526700       -14.3322
 207   2.0000      -0.525886       -14.3101
 208   2.0000      -0.524769       -14.2797
 209   2.0000      -0.523283       -14.2392
 210   2.0000      -0.523039       -14.2326
 211   2.0000      -0.517943       -14.0939
 212   2.0000      -0.516738       -14.0611
 213   2.0000      -0.514940       -14.0122
 214   2.0000      -0.510997       -13.9049
 215   2.0000      -0.507951       -13.8220
 216   2.0000      -0.504040       -13.7156
 217   2.0000      -0.502555       -13.6752
 218   2.0000      -0.498477       -13.5643
 219   2.0000      -0.495973       -13.4961
 220   2.0000      -0.494740       -13.4626
 221   2.0000      -0.492626       -13.4050
 222   2.0000      -0.490286       -13.3414
 223   2.0000      -0.489139       -13.3101
 224   2.0000      -0.487721       -13.2716
 225   2.0000      -0.484078       -13.1724
 226   2.0000      -0.483361       -13.1529
 227   2.0000      -0.480950       -13.0873
 228   2.0000      -0.475796       -12.9471
 229   2.0000      -0.475568       -12.9409
 230   2.0000      -0.473950       -12.8968
 231   2.0000      -0.465805       -12.6752
 232   2.0000      -0.462636       -12.5890
 233   2.0000      -0.461007       -12.5446
 234   2.0000      -0.460091       -12.5197
 235   2.0000      -0.456982       -12.4351
 236   2.0000      -0.455673       -12.3995
 237   2.0000      -0.453683       -12.3453
 238   2.0000      -0.451841       -12.2952
 239   2.0000      -0.449691       -12.2367
 240   2.0000      -0.448335       -12.1998
 241   2.0000      -0.445514       -12.1230
 242   2.0000      -0.444395       -12.0926
 243   2.0000      -0.444178       -12.0867
 244   2.0000      -0.442543       -12.0422
 245   2.0000      -0.441420       -12.0117
 246   2.0000      -0.441165       -12.0047
 247   2.0000      -0.439840       -11.9687
 248   2.0000      -0.439009       -11.9461
 249   2.0000      -0.437330       -11.9003
 250   2.0000      -0.435881       -11.8609
 251   2.0000      -0.433252       -11.7894
 252   2.0000      -0.432807       -11.7773
 253   2.0000      -0.430545       -11.7157
 254   2.0000      -0.427508       -11.6331
 255   2.0000      -0.425733       -11.5848
 256   2.0000      -0.423044       -11.5116
 257   2.0000      -0.420718       -11.4483
 258   2.0000      -0.419780       -11.4228
 259   2.0000      -0.416808       -11.3419
 260   2.0000      -0.413911       -11.2631
 261   2.0000      -0.412433       -11.2229
 262   2.0000      -0.406983       -11.0746
 263   2.0000      -0.400417       -10.8959
 264   2.0000      -0.394816       -10.7435
 265   2.0000      -0.394406       -10.7323
 266   2.0000      -0.389836       -10.6080
 267   2.0000      -0.388578       -10.5737
 268   2.0000      -0.387854       -10.5541
 269   2.0000      -0.377016       -10.2591
 270   2.0000      -0.376094       -10.2340
 271   2.0000      -0.374262       -10.1842
 272   2.0000      -0.370029       -10.0690
 273   2.0000      -0.368733       -10.0337
 274   2.0000      -0.361209        -9.8290
 275   2.0000      -0.349557        -9.5119
 276   2.0000      -0.346774        -9.4362
 277   2.0000      -0.339072        -9.2266
 278   2.0000      -0.331389        -9.0176
 279   2.0000      -0.326944        -8.8966
 280   2.0000      -0.326159        -8.8752
 281   2.0000      -0.318468        -8.6660
 282   2.0000      -0.315189        -8.5767
 283   2.0000      -0.305627        -8.3165
 284   2.0000      -0.303434        -8.2569
 285   2.0000      -0.291370        -7.9286
 286   2.0000      -0.288900        -7.8614
 287   2.0000      -0.274330        -7.4649
 288   2.0000      -0.241621        -6.5748
 289   0.0000      -0.121523        -3.3068
 290   0.0000      -0.102971        -2.8020
 291   0.0000      -0.076176        -2.0729
 292   0.0000      -0.069854        -1.9008
 293   0.0000      -0.059324        -1.6143

MULLIKEN ATOMIC CHARGES
-----------------------
   0 C :   -0.097536
   1 C :    0.304182
   2 F :   -0.187364
   3 C :   -0.031532
   4 C :   -0.005911
   5 C :    0.098207
   6 C :    0.101891
   7 C :   -0.088258
   8 C :    0.049212
   9 C :    0.009205
  10 C :   -0.075462
  11 C :    0.138869
  12 O :   -0.137095
  13 C :   -0.130993
  14 C :    0.237885
  15 C :   -0.335676
  16 C :   -0.185302
  17 N :    0.168223
  18 C :   -0.177994
  19 N :    0.159598
  20 C :    0.067913
  21 C :   -0.137519
  22 S :    0.188125
  23 C :   -0.133985
  24 C :   -0.002897
  25 C :    0.107412
  26 C :    0.028370
  27 C :   -0.155643
  28 C :    0.216383
  29 O :   -0.183638
  30 O :   -0.306838
  31 C :    0.180824
  32 S :    0.247041
  33 C :   -0.157397
  34 S :    0.193746
  35 C :   -0.074866
  36 C :   -0.081715
  37 C :    0.221348
  38 N :    0.251079
  39 O :   -0.245561
  40 O :   -0.209923
  41 C :   -0.226750
  42 N :    0.162007
  43 C :    0.058016
  44 C :    0.039344
  45 C :   -0.091366
  46 C :   -0.025496
  47 C :    0.067579
  48 C :    0.060472
  49 C :   -0.120918
  50 S :    0.181815
  51 C :   -0.117027
  52 C :    0.069288
  53 C :    0.012976
  54 C :   -0.063977
  55 S :    0.138295
  56 C :    0.096119
  57 C :   -0.006569
  58 C :    0.012958
  59 C :    0.027861
  60 C :   -0.121018
  61 C :    0.137809
  62 O :   -0.153792
  63 C :    0.003650
  64 C :   -0.080857
  65 C :    0.100877
  66 C :    0.101417
  67 C :   -0.096023
  68 C :    0.299264
  69 C :   -0.032725
  70 C :   -0.010311
  71 F :   -0.192989
  72 C :   -0.087804
  73 C :    0.040939
  74 C :    0.293169
  75 C :   -0.353274
  76 C :   -0.226523
  77 N :    0.168768
  78 C :   -0.172837
  79 N :    0.136642
  80 H :   -0.003228
  81 H :    0.007162
  82 H :   -0.007090
  83 H :   -0.005980
  84 H :   -0.009488
  85 H :    0.028129
  86 H :    0.009433
  87 H :    0.035298
  88 H :    0.044228
  89 H :    0.044283
  90 H :   -0.008208
  91 H :    0.020006
  92 H :   -0.015150
  93 H :    0.045866
  94 H :   -0.003053
  95 H :    0.032384
  96 H :   -0.026755
  97 H :   -0.013966
  98 H :    0.006032
  99 H :   -0.014946
 100 H :   -0.003965
 101 H :    0.001310
 102 H :   -0.010725
 103 H :   -0.006993
Sum of atomic charges:    0.0000000

LOEWDIN ATOMIC CHARGES
----------------------
   0 C :   -0.042802
   1 C :    0.094479
   2 F :   -0.062312
   3 C :   -0.035461
   4 C :    0.006481
   5 C :   -0.018864
   6 C :    0.004071
   7 C :    0.009443
   8 C :   -0.017780
   9 C :   -0.061458
  10 C :    0.037833
  11 C :    0.083113
  12 O :   -0.138399
  13 C :   -0.082718
  14 C :    0.056490
  15 C :   -0.130002
  16 C :   -0.014709
  17 N :   -0.048627
  18 C :   -0.017352
  19 N :   -0.049693
  20 C :    0.039675
  21 C :   -0.169233
  22 S :    0.483459
  23 C :   -0.196108
  24 C :   -0.166654
  25 C :   -0.057776
  26 C :   -0.027930
  27 C :   -0.182129
  28 C :    0.066261
  29 O :   -0.160847
  30 O :   -0.092179
  31 C :    0.084680
  32 S :    0.510634
  33 C :   -0.158422
  34 S :    0.486177
  35 C :   -0.126913
  36 C :   -0.095578
  37 C :   -0.052947
  38 N :    0.275837
  39 O :   -0.210185
  40 O :   -0.170276
  41 C :   -0.038389
  42 N :   -0.038745
  43 C :   -0.048370
  44 C :   -0.008952
  45 C :   -0.165319
  46 C :   -0.008271
  47 C :    0.005677
  48 C :   -0.046215
  49 C :   -0.137124
  50 S :    0.496658
  51 C :   -0.198300
  52 C :   -0.025744
  53 C :   -0.056419
  54 C :   -0.154095
  55 S :    0.432492
  56 C :   -0.052288
  57 C :    0.038904
  58 C :   -0.044677
  59 C :    0.067606
  60 C :   -0.108741
  61 C :    0.078654
  62 O :   -0.156846
  63 C :   -0.057656
  64 C :    0.030334
  65 C :   -0.019766
  66 C :    0.002339
  67 C :   -0.042707
  68 C :    0.091273
  69 C :   -0.039685
  70 C :    0.003172
  71 F :   -0.067185
  72 C :    0.007555
  73 C :   -0.015918
  74 C :    0.069993
  75 C :   -0.150686
  76 C :   -0.026533
  77 N :   -0.054671
  78 C :   -0.019241
  79 N :   -0.062215
  80 H :    0.042818
  81 H :    0.043151
  82 H :    0.036663
  83 H :    0.038939
  84 H :    0.040801
  85 H :    0.049120
  86 H :    0.037984
  87 H :    0.026337
  88 H :    0.026316
  89 H :    0.028922
  90 H :    0.030586
  91 H :    0.038012
  92 H :    0.036592
  93 H :    0.040909
  94 H :    0.031666
  95 H :    0.027448
  96 H :    0.029378
  97 H :    0.028055
  98 H :    0.040774
  99 H :    0.038162
 100 H :    0.042429
 101 H :    0.040765
 102 H :    0.034769
 103 H :    0.038219

  Mayer bond orders larger than 0.100000
B(  0-C ,  1-C ) :   1.4389 B(  0-C ,  6-C ) :   1.2024 B(  0-C , 80-H ) :   1.0071
B(  1-C ,  2-F ) :   1.0920 B(  1-C ,  3-C ) :   1.2557 B(  3-C ,  4-C ) :   1.4601
B(  3-C , 81-H ) :   0.9929 B(  4-C ,  5-C ) :   1.2336 B(  4-C , 82-H ) :   0.9977
B(  5-C ,  6-C ) :   1.2577 B(  5-C , 10-C ) :   1.1909 B(  6-C ,  7-C ) :   1.1998
B(  7-C ,  8-C ) :   1.4604 B(  7-C , 83-H ) :   0.9954 B(  8-C ,  9-C ) :   1.2181
B(  8-C , 14-C ) :   1.0018 B(  9-C , 10-C ) :   1.4680 B(  9-C , 11-C ) :   0.9203
B( 10-C , 84-H ) :   1.0158 B( 11-C , 12-O ) :   2.2771 B( 11-C , 13-C ) :   0.9332
B( 13-C , 14-C ) :   1.0476 B( 13-C , 20-C ) :   1.6566 B( 14-C , 15-C ) :   1.6488
B( 15-C , 16-C ) :   1.1615 B( 15-C , 18-C ) :   1.1415 B( 16-C , 17-N ) :   3.0004
B( 18-C , 19-N ) :   2.9805 B( 20-C , 21-C ) :   1.1343 B( 20-C , 85-H ) :   0.9338
B( 21-C , 22-S ) :   1.1231 B( 21-C , 23-C ) :   0.1080 B( 21-C , 25-C ) :   1.3547
B( 22-S , 23-C ) :   1.1437 B( 23-C , 24-C ) :   1.4962 B( 23-C , 33-C ) :   1.1473
B( 24-C , 25-C ) :   1.2540 B( 24-C , 32-S ) :   1.0849 B( 25-C , 26-C ) :   1.1655
B( 26-C , 27-C ) :   1.5862 B( 26-C , 86-H ) :   0.9835 B( 27-C , 28-C ) :   0.9502
B( 27-C , 32-S ) :   1.1081 B( 28-C , 29-O ) :   2.1551 B( 28-C , 30-O ) :   1.2391
B( 30-O , 31-C ) :   0.9118 B( 31-C , 87-H ) :   0.9814 B( 31-C , 88-H ) :   0.9702
B( 31-C , 89-H ) :   0.9808 B( 33-C , 34-S ) :   1.1543 B( 33-C , 37-C ) :   1.4710
B( 34-S , 35-C ) :   1.1023 B( 35-C , 36-C ) :   1.5022 B( 35-C , 43-C ) :   1.1596
B( 36-C , 37-C ) :   1.2639 B( 36-C , 41-C ) :   1.1366 B( 37-C , 38-N ) :   0.9440
B( 38-N , 39-O ) :   1.4573 B( 38-N , 40-O ) :   1.5201 B( 39-O , 40-O ) :   0.2583
B( 41-C , 42-N ) :   2.9614 B( 43-C , 44-C ) :   1.6971 B( 43-C , 90-H ) :   0.9348
B( 44-C , 45-C ) :   1.1184 B( 44-C , 91-H ) :   0.9475 B( 45-C , 46-C ) :   1.5017
B( 45-C , 50-S ) :   1.0869 B( 46-C , 47-C ) :   1.2873 B( 46-C , 92-H ) :   0.9618
B( 47-C , 48-C ) :   1.0628 B( 47-C , 56-C ) :   1.3125 B( 48-C , 49-C ) :   1.5718
B( 48-C , 51-C ) :   1.1973 B( 49-C , 50-S ) :   1.1654 B( 49-C , 93-H ) :   0.9412
B( 51-C , 52-C ) :   1.4401 B( 51-C , 55-S ) :   1.0827 B( 52-C , 53-C ) :   1.2174
B( 52-C , 56-C ) :   1.0862 B( 53-C , 54-C ) :   1.5920 B( 53-C , 94-H ) :   0.9954
B( 54-C , 55-S ) :   1.1550 B( 54-C , 95-H ) :   0.9636 B( 56-C , 57-C ) :   1.1992
B( 57-C , 58-C ) :   1.5423 B( 57-C , 96-H ) :   0.9696 B( 58-C , 59-C ) :   1.1940
B( 58-C , 97-H ) :   0.9653 B( 59-C , 60-C ) :   1.5230 B( 59-C , 98-H ) :   0.9583
B( 60-C , 61-C ) :   0.9552 B( 60-C , 74-C ) :   1.0739 B( 61-C , 62-O ) :   2.2591
B( 61-C , 63-C ) :   0.9191 B( 63-C , 64-C ) :   1.4807 B( 63-C , 73-C ) :   1.2180
B( 64-C , 65-C ) :   1.1884 B( 64-C , 99-H ) :   1.0140 B( 65-C , 66-C ) :   1.2580
B( 65-C , 70-C ) :   1.2361 B( 66-C , 67-C ) :   1.2053 B( 66-C , 72-C ) :   1.2009
B( 67-C , 68-C ) :   1.4409 B( 67-C ,100-H ) :   1.0059 B( 68-C , 69-C ) :   1.2578
B( 68-C , 71-F ) :   1.0861 B( 69-C , 70-C ) :   1.4609 B( 69-C ,101-H ) :   0.9923
B( 70-C ,102-H ) :   0.9964 B( 72-C , 73-C ) :   1.4686 B( 72-C ,103-H ) :   0.9916
B( 73-C , 74-C ) :   0.9948 B( 74-C , 75-C ) :   1.6045 B( 75-C , 76-C ) :   1.1683
B( 75-C , 78-C ) :   1.1347 B( 76-C , 77-N ) :   2.9992 B( 78-C , 79-N ) :   2.9734

-----------------------------------------------------------------------------
         ABSORPTION SPECTRUM VIA TRANSITION ELECTRIC DIPOLE MOMENTS
-----------------------------------------------------------------------------
State   Energy  Wavelength   fosc         T2         TX        TY        TZ
        (cm-1)    (nm)                  (au**2)     (au)      (au)      (au)
-----------------------------------------------------------------------------
   0   13871.2    720.9   1.271722815  30.18252   0.63028   5.37688   0.93512
   1   16674.8    599.7   0.700224339  13.82461  -2.07398  -1.11831   2.87622
   2   18516.7    540.1   0.302248032   5.37374   0.30222  -1.27951  -1.90926
   3   21448.7    466.2   0.085625839   1.31425   0.98435  -0.53402  -0.24522
   4   22728.9    440.0   0.240163145   3.47860  -1.63903   0.86751   0.19899
   5   23255.6    430.0   0.004732563   0.06700  -0.20559   0.03492  -0.15333
   6   23796.7    420.2   0.050468617   0.69820   0.81296  -0.10861  -0.15970
   7   25202.6    396.8   0.066692710   0.87118   0.59039  -0.55017  -0.46897
   8   25321.0    394.9   0.008088437   0.10516  -0.15261  -0.28549   0.01924
   9   25878.4    386.4   0.038518679   0.49002   0.49967   0.45214  -0.18952
  10   26070.4    383.6   0.005499421   0.06945   0.05659  -0.01273   0.25706
  11   26502.3    377.3   0.088511368   1.09949   0.18180  -0.95958   0.38164
  12   27324.8    366.0   0.210217059   2.53272   0.98130   0.72165  -1.02420
  13   27376.0    365.3   0.132440188   1.59267   0.97985  -0.62563  -0.49105
  14   27608.9    362.2   0.076070737   0.90708  -0.53921   0.32022   0.71679
  15   28132.9    355.5   0.012424946   0.14540   0.16731  -0.33836  -0.05403
  16   28416.4    351.9   0.030935735   0.35840  -0.51697   0.11813   0.27782
  17   29025.5    344.5   0.047000319   0.53308   0.13065  -0.41647  -0.58529
  18   29107.1    343.6   0.034970949   0.39553  -0.38561   0.13612   0.47782
  19   29395.5    340.2   0.025524677   0.28586  -0.27497   0.00438   0.45851
  20   30232.9    330.8   0.358174144   3.90023   0.63006   1.80578  -0.49236
  21   30443.1    328.5   0.171934871   1.85931   0.52733  -1.21066  -0.33992
  22   30660.0    326.2   0.135450650   1.45440  -0.62137   0.60894   0.83516
  23   31861.4    313.9   0.243282694   2.51375  -0.96890   1.19287   0.38993
  24   32455.2    308.1   0.199191121   2.02051  -0.63210   1.08946   0.65881
  25   32596.7    306.8   0.050241659   0.50742   0.22137   0.50622  -0.44962
  26   32673.2    306.1   0.214041745   2.15667   0.84738   0.70990  -0.96678
  27   32798.6    304.9   0.118650598   1.19094  -0.29436   0.39766   0.97271
  28   32965.0    303.4   0.100198599   1.00065  -0.54001  -0.72726   0.42442
  29   33198.7    301.2   0.209292237   2.07543  -0.67559   0.75730   1.02250
  30   33522.7    298.3   0.066139534   0.64953   0.75758   0.24792  -0.11891
  31   33662.6    297.1   0.238355642   2.33106   0.68549  -0.66108  -1.19337
  32   33791.8    295.9   0.410232736   3.99664   0.76887   1.55379  -0.99559
  33   34241.9    292.0   0.069509175   0.66828  -0.68710  -0.05898   0.43898
  34   34709.8    288.1   0.041489270   0.39351   0.33161  -0.39378  -0.35845
  35   34929.3    286.3   0.068236868   0.64314   0.43514   0.52192  -0.42590
  36   35039.6    285.4   0.013038116   0.12250   0.11152   0.27804  -0.18098
  37   35271.8    283.5   0.004624179   0.04316   0.01654   0.19897  -0.05743
  38   35408.4    282.4   0.114405227   1.06369   0.60663   0.44168  -0.70753
  39   35861.4    278.9   0.033379555   0.30643   0.46214  -0.08594  -0.29235
  40   36030.2    277.5   0.031895053   0.29143   0.20906   0.49202   0.07511
  41   36230.4    276.0   0.036154001   0.32852   0.15967   0.51373  -0.19774
  42   36342.2    275.2   0.029779168   0.26976   0.51120   0.08930  -0.02140
  43   36686.4    272.6   0.054917932   0.49282   0.37973   0.01167  -0.59033
  44   36762.4    272.0   0.086145321   0.77144  -0.56375   0.61890   0.26568
  45   36811.4    271.7   0.007734754   0.06917   0.01975  -0.12366   0.23128
  46   36993.9    270.3   0.090139674   0.80216  -0.50209   0.62116   0.40524
  47   37285.3    268.2   0.096797322   0.85468   0.27571  -0.87740  -0.09401
  48   37564.7    266.2   0.170810071   1.49695  -0.60263   0.52726   0.92509
  49   37741.7    265.0   0.083010353   0.72408   0.56796   0.31395  -0.55040
  50   38055.4    262.8   0.279114983   2.41459  -1.13924   0.07482   1.05409
  51   38120.8    262.3   0.019432881   0.16782   0.11897  -0.06218  -0.38704
  52   38438.5    260.2   0.018352357   0.15718   0.21765   0.10210  -0.31526
  53   38856.5    257.4   0.016724114   0.14170  -0.20770   0.30280  -0.08287
  54   39071.4    255.9   0.000153091   0.00129  -0.00479  -0.02158  -0.02831
  55   39318.7    254.3   0.021500575   0.18002   0.04631  -0.12805   0.40185
  56   39378.9    253.9   0.042641285   0.35649  -0.22330  -0.12715  -0.53894
  57   39474.9    253.3   0.085879026   0.71621   0.62894   0.49264  -0.27920
  58   39673.1    252.1   0.070267935   0.58309   0.21426   0.60283  -0.41688
  59   40081.3    249.5   0.017986560   0.14773   0.05968  -0.35361  -0.13833

FINAL SINGLE POINT ENERGY     -5304.485528724741

DIPOLE MOMENT
-------------
                                X             Y             Z
Electronic contribution:      5.20357       6.46132      -9.41170
Nuclear contribution   :     -5.84454      -4.66423      12.67070
                        -----------------------------------------
Total Dipole Moment    :     -0.64097       1.79709       3.25900
                        -----------------------------------------
Magnitude (a.u.)       :      3.77643
Magnitude (Debye)      :      9.59893

Rotational constants in cm-1:     0.000932     0.000211     0.000178
Rotational constants in MHz :    27.951228     6.327622     5.344633

                             ****ORCA TERMINATED NORMALLY****
TOTAL RUN TIME: 0 days 0 hours 12 minutes 1 seconds 799 msec
