                         Program Version 4.2.0 -  RELEASE  -
|  1> # ORCA input file
|  2> # SCF done       -208.996507766086          0.000822047894
|  3> ! CAM-B3LYP def2-SVP def2/J RIJCOSX Grid4 TightSCF
|  4> %maxcore 5000
|  5> %tddft
|  6>     Mode sTDDFT
|  7>     Ethresh 5.0
|  8>     maxcore 5000
|  9> end
| 10>
| 11> %pal
| 12>   nprocs 6
| 13>   end
| 14> * xyz 0 1
| 15>    C        9.98031         3.83799         7.10879
| 16>    C        9.49508         4.14529         8.34960
| 17>    F       10.22714         4.91622         9.17456
| 18>    C        8.25253         3.68553         8.80583
| 19>    C        7.49520         2.90020         7.98166
| 20>    C        7.94751         2.55112         6.69291
| 21>    C        9.21354         3.03066         6.24674
| 22>    C        9.68542         2.69994         4.95438
| 23>    C        8.91792         1.91020         4.14331
| 24>    C        7.65945         1.42076         4.59990
| 25>    C        7.17545         1.73333         5.83693
| 26>    C        7.05861         0.57164         3.55316
| 27>    O        5.97486         0.03179         3.55989
| 28>    C        8.10092         0.46217         2.49721
| 29>    C        9.12330         1.44164         2.77590
| 30>    C        9.94793         2.02949         1.84862
| 31>    C        9.86529         1.75012         0.46968
| 32>    N        9.77447         1.57792        -0.66244
| 33>    C       10.88111         3.03717         2.15701
| 34>    N       11.66920         3.84633         2.36326
| 35>    C        7.98833        -0.51310         1.54906
| 36>    C        8.97810        -1.10222         0.72325
| 37>    C        8.61787        -1.83090        -0.39291
| 38>    C        9.50869        -2.43135        -1.26993
| 39>    C       10.95509        -2.36731        -1.05322
| 40>    C       11.53420        -1.76728         0.01036
| 41>    S       10.65709        -0.96823         1.24294
| 42>    C       11.52840        -3.06330        -2.15083
| 43>    C       10.52112        -3.54262        -2.99829
| 44>    C       11.06534        -4.23946        -4.10305
| 45>    C       12.42235        -4.26936        -4.06235
| 46>    S       13.10560        -3.46003        -2.69326
| 47>    C        9.24496        -3.15945        -2.45576
| 48>    C        7.94466        -3.43046        -2.93432
| 49>    C        7.63301        -4.13656        -4.05086
| 50>    C        6.31221        -4.41658        -4.51125
| 51>    C        6.11977        -5.15328        -5.68669
| 52>    C        4.85730        -5.47673        -6.22869
| 53>    N        4.92273        -6.21347        -7.37578
| 54>    C        6.12395        -6.45409        -7.72692
| 55>    S        7.37186        -5.81191        -6.69907
| 56>    C        3.66175        -5.08551        -5.58526
| 57>    C        3.84436        -4.35838        -4.40298
| 58>    C        5.11582        -4.01200        -3.87809
| 59>    N        5.06083        -3.26260        -2.74202
| 60>    C        3.86435        -3.01083        -2.38320
| 61>    S        2.60676        -3.67153        -3.38733
| 62>    C        2.37164        -5.43508        -6.13955
| 63>    C        2.17945        -5.60955        -7.48821
| 64>    C        0.97418        -5.97150        -8.08484
| 65>    C       -0.23897        -6.17908        -7.29734
| 66>    C       -0.28553        -6.05886        -5.95073
| 67>    S        1.06935        -5.65570        -4.98610
| 68>    C       -1.25165        -6.50590        -8.23844
| 69>    C       -0.72245        -6.50783        -9.53218
| 70>    C       -1.68641        -6.89450       -10.48949
| 71>    C       -2.89044        -7.14862        -9.91351
| 72>    S       -2.91265        -6.93886        -8.19609
| 73>    C        0.67658        -6.15752        -9.45649
| 74>    C        1.61320        -6.02245       -10.49385
| 75>    C        1.35549        -5.96873       -11.83940
| 76>    C        2.40695        -5.82325       -12.75271
| 77>    C        2.40584        -5.64112       -14.11476
| 78>    C        3.67148        -5.17283       -14.73226
| 79>    O        4.76389        -5.13796       -14.20475
| 80>    C        3.31257        -4.71948       -16.08839
| 81>    C        4.09383        -4.11467       -17.02893
| 82>    C        3.51465        -3.72064       -18.25624
| 83>    C        2.12767        -3.95827       -18.47748
| 84>    C        1.55153        -3.55411       -19.69737
| 85>    C        2.33341        -2.94734       -20.64031
| 86>    C        3.69936        -2.70664       -20.44266
| 87>    C        4.27424        -3.09179       -19.26334
| 88>    F        1.78419        -2.56029       -21.80775
| 89>    C        1.34491        -4.59453       -17.48492
| 90>    C        1.93048        -4.97830       -16.30937
| 91>    C        1.38983        -5.66838       -15.13460
| 92>    C        0.19477        -6.34744       -15.13235
| 93>    C       -0.25200        -7.22417       -14.12899
| 94>    N       -0.68279        -7.98310       -13.38065
| 95>    C       -0.72332        -6.33669       -16.20213
| 96>    N       -1.52958        -6.35841       -17.02008
| 97>    H       10.94007         4.21310         6.78948
| 98>    H        7.92148         3.96031         9.79474
| 99>    H        6.53440         2.53376         8.31069
|100>    H       10.64877         3.07106         4.64164
|101>    H        6.21485         1.36157         6.16074
|102>    H        6.99886        -0.95510         1.47443
|103>    H        7.55928        -1.88628        -0.60872
|104>    H       12.60206        -1.75117         0.16166
|105>    H       10.50456        -4.69814        -4.89614
|106>    H       13.08782        -4.72659        -4.76830
|107>    H        7.12517        -3.04098        -2.34921
|108>    H        8.42084        -4.54096        -4.66966
|109>    H        6.38245        -7.01574        -8.60309
|110>    H        3.61292        -2.43367        -1.51496
|111>    H        3.03765        -5.44704        -8.12169
|112>    H       -1.18830        -6.21228        -5.38105
|113>    H       -1.50912        -7.03002       -11.54057
|114>    H       -3.79402        -7.46029       -10.39954
|115>    H        2.64857        -5.93355       -10.18612
|116>    H        0.33700        -5.98653       -12.18647
|117>    H        3.40293        -5.75771       -12.32111
|118>    H        5.14175        -3.93629       -16.83906
|119>    H        0.50327        -3.72664       -19.88532
|120>    H        4.26608        -2.22376       -21.22292
|121>    H        5.32502        -2.91684       -19.08724
|122>    H        0.29674        -4.75166       -17.68221
|123> *
|124>
|125>                          ****END OF INPUT****

CARTESIAN COORDINATES (ANGSTROEM)
---------------------------------
  C      9.980310    3.837990    7.108790
  C      9.495080    4.145290    8.349600
  F     10.227140    4.916220    9.174560
  C      8.252530    3.685530    8.805830
  C      7.495200    2.900200    7.981660
  C      7.947510    2.551120    6.692910
  C      9.213540    3.030660    6.246740
  C      9.685420    2.699940    4.954380
  C      8.917920    1.910200    4.143310
  C      7.659450    1.420760    4.599900
  C      7.175450    1.733330    5.836930
  C      7.058610    0.571640    3.553160
  O      5.974860    0.031790    3.559890
  C      8.100920    0.462170    2.497210
  C      9.123300    1.441640    2.775900
  C      9.947930    2.029490    1.848620
  C      9.865290    1.750120    0.469680
  N      9.774470    1.577920   -0.662440
  C     10.881110    3.037170    2.157010
  N     11.669200    3.846330    2.363260
  C      7.988330   -0.513100    1.549060
  C      8.978100   -1.102220    0.723250
  C      8.617870   -1.830900   -0.392910
  C      9.508690   -2.431350   -1.269930
  C     10.955090   -2.367310   -1.053220
  C     11.534200   -1.767280    0.010360
  S     10.657090   -0.968230    1.242940
  C     11.528400   -3.063300   -2.150830
  C     10.521120   -3.542620   -2.998290
  C     11.065340   -4.239460   -4.103050
  C     12.422350   -4.269360   -4.062350
  S     13.105600   -3.460030   -2.693260
  C      9.244960   -3.159450   -2.455760
  C      7.944660   -3.430460   -2.934320
  C      7.633010   -4.136560   -4.050860
  C      6.312210   -4.416580   -4.511250
  C      6.119770   -5.153280   -5.686690
  C      4.857300   -5.476730   -6.228690
  N      4.922730   -6.213470   -7.375780
  C      6.123950   -6.454090   -7.726920
  S      7.371860   -5.811910   -6.699070
  C      3.661750   -5.085510   -5.585260
  C      3.844360   -4.358380   -4.402980
  C      5.115820   -4.012000   -3.878090
  N      5.060830   -3.262600   -2.742020
  C      3.864350   -3.010830   -2.383200
  S      2.606760   -3.671530   -3.387330
  C      2.371640   -5.435080   -6.139550
  C      2.179450   -5.609550   -7.488210
  C      0.974180   -5.971500   -8.084840
  C     -0.238970   -6.179080   -7.297340
  C     -0.285530   -6.058860   -5.950730
  S      1.069350   -5.655700   -4.986100
  C     -1.251650   -6.505900   -8.238440
  C     -0.722450   -6.507830   -9.532180
  C     -1.686410   -6.894500  -10.489490
  C     -2.890440   -7.148620   -9.913510
  S     -2.912650   -6.938860   -8.196090
  C      0.676580   -6.157520   -9.456490
  C      1.613200   -6.022450  -10.493850
  C      1.355490   -5.968730  -11.839400
  C      2.406950   -5.823250  -12.752710
  C      2.405840   -5.641120  -14.114760
  C      3.671480   -5.172830  -14.732260
  O      4.763890   -5.137960  -14.204750
  C      3.312570   -4.719480  -16.088390
  C      4.093830   -4.114670  -17.028930
  C      3.514650   -3.720640  -18.256240
  C      2.127670   -3.958270  -18.477480
  C      1.551530   -3.554110  -19.697370
  C      2.333410   -2.947340  -20.640310
  C      3.699360   -2.706640  -20.442660
  C      4.274240   -3.091790  -19.263340
  F      1.784190   -2.560290  -21.807750
  C      1.344910   -4.594530  -17.484920
  C      1.930480   -4.978300  -16.309370
  C      1.389830   -5.668380  -15.134600
  C      0.194770   -6.347440  -15.132350
  C     -0.252000   -7.224170  -14.128990
  N     -0.682790   -7.983100  -13.380650
  C     -0.723320   -6.336690  -16.202130
  N     -1.529580   -6.358410  -17.020080
  H     10.940070    4.213100    6.789480
  H      7.921480    3.960310    9.794740
  H      6.534400    2.533760    8.310690
  H     10.648770    3.071060    4.641640
  H      6.214850    1.361570    6.160740
  H      6.998860   -0.955100    1.474430
  H      7.559280   -1.886280   -0.608720
  H     12.602060   -1.751170    0.161660
  H     10.504560   -4.698140   -4.896140
  H     13.087820   -4.726590   -4.768300
  H      7.125170   -3.040980   -2.349210
  H      8.420840   -4.540960   -4.669660
  H      6.382450   -7.015740   -8.603090
  H      3.612920   -2.433670   -1.514960
  H      3.037650   -5.447040   -8.121690
  H     -1.188300   -6.212280   -5.381050
  H     -1.509120   -7.030020  -11.540570
  H     -3.794020   -7.460290  -10.399540
  H      2.648570   -5.933550  -10.186120
  H      0.337000   -5.986530  -12.186470
  H      3.402930   -5.757710  -12.321110
  H      5.141750   -3.936290  -16.839060
  H      0.503270   -3.726640  -19.885320
  H      4.266080   -2.223760  -21.222920
  H      5.325020   -2.916840  -19.087240
  H      0.296740   -4.751660  -17.682210

 Total Charge           Charge          ....    0
 Multiplicity           Mult            ....    1
 Number of Electrons    NEL             ....  594
 Basis Dimension        Dim             .... 1302

ORBITAL ENERGIES
----------------

  NO   OCC          E(Eh)            E(eV)
   0   2.0000     -88.988861     -2421.5100
   1   2.0000     -88.982000     -2421.3233
   2   2.0000     -88.977638     -2421.2046
   3   2.0000     -88.976993     -2421.1871
   4   2.0000     -88.967715     -2420.9346
   5   2.0000     -88.953856     -2420.5575
   6   2.0000     -24.786521      -674.4755
   7   2.0000     -24.775783      -674.1833
   8   2.0000     -19.214983      -522.8663
   9   2.0000     -19.195597      -522.3387
  10   2.0000     -14.429423      -392.6446
  11   2.0000     -14.428616      -392.6226
  12   2.0000     -14.416082      -392.2815
  13   2.0000     -14.412913      -392.1953
  14   2.0000     -14.403506      -391.9393
  15   2.0000     -14.400287      -391.8517
  16   2.0000     -10.370304      -282.1903
  17   2.0000     -10.366910      -282.0980
  18   2.0000     -10.358536      -281.8701
  19   2.0000     -10.353182      -281.7244
  20   2.0000     -10.351577      -281.6807
  21   2.0000     -10.346470      -281.5417
  22   2.0000     -10.342896      -281.4445
  23   2.0000     -10.340867      -281.3893
  24   2.0000     -10.338303      -281.3195
  25   2.0000     -10.336587      -281.2728
  26   2.0000     -10.335600      -281.2460
  27   2.0000     -10.331022      -281.1214
  28   2.0000     -10.330091      -281.0961
  29   2.0000     -10.328705      -281.0584
  30   2.0000     -10.327185      -281.0170
  31   2.0000     -10.326878      -281.0086
  32   2.0000     -10.324895      -280.9547
  33   2.0000     -10.323390      -280.9137
  34   2.0000     -10.322171      -280.8806
  35   2.0000     -10.318713      -280.7865
  36   2.0000     -10.318594      -280.7832
  37   2.0000     -10.316057      -280.7142
  38   2.0000     -10.315603      -280.7018
  39   2.0000     -10.310946      -280.5751
  40   2.0000     -10.308683      -280.5135
  41   2.0000     -10.306913      -280.4654
  42   2.0000     -10.306656      -280.4584
  43   2.0000     -10.306327      -280.4494
  44   2.0000     -10.306186      -280.4456
  45   2.0000     -10.305849      -280.4364
  46   2.0000     -10.304258      -280.3931
  47   2.0000     -10.302370      -280.3417
  48   2.0000     -10.301763      -280.3252
  49   2.0000     -10.300904      -280.3018
  50   2.0000     -10.299226      -280.2562
  51   2.0000     -10.298675      -280.2412
  52   2.0000     -10.298552      -280.2378
  53   2.0000     -10.298419      -280.2342
  54   2.0000     -10.297876      -280.2195
  55   2.0000     -10.297337      -280.2048
  56   2.0000     -10.296657      -280.1863
  57   2.0000     -10.295882      -280.1652
  58   2.0000     -10.295101      -280.1439
  59   2.0000     -10.293926      -280.1120
  60   2.0000     -10.293682      -280.1053
  61   2.0000     -10.291822      -280.0547
  62   2.0000     -10.290856      -280.0284
  63   2.0000     -10.290510      -280.0190
  64   2.0000     -10.289740      -279.9981
  65   2.0000     -10.288918      -279.9757
  66   2.0000     -10.287485      -279.9367
  67   2.0000     -10.287129      -279.9270
  68   2.0000     -10.287075      -279.9255
  69   2.0000     -10.286574      -279.9119
  70   2.0000     -10.286308      -279.9047
  71   2.0000     -10.286063      -279.8980
  72   2.0000     -10.284359      -279.8516
  73   2.0000     -10.284071      -279.8438
  74   2.0000     -10.282936      -279.8129
  75   2.0000     -10.279557      -279.7210
  76   2.0000     -10.278298      -279.6867
  77   2.0000     -10.275260      -279.6040
  78   2.0000     -10.275157      -279.6012
  79   2.0000     -10.273872      -279.5663
  80   2.0000     -10.270793      -279.4825
  81   2.0000     -10.263289      -279.2783
  82   2.0000      -8.084079      -219.9790
  83   2.0000      -8.076871      -219.7828
  84   2.0000      -8.073825      -219.6999
  85   2.0000      -8.073197      -219.6829
  86   2.0000      -8.063219      -219.4113
  87   2.0000      -8.049386      -219.0349
  88   2.0000      -6.053405      -164.7215
  89   2.0000      -6.048851      -164.5976
  90   2.0000      -6.046490      -164.5334
  91   2.0000      -6.046433      -164.5318
  92   2.0000      -6.043225      -164.4445
  93   2.0000      -6.042496      -164.4247
  94   2.0000      -6.041883      -164.4080
  95   2.0000      -6.038910      -164.3271
  96   2.0000      -6.038703      -164.3215
  97   2.0000      -6.038422      -164.3138
  98   2.0000      -6.035587      -164.2367
  99   2.0000      -6.035039      -164.2218
 100   2.0000      -6.032636      -164.1564
 101   2.0000      -6.028339      -164.0394
 102   2.0000      -6.025310      -163.9570
 103   2.0000      -6.018805      -163.7800
 104   2.0000      -6.014558      -163.6644
 105   2.0000      -6.011444      -163.5797
 106   2.0000      -1.301318       -35.4107
 107   2.0000      -1.290187       -35.1078
 108   2.0000      -1.129934       -30.7471
 109   2.0000      -1.110118       -30.2079
 110   2.0000      -1.089277       -29.6407
 111   2.0000      -1.081992       -29.4425
 112   2.0000      -1.020884       -27.7797
 113   2.0000      -1.016049       -27.6481
 114   2.0000      -1.011537       -27.5253
 115   2.0000      -1.004783       -27.3415
 116   2.0000      -1.000599       -27.2277
 117   2.0000      -0.994166       -27.0526
 118   2.0000      -0.988106       -26.8877
 119   2.0000      -0.984188       -26.7811
 120   2.0000      -0.983600       -26.7651
 121   2.0000      -0.980822       -26.6895
 122   2.0000      -0.975007       -26.5313
 123   2.0000      -0.963415       -26.2159
 124   2.0000      -0.962431       -26.1891
 125   2.0000      -0.945432       -25.7265
 126   2.0000      -0.939450       -25.5637
 127   2.0000      -0.930017       -25.3071
 128   2.0000      -0.926552       -25.2128
 129   2.0000      -0.915224       -24.9045
 130   2.0000      -0.914239       -24.8777
 131   2.0000      -0.906599       -24.6698
 132   2.0000      -0.901742       -24.5376
 133   2.0000      -0.894927       -24.3522
 134   2.0000      -0.889487       -24.2042
 135   2.0000      -0.886230       -24.1155
 136   2.0000      -0.882876       -24.0243
 137   2.0000      -0.879295       -23.9268
 138   2.0000      -0.872291       -23.7362
 139   2.0000      -0.862280       -23.4638
 140   2.0000      -0.855973       -23.2922
 141   2.0000      -0.851135       -23.1606
 142   2.0000      -0.841328       -22.8937
 143   2.0000      -0.835580       -22.7373
 144   2.0000      -0.834453       -22.7066
 145   2.0000      -0.828134       -22.5347
 146   2.0000      -0.821425       -22.3521
 147   2.0000      -0.819694       -22.3050
 148   2.0000      -0.809841       -22.0369
 149   2.0000      -0.799635       -21.7592
 150   2.0000      -0.794869       -21.6295
 151   2.0000      -0.781891       -21.2763
 152   2.0000      -0.768310       -20.9068
 153   2.0000      -0.761280       -20.7155
 154   2.0000      -0.757339       -20.6082
 155   2.0000      -0.748141       -20.3580
 156   2.0000      -0.738378       -20.0923
 157   2.0000      -0.731883       -19.9156
 158   2.0000      -0.730330       -19.8733
 159   2.0000      -0.720795       -19.6138
 160   2.0000      -0.713127       -19.4052
 161   2.0000      -0.709849       -19.3160
 162   2.0000      -0.707309       -19.2468
 163   2.0000      -0.699761       -19.0415
 164   2.0000      -0.697055       -18.9678
 165   2.0000      -0.691027       -18.8038
 166   2.0000      -0.681226       -18.5371
 167   2.0000      -0.677056       -18.4236
 168   2.0000      -0.672410       -18.2972
 169   2.0000      -0.668634       -18.1945
 170   2.0000      -0.666689       -18.1415
 171   2.0000      -0.663176       -18.0459
 172   2.0000      -0.658296       -17.9132
 173   2.0000      -0.654373       -17.8064
 174   2.0000      -0.653806       -17.7910
 175   2.0000      -0.642451       -17.4820
 176   2.0000      -0.637854       -17.3569
 177   2.0000      -0.631492       -17.1838
 178   2.0000      -0.625520       -17.0213
 179   2.0000      -0.624074       -16.9819
 180   2.0000      -0.622017       -16.9260
 181   2.0000      -0.619087       -16.8462
 182   2.0000      -0.618123       -16.8200
 183   2.0000      -0.611228       -16.6324
 184   2.0000      -0.607923       -16.5424
 185   2.0000      -0.602181       -16.3862
 186   2.0000      -0.591572       -16.0975
 187   2.0000      -0.589052       -16.0289
 188   2.0000      -0.585934       -15.9441
 189   2.0000      -0.581440       -15.8218
 190   2.0000      -0.574509       -15.6332
 191   2.0000      -0.571425       -15.5493
 192   2.0000      -0.568811       -15.4781
 193   2.0000      -0.567410       -15.4400
 194   2.0000      -0.564313       -15.3557
 195   2.0000      -0.559845       -15.2341
 196   2.0000      -0.558933       -15.2093
 197   2.0000      -0.557172       -15.1614
 198   2.0000      -0.555957       -15.1284
 199   2.0000      -0.551381       -15.0038
 200   2.0000      -0.550214       -14.9721
 201   2.0000      -0.548805       -14.9337
 202   2.0000      -0.548032       -14.9127
 203   2.0000      -0.544405       -14.8140
 204   2.0000      -0.543329       -14.7847
 205   2.0000      -0.539401       -14.6778
 206   2.0000      -0.537541       -14.6272
 207   2.0000      -0.534643       -14.5484
 208   2.0000      -0.533891       -14.5279
 209   2.0000      -0.525592       -14.3021
 210   2.0000      -0.524388       -14.2693
 211   2.0000      -0.524000       -14.2588
 212   2.0000      -0.521316       -14.1857
 213   2.0000      -0.520050       -14.1513
 214   2.0000      -0.519148       -14.1267
 215   2.0000      -0.518651       -14.1132
 216   2.0000      -0.515320       -14.0226
 217   2.0000      -0.514001       -13.9867
 218   2.0000      -0.512208       -13.9379
 219   2.0000      -0.511483       -13.9182
 220   2.0000      -0.509023       -13.8512
 221   2.0000      -0.507318       -13.8048
 222   2.0000      -0.505272       -13.7491
 223   2.0000      -0.502562       -13.6754
 224   2.0000      -0.501234       -13.6393
 225   2.0000      -0.494460       -13.4549
 226   2.0000      -0.493248       -13.4220
 227   2.0000      -0.487765       -13.2728
 228   2.0000      -0.486305       -13.2330
 229   2.0000      -0.485406       -13.2086
 230   2.0000      -0.483847       -13.1661
 231   2.0000      -0.478153       -13.0112
 232   2.0000      -0.473523       -12.8852
 233   2.0000      -0.472688       -12.8625
 234   2.0000      -0.470503       -12.8030
 235   2.0000      -0.469211       -12.7679
 236   2.0000      -0.467763       -12.7285
 237   2.0000      -0.467712       -12.7271
 238   2.0000      -0.462149       -12.5757
 239   2.0000      -0.457518       -12.4497
 240   2.0000      -0.455947       -12.4069
 241   2.0000      -0.454913       -12.3788
 242   2.0000      -0.452455       -12.3119
 243   2.0000      -0.449418       -12.2293
 244   2.0000      -0.448274       -12.1981
 245   2.0000      -0.446165       -12.1408
 246   2.0000      -0.445574       -12.1247
 247   2.0000      -0.443511       -12.0686
 248   2.0000      -0.442601       -12.0438
 249   2.0000      -0.440714       -11.9924
 250   2.0000      -0.439021       -11.9464
 251   2.0000      -0.435501       -11.8506
 252   2.0000      -0.433534       -11.7970
 253   2.0000      -0.431040       -11.7292
 254   2.0000      -0.430230       -11.7071
 255   2.0000      -0.429756       -11.6943
 256   2.0000      -0.427740       -11.6394
 257   2.0000      -0.427441       -11.6313
 258   2.0000      -0.426900       -11.6165
 259   2.0000      -0.426413       -11.6033
 260   2.0000      -0.425067       -11.5667
 261   2.0000      -0.424352       -11.5472
 262   2.0000      -0.422712       -11.5026
 263   2.0000      -0.417548       -11.3621
 264   2.0000      -0.416181       -11.3249
 265   2.0000      -0.414379       -11.2758
 266   2.0000      -0.411713       -11.2033
 267   2.0000      -0.411082       -11.1861
 268   2.0000      -0.406755       -11.0684
 269   2.0000      -0.405136       -11.0243
 270   2.0000      -0.400079       -10.8867
 271   2.0000      -0.392301       -10.6751
 272   2.0000      -0.385415       -10.4877
 273   2.0000      -0.380956       -10.3663
 274   2.0000      -0.378039       -10.2870
 275   2.0000      -0.373812       -10.1719
 276   2.0000      -0.371603       -10.1118
 277   2.0000      -0.366188        -9.9645
 278   2.0000      -0.364480        -9.9180
 279   2.0000      -0.359194        -9.7742
 280   2.0000      -0.357800        -9.7362
 281   2.0000      -0.343103        -9.3363
 282   2.0000      -0.339237        -9.2311
 283   2.0000      -0.335911        -9.1406
 284   2.0000      -0.331159        -9.0113
 285   2.0000      -0.321490        -8.7482
 286   2.0000      -0.321414        -8.7461
 287   2.0000      -0.313275        -8.5247
 288   2.0000      -0.308116        -8.3843
 289   2.0000      -0.303195        -8.2503
 290   2.0000      -0.299448        -8.1484
 291   2.0000      -0.297690        -8.1006
 292   2.0000      -0.285870        -7.7789
 293   2.0000      -0.285031        -7.7561
 294   2.0000      -0.276817        -7.5326
 295   2.0000      -0.246606        -6.7105
 296   2.0000      -0.229910        -6.2562
 297   0.0000      -0.109603        -2.9824
 298   0.0000      -0.090347        -2.4585
 299   0.0000      -0.063932        -1.7397
 300   0.0000      -0.055011        -1.4969
 301   0.0000      -0.049182        -1.3383

MULLIKEN ATOMIC CHARGES
-----------------------
   0 C :   -0.096122
   1 C :    0.300890
   2 F :   -0.191133
   3 C :   -0.028323
   4 C :   -0.007872
   5 C :    0.097322
   6 C :    0.103280
   7 C :   -0.085150
   8 C :    0.041377
   9 C :    0.008769
  10 C :   -0.079949
  11 C :    0.142527
  12 O :   -0.148996
  13 C :   -0.128815
  14 C :    0.257087
  15 C :   -0.318160
  16 C :   -0.213560
  17 N :    0.166919
  18 C :   -0.172956
  19 N :    0.149401
  20 C :    0.026949
  21 C :   -0.086462
  22 C :   -0.002782
  23 C :    0.055853
  24 C :    0.072363
  25 C :   -0.111571
  26 S :    0.145808
  27 C :   -0.102281
  28 C :    0.045316
  29 C :   -0.000859
  30 C :   -0.064808
  31 S :    0.141735
  32 C :    0.121630
  33 C :    0.002512
  34 C :   -0.077260
  35 C :    0.096820
  36 C :   -0.129244
  37 C :    0.028459
  38 N :   -0.086293
  39 C :    0.030029
  40 S :    0.093836
  41 C :    0.061921
  42 C :   -0.126766
  43 C :    0.017723
  44 N :   -0.066966
  45 C :    0.027125
  46 S :    0.109902
  47 C :   -0.145425
  48 C :   -0.002697
  49 C :    0.063622
  50 C :    0.068562
  51 C :   -0.122369
  52 S :    0.146184
  53 C :   -0.119892
  54 C :    0.066205
  55 C :    0.019011
  56 C :   -0.062941
  57 S :    0.123624
  58 C :    0.095261
  59 C :   -0.033765
  60 C :    0.008096
  61 C :    0.014453
  62 C :   -0.119407
  63 C :    0.137725
  64 O :   -0.165220
  65 C :    0.011568
  66 C :   -0.088050
  67 C :    0.104871
  68 C :    0.103636
  69 C :   -0.100280
  70 C :    0.299954
  71 C :   -0.031509
  72 C :   -0.012509
  73 F :   -0.194609
  74 C :   -0.091234
  75 C :    0.032687
  76 C :    0.320813
  77 C :   -0.364293
  78 C :   -0.166478
  79 N :    0.132590
  80 C :   -0.183462
  81 N :    0.140561
  82 H :   -0.003482
  83 H :    0.003074
  84 H :   -0.009820
  85 H :   -0.005240
  86 H :   -0.013194
  87 H :    0.026689
  88 H :    0.001029
  89 H :    0.042065
  90 H :   -0.006310
  91 H :    0.029259
  92 H :   -0.014285
  93 H :   -0.053143
  94 H :    0.052696
  95 H :    0.047749
  96 H :    0.004530
  97 H :    0.041189
  98 H :   -0.024997
  99 H :    0.029035
 100 H :   -0.008136
 101 H :   -0.008269
 102 H :    0.005359
 103 H :   -0.017642
 104 H :   -0.003488
 105 H :    0.000054
 106 H :   -0.012482
 107 H :   -0.006749
Sum of atomic charges:   -0.0000000

LOEWDIN ATOMIC CHARGES
----------------------
   0 C :   -0.042377
   1 C :    0.093470
   2 F :   -0.065089
   3 C :   -0.037482
   4 C :    0.004694
   5 C :   -0.019664
   6 C :    0.003703
   7 C :    0.008911
   8 C :   -0.015476
   9 C :   -0.059806
  10 C :    0.034234
  11 C :    0.083358
  12 O :   -0.150018
  13 C :   -0.103499
  14 C :    0.056992
  15 C :   -0.144594
  16 C :   -0.038540
  17 N :   -0.053588
  18 C :   -0.019393
  19 N :   -0.053328
  20 C :    0.045295
  21 C :   -0.182615
  22 C :    0.031312
  23 C :   -0.022525
  24 C :   -0.053736
  25 C :   -0.124144
  26 S :    0.484752
  27 C :   -0.183865
  28 C :   -0.041629
  29 C :   -0.062818
  30 C :   -0.160963
  31 S :    0.435107
  32 C :   -0.019421
  33 C :    0.006658
  34 C :   -0.040284
  35 C :   -0.026665
  36 C :   -0.164968
  37 C :   -0.023295
  38 N :   -0.088543
  39 C :   -0.094642
  40 S :    0.401368
  41 C :   -0.066681
  42 C :   -0.168025
  43 C :   -0.027675
  44 N :   -0.082779
  45 C :   -0.101531
  46 S :    0.396172
  47 C :   -0.159869
  48 C :   -0.005317
  49 C :    0.010204
  50 C :   -0.044739
  51 C :   -0.143604
  52 S :    0.474250
  53 C :   -0.206815
  54 C :   -0.031040
  55 C :   -0.055343
  56 C :   -0.158027
  57 S :    0.419641
  58 C :   -0.062077
  59 C :    0.048297
  60 C :   -0.054413
  61 C :    0.069000
  62 C :   -0.119454
  63 C :    0.079636
  64 O :   -0.163894
  65 C :   -0.056297
  66 C :    0.028263
  67 C :   -0.020001
  68 C :    0.001813
  69 C :   -0.042770
  70 C :    0.090440
  71 C :   -0.040693
  72 C :    0.002273
  73 F :   -0.068806
  74 C :    0.007506
  75 C :   -0.015243
  76 C :    0.075100
  77 C :   -0.155527
  78 C :   -0.008283
  79 N :   -0.063880
  80 C :   -0.018930
  81 N :   -0.065466
  82 H :    0.042884
  83 H :    0.041756
  84 H :    0.035447
  85 H :    0.038888
  86 H :    0.039254
  87 H :    0.049415
  88 H :    0.045798
  89 H :    0.039512
  90 H :    0.029283
  91 H :    0.025647
  92 H :    0.026754
  93 H :    0.015972
  94 H :    0.025154
  95 H :    0.023239
  96 H :    0.038629
  97 H :    0.038599
  98 H :    0.029628
  99 H :    0.025998
 100 H :    0.034448
 101 H :    0.029194
 102 H :    0.039580
 103 H :    0.037365
 104 H :    0.042504
 105 H :    0.040215
 106 H :    0.034217
 107 H :    0.038314

  Mayer bond orders larger than 0.100000
B(  0-C ,  1-C ) :   1.4399 B(  0-C ,  6-C ) :   1.2031 B(  0-C , 82-H ) :   1.0066
B(  1-C ,  2-F ) :   1.0874 B(  1-C ,  3-C ) :   1.2564 B(  3-C ,  4-C ) :   1.4593
B(  3-C , 83-H ) :   0.9929 B(  4-C ,  5-C ) :   1.2361 B(  4-C , 84-H ) :   0.9970
B(  5-C ,  6-C ) :   1.2591 B(  5-C , 10-C ) :   1.1892 B(  6-C ,  7-C ) :   1.1997
B(  7-C ,  8-C ) :   1.4649 B(  7-C , 85-H ) :   0.9954 B(  8-C ,  9-C ) :   1.2174
B(  8-C , 14-C ) :   1.0000 B(  9-C , 10-C ) :   1.4731 B(  9-C , 11-C ) :   0.9225
B( 10-C , 86-H ) :   1.0154 B( 11-C , 12-O ) :   2.2608 B( 11-C , 13-C ) :   0.9452
B( 13-C , 14-C ) :   1.0478 B( 13-C , 20-C ) :   1.5929 B( 14-C , 15-C ) :   1.6405
B( 15-C , 16-C ) :   1.1526 B( 15-C , 18-C ) :   1.1405 B( 16-C , 17-N ) :   3.0208
B( 18-C , 19-N ) :   2.9838 B( 20-C , 21-C ) :   1.1598 B( 20-C , 87-H ) :   0.9458
B( 21-C , 22-C ) :   1.4530 B( 21-C , 26-S ) :   1.0441 B( 22-C , 23-C ) :   1.2554
B( 22-C , 88-H ) :   0.9772 B( 23-C , 24-C ) :   1.0489 B( 23-C , 32-C ) :   1.3339
B( 24-C , 25-C ) :   1.5895 B( 24-C , 27-C ) :   1.1890 B( 25-C , 26-S ) :   1.1610
B( 25-C , 89-H ) :   0.9415 B( 27-C , 28-C ) :   1.4285 B( 27-C , 31-S ) :   1.0926
B( 28-C , 29-C ) :   1.2072 B( 28-C , 32-C ) :   1.0915 B( 29-C , 30-C ) :   1.6001
B( 29-C , 90-H ) :   0.9970 B( 30-C , 31-S ) :   1.1478 B( 30-C , 91-H ) :   0.9632
B( 32-C , 33-C ) :   1.1694 B( 33-C , 34-C ) :   1.6121 B( 33-C , 92-H ) :   0.9383
B( 34-C , 35-C ) :   1.1399 B( 34-C , 93-H ) :   0.9710 B( 35-C , 36-C ) :   1.3356
B( 35-C , 43-C ) :   1.2748 B( 36-C , 37-C ) :   1.3065 B( 36-C , 40-S ) :   1.0766
B( 37-C , 38-N ) :   1.3034 B( 37-C , 41-C ) :   1.3497 B( 38-N , 39-C ) :   1.7525
B( 38-N , 40-S ) :   0.1067 B( 39-C , 40-S ) :   1.1251 B( 39-C , 94-H ) :   0.9635
B( 41-C , 42-C ) :   1.3442 B( 41-C , 47-C ) :   1.0449 B( 42-C , 43-C ) :   1.3031
B( 42-C , 46-S ) :   1.0769 B( 43-C , 44-N ) :   1.3280 B( 44-N , 45-C ) :   1.7441
B( 44-N , 46-S ) :   0.1037 B( 44-N , 92-H ) :   0.1018 B( 45-C , 46-S ) :   1.1127
B( 45-C , 95-H ) :   0.9641 B( 47-C , 48-C ) :   1.5362 B( 47-C , 52-S ) :   1.0732
B( 48-C , 49-C ) :   1.2670 B( 48-C , 96-H ) :   0.9520 B( 49-C , 50-C ) :   1.0680
B( 49-C , 58-C ) :   1.3153 B( 50-C , 51-C ) :   1.5705 B( 50-C , 53-C ) :   1.1815
B( 51-C , 52-S ) :   1.1577 B( 51-C , 97-H ) :   0.9417 B( 53-C , 54-C ) :   1.4433
B( 53-C , 57-S ) :   1.0796 B( 54-C , 55-C ) :   1.2248 B( 54-C , 58-C ) :   1.0721
B( 55-C , 56-C ) :   1.5856 B( 55-C , 98-H ) :   0.9823 B( 56-C , 57-S ) :   1.1481
B( 56-C , 99-H ) :   0.9645 B( 58-C , 59-C ) :   1.1925 B( 59-C , 60-C ) :   1.5120
B( 59-C ,100-H ) :   0.9726 B( 60-C , 61-C ) :   1.2214 B( 60-C ,101-H ) :   0.9732
B( 61-C , 62-C ) :   1.4870 B( 61-C ,102-H ) :   0.9464 B( 62-C , 63-C ) :   0.9667
B( 62-C , 76-C ) :   1.0730 B( 63-C , 64-O ) :   2.2280 B( 63-C , 65-C ) :   0.9233
B( 65-C , 66-C ) :   1.4800 B( 65-C , 75-C ) :   1.2203 B( 66-C , 67-C ) :   1.1814
B( 66-C ,103-H ) :   1.0150 B( 67-C , 68-C ) :   1.2624 B( 67-C , 72-C ) :   1.2362
B( 68-C , 69-C ) :   1.2024 B( 68-C , 74-C ) :   1.1994 B( 69-C , 70-C ) :   1.4398
B( 69-C ,104-H ) :   1.0068 B( 70-C , 71-C ) :   1.2591 B( 70-C , 73-F ) :   1.0842
B( 71-C , 72-C ) :   1.4569 B( 71-C ,105-H ) :   0.9919 B( 72-C ,106-H ) :   0.9967
B( 74-C , 75-C ) :   1.4638 B( 74-C ,107-H ) :   0.9909 B( 75-C , 76-C ) :   0.9883
B( 76-C , 77-C ) :   1.5964 B( 77-C , 78-C ) :   1.1918 B( 77-C , 80-C ) :   1.1312
B( 78-C , 79-N ) :   2.8950 B( 80-C , 81-N ) :   2.9742

-----------------------------------------------------------------------------
         ABSORPTION SPECTRUM VIA TRANSITION ELECTRIC DIPOLE MOMENTS
-----------------------------------------------------------------------------
State   Energy  Wavelength   fosc         T2         TX        TY        TZ
        (cm-1)    (nm)                  (au**2)     (au)      (au)      (au)
-----------------------------------------------------------------------------
   0   12988.8    769.9   1.812456247  45.93809  -2.17993  -2.65200  -5.84405
   1   15909.4    628.6   0.387181876   8.01194   0.60987  -1.30780   2.43509
   2   18942.0    527.9   0.060054806   1.04375  -0.24213   0.60892   0.78380
   3   21307.1    469.3   0.403549349   6.23517   2.30381   0.10897  -0.95695
   4   21488.0    465.4   0.096874210   1.48418  -0.87516   0.69505   0.48495
   5   22914.8    436.4   0.082631169   1.18714  -0.30905  -0.07100   1.04240
   6   23288.1    429.4   0.007802898   0.11031  -0.22747   0.07791  -0.22912
   7   23944.3    417.6   0.105573099   1.45153   0.35102  -0.05748   1.15109
   8   24535.5    407.6   0.012218083   0.16394  -0.29901  -0.13343  -0.23818
   9   24732.5    404.3   0.006703321   0.08923   0.26840  -0.09616  -0.08911
  10   26129.4    382.7   0.030474662   0.38396  -0.22747  -0.19116  -0.54376
  11   26482.6    377.6   0.179587519   2.23249   0.79009   0.10268  -1.26401
  12   26812.3    373.0   0.268851105   3.30106  -1.81469  -0.03515  -0.08192
  13   27327.1    365.9   0.045634655   0.54977   0.40576   0.03843  -0.61939
  14   27401.9    364.9   0.146910378   1.76501   1.08915   0.35824  -0.67114
  15   27896.8    358.5   0.087630262   1.03413   0.33153   0.42548  -0.86208
  16   28455.2    351.4   0.065650453   0.75954  -0.80016  -0.34367   0.03419
  17   29122.0    343.4   0.053644831   0.60643  -0.03806   0.19187   0.75377
  18   29731.3    336.3   0.005368307   0.05944   0.10867  -0.06266   0.20906
  19   29915.2    334.3   0.076635694   0.84336   0.63576   0.31215   0.58458
  20   29980.2    333.6   0.111476637   1.22412   1.01197   0.31898   0.31353
  21   30683.0    325.9   0.089097468   0.95597  -0.19415  -0.32969  -0.89976
  22   30837.1    324.3   0.212293923   2.26642  -0.81060  -0.82338   0.96508
  23   31232.9    320.2   0.008142036   0.08582  -0.12540  -0.01123  -0.26452
  24   31681.8    315.6   0.030108274   0.31286   0.52301   0.01600  -0.19765
  25   32070.2    311.8   0.023488703   0.24112   0.22124   0.28255  -0.33517
  26   32452.5    308.1   0.393162870   3.98841   0.64556   0.31859  -1.86284
  27   32522.4    307.5   0.065349547   0.66151  -0.03240   0.14103   0.80036
  28   32669.4    306.1   0.175473006   1.76826  -0.04471   0.87354   1.00159
  29   32961.3    303.4   0.072355514   0.72268   0.34242   0.12764  -0.76755
  30   33146.7    301.7   0.014925295   0.14824   0.36026  -0.07455  -0.11354
  31   33746.2    296.3   0.867880168   8.46662  -0.04667  -1.43521  -2.53074
  32   33880.5    295.2   0.570263823   5.54117  -1.17194  -0.52841   1.97193
  33   34244.8    292.0   0.066510061   0.63939   0.58344  -0.34300  -0.42585
  34   34313.9    291.4   0.039216114   0.37624  -0.26641  -0.00942  -0.55243
  35   34401.7    290.7   0.031900943   0.30528   0.08393   0.28461   0.46608
  36   34535.6    289.6   0.196868197   1.87665  -0.41681  -0.82296  -1.01275
  37   34652.9    288.6   0.054438788   0.51718  -0.61040   0.01526   0.37994
  38   35037.4    285.4   0.231953926   2.17944   0.33252  -0.22864   1.42007
  39   35290.4    283.4   0.159813911   1.49085   1.04625   0.28464  -0.56141
  40   35375.4    282.7   0.010537017   0.09806   0.15367  -0.20611   0.17879
  41   35731.0    279.9   0.017986454   0.16572   0.22026   0.20426   0.27474
  42   35846.8    279.0   0.026862996   0.24671  -0.20796  -0.25896  -0.36932
  43   36085.6    277.1   0.057173055   0.52159   0.27387   0.65105   0.15076
  44   36327.9    275.3   0.020954465   0.18989   0.37279  -0.22120  -0.04460
  45   36424.4    274.5   0.049240748   0.44505  -0.35247   0.51177   0.24271
  46   36734.4    272.2   0.029056162   0.26040  -0.06290   0.33982  -0.37545
  47   37121.2    269.4   0.136396682   1.20964  -0.73353  -0.52686   0.62769
  48   37236.6    268.6   0.024803255   0.21929   0.34558   0.18973  -0.25272
  49   37394.3    267.4   0.039134459   0.34453   0.28259   0.14622  -0.49325
  50   37910.0    263.8   0.011218731   0.09742   0.28821  -0.07421  -0.09410
  51   37928.6    263.7   0.133998573   1.16308  -1.05592  -0.21270   0.05355
  52   38300.4    261.1   0.155400617   1.33575   0.34958  -0.50991  -0.97649
  53   38704.2    258.4   0.247476485   2.10500  -1.05553  -0.61341   0.78395
  54   38816.9    257.6   0.074324679   0.63036  -0.26747  -0.33867  -0.66643
  55   38949.9    256.7   0.172929906   1.46163  -0.40448  -0.61390  -0.95977
  56   39130.2    255.6   0.014693651   0.12362  -0.31138  -0.13248   0.09546
  57   39615.5    252.4   0.018712020   0.15550  -0.26167  -0.21743  -0.19938
  58   39731.8    251.7   0.074743685   0.61932  -0.01042  -0.62287  -0.48088
  59   39787.7    251.3   0.092981279   0.76935   0.67634   0.28402   0.48087
  60   39961.0    250.2   0.138545832   1.14139  -1.04357  -0.22274  -0.05230
  61   40054.3    249.7   0.056460997   0.46406   0.41403  -0.10832  -0.53001
  62   40114.7    249.3   0.035413755   0.29063  -0.44877  -0.22244   0.19939

FINAL SINGLE POINT ENERGY     -5593.605215352613

DIPOLE MOMENT
-------------
                                X             Y             Z
Electronic contribution:      3.07901       5.96189      13.68812
Nuclear contribution   :     -1.54741      -6.27218      -9.67460
                        -----------------------------------------
Total Dipole Moment    :      1.53160      -0.31029       4.01353
                        -----------------------------------------
Magnitude (a.u.)       :      4.30702
Magnitude (Debye)      :     10.94759

Rotational constants in cm-1:     0.001082     0.000172     0.000161
Rotational constants in MHz :    32.441681     5.156499     4.829331

                             ****ORCA TERMINATED NORMALLY****
TOTAL RUN TIME: 0 days 0 hours 13 minutes 2 seconds 230 msec
