                         Program Version 4.2.0 -  RELEASE  -
|  1> # ORCA input file
|  2> # SCF done       -189.280354465614          0.000463608252
|  3> ! CAM-B3LYP def2-SVP def2/J RIJCOSX Grid4 TightSCF
|  4> %maxcore 5000
|  5> %tddft
|  6>     Mode sTDDFT
|  7>     Ethresh 5.0
|  8>     maxcore 5000
|  9> end
| 10>
| 11> %pal
| 12>   nprocs 6
| 13>   end
| 14> * xyz 0 1
| 15>    C       -2.93317         5.55074        -2.29045
| 16>    C       -1.75891         5.95233        -2.86584
| 17>    C       -1.60733         7.16742        -3.56631
| 18>    N       -1.44168         8.13451        -4.16177
| 19>    C       -0.53976         5.25098        -2.75383
| 20>    N        0.49325         4.76078        -2.65250
| 21>    C       -4.13721         6.36238        -2.16115
| 22>    C       -4.95008         5.80958        -1.12818
| 23>    C       -6.12989         6.38711        -0.75655
| 24>    C       -6.56268         7.55853        -1.41706
| 25>    C       -5.76294         8.10767        -2.46111
| 26>    C       -4.54337         7.49142        -2.82222
| 27>    C       -6.20963         9.27366        -3.11624
| 28>    C       -7.38672         9.87121        -2.75702
| 29>    C       -8.17275         9.33029        -1.72829
| 30>    C       -7.76936         8.19909        -1.07255
| 31>    C       -4.31706         4.58457        -0.60565
| 32>    O       -4.69413         3.88037         0.29935
| 33>    C       -3.13291         4.35341        -1.48883
| 34>    C       -2.53943         3.14304        -1.52385
| 35>    C       -1.65095         2.64164        -2.53759
| 36>    C       -1.73761         2.81113        -3.89496
| 37>    O       -0.77269         2.13076        -4.52333
| 38>    C       -0.02076         1.53968        -3.59203
| 39>    C       -0.50230         1.79754        -2.33665
| 40>    C       -0.02776         1.38150        -1.00635
| 41>    O       -0.78375         1.36403        -0.04872
| 42>    C        1.37075         1.01273        -0.83337
| 43>    C        1.90188         0.62662         0.38099
| 44>    C        3.26280         0.34302         0.33186
| 45>    C        3.80089         0.50913        -0.92945
| 46>    S        2.59679         1.04238        -2.05972
| 47>    C        5.14048         0.26296        -1.33661
| 48>    C        5.66249         0.29819        -2.61378
| 49>    C        7.01484        -0.05199        -2.63493
| 50>    C        7.52378        -0.34186        -1.36026
| 51>    S        6.34450        -0.19418        -0.13873
| 52>    C        8.89371        -0.70638        -1.48179
| 53>    C        9.23941        -0.65531        -2.83989
| 54>    C        8.07975        -0.23652        -3.61005
| 55>    C        8.00227        -0.06411        -4.96129
| 56>    C        6.81056         0.33387        -5.60211
| 57>    N        5.84152         0.65023        -6.12735
| 58>    C        9.11092        -0.28119        -5.80530
| 59>    N       10.01189        -0.45987        -6.49224
| 60>    C       10.56581        -1.02906        -3.06232
| 61>    C       11.22097        -1.35227        -1.88932
| 62>    S       10.19335        -1.17798        -0.48355
| 63>    C       12.58465        -1.79961        -1.81742
| 64>    C       13.46005        -1.83957        -2.87691
| 65>    O       14.64695        -2.33837        -2.50560
| 66>    C       14.57060        -2.64938        -1.21694
| 67>    C       13.32742        -2.35144        -0.70995
| 68>    C       12.88859        -2.46874         0.67759
| 69>    O       11.99581        -1.77320         1.13932
| 70>    C       13.55622        -3.45092         1.53416
| 71>    C       13.47579        -3.43616         2.91492
| 72>    C       14.12623        -4.51029         3.50012
| 73>    C       14.69519        -5.38260         2.57617
| 74>    S       14.42094        -4.82627         0.95201
| 75>    C       15.38068        -6.55856         2.95875
| 76>    C       15.97129        -7.51716         2.19797
| 77>    C       16.07852        -7.58726         0.74866
| 78>    O       15.66560        -6.77065        -0.05107
| 79>    N       16.73838        -8.73991         0.36151
| 80>    C       17.15884        -9.56163         1.36310
| 81>    C       17.82653       -10.75147         1.24607
| 82>    C       18.21903       -11.36827         0.04393
| 83>    N       18.56620       -11.91992        -0.90072
| 84>    C       18.17843       -11.46712         2.41131
| 85>    N       18.46526       -12.05354         3.35366
| 86>    S       16.74009        -8.91469         2.93328
| 87>    C       16.93868        -9.01340        -1.04209
| 88>    H       -6.72612         5.95516         0.03343
| 89>    H       -3.96205         7.92258        -3.62239
| 90>    H       -5.59951         9.68830        -3.90522
| 91>    H       -7.71901        10.76508        -3.26331
| 92>    H       -9.09929         9.81452        -1.45834
| 93>    H       -8.36994         7.77796        -0.27961
| 94>    H       -2.79202         2.45009        -0.72866
| 95>    H       -2.45587         3.33032        -4.49942
| 96>    H        0.79631         0.94015        -3.94076
| 97>    H        1.29307         0.55813         1.26452
| 98>    H        3.84706         0.02155         1.17585
| 99>    H        5.07251         0.55887        -3.47391
|100>    H       11.03162        -1.07696        -4.02861
|101>    H       13.35326        -1.53680        -3.89873
|102>    H       15.45496        -3.03583        -0.75065
|103>    H       12.96425        -2.65761         3.45171
|104>    H       14.18687        -4.67436         4.56128
|105>    H       15.42552        -6.71018         4.03166
|106>    H       16.48766        -8.18680        -1.59153
|107>    H       16.45577        -9.94872        -1.32567
|108>    H       18.00153        -9.07301        -1.27712
|109> *
|110>
|111>                          ****END OF INPUT****

CARTESIAN COORDINATES (ANGSTROEM)
---------------------------------
  C     -2.933170    5.550740   -2.290450
  C     -1.758910    5.952330   -2.865840
  C     -1.607330    7.167420   -3.566310
  N     -1.441680    8.134510   -4.161770
  C     -0.539760    5.250980   -2.753830
  N      0.493250    4.760780   -2.652500
  C     -4.137210    6.362380   -2.161150
  C     -4.950080    5.809580   -1.128180
  C     -6.129890    6.387110   -0.756550
  C     -6.562680    7.558530   -1.417060
  C     -5.762940    8.107670   -2.461110
  C     -4.543370    7.491420   -2.822220
  C     -6.209630    9.273660   -3.116240
  C     -7.386720    9.871210   -2.757020
  C     -8.172750    9.330290   -1.728290
  C     -7.769360    8.199090   -1.072550
  C     -4.317060    4.584570   -0.605650
  O     -4.694130    3.880370    0.299350
  C     -3.132910    4.353410   -1.488830
  C     -2.539430    3.143040   -1.523850
  C     -1.650950    2.641640   -2.537590
  C     -1.737610    2.811130   -3.894960
  O     -0.772690    2.130760   -4.523330
  C     -0.020760    1.539680   -3.592030
  C     -0.502300    1.797540   -2.336650
  C     -0.027760    1.381500   -1.006350
  O     -0.783750    1.364030   -0.048720
  C      1.370750    1.012730   -0.833370
  C      1.901880    0.626620    0.380990
  C      3.262800    0.343020    0.331860
  C      3.800890    0.509130   -0.929450
  S      2.596790    1.042380   -2.059720
  C      5.140480    0.262960   -1.336610
  C      5.662490    0.298190   -2.613780
  C      7.014840   -0.051990   -2.634930
  C      7.523780   -0.341860   -1.360260
  S      6.344500   -0.194180   -0.138730
  C      8.893710   -0.706380   -1.481790
  C      9.239410   -0.655310   -2.839890
  C      8.079750   -0.236520   -3.610050
  C      8.002270   -0.064110   -4.961290
  C      6.810560    0.333870   -5.602110
  N      5.841520    0.650230   -6.127350
  C      9.110920   -0.281190   -5.805300
  N     10.011890   -0.459870   -6.492240
  C     10.565810   -1.029060   -3.062320
  C     11.220970   -1.352270   -1.889320
  S     10.193350   -1.177980   -0.483550
  C     12.584650   -1.799610   -1.817420
  C     13.460050   -1.839570   -2.876910
  O     14.646950   -2.338370   -2.505600
  C     14.570600   -2.649380   -1.216940
  C     13.327420   -2.351440   -0.709950
  C     12.888590   -2.468740    0.677590
  O     11.995810   -1.773200    1.139320
  C     13.556220   -3.450920    1.534160
  C     13.475790   -3.436160    2.914920
  C     14.126230   -4.510290    3.500120
  C     14.695190   -5.382600    2.576170
  S     14.420940   -4.826270    0.952010
  C     15.380680   -6.558560    2.958750
  C     15.971290   -7.517160    2.197970
  C     16.078520   -7.587260    0.748660
  O     15.665600   -6.770650   -0.051070
  N     16.738380   -8.739910    0.361510
  C     17.158840   -9.561630    1.363100
  C     17.826530  -10.751470    1.246070
  C     18.219030  -11.368270    0.043930
  N     18.566200  -11.919920   -0.900720
  C     18.178430  -11.467120    2.411310
  N     18.465260  -12.053540    3.353660
  S     16.740090   -8.914690    2.933280
  C     16.938680   -9.013400   -1.042090
  H     -6.726120    5.955160    0.033430
  H     -3.962050    7.922580   -3.622390
  H     -5.599510    9.688300   -3.905220
  H     -7.719010   10.765080   -3.263310
  H     -9.099290    9.814520   -1.458340
  H     -8.369940    7.777960   -0.279610
  H     -2.792020    2.450090   -0.728660
  H     -2.455870    3.330320   -4.499420
  H      0.796310    0.940150   -3.940760
  H      1.293070    0.558130    1.264520
  H      3.847060    0.021550    1.175850
  H      5.072510    0.558870   -3.473910
  H     11.031620   -1.076960   -4.028610
  H     13.353260   -1.536800   -3.898730
  H     15.454960   -3.035830   -0.750650
  H     12.964250   -2.657610    3.451710
  H     14.186870   -4.674360    4.561280
  H     15.425520   -6.710180    4.031660
  H     16.487660   -8.186800   -1.591530
  H     16.455770   -9.948720   -1.325670
  H     18.001530   -9.073010   -1.277120

 Total Charge           Charge          ....    0
 Multiplicity           Mult            ....    1
 Number of Electrons    NEL             ....  528
 Basis Dimension        Dim             .... 1147

ORBITAL ENERGIES
----------------

  NO   OCC          E(Eh)            E(eV)
   0   2.0000     -88.998401     -2421.7696
   1   2.0000     -88.988899     -2421.5110
   2   2.0000     -88.986528     -2421.4465
   3   2.0000     -88.979034     -2421.2426
   4   2.0000     -88.969253     -2420.9765
   5   2.0000     -19.320157      -525.7282
   6   2.0000     -19.308830      -525.4200
   7   2.0000     -19.245332      -523.6921
   8   2.0000     -19.227658      -523.2112
   9   2.0000     -19.209893      -522.7278
  10   2.0000     -19.202258      -522.5200
  11   2.0000     -14.514859      -394.9694
  12   2.0000     -14.426461      -392.5640
  13   2.0000     -14.425326      -392.5331
  14   2.0000     -14.417589      -392.3225
  15   2.0000     -14.417314      -392.3151
  16   2.0000     -14.413819      -392.2199
  17   2.0000     -14.411364      -392.1531
  18   2.0000     -10.431402      -283.8529
  19   2.0000     -10.412431      -283.3366
  20   2.0000     -10.389382      -282.7095
  21   2.0000     -10.367341      -282.1097
  22   2.0000     -10.360980      -281.9366
  23   2.0000     -10.358206      -281.8611
  24   2.0000     -10.356821      -281.8234
  25   2.0000     -10.350670      -281.6561
  26   2.0000     -10.350281      -281.6455
  27   2.0000     -10.347472      -281.5690
  28   2.0000     -10.347034      -281.5571
  29   2.0000     -10.342388      -281.4307
  30   2.0000     -10.341439      -281.4049
  31   2.0000     -10.341060      -281.3945
  32   2.0000     -10.339822      -281.3609
  33   2.0000     -10.339269      -281.3458
  34   2.0000     -10.339083      -281.3408
  35   2.0000     -10.332994      -281.1751
  36   2.0000     -10.328344      -281.0485
  37   2.0000     -10.327394      -281.0227
  38   2.0000     -10.325999      -280.9847
  39   2.0000     -10.323593      -280.9193
  40   2.0000     -10.323018      -280.9036
  41   2.0000     -10.322740      -280.8960
  42   2.0000     -10.320601      -280.8378
  43   2.0000     -10.319940      -280.8199
  44   2.0000     -10.319456      -280.8067
  45   2.0000     -10.316298      -280.7207
  46   2.0000     -10.315795      -280.7070
  47   2.0000     -10.313877      -280.6549
  48   2.0000     -10.310381      -280.5597
  49   2.0000     -10.309333      -280.5312
  50   2.0000     -10.307721      -280.4874
  51   2.0000     -10.302184      -280.3367
  52   2.0000     -10.301827      -280.3270
  53   2.0000     -10.301141      -280.3083
  54   2.0000     -10.298868      -280.2464
  55   2.0000     -10.298546      -280.2377
  56   2.0000     -10.297576      -280.2113
  57   2.0000     -10.296468      -280.1811
  58   2.0000     -10.296101      -280.1712
  59   2.0000     -10.295527      -280.1555
  60   2.0000     -10.294654      -280.1318
  61   2.0000     -10.293744      -280.1070
  62   2.0000     -10.293326      -280.0956
  63   2.0000     -10.293134      -280.0904
  64   2.0000     -10.291897      -280.0568
  65   2.0000     -10.286845      -279.9193
  66   2.0000     -10.285254      -279.8760
  67   2.0000     -10.285172      -279.8738
  68   2.0000     -10.284738      -279.8620
  69   2.0000     -10.284553      -279.8569
  70   2.0000     -10.284416      -279.8532
  71   2.0000     -10.284127      -279.8453
  72   2.0000     -10.283015      -279.8151
  73   2.0000      -8.094601      -220.2653
  74   2.0000      -8.082473      -219.9353
  75   2.0000      -8.081099      -219.8979
  76   2.0000      -8.072028      -219.6511
  77   2.0000      -8.064204      -219.4381
  78   2.0000      -6.064523      -165.0241
  79   2.0000      -6.060634      -164.9182
  80   2.0000      -6.054747      -164.7580
  81   2.0000      -6.051680      -164.6746
  82   2.0000      -6.050349      -164.6384
  83   2.0000      -6.047144      -164.5512
  84   2.0000      -6.046175      -164.5248
  85   2.0000      -6.045099      -164.4955
  86   2.0000      -6.043476      -164.4513
  87   2.0000      -6.041456      -164.3964
  88   2.0000      -6.036742      -164.2681
  89   2.0000      -6.034534      -164.2080
  90   2.0000      -6.033540      -164.1810
  91   2.0000      -6.029290      -164.0653
  92   2.0000      -6.026419      -163.9872
  93   2.0000      -1.242046       -33.7978
  94   2.0000      -1.230191       -33.4752
  95   2.0000      -1.190314       -32.3901
  96   2.0000      -1.146446       -31.1964
  97   2.0000      -1.125630       -30.6299
  98   2.0000      -1.120831       -30.4994
  99   2.0000      -1.116386       -30.3784
 100   2.0000      -1.038226       -28.2516
 101   2.0000      -1.017558       -27.6892
 102   2.0000      -1.015743       -27.6398
 103   2.0000      -1.015433       -27.6313
 104   2.0000      -1.014133       -27.5960
 105   2.0000      -1.003801       -27.3148
 106   2.0000      -1.000662       -27.2294
 107   2.0000      -0.997450       -27.1420
 108   2.0000      -0.995849       -27.0984
 109   2.0000      -0.991273       -26.9739
 110   2.0000      -0.983550       -26.7638
 111   2.0000      -0.980836       -26.6899
 112   2.0000      -0.969680       -26.3863
 113   2.0000      -0.954486       -25.9729
 114   2.0000      -0.942112       -25.6362
 115   2.0000      -0.933409       -25.3993
 116   2.0000      -0.933230       -25.3945
 117   2.0000      -0.918490       -24.9934
 118   2.0000      -0.909224       -24.7412
 119   2.0000      -0.901510       -24.5313
 120   2.0000      -0.892878       -24.2965
 121   2.0000      -0.880447       -23.9582
 122   2.0000      -0.879514       -23.9328
 123   2.0000      -0.874712       -23.8021
 124   2.0000      -0.865980       -23.5645
 125   2.0000      -0.858785       -23.3687
 126   2.0000      -0.851833       -23.1796
 127   2.0000      -0.845488       -23.0069
 128   2.0000      -0.844203       -22.9719
 129   2.0000      -0.841809       -22.9068
 130   2.0000      -0.839032       -22.8312
 131   2.0000      -0.836296       -22.7568
 132   2.0000      -0.826566       -22.4920
 133   2.0000      -0.804725       -21.8977
 134   2.0000      -0.795721       -21.6527
 135   2.0000      -0.790828       -21.5195
 136   2.0000      -0.774725       -21.0813
 137   2.0000      -0.770133       -20.9564
 138   2.0000      -0.758767       -20.6471
 139   2.0000      -0.753207       -20.4958
 140   2.0000      -0.738310       -20.0904
 141   2.0000      -0.727829       -19.8052
 142   2.0000      -0.718019       -19.5383
 143   2.0000      -0.712194       -19.3798
 144   2.0000      -0.705112       -19.1871
 145   2.0000      -0.702108       -19.1053
 146   2.0000      -0.697790       -18.9878
 147   2.0000      -0.696442       -18.9511
 148   2.0000      -0.687809       -18.7162
 149   2.0000      -0.684154       -18.6168
 150   2.0000      -0.676341       -18.4042
 151   2.0000      -0.672003       -18.2861
 152   2.0000      -0.670221       -18.2377
 153   2.0000      -0.663279       -18.0487
 154   2.0000      -0.658674       -17.9234
 155   2.0000      -0.654435       -17.8081
 156   2.0000      -0.648194       -17.6383
 157   2.0000      -0.636631       -17.3236
 158   2.0000      -0.631151       -17.1745
 159   2.0000      -0.629520       -17.1301
 160   2.0000      -0.628056       -17.0903
 161   2.0000      -0.619730       -16.8637
 162   2.0000      -0.616119       -16.7655
 163   2.0000      -0.615231       -16.7413
 164   2.0000      -0.613336       -16.6897
 165   2.0000      -0.606490       -16.5034
 166   2.0000      -0.605648       -16.4805
 167   2.0000      -0.597739       -16.2653
 168   2.0000      -0.590525       -16.0690
 169   2.0000      -0.588700       -16.0193
 170   2.0000      -0.580326       -15.7915
 171   2.0000      -0.579725       -15.7751
 172   2.0000      -0.569744       -15.5035
 173   2.0000      -0.569066       -15.4851
 174   2.0000      -0.563957       -15.3461
 175   2.0000      -0.557580       -15.1725
 176   2.0000      -0.550731       -14.9862
 177   2.0000      -0.549105       -14.9419
 178   2.0000      -0.546454       -14.8698
 179   2.0000      -0.544848       -14.8261
 180   2.0000      -0.541250       -14.7282
 181   2.0000      -0.539947       -14.6927
 182   2.0000      -0.538305       -14.6480
 183   2.0000      -0.535899       -14.5826
 184   2.0000      -0.533521       -14.5178
 185   2.0000      -0.529713       -14.4142
 186   2.0000      -0.528353       -14.3772
 187   2.0000      -0.524765       -14.2796
 188   2.0000      -0.522189       -14.2095
 189   2.0000      -0.521333       -14.1862
 190   2.0000      -0.518343       -14.1048
 191   2.0000      -0.515725       -14.0336
 192   2.0000      -0.514355       -13.9963
 193   2.0000      -0.514171       -13.9913
 194   2.0000      -0.509964       -13.8768
 195   2.0000      -0.508987       -13.8502
 196   2.0000      -0.507607       -13.8127
 197   2.0000      -0.502695       -13.6790
 198   2.0000      -0.499051       -13.5799
 199   2.0000      -0.498501       -13.5649
 200   2.0000      -0.496985       -13.5237
 201   2.0000      -0.493545       -13.4300
 202   2.0000      -0.491943       -13.3865
 203   2.0000      -0.490144       -13.3375
 204   2.0000      -0.488042       -13.2803
 205   2.0000      -0.487079       -13.2541
 206   2.0000      -0.482365       -13.1258
 207   2.0000      -0.482207       -13.1215
 208   2.0000      -0.481462       -13.1012
 209   2.0000      -0.477136       -12.9835
 210   2.0000      -0.474151       -12.9023
 211   2.0000      -0.469830       -12.7847
 212   2.0000      -0.464837       -12.6488
 213   2.0000      -0.460110       -12.5202
 214   2.0000      -0.459819       -12.5123
 215   2.0000      -0.458800       -12.4846
 216   2.0000      -0.457824       -12.4580
 217   2.0000      -0.452928       -12.3248
 218   2.0000      -0.450914       -12.2700
 219   2.0000      -0.450850       -12.2682
 220   2.0000      -0.447486       -12.1767
 221   2.0000      -0.446185       -12.1413
 222   2.0000      -0.442574       -12.0430
 223   2.0000      -0.441533       -12.0147
 224   2.0000      -0.440224       -11.9791
 225   2.0000      -0.437433       -11.9031
 226   2.0000      -0.436617       -11.8809
 227   2.0000      -0.434976       -11.8363
 228   2.0000      -0.434178       -11.8146
 229   2.0000      -0.433857       -11.8058
 230   2.0000      -0.433223       -11.7886
 231   2.0000      -0.430186       -11.7059
 232   2.0000      -0.428742       -11.6667
 233   2.0000      -0.427862       -11.6427
 234   2.0000      -0.425139       -11.5686
 235   2.0000      -0.422923       -11.5083
 236   2.0000      -0.421598       -11.4723
 237   2.0000      -0.418808       -11.3964
 238   2.0000      -0.416056       -11.3215
 239   2.0000      -0.415170       -11.2973
 240   2.0000      -0.411702       -11.2030
 241   2.0000      -0.398555       -10.8452
 242   2.0000      -0.391980       -10.6663
 243   2.0000      -0.383664       -10.4400
 244   2.0000      -0.376712       -10.2509
 245   2.0000      -0.374464       -10.1897
 246   2.0000      -0.366688        -9.9781
 247   2.0000      -0.362266        -9.8578
 248   2.0000      -0.355732        -9.6800
 249   2.0000      -0.351008        -9.5514
 250   2.0000      -0.343242        -9.3401
 251   2.0000      -0.341527        -9.2934
 252   2.0000      -0.338480        -9.2105
 253   2.0000      -0.334810        -9.1107
 254   2.0000      -0.333680        -9.0799
 255   2.0000      -0.331395        -9.0177
 256   2.0000      -0.327845        -8.9211
 257   2.0000      -0.316872        -8.6225
 258   2.0000      -0.315646        -8.5892
 259   2.0000      -0.302321        -8.2266
 260   2.0000      -0.300940        -8.1890
 261   2.0000      -0.292341        -7.9550
 262   2.0000      -0.290549        -7.9062
 263   2.0000      -0.249713        -6.7950
 264   0.0000      -0.097689        -2.6583
 265   0.0000      -0.097271        -2.6469
 266   0.0000      -0.083946        -2.2843
 267   0.0000      -0.055162        -1.5010
 268   0.0000      -0.048874        -1.3299

MULLIKEN ATOMIC CHARGES
-----------------------
   0 C :    0.269878
   1 C :   -0.335050
   2 C :   -0.180920
   3 N :    0.153239
   4 C :   -0.186781
   5 N :    0.168059
   6 C :    0.038507
   7 C :    0.008365
   8 C :   -0.080489
   9 C :    0.095601
  10 C :    0.093832
  11 C :   -0.082709
  12 C :   -0.018204
  13 C :    0.036221
  14 C :    0.037201
  15 C :   -0.016052
  16 C :    0.140181
  17 O :   -0.133312
  18 C :   -0.118425
  19 C :    0.045484
  20 C :   -0.040984
  21 C :    0.104135
  22 O :   -0.152749
  23 C :    0.077694
  24 C :    0.008637
  25 C :    0.172981
  26 O :   -0.190820
  27 C :   -0.140962
  28 C :    0.049029
  29 C :   -0.002803
  30 C :   -0.043257
  31 S :    0.142773
  32 C :   -0.040115
  33 C :   -0.054383
  34 C :    0.009825
  35 C :   -0.099636
  36 S :    0.186901
  37 C :   -0.084561
  38 C :    0.024872
  39 C :    0.301792
  40 C :   -0.301865
  41 C :   -0.188508
  42 N :    0.171356
  43 C :   -0.187559
  44 N :    0.162747
  45 C :   -0.066210
  46 C :   -0.071111
  47 S :    0.214752
  48 C :    0.084091
  49 C :    0.051637
  50 O :   -0.147866
  51 C :    0.099020
  52 C :   -0.074261
  53 C :    0.180126
  54 O :   -0.206176
  55 C :   -0.143293
  56 C :    0.055610
  57 C :    0.033007
  58 C :   -0.075123
  59 S :    0.206086
  60 C :    0.049255
  61 C :   -0.165477
  62 C :    0.245570
  63 O :   -0.201630
  64 N :   -0.238775
  65 C :    0.126889
  66 C :   -0.299735
  67 C :   -0.192202
  68 N :    0.174867
  69 C :   -0.219927
  70 N :    0.152010
  71 S :    0.163609
  72 C :    0.114993
  73 H :   -0.011116
  74 H :   -0.006733
  75 H :   -0.010443
  76 H :   -0.005266
  77 H :   -0.005721
  78 H :   -0.016702
  79 H :    0.051299
  80 H :    0.021958
  81 H :    0.029107
  82 H :    0.008366
  83 H :   -0.007411
  84 H :    0.010947
  85 H :   -0.006988
  86 H :    0.023402
  87 H :    0.028242
  88 H :    0.009732
  89 H :   -0.001121
  90 H :    0.013600
  91 H :    0.068636
  92 H :    0.068878
  93 H :    0.068433
Sum of atomic charges:   -0.0000000

LOEWDIN ATOMIC CHARGES
----------------------
   0 C :    0.069048
   1 C :   -0.135866
   2 C :   -0.018782
   3 N :   -0.051929
   4 C :   -0.017311
   5 N :   -0.047918
   6 C :   -0.025069
   7 C :   -0.056721
   8 C :    0.032316
   9 C :   -0.008353
  10 C :   -0.006065
  11 C :    0.016531
  12 C :   -0.006197
  13 C :   -0.013403
  14 C :   -0.012639
  15 C :   -0.009380
  16 C :    0.083784
  17 O :   -0.133497
  18 C :   -0.087207
  19 C :    0.087696
  20 C :   -0.066001
  21 C :    0.061135
  22 O :    0.051775
  23 C :    0.055797
  24 C :   -0.095337
  25 C :    0.073342
  26 O :   -0.158759
  27 C :   -0.223122
  28 C :    0.000676
  29 C :   -0.069590
  30 C :   -0.168271
  31 S :    0.472706
  32 C :   -0.183475
  33 C :   -0.028963
  34 C :   -0.074122
  35 C :   -0.171832
  36 S :    0.481102
  37 C :   -0.195554
  38 C :   -0.073553
  39 C :    0.085498
  40 C :   -0.108714
  41 C :   -0.017194
  42 N :   -0.036276
  43 C :   -0.014322
  44 N :   -0.041258
  45 C :   -0.030113
  46 C :   -0.169639
  47 S :    0.529763
  48 C :   -0.062197
  49 C :    0.039775
  50 O :    0.053398
  51 C :    0.056566
  52 C :   -0.118727
  53 C :    0.071021
  54 O :   -0.169051
  55 C :   -0.214790
  56 C :   -0.016045
  57 C :   -0.031468
  58 C :   -0.180474
  59 S :    0.531283
  60 C :    0.007042
  61 C :   -0.217170
  62 C :    0.071691
  63 O :   -0.181149
  64 N :   -0.002327
  65 C :   -0.031706
  66 C :   -0.204856
  67 C :   -0.034629
  68 N :   -0.054350
  69 C :   -0.041607
  70 N :   -0.043533
  71 S :    0.431792
  72 C :    0.039766
  73 H :    0.039566
  74 H :    0.038377
  75 H :    0.034269
  76 H :    0.032965
  77 H :    0.032591
  78 H :    0.032058
  79 H :    0.053309
  80 H :    0.028202
  81 H :    0.019581
  82 H :    0.041270
  83 H :    0.026686
  84 H :    0.037135
  85 H :    0.035156
  86 H :    0.029005
  87 H :    0.021866
  88 H :    0.041006
  89 H :    0.035175
  90 H :    0.049421
  91 H :    0.044245
  92 H :    0.042753
  93 H :    0.042372

  Mayer bond orders larger than 0.100000
B(  0-C ,  1-C ) :   1.6755 B(  0-C ,  6-C ) :   1.0018 B(  0-C , 18-C ) :   1.0093
B(  1-C ,  2-C ) :   1.1303 B(  1-C ,  4-C ) :   1.1558 B(  2-C ,  3-N ) :   2.9867
B(  4-C ,  5-N ) :   3.0062 B(  6-C ,  7-C ) :   1.2166 B(  6-C , 11-C ) :   1.4509
B(  7-C ,  8-C ) :   1.4733 B(  7-C , 16-C ) :   0.9160 B(  8-C ,  9-C ) :   1.1873
B(  8-C , 73-H ) :   1.0155 B(  9-C , 10-C ) :   1.2573 B(  9-C , 15-C ) :   1.2420
B( 10-C , 11-C ) :   1.2069 B( 10-C , 12-C ) :   1.2396 B( 11-C , 74-H ) :   0.9937
B( 12-C , 13-C ) :   1.4914 B( 12-C , 75-H ) :   0.9975 B( 13-C , 14-C ) :   1.2594
B( 13-C , 76-H ) :   0.9888 B( 14-C , 15-C ) :   1.4906 B( 14-C , 77-H ) :   0.9887
B( 15-C , 78-H ) :   0.9980 B( 16-C , 17-O ) :   2.2864 B( 16-C , 18-C ) :   0.9250
B( 18-C , 19-C ) :   1.7269 B( 19-C , 20-C ) :   1.0139 B( 19-C , 79-H ) :   0.9386
B( 20-C , 21-C ) :   1.5095 B( 20-C , 24-C ) :   1.2579 B( 21-C , 22-O ) :   1.1672
B( 21-C , 80-H ) :   1.0053 B( 22-O , 23-C ) :   1.1833 B( 23-C , 24-C ) :   1.5101
B( 23-C , 81-H ) :   0.9912 B( 24-C , 25-C ) :   0.9293 B( 25-C , 26-O ) :   2.1447
B( 25-C , 27-C ) :   1.0305 B( 27-C , 28-C ) :   1.4980 B( 27-C , 31-S ) :   1.1015
B( 28-C , 29-C ) :   1.2702 B( 28-C , 82-H ) :   1.0009 B( 29-C , 30-C ) :   1.4665
B( 29-C , 83-H ) :   0.9930 B( 30-C , 31-S ) :   1.1633 B( 30-C , 32-C ) :   1.1505
B( 32-C , 33-C ) :   1.4736 B( 32-C , 36-S ) :   1.0987 B( 33-C , 34-C ) :   1.2900
B( 33-C , 84-H ) :   0.9896 B( 34-C , 35-C ) :   1.4526 B( 34-C , 39-C ) :   0.9943
B( 35-C , 36-S ) :   1.1332 B( 35-C , 37-C ) :   1.1667 B( 37-C , 38-C ) :   1.4381
B( 37-C , 47-S ) :   1.0956 B( 38-C , 39-C ) :   0.9936 B( 38-C , 45-C ) :   1.2878
B( 39-C , 40-C ) :   1.7058 B( 40-C , 41-C ) :   1.1316 B( 40-C , 43-C ) :   1.1370
B( 41-C , 42-N ) :   2.9946 B( 43-C , 44-N ) :   2.9884 B( 45-C , 46-C ) :   1.4837
B( 45-C , 85-H ) :   0.9949 B( 46-C , 47-S ) :   1.1256 B( 46-C , 48-C ) :   1.0678
B( 48-C , 49-C ) :   1.5273 B( 48-C , 52-C ) :   1.2269 B( 49-C , 50-O ) :   1.1429
B( 49-C , 86-H ) :   1.0005 B( 50-O , 51-C ) :   1.2128 B( 51-C , 52-C ) :   1.4823
B( 51-C , 87-H ) :   0.9931 B( 52-C , 53-C ) :   0.9542 B( 53-C , 54-O ) :   2.1114
B( 53-C , 55-C ) :   1.0039 B( 55-C , 56-C ) :   1.4523 B( 55-C , 59-S ) :   1.1236
B( 56-C , 57-C ) :   1.2985 B( 56-C , 88-H ) :   1.0061 B( 57-C , 58-C ) :   1.3864
B( 57-C , 89-H ) :   1.0062 B( 58-C , 59-S ) :   1.1392 B( 58-C , 60-C ) :   1.2123
B( 60-C , 61-C ) :   1.6676 B( 60-C , 90-H ) :   0.9529 B( 61-C , 62-C ) :   0.9798
B( 61-C , 71-S ) :   1.0111 B( 62-C , 63-O ) :   2.0574 B( 62-C , 64-N ) :   1.0803
B( 64-N , 65-C ) :   1.1877 B( 64-N , 72-C ) :   0.9319 B( 65-C , 66-C ) :   1.5692
B( 65-C , 71-S ) :   1.0876 B( 66-C , 67-C ) :   1.1644 B( 66-C , 69-C ) :   1.1466
B( 67-C , 68-N ) :   3.0127 B( 69-C , 70-N ) :   3.0341 B( 72-C , 91-H ) :   0.9444
B( 72-C , 92-H ) :   0.9687 B( 72-C , 93-H ) :   0.9689

-----------------------------------------------------------------------------
         ABSORPTION SPECTRUM VIA TRANSITION ELECTRIC DIPOLE MOMENTS
-----------------------------------------------------------------------------
State   Energy  Wavelength   fosc         T2         TX        TY        TZ
        (cm-1)    (nm)                  (au**2)     (au)      (au)      (au)
-----------------------------------------------------------------------------
   0   13415.5    745.4   0.078682511   1.93084  -1.32214   0.41444   0.10494
   1   20707.0    482.9   0.069781004   1.10942   0.92387  -0.48017   0.15914
   2   24608.3    406.4   0.778113929  10.40969  -2.87591   1.44598   0.21902
   3   25772.2    388.0   1.257201175  16.05939   2.24211  -3.32066  -0.07438
   4   26668.0    375.0   0.102789051   1.26891  -0.61022   0.88076   0.34757
   5   27105.0    368.9   0.161514379   1.96172   1.36298   0.25513  -0.19729
   6   27336.1    365.8   0.495494394   5.96729   2.42588  -0.06268  -0.28009
   7   28355.2    352.7   0.108140041   1.25554   0.53303  -0.98300   0.07159
   8   29585.3    338.0   0.030190600   0.33595  -0.54182  -0.07013   0.19354
   9   30731.5    325.4   0.024841315   0.26611  -0.37087   0.34052  -0.11232
  10   31194.3    320.6   0.070233002   0.74121  -0.37983   0.16051  -0.75576
  11   31545.2    317.0   0.108398231   1.13127   0.67732  -0.47444   0.66888
  12   31722.1    315.2   0.258769942   2.68552  -0.82334   0.29984  -1.38482
  13   32006.7    312.4   0.138192865   1.42141  -0.19594   0.02860  -1.17567
  14   32576.2    307.0   0.122581472   1.23880  -0.29561   0.20056   1.05413
  15   32697.1    305.8   0.191713834   1.93028  -0.31200   0.40152  -1.29295
  16   32776.3    305.1   0.025262923   0.25375   0.35958   0.22059   0.27529
  17   33420.3    299.2   0.267583288   2.63587  -1.37016   0.25218   0.83363
  18   34092.6    293.3   0.153674546   1.48394   1.15384  -0.15355  -0.35919
  19   34115.9    293.1   0.007093451   0.06845   0.19242  -0.12049  -0.13004
  20   35021.2    285.5   0.579245910   5.44513  -2.07766   0.81681   0.67919
  21   35050.5    285.3   0.197110591   1.85136  -1.18142   0.54652   0.39613
  22   35346.7    282.9   0.233216086   2.17213  -1.01552   1.02951   0.28456
  23   35435.0    282.2   0.005943996   0.05522   0.01274  -0.14781   0.18225
  24   35503.9    281.7   0.113660956   1.05393   0.71741  -0.66287   0.31599
  25   35522.8    281.5   0.031110362   0.28832   0.18064  -0.46877   0.18958
  26   35833.7    279.1   0.020005405   0.18379   0.18302  -0.06947   0.38141
  27   35925.3    278.4   0.041644451   0.38162  -0.35667   0.34650   0.36653
  28   35979.2    277.9   0.068102986   0.62315   0.64585  -0.27169   0.36360
  29   36454.4    274.3   0.012096277   0.10924  -0.13050   0.29348  -0.07798
  30   36607.2    273.2   0.014880708   0.13382  -0.34292   0.11846   0.04685
  31   36985.5    270.4   0.014933221   0.13292   0.26930   0.11090   0.21931
  32   37182.0    268.9   0.067559644   0.59818   0.56765  -0.08135   0.51898
  33   37280.9    268.2   0.036040198   0.31826  -0.50084   0.11003   0.23518
  34   37469.5    266.9   0.313802691   2.75711   1.24631  -0.37334  -1.03171
  35   37547.2    266.3   0.018762316   0.16451  -0.35801   0.00063   0.19061
  36   38016.2    263.0   0.080632000   0.69826   0.43029  -0.39035  -0.60061
  37   38151.4    262.1   0.066284727   0.57198  -0.23878   0.26915   0.66522
  38   39194.5    255.1   0.004407028   0.03702   0.10230   0.15837   0.03831
  39   39356.5    254.1   0.000586846   0.00491   0.02805   0.01407  -0.06264
  40   39473.3    253.3   0.000736273   0.00614  -0.04726   0.03623  -0.05094
  41   39685.2    252.0   0.026177087   0.21715  -0.35436   0.14261  -0.26691
  42   40070.1    249.6   0.020619275   0.16941  -0.27397  -0.06387   0.30044
  43   40231.5    248.6   0.061384796   0.50231   0.35876  -0.18628   0.58215

FINAL SINGLE POINT ENERGY     -4929.607267040850

DIPOLE MOMENT
-------------
                                X             Y             Z
Electronic contribution:     35.02603     -21.28771       1.77921
Nuclear contribution   :    -35.39745      22.03554      -0.06901
                        -----------------------------------------
Total Dipole Moment    :     -0.37142       0.74783       1.71021
                        -----------------------------------------
Magnitude (a.u.)       :      1.90316
Magnitude (Debye)      :      4.83744

Rotational constants in cm-1:     0.002592     0.000166     0.000162
Rotational constants in MHz :    77.708191     4.980739     4.850471

                             ****ORCA TERMINATED NORMALLY****
TOTAL RUN TIME: 0 days 0 hours 9 minutes 11 seconds 180 msec
