                         Program Version 4.2.0 -  RELEASE  -
|  1> # ORCA input file
|  2> # SCF done       -205.486185311553          0.000965860372
|  3> ! CAM-B3LYP def2-SVP def2/J RIJCOSX Grid4 TightSCF
|  4> %maxcore 5000
|  5> %tddft
|  6>     Mode sTDDFT
|  7>     Ethresh 5.0
|  8>     maxcore 5000
|  9> end
| 10>
| 11> %pal
| 12>   nprocs 6
| 13>   end
| 14> * xyz 0 1
| 15>    C        2.49089         4.43164         9.22910
| 16>    C        2.50353         4.74192         7.91160
| 17>    C        3.36079         4.12790         6.97936
| 18>    C        4.30446         3.09413         7.40978
| 19>    C        4.43843         2.65397         8.68234
| 20>    S        3.50419         3.25310         9.98932
| 21>    C        4.99352         2.70234         6.22894
| 22>    C        4.52516         3.43168         5.13537
| 23>    C        5.19194         3.06192         3.94591
| 24>    C        6.12013         2.09233         4.16585
| 25>    S        6.22850         1.58249         5.81201
| 26>    C        3.49345         4.33654         5.59699
| 27>    C        2.73948         5.27344         4.85774
| 28>    C        2.83509         5.52810         3.52502
| 29>    C        2.06565         6.49497         2.82756
| 30>    C        2.23266         6.71344         1.47280
| 31>    C        1.53723         7.65031         0.71909
| 32>    C        0.53490         8.52378         1.32855
| 33>    C        0.19386         8.48766         2.63473
| 34>    S        0.89605         7.41213         3.76985
| 35>    C        0.06125         9.35178         0.27298
| 36>    C        0.71802         9.03681        -0.91740
| 37>    C        0.24586         9.82536        -1.99174
| 38>    C       -0.71931        10.69540        -1.59426
| 39>    S       -1.10290        10.60002         0.08868
| 40>    C        1.65420         7.96716        -0.65874
| 41>    C        2.52081         7.32727        -1.55785
| 42>    C        2.78158         7.71641        -2.84209
| 43>    C        3.62800         7.02842        -3.72552
| 44>    C        3.98052         7.44042        -5.01199
| 45>    C        4.81810         6.53871        -5.64401
| 46>    C        5.11617         5.40417        -4.85197
| 47>    S        4.36463         5.48042        -3.31383
| 48>    C        5.94052         4.53651        -5.58309
| 49>    C        6.18431         5.12474        -6.85492
| 50>    C        5.49052         6.39410        -6.92789
| 51>    C        5.45780         7.26801        -7.97655
| 52>    C        4.73302         8.47576        -7.91968
| 53>    N        4.14411         9.45914        -7.87260
| 54>    C        6.13815         7.02320        -9.18783
| 55>    N        6.68045         6.83819       -10.18113
| 56>    C        6.97748         4.33632        -7.66592
| 57>    C        7.33704         3.13769        -7.04864
| 58>    S        6.68399         3.00337        -5.41886
| 59>    C        8.09941         2.09675        -7.61472
| 60>    C        8.32653         0.88012        -6.91870
| 61>    C        9.06988        -0.20990        -7.47829
| 62>    N        9.14151        -1.37089        -6.79069
| 63>    C        8.60902        -1.44403        -5.61230
| 64>    C        7.94641        -0.34268        -5.02796
| 65>    N        7.80063         0.76527        -5.68916
| 66>    F        7.42559        -0.40879        -3.80282
| 67>    F        8.69520        -2.61194        -4.97388
| 68>    C        9.67628        -0.12278        -8.75086
| 69>    C        9.42878         1.07693        -9.46149
| 70>    C        8.66828         2.17119        -8.91079
| 71>    N        8.59641         3.19515        -9.76009
| 72>    S        9.39760         2.82779       -11.10198
| 73>    N        9.87778         1.35333       -10.68437
| 74>    C       10.42102        -1.14979        -9.38571
| 75>    C       11.07996        -2.23079        -8.88015
| 76>    C       11.39468        -3.36057        -9.79926
| 77>    O       11.32818        -3.35529       -11.00760
| 78>    C       11.74747        -4.49119        -8.91801
| 79>    C       11.98665        -5.79418        -9.24418
| 80>    C       12.25951        -6.72292        -8.21426
| 81>    C       12.26970        -6.27982        -6.85965
| 82>    C       12.52432        -7.21545        -5.83804
| 83>    C       12.76102        -8.52103        -6.16660
| 84>    C       12.76067        -8.97502        -7.49207
| 85>    C       12.51203        -8.08080        -8.49613
| 86>    F       13.00466        -9.41718        -5.19048
| 87>    C       12.03009        -4.91943        -6.55247
| 88>    C       11.78231        -4.03723        -7.56832
| 89>    C       11.51828        -2.60090        -7.55675
| 90>    C       11.85170        -1.74803        -6.53538
| 91>    C       12.36323        -2.17010        -5.29244
| 92>    N       12.77282        -2.45316        -4.25762
| 93>    C       11.77202        -0.34634        -6.62576
| 94>    N       11.73070         0.80170        -6.64306
| 95>    H        1.82706         4.91272         9.92743
| 96>    H        1.81419         5.50034         7.56819
| 97>    H        5.14757         1.88986         8.95889
| 98>    H        5.01480         3.47119         2.96870
| 99>    H        6.76515         1.62999         3.44425
|100>    H        2.01790         5.84606         5.42730
|101>    H        3.54281         4.97915         2.92368
|102>    H        2.97393         6.10074         0.97746
|103>    H       -0.55045         9.14063         3.06133
|104>    H        0.57594         9.76296        -3.01197
|105>    H       -1.24718        11.40731        -2.19824
|106>    H        3.04101         6.45081        -1.19054
|107>    H        2.34258         8.62237        -3.23029
|108>    H        3.62642         8.36172        -5.43802
|109>    H        7.29681         4.57335        -8.66440
|110>    H       10.42594        -1.08538       -10.47059
|111>    H       11.96316        -6.11586       -10.27469
|112>    H       12.53462        -6.90110        -4.80612
|113>    H       12.95513       -10.01707        -7.69100
|114>    H       12.50562        -8.40621        -9.52568
|115>    H       12.03327        -4.61194        -5.51879
|116> *
|117>
|118>                          ****END OF INPUT****

CARTESIAN COORDINATES (ANGSTROEM)
---------------------------------
  C      2.490890    4.431640    9.229100
  C      2.503530    4.741920    7.911600
  C      3.360790    4.127900    6.979360
  C      4.304460    3.094130    7.409780
  C      4.438430    2.653970    8.682340
  S      3.504190    3.253100    9.989320
  C      4.993520    2.702340    6.228940
  C      4.525160    3.431680    5.135370
  C      5.191940    3.061920    3.945910
  C      6.120130    2.092330    4.165850
  S      6.228500    1.582490    5.812010
  C      3.493450    4.336540    5.596990
  C      2.739480    5.273440    4.857740
  C      2.835090    5.528100    3.525020
  C      2.065650    6.494970    2.827560
  C      2.232660    6.713440    1.472800
  C      1.537230    7.650310    0.719090
  C      0.534900    8.523780    1.328550
  C      0.193860    8.487660    2.634730
  S      0.896050    7.412130    3.769850
  C      0.061250    9.351780    0.272980
  C      0.718020    9.036810   -0.917400
  C      0.245860    9.825360   -1.991740
  C     -0.719310   10.695400   -1.594260
  S     -1.102900   10.600020    0.088680
  C      1.654200    7.967160   -0.658740
  C      2.520810    7.327270   -1.557850
  C      2.781580    7.716410   -2.842090
  C      3.628000    7.028420   -3.725520
  C      3.980520    7.440420   -5.011990
  C      4.818100    6.538710   -5.644010
  C      5.116170    5.404170   -4.851970
  S      4.364630    5.480420   -3.313830
  C      5.940520    4.536510   -5.583090
  C      6.184310    5.124740   -6.854920
  C      5.490520    6.394100   -6.927890
  C      5.457800    7.268010   -7.976550
  C      4.733020    8.475760   -7.919680
  N      4.144110    9.459140   -7.872600
  C      6.138150    7.023200   -9.187830
  N      6.680450    6.838190  -10.181130
  C      6.977480    4.336320   -7.665920
  C      7.337040    3.137690   -7.048640
  S      6.683990    3.003370   -5.418860
  C      8.099410    2.096750   -7.614720
  C      8.326530    0.880120   -6.918700
  C      9.069880   -0.209900   -7.478290
  N      9.141510   -1.370890   -6.790690
  C      8.609020   -1.444030   -5.612300
  C      7.946410   -0.342680   -5.027960
  N      7.800630    0.765270   -5.689160
  F      7.425590   -0.408790   -3.802820
  F      8.695200   -2.611940   -4.973880
  C      9.676280   -0.122780   -8.750860
  C      9.428780    1.076930   -9.461490
  C      8.668280    2.171190   -8.910790
  N      8.596410    3.195150   -9.760090
  S      9.397600    2.827790  -11.101980
  N      9.877780    1.353330  -10.684370
  C     10.421020   -1.149790   -9.385710
  C     11.079960   -2.230790   -8.880150
  C     11.394680   -3.360570   -9.799260
  O     11.328180   -3.355290  -11.007600
  C     11.747470   -4.491190   -8.918010
  C     11.986650   -5.794180   -9.244180
  C     12.259510   -6.722920   -8.214260
  C     12.269700   -6.279820   -6.859650
  C     12.524320   -7.215450   -5.838040
  C     12.761020   -8.521030   -6.166600
  C     12.760670   -8.975020   -7.492070
  C     12.512030   -8.080800   -8.496130
  F     13.004660   -9.417180   -5.190480
  C     12.030090   -4.919430   -6.552470
  C     11.782310   -4.037230   -7.568320
  C     11.518280   -2.600900   -7.556750
  C     11.851700   -1.748030   -6.535380
  C     12.363230   -2.170100   -5.292440
  N     12.772820   -2.453160   -4.257620
  C     11.772020   -0.346340   -6.625760
  N     11.730700    0.801700   -6.643060
  H      1.827060    4.912720    9.927430
  H      1.814190    5.500340    7.568190
  H      5.147570    1.889860    8.958890
  H      5.014800    3.471190    2.968700
  H      6.765150    1.629990    3.444250
  H      2.017900    5.846060    5.427300
  H      3.542810    4.979150    2.923680
  H      2.973930    6.100740    0.977460
  H     -0.550450    9.140630    3.061330
  H      0.575940    9.762960   -3.011970
  H     -1.247180   11.407310   -2.198240
  H      3.041010    6.450810   -1.190540
  H      2.342580    8.622370   -3.230290
  H      3.626420    8.361720   -5.438020
  H      7.296810    4.573350   -8.664400
  H     10.425940   -1.085380  -10.470590
  H     11.963160   -6.115860  -10.274690
  H     12.534620   -6.901100   -4.806120
  H     12.955130  -10.017070   -7.691000
  H     12.505620   -8.406210   -9.525680
  H     12.033270   -4.611940   -5.518790

 Total Charge           Charge          ....    0
 Multiplicity           Mult            ....    1
 Number of Electrons    NEL             ....  590
 Basis Dimension        Dim             .... 1253

ORBITAL ENERGIES
----------------

  NO   OCC          E(Eh)            E(eV)
   0   2.0000     -89.031499     -2422.6702
   1   2.0000     -88.982950     -2421.3492
   2   2.0000     -88.979996     -2421.2688
   3   2.0000     -88.978287     -2421.2223
   4   2.0000     -88.978252     -2421.2213
   5   2.0000     -88.960516     -2420.7387
   6   2.0000     -88.959461     -2420.7100
   7   2.0000     -24.812112      -675.1719
   8   2.0000     -24.811841      -675.1645
   9   2.0000     -24.776849      -674.2123
  10   2.0000     -19.199435      -522.4432
  11   2.0000     -14.457356      -393.4047
  12   2.0000     -14.446585      -393.1116
  13   2.0000     -14.446053      -393.0971
  14   2.0000     -14.438534      -392.8925
  15   2.0000     -14.425164      -392.5287
  16   2.0000     -14.423677      -392.4882
  17   2.0000     -14.405134      -391.9836
  18   2.0000     -14.402622      -391.9153
  19   2.0000     -10.428551      -283.7753
  20   2.0000     -10.425400      -283.6896
  21   2.0000     -10.359638      -281.9001
  22   2.0000     -10.358049      -281.8568
  23   2.0000     -10.350449      -281.6500
  24   2.0000     -10.345894      -281.5261
  25   2.0000     -10.343419      -281.4587
  26   2.0000     -10.339698      -281.3575
  27   2.0000     -10.333951      -281.2011
  28   2.0000     -10.333442      -281.1873
  29   2.0000     -10.331249      -281.1276
  30   2.0000     -10.330796      -281.1152
  31   2.0000     -10.327087      -281.0143
  32   2.0000     -10.326936      -281.0102
  33   2.0000     -10.325806      -280.9795
  34   2.0000     -10.325577      -280.9732
  35   2.0000     -10.325409      -280.9687
  36   2.0000     -10.324883      -280.9544
  37   2.0000     -10.323891      -280.9273
  38   2.0000     -10.323071      -280.9050
  39   2.0000     -10.321457      -280.8611
  40   2.0000     -10.319875      -280.8181
  41   2.0000     -10.316122      -280.7160
  42   2.0000     -10.307479      -280.4808
  43   2.0000     -10.306154      -280.4447
  44   2.0000     -10.304341      -280.3954
  45   2.0000     -10.303651      -280.3766
  46   2.0000     -10.303626      -280.3759
  47   2.0000     -10.301277      -280.3120
  48   2.0000     -10.299744      -280.2703
  49   2.0000     -10.299307      -280.2584
  50   2.0000     -10.298081      -280.2250
  51   2.0000     -10.296193      -280.1737
  52   2.0000     -10.295816      -280.1634
  53   2.0000     -10.295103      -280.1440
  54   2.0000     -10.293332      -280.0958
  55   2.0000     -10.293282      -280.0944
  56   2.0000     -10.293211      -280.0925
  57   2.0000     -10.292709      -280.0789
  58   2.0000     -10.292647      -280.0772
  59   2.0000     -10.292486      -280.0728
  60   2.0000     -10.290231      -280.0114
  61   2.0000     -10.290187      -280.0102
  62   2.0000     -10.290043      -280.0063
  63   2.0000     -10.289853      -280.0011
  64   2.0000     -10.289347      -279.9874
  65   2.0000     -10.287910      -279.9483
  66   2.0000     -10.287796      -279.9452
  67   2.0000     -10.285599      -279.8854
  68   2.0000     -10.284836      -279.8646
  69   2.0000     -10.283940      -279.8402
  70   2.0000     -10.281330      -279.7692
  71   2.0000     -10.280584      -279.7489
  72   2.0000     -10.280162      -279.7374
  73   2.0000     -10.279659      -279.7237
  74   2.0000     -10.279304      -279.7141
  75   2.0000     -10.279195      -279.7111
  76   2.0000     -10.278367      -279.6886
  77   2.0000     -10.277783      -279.6727
  78   2.0000     -10.277246      -279.6581
  79   2.0000     -10.276995      -279.6513
  80   2.0000      -8.122832      -221.0335
  81   2.0000      -8.078855      -219.8368
  82   2.0000      -8.074575      -219.7204
  83   2.0000      -8.073442      -219.6895
  84   2.0000      -8.071078      -219.6252
  85   2.0000      -8.056031      -219.2158
  86   2.0000      -8.054897      -219.1849
  87   2.0000      -6.093974      -165.8255
  88   2.0000      -6.086161      -165.6129
  89   2.0000      -6.085492      -165.5947
  90   2.0000      -6.048296      -164.5825
  91   2.0000      -6.043790      -164.4599
  92   2.0000      -6.043651      -164.4561
  93   2.0000      -6.042889      -164.4354
  94   2.0000      -6.041021      -164.3845
  95   2.0000      -6.040657      -164.3746
  96   2.0000      -6.039824      -164.3520
  97   2.0000      -6.038463      -164.3149
  98   2.0000      -6.036809      -164.2699
  99   2.0000      -6.035864      -164.2442
 100   2.0000      -6.035516      -164.2347
 101   2.0000      -6.033390      -164.1769
 102   2.0000      -6.025416      -163.9599
 103   2.0000      -6.024279      -163.9290
 104   2.0000      -6.021216      -163.8456
 105   2.0000      -6.020081      -163.8147
 106   2.0000      -6.018100      -163.7608
 107   2.0000      -6.017006      -163.7311
 108   2.0000      -1.338790       -36.4303
 109   2.0000      -1.324959       -36.0540
 110   2.0000      -1.291076       -35.1320
 111   2.0000      -1.130750       -30.7693
 112   2.0000      -1.114442       -30.3255
 113   2.0000      -1.111474       -30.2447
 114   2.0000      -1.039798       -28.2943
 115   2.0000      -1.035035       -28.1647
 116   2.0000      -1.015543       -27.6343
 117   2.0000      -1.010638       -27.5008
 118   2.0000      -1.008832       -27.4517
 119   2.0000      -1.005309       -27.3559
 120   2.0000      -1.001788       -27.2600
 121   2.0000      -0.993233       -27.0273
 122   2.0000      -0.988997       -26.9120
 123   2.0000      -0.983939       -26.7743
 124   2.0000      -0.982159       -26.7259
 125   2.0000      -0.975936       -26.5566
 126   2.0000      -0.974129       -26.5074
 127   2.0000      -0.968451       -26.3529
 128   2.0000      -0.962681       -26.1959
 129   2.0000      -0.949262       -25.8307
 130   2.0000      -0.936538       -25.4845
 131   2.0000      -0.929308       -25.2878
 132   2.0000      -0.916664       -24.9437
 133   2.0000      -0.913551       -24.8590
 134   2.0000      -0.906043       -24.6547
 135   2.0000      -0.894825       -24.3494
 136   2.0000      -0.888145       -24.1676
 137   2.0000      -0.882178       -24.0053
 138   2.0000      -0.879590       -23.9349
 139   2.0000      -0.876522       -23.8514
 140   2.0000      -0.871701       -23.7202
 141   2.0000      -0.867448       -23.6045
 142   2.0000      -0.860526       -23.4161
 143   2.0000      -0.847769       -23.0690
 144   2.0000      -0.844751       -22.9868
 145   2.0000      -0.841717       -22.9043
 146   2.0000      -0.836576       -22.7644
 147   2.0000      -0.823141       -22.3988
 148   2.0000      -0.811286       -22.0762
 149   2.0000      -0.810759       -22.0619
 150   2.0000      -0.808690       -22.0056
 151   2.0000      -0.805949       -21.9310
 152   2.0000      -0.793073       -21.5806
 153   2.0000      -0.782547       -21.2942
 154   2.0000      -0.772299       -21.0153
 155   2.0000      -0.771876       -21.0038
 156   2.0000      -0.758071       -20.6282
 157   2.0000      -0.753118       -20.4934
 158   2.0000      -0.744126       -20.2487
 159   2.0000      -0.738067       -20.0838
 160   2.0000      -0.731780       -19.9128
 161   2.0000      -0.718416       -19.5491
 162   2.0000      -0.716169       -19.4879
 163   2.0000      -0.709214       -19.2987
 164   2.0000      -0.697826       -18.9888
 165   2.0000      -0.696275       -18.9466
 166   2.0000      -0.689556       -18.7638
 167   2.0000      -0.683631       -18.6025
 168   2.0000      -0.682491       -18.5715
 169   2.0000      -0.675671       -18.3859
 170   2.0000      -0.672322       -18.2948
 171   2.0000      -0.667824       -18.1724
 172   2.0000      -0.666051       -18.1242
 173   2.0000      -0.658587       -17.9211
 174   2.0000      -0.655734       -17.8434
 175   2.0000      -0.655245       -17.8301
 176   2.0000      -0.652475       -17.7547
 177   2.0000      -0.647180       -17.6107
 178   2.0000      -0.633493       -17.2382
 179   2.0000      -0.627884       -17.0856
 180   2.0000      -0.626333       -17.0434
 181   2.0000      -0.624143       -16.9838
 182   2.0000      -0.622120       -16.9288
 183   2.0000      -0.619212       -16.8496
 184   2.0000      -0.616421       -16.7737
 185   2.0000      -0.615108       -16.7379
 186   2.0000      -0.610189       -16.6041
 187   2.0000      -0.605449       -16.4751
 188   2.0000      -0.602642       -16.3987
 189   2.0000      -0.597700       -16.2642
 190   2.0000      -0.589614       -16.0442
 191   2.0000      -0.581356       -15.8195
 192   2.0000      -0.578132       -15.7318
 193   2.0000      -0.572683       -15.5835
 194   2.0000      -0.567935       -15.4543
 195   2.0000      -0.567198       -15.4342
 196   2.0000      -0.565939       -15.4000
 197   2.0000      -0.560443       -15.2504
 198   2.0000      -0.559057       -15.2127
 199   2.0000      -0.555766       -15.1232
 200   2.0000      -0.554492       -15.0885
 201   2.0000      -0.552949       -15.0465
 202   2.0000      -0.549412       -14.9503
 203   2.0000      -0.548745       -14.9321
 204   2.0000      -0.542520       -14.7627
 205   2.0000      -0.540079       -14.6963
 206   2.0000      -0.539135       -14.6706
 207   2.0000      -0.537564       -14.6279
 208   2.0000      -0.532592       -14.4926
 209   2.0000      -0.524444       -14.2708
 210   2.0000      -0.522715       -14.2238
 211   2.0000      -0.518028       -14.0963
 212   2.0000      -0.517823       -14.0907
 213   2.0000      -0.516121       -14.0444
 214   2.0000      -0.514548       -14.0016
 215   2.0000      -0.513911       -13.9842
 216   2.0000      -0.513080       -13.9616
 217   2.0000      -0.512954       -13.9582
 218   2.0000      -0.510346       -13.8872
 219   2.0000      -0.509407       -13.8617
 220   2.0000      -0.507539       -13.8108
 221   2.0000      -0.503989       -13.7142
 222   2.0000      -0.502471       -13.6729
 223   2.0000      -0.498950       -13.5771
 224   2.0000      -0.495890       -13.4939
 225   2.0000      -0.489640       -13.3238
 226   2.0000      -0.489014       -13.3068
 227   2.0000      -0.487021       -13.2525
 228   2.0000      -0.485102       -13.2003
 229   2.0000      -0.480153       -13.0656
 230   2.0000      -0.477732       -12.9998
 231   2.0000      -0.475889       -12.9496
 232   2.0000      -0.471887       -12.8407
 233   2.0000      -0.470566       -12.8047
 234   2.0000      -0.469979       -12.7888
 235   2.0000      -0.465360       -12.6631
 236   2.0000      -0.464942       -12.6517
 237   2.0000      -0.462298       -12.5798
 238   2.0000      -0.458186       -12.4679
 239   2.0000      -0.457287       -12.4434
 240   2.0000      -0.456120       -12.4117
 241   2.0000      -0.455620       -12.3980
 242   2.0000      -0.452073       -12.3015
 243   2.0000      -0.450760       -12.2658
 244   2.0000      -0.450153       -12.2493
 245   2.0000      -0.448177       -12.1955
 246   2.0000      -0.445104       -12.1119
 247   2.0000      -0.440021       -11.9736
 248   2.0000      -0.438385       -11.9290
 249   2.0000      -0.437308       -11.8998
 250   2.0000      -0.436321       -11.8729
 251   2.0000      -0.434660       -11.8277
 252   2.0000      -0.432780       -11.7765
 253   2.0000      -0.431425       -11.7397
 254   2.0000      -0.431005       -11.7282
 255   2.0000      -0.429286       -11.6815
 256   2.0000      -0.428062       -11.6482
 257   2.0000      -0.427140       -11.6231
 258   2.0000      -0.422645       -11.5008
 259   2.0000      -0.421577       -11.4717
 260   2.0000      -0.420563       -11.4441
 261   2.0000      -0.419233       -11.4079
 262   2.0000      -0.417538       -11.3618
 263   2.0000      -0.417033       -11.3480
 264   2.0000      -0.411986       -11.2107
 265   2.0000      -0.409545       -11.1443
 266   2.0000      -0.408597       -11.1185
 267   2.0000      -0.405532       -11.0351
 268   2.0000      -0.403422       -10.9777
 269   2.0000      -0.401537       -10.9264
 270   2.0000      -0.399978       -10.8840
 271   2.0000      -0.397910       -10.8277
 272   2.0000      -0.389046       -10.5865
 273   2.0000      -0.384534       -10.4637
 274   2.0000      -0.377664       -10.2768
 275   2.0000      -0.371055       -10.0969
 276   2.0000      -0.369265       -10.0482
 277   2.0000      -0.360624        -9.8131
 278   2.0000      -0.356187        -9.6923
 279   2.0000      -0.352593        -9.5945
 280   2.0000      -0.342099        -9.3090
 281   2.0000      -0.339583        -9.2405
 282   2.0000      -0.335356        -9.1255
 283   2.0000      -0.329613        -8.9692
 284   2.0000      -0.327639        -8.9155
 285   2.0000      -0.320518        -8.7217
 286   2.0000      -0.315376        -8.5818
 287   2.0000      -0.300297        -8.1715
 288   2.0000      -0.297325        -8.0906
 289   2.0000      -0.289012        -7.8644
 290   2.0000      -0.286119        -7.7857
 291   2.0000      -0.283250        -7.7076
 292   2.0000      -0.261851        -7.1253
 293   2.0000      -0.242030        -6.5860
 294   2.0000      -0.212567        -5.7842
 295   0.0000      -0.121076        -3.2947
 296   0.0000      -0.096066        -2.6141
 297   0.0000      -0.072665        -1.9773
 298   0.0000      -0.063128        -1.7178
 299   0.0000      -0.045417        -1.2359

MULLIKEN ATOMIC CHARGES
-----------------------
   0 C :   -0.100169
   1 C :    0.036897
   2 C :    0.016042
   3 C :    0.072541
   4 C :   -0.143531
   5 S :    0.137998
   6 C :   -0.121125
   7 C :    0.059042
   8 C :   -0.011445
   9 C :   -0.067564
  10 S :    0.131697
  11 C :    0.089968
  12 C :   -0.008438
  13 C :   -0.029089
  14 C :   -0.006999
  15 C :   -0.067774
  16 C :    0.079379
  17 C :    0.064148
  18 C :   -0.116852
  19 S :    0.105744
  20 C :   -0.118149
  21 C :    0.056735
  22 C :   -0.007443
  23 C :   -0.067875
  24 S :    0.129285
  25 C :    0.085580
  26 C :   -0.026821
  27 C :   -0.015736
  28 C :   -0.015687
  29 C :   -0.059904
  30 C :    0.036874
  31 C :   -0.118890
  32 S :    0.157984
  33 C :   -0.040106
  34 C :    0.024490
  35 C :    0.311674
  36 C :   -0.305250
  37 C :   -0.188375
  38 N :    0.167192
  39 C :   -0.186700
  40 N :    0.174461
  41 C :   -0.044589
  42 C :   -0.197860
  43 S :    0.208727
  44 C :    0.191650
  45 C :   -0.011921
  46 C :   -0.098327
  47 N :   -0.007253
  48 C :    0.163817
  49 C :    0.148855
  50 N :   -0.057530
  51 F :   -0.143725
  52 F :   -0.142275
  53 C :    0.101619
  54 C :    0.009604
  55 C :   -0.020809
  56 N :   -0.278969
  57 S :    0.549599
  58 N :   -0.273353
  59 C :   -0.051786
  60 C :   -0.118032
  61 C :    0.130010
  62 O :   -0.147756
  63 C :    0.021113
  64 C :   -0.085437
  65 C :    0.099649
  66 C :    0.101643
  67 C :   -0.098344
  68 C :    0.301189
  69 C :   -0.029346
  70 C :   -0.011207
  71 F :   -0.194561
  72 C :   -0.089887
  73 C :    0.034175
  74 C :    0.349019
  75 C :   -0.363617
  76 C :   -0.194377
  77 N :    0.153860
  78 C :   -0.202070
  79 N :    0.155866
  80 H :    0.047382
  81 H :   -0.011207
  82 H :    0.038249
  83 H :   -0.014040
  84 H :    0.028349
  85 H :   -0.018976
  86 H :   -0.038620
  87 H :   -0.025501
  88 H :    0.034997
  89 H :   -0.010654
  90 H :    0.027408
  91 H :   -0.025170
  92 H :   -0.025246
  93 H :    0.003658
  94 H :    0.025238
  95 H :    0.030913
  96 H :   -0.014843
  97 H :   -0.005658
  98 H :   -0.000348
  99 H :   -0.011410
 100 H :   -0.005690
Sum of atomic charges:   -0.0000000

LOEWDIN ATOMIC CHARGES
----------------------
   0 C :   -0.181247
   1 C :   -0.027780
   2 C :   -0.014307
   3 C :   -0.046247
   4 C :   -0.142507
   5 S :    0.461797
   6 C :   -0.204303
   7 C :   -0.036485
   8 C :   -0.068394
   9 C :   -0.164822
  10 S :    0.427246
  11 C :   -0.058853
  12 C :   -0.011486
  13 C :   -0.069405
  14 C :   -0.144296
  15 C :   -0.034850
  16 C :   -0.003471
  17 C :   -0.050261
  18 C :   -0.141571
  19 S :    0.454790
  20 C :   -0.203366
  21 C :   -0.037028
  22 C :   -0.066444
  23 C :   -0.165269
  24 S :    0.425476
  25 C :   -0.061129
  26 C :   -0.001500
  27 C :   -0.072173
  28 C :   -0.130135
  29 C :   -0.041526
  30 C :   -0.044851
  31 C :   -0.203869
  32 S :    0.456126
  33 C :   -0.152993
  34 C :   -0.084389
  35 C :    0.080987
  36 C :   -0.104122
  37 C :   -0.015421
  38 N :   -0.037983
  39 C :   -0.017410
  40 N :   -0.031812
  41 C :    0.012048
  42 C :   -0.175817
  43 S :    0.507283
  44 C :   -0.002875
  45 C :   -0.021345
  46 C :    0.013790
  47 N :   -0.034688
  48 C :    0.069605
  49 C :    0.052605
  50 N :   -0.053429
  51 F :   -0.033698
  52 F :   -0.029893
  53 C :   -0.074628
  54 C :   -0.024020
  55 C :   -0.047615
  56 N :   -0.270928
  57 S :    0.675518
  58 N :   -0.285074
  59 C :    0.076214
  60 C :   -0.089382
  61 C :    0.083292
  62 O :   -0.146733
  63 C :   -0.057059
  64 C :    0.030855
  65 C :   -0.019863
  66 C :    0.002921
  67 C :   -0.043087
  68 C :    0.091284
  69 C :   -0.040405
  70 C :    0.003286
  71 F :   -0.068951
  72 C :    0.008900
  73 C :   -0.012653
  74 C :    0.079491
  75 C :   -0.150016
  76 C :   -0.021682
  77 N :   -0.063246
  78 C :   -0.017482
  79 N :   -0.065657
  80 H :    0.032634
  81 H :    0.038789
  82 H :    0.036441
  83 H :    0.027105
  84 H :    0.024963
  85 H :    0.016459
  86 H :    0.030371
  87 H :    0.034449
  88 H :    0.036045
  89 H :    0.029284
  90 H :    0.024354
  91 H :    0.019203
  92 H :    0.034362
  93 H :    0.040133
  94 H :    0.040008
  95 H :    0.049955
  96 H :    0.038301
  97 H :    0.042029
  98 H :    0.040312
  99 H :    0.034714
 100 H :    0.038509

  Mayer bond orders larger than 0.100000
B(  0-C ,  1-C ) :   1.6524 B(  0-C ,  5-S ) :   1.1080 B(  0-C , 80-H ) :   0.9386
B(  1-C ,  2-C ) :   1.2125 B(  1-C , 81-H ) :   0.9698 B(  2-C ,  3-C ) :   1.0586
B(  2-C , 11-C ) :   1.4048 B(  3-C ,  4-C ) :   1.5944 B(  3-C ,  6-C ) :   1.1859
B(  4-C ,  5-S ) :   1.1473 B(  4-C , 82-H ) :   0.9424 B(  6-C ,  7-C ) :   1.4594
B(  6-C , 10-S ) :   1.0774 B(  7-C ,  8-C ) :   1.2156 B(  7-C , 11-C ) :   1.0688
B(  8-C ,  9-C ) :   1.5844 B(  8-C , 83-H ) :   1.0000 B(  9-C , 10-S ) :   1.1627
B(  9-C , 84-H ) :   0.9640 B( 11-C , 12-C ) :   1.2047 B( 12-C , 13-C ) :   1.5738
B( 12-C , 85-H ) :   0.9443 B( 13-C , 14-C ) :   1.1661 B( 13-C , 86-H ) :   0.9954
B( 14-C , 15-C ) :   1.4852 B( 14-C , 19-S ) :   1.0506 B( 15-C , 16-C ) :   1.2400
B( 15-C , 87-H ) :   0.9788 B( 16-C , 17-C ) :   1.0618 B( 16-C , 25-C ) :   1.3285
B( 17-C , 18-C ) :   1.6036 B( 17-C , 20-C ) :   1.1697 B( 18-C , 19-S ) :   1.1402
B( 18-C , 88-H ) :   0.9417 B( 20-C , 21-C ) :   1.4601 B( 20-C , 24-S ) :   1.0803
B( 21-C , 22-C ) :   1.2146 B( 21-C , 25-C ) :   1.0720 B( 22-C , 23-C ) :   1.5855
B( 22-C , 89-H ) :   0.9988 B( 23-C , 24-S ) :   1.1580 B( 23-C , 90-H ) :   0.9647
B( 25-C , 26-C ) :   1.2382 B( 26-C , 27-C ) :   1.5254 B( 26-C , 91-H ) :   0.9535
B( 27-C , 28-C ) :   1.2103 B( 27-C , 92-H ) :   0.9815 B( 28-C , 29-C ) :   1.3606
B( 28-C , 32-S ) :   1.1040 B( 29-C , 30-C ) :   1.3258 B( 29-C , 93-H ) :   1.0048
B( 30-C , 31-C ) :   1.3827 B( 30-C , 35-C ) :   0.9851 B( 31-C , 32-S ) :   1.0788
B( 31-C , 33-C ) :   1.2696 B( 33-C , 34-C ) :   1.3246 B( 33-C , 43-S ) :   1.1051
B( 34-C , 35-C ) :   1.0038 B( 34-C , 41-C ) :   1.3251 B( 35-C , 36-C ) :   1.7065
B( 36-C , 37-C ) :   1.1348 B( 36-C , 39-C ) :   1.1399 B( 37-C , 38-N ) :   2.9894
B( 39-C , 40-N ) :   2.9876 B( 41-C , 42-C ) :   1.3561 B( 41-C , 94-H ) :   0.9788
B( 42-C , 43-S ) :   1.0503 B( 42-C , 44-C ) :   1.2838 B( 44-C , 45-C ) :   1.2329
B( 44-C , 53-C ) :   0.1128 B( 44-C , 55-C ) :   1.1751 B( 45-C , 46-C ) :   1.1344
B( 45-C , 50-N ) :   1.4110 B( 46-C , 47-N ) :   1.4293 B( 46-C , 53-C ) :   1.2641
B( 47-N , 48-C ) :   1.6261 B( 48-C , 49-C ) :   1.1299 B( 48-C , 52-F ) :   1.1743
B( 49-C , 50-N ) :   1.6173 B( 49-C , 51-F ) :   1.1801 B( 53-C , 54-C ) :   1.1699
B( 53-C , 59-C ) :   1.1641 B( 54-C , 55-C ) :   1.1138 B( 54-C , 58-N ) :   1.5595
B( 55-C , 56-N ) :   1.5305 B( 56-N , 57-S ) :   1.2768 B( 56-N , 58-N ) :   0.1457
B( 57-S , 58-N ) :   1.2630 B( 59-C , 60-C ) :   1.5870 B( 59-C , 95-H ) :   0.9382
B( 60-C , 61-C ) :   0.9459 B( 60-C , 74-C ) :   1.0595 B( 61-C , 62-O ) :   2.2621
B( 61-C , 63-C ) :   0.9154 B( 63-C , 64-C ) :   1.4737 B( 63-C , 73-C ) :   1.2166
B( 64-C , 65-C ) :   1.1859 B( 64-C , 96-H ) :   1.0160 B( 65-C , 66-C ) :   1.2609
B( 65-C , 70-C ) :   1.2363 B( 66-C , 67-C ) :   1.2014 B( 66-C , 72-C ) :   1.1993
B( 67-C , 68-C ) :   1.4410 B( 67-C , 97-H ) :   1.0073 B( 68-C , 69-C ) :   1.2574
B( 68-C , 71-F ) :   1.0843 B( 69-C , 70-C ) :   1.4576 B( 69-C , 98-H ) :   0.9927
B( 70-C , 99-H ) :   0.9972 B( 72-C , 73-C ) :   1.4643 B( 72-C ,100-H ) :   0.9952
B( 73-C , 74-C ) :   0.9967 B( 74-C , 75-C ) :   1.6144 B( 75-C , 76-C ) :   1.1462
B( 75-C , 78-C ) :   1.1771 B( 76-C , 77-N ) :   2.9885 B( 78-C , 79-N ) :   2.9896

-----------------------------------------------------------------------------
         ABSORPTION SPECTRUM VIA TRANSITION ELECTRIC DIPOLE MOMENTS
-----------------------------------------------------------------------------
State   Energy  Wavelength   fosc         T2         TX        TY        TZ
        (cm-1)    (nm)                  (au**2)     (au)      (au)      (au)
-----------------------------------------------------------------------------
   0    6971.5   1434.4   0.772753262  36.49144  -3.13571   3.04836   4.16729
   1   11183.0    894.2   0.243682836   7.17370  -1.49848   2.04683   0.85952
   2   14132.6    707.6   0.384814721   8.96409   0.85052  -1.92897   2.12598
   3   17290.0    578.4   0.675324623  12.85861  -0.30711   1.30626  -3.32535
   4   18420.6    542.9   0.068123722   1.21750  -0.00319  -0.29895   1.06213
   5   19021.1    525.7   0.092480687   1.60063  -0.75687   0.63866   0.78733
   6   20831.2    480.0   0.180244903   2.84855  -1.04157   1.30315  -0.25587
   7   21034.5    475.4   0.125950735   1.97126  -0.09098  -0.27017   1.37477
   8   21804.4    458.6   0.016705900   0.25223  -0.37594  -0.23551  -0.23545
   9   22983.5    435.1   0.138200646   1.97957  -0.57561   0.26206   1.25680
  10   23966.1    417.3   0.094342661   1.29595  -0.53295   0.66257  -0.75691
  11   24303.8    411.5   0.010794264   0.14622  -0.12628   0.09461   0.34831
  12   24640.5    405.8   0.133247940   1.78027  -0.60402   1.06184  -0.53660
  13   25060.9    399.0   0.029451144   0.38688   0.51638  -0.33093  -0.10352
  14   25299.9    395.3   0.067580596   0.87938  -0.46602   0.48411   0.65410
  15   25966.0    385.1   0.303858280   3.85250  -1.22703   1.22659   0.91781
  16   26346.9    379.6   0.178013985   2.22434  -0.71954   1.29558  -0.16755
  17   26828.0    372.7   0.022661197   0.27808  -0.16166   0.26942  -0.42351
  18   26854.4    372.4   0.008002827   0.09811  -0.16866   0.25320  -0.07448
  19   27555.4    362.9   0.024977599   0.29841   0.18925   0.09873   0.50284
  20   27738.9    360.5   0.242624714   2.87952  -1.29211   0.94530   0.56248
  21   28113.9    355.7   0.028213901   0.33038  -0.29151   0.38429   0.31262
  22   28633.5    349.2   0.034014363   0.39108   0.18837   0.04133  -0.59488
  23   28929.6    345.7   0.028577991   0.32521   0.39858   0.21948  -0.34377
  24   29707.1    336.6   0.162857396   1.80478   0.11217   0.80485  -1.06977
  25   30327.5    329.7   0.191837901   2.08244  -0.02745  -0.58803   1.31754
  26   30372.5    329.2   0.014814209   0.16057   0.33323   0.14956  -0.16482
  27   30509.4    327.8   0.040816032   0.44043  -0.46219   0.41293  -0.23727
  28   30992.0    322.7   0.014875098   0.15801  -0.05924  -0.12482   0.37272
  29   31041.6    322.1   0.242428934   2.57108  -0.21726  -0.94686   1.27567
  30   31293.2    319.6   0.144494737   1.52012  -0.25281   0.98247   0.70069
  31   31577.8    316.7   0.002173688   0.02266   0.09551  -0.10487  -0.05042
  32   31606.1    316.4   0.005062922   0.05274  -0.16576  -0.13769  -0.07937
  33   31951.6    313.0   0.259884648   2.67771   0.38226  -1.34342   0.85253
  34   32077.2    311.7   0.482970895   4.95678  -0.32580   1.55999  -1.55469
  35   32235.8    310.2   0.117903405   1.20410   0.14231  -0.93976  -0.54837
  36   32403.2    308.6   0.029623333   0.30097   0.25613  -0.10514   0.47361
  37   32612.3    306.6   0.100322614   1.01273   0.62833  -0.75407   0.22207
  38   33079.3    302.3   0.014512592   0.14443   0.21473  -0.31262  -0.02439
  39   33336.3    300.0   0.231440192   2.28558   0.12700  -1.50646   0.00537
  40   33427.4    299.2   0.141948294   1.39799  -0.20123   0.98264  -0.62602
  41   33649.4    297.2   0.127854524   1.25088   0.06126  -0.05040   1.11561
  42   33797.3    295.9   0.032045863   0.31215  -0.14759   0.20514  -0.49829
  43   33875.8    295.2   0.064087185   0.62281   0.24096  -0.22297   0.71766
  44   34537.0    289.5   0.073173743   0.69750   0.01668  -0.56972   0.61045
  45   34776.2    287.6   0.166122615   1.57262   0.07245   0.32895  -1.20796
  46   34886.3    286.6   0.082965656   0.78292   0.52395   0.25655  -0.66527
  47   34921.8    286.4   0.056799822   0.53546  -0.21604   0.66469   0.21672
  48   35183.0    284.2   0.130637146   1.22239   0.66174  -0.56931  -0.67851
  49   35298.2    283.3   0.054227105   0.50575   0.31111  -0.63579   0.06879
  50   35439.6    282.2   0.012424436   0.11542  -0.08602   0.29860   0.13730
  51   35617.7    280.8   0.022973363   0.21234   0.36331   0.13778  -0.24773
  52   36234.2    276.0   0.034637300   0.31470   0.47917  -0.22143   0.18992
  53   36330.9    275.2   0.605888235   5.49024  -0.16196   2.27841   0.52234
  54   36459.8    274.3   0.023660196   0.21364   0.11793   0.44651   0.01904
  55   36960.4    270.6   0.208603214   1.85806   0.19662  -0.45221   1.27079
  56   37175.9    269.0   0.205644015   1.82108   0.36240  -0.74404   1.06591
  57   37245.3    268.5   0.004286801   0.03789  -0.19228   0.02266   0.02014
  58   37572.0    266.2   0.022689629   0.19881   0.02126   0.32886   0.30035
  59   37689.1    265.3   0.079342632   0.69305  -0.02176  -0.31801   0.76906
  60   38479.5    259.9   0.081683961   0.69885   0.57674  -0.60002  -0.07874
  61   38618.5    258.9   0.011231760   0.09575   0.16752   0.00842  -0.26002
  62   38706.1    258.4   0.130058800   1.10621  -0.67428   0.79383   0.14625
  63   38837.0    257.5   0.139804795   1.18509  -0.14021  -0.43987   0.98587
  64   39190.0    255.2   0.013803673   0.11596   0.25706  -0.22332   0.00216
  65   39290.0    254.5   0.026692607   0.22366   0.26249  -0.27777   0.27857
  66   39450.7    253.5   0.017419869   0.14537   0.02419   0.12514   0.35934
  67   39975.3    250.2   0.001895020   0.01561  -0.04767   0.11004   0.03500
  68   40130.5    249.2   0.025965621   0.21301  -0.25090   0.24239  -0.30217
  69   40293.1    248.2   0.010688970   0.08733  -0.15278   0.17651   0.18121

FINAL SINGLE POINT ENERGY     -5932.295898579051

DIPOLE MOMENT
-------------
                                X             Y             Z
Electronic contribution:     24.02797     -21.25864     -35.59845
Nuclear contribution   :    -27.54399      21.64440      40.32032
                        -----------------------------------------
Total Dipole Moment    :     -3.51602       0.38577       4.72188
                        -----------------------------------------
Magnitude (a.u.)       :      5.89977
Magnitude (Debye)      :     14.99604

Rotational constants in cm-1:     0.000707     0.000256     0.000192
Rotational constants in MHz :    21.182348     7.672531     5.751289

                             ****ORCA TERMINATED NORMALLY****
TOTAL RUN TIME: 0 days 0 hours 12 minutes 48 seconds 322 msec
