                         Program Version 4.2.0 -  RELEASE  -
|  1> # ORCA input file
|  2> # SCF done       -183.197770266990          0.000615993442
|  3> ! CAM-B3LYP def2-SVP def2/J RIJCOSX Grid4 TightSCF
|  4> %maxcore 5000
|  5> %tddft
|  6>     Mode sTDDFT
|  7>     Ethresh 5.0
|  8>     maxcore 5000
|  9> end
| 10>
| 11> %pal
| 12>   nprocs 6
| 13>   end
| 14> * xyz 0 1
| 15>    C        6.28103         4.02771         7.58344
| 16>    N        5.58457         3.26203         8.36450
| 17>    C        4.47362         2.91840         7.64236
| 18>    C        4.50774         3.53781         6.30988
| 19>    C        3.31771         3.16434         5.53852
| 20>    O        3.01204         3.49325         4.40944
| 21>    C        2.58425         2.28969         6.47568
| 22>    C        3.33424         2.17283         7.75215
| 23>    N        2.66899         1.36556         8.62033
| 24>    C        1.59457         0.98731         7.98414
| 25>    C        1.47782         1.52729         6.63517
| 26>    C        5.68115         4.25809         6.26025
| 27>    C        6.24943         5.04449         5.22528
| 28>    C        5.63095         5.20169         4.02748
| 29>    C        6.13026         5.95020         2.93698
| 30>    S        7.66099         6.77288         2.99099
| 31>    C        7.49243         7.33493         1.35111
| 32>    C        6.27295         6.91894         0.81497
| 33>    C        5.51490         6.14121         1.70340
| 34>    C        4.15748         5.65586         1.30156
| 35>    C        3.23830         6.85031         1.09342
| 36>    S        4.04656         8.10288         0.02588
| 37>    O        4.34997         9.25412         0.82684
| 38>    O        3.26733         8.29490        -1.16355
| 39>    C        5.65849         7.34039        -0.45690
| 40>    C        8.56346         8.07259         0.79754
| 41>    C        8.83664         8.25882        -0.52328
| 42>    C        9.95480         9.02148        -0.93647
| 43>    N       10.76096         9.62677        -0.06818
| 44>    C       11.69493        10.25104        -0.80090
| 45>    C       11.48545        10.03300        -2.24201
| 46>    C       12.52257        10.72274        -3.02242
| 47>    O       12.66554        10.75010        -4.23105
| 48>    C       13.34064        11.36303        -1.98351
| 49>    C       12.80643        11.04880        -0.64222
| 50>    N       13.55583        11.63402         0.31962
| 51>    C       14.49959        12.28014        -0.32541
| 52>    C       14.42460        12.15392        -1.76467
| 53>    C       10.36585         9.24262        -2.34556
| 54>    C        9.71425         8.72914        -3.49871
| 55>    C       10.17081         8.97584        -4.75059
| 56>    C        9.57853         8.49372        -5.94194
| 57>    S        8.12928         7.53417        -5.94157
| 58>    C        8.12465         7.41275        -7.68124
| 59>    C        9.23170         8.07189        -8.21508
| 60>    C       10.03568         8.68482        -7.24047
| 61>    C       11.28397         9.40635        -7.64189
| 62>    C       12.26123         8.41495        -8.25306
| 63>    S       11.43196         7.43453        -9.56082
| 64>    O       11.37197         6.06563        -9.13402
| 65>    O       12.04401         7.71785       -10.82868
| 66>    C        9.69916         8.06846        -9.61362
| 67>    C        7.03377         6.73333        -8.26841
| 68>    C        6.62101         6.76057        -9.56554
| 69>    C        5.47262         6.03577        -9.96786
| 70>    N        4.76282         5.31511        -9.10040
| 71>    C        3.75238         4.78576        -9.80289
| 72>    C        3.81427         5.18655       -11.22465
| 73>    C        2.68898         4.59409       -11.96997
| 74>    O        2.41774         4.70192       -13.14694
| 75>    C        1.97110         3.84009       -10.92803
| 76>    C        2.65133         3.98255        -9.62557
| 77>    N        1.99224         3.29291        -8.66315
| 78>    C        0.96900         2.74537        -9.27567
| 79>    C        0.89501         3.04524       -10.68904
| 80>    C        4.91480         5.98887       -11.34268
| 81>    C        5.46734         6.65830       -12.48924
| 82>    C        4.93656         6.58719       -13.70969
| 83>    H        7.21856         4.44237         7.91294
| 84>    H        0.88360         0.33155         8.45611
| 85>    H        0.67124         1.33264         5.95626
| 86>    H        7.20364         5.51697         5.41877
| 87>    H        4.67637         4.71475         3.87792
| 88>    H        3.72973         4.99112         2.05300
| 89>    H        4.23893         5.09269         0.36755
| 90>    H        3.02971         7.36275         2.02828
| 91>    H        2.31384         6.57651         0.59498
| 92>    H        6.19940         8.12542        -0.97279
| 93>    H        5.42026         6.52211        -1.13188
| 94>    H        9.27462         8.49310         1.49772
| 95>    H        8.23528         7.79842        -1.29131
| 96>    H       15.24125        12.84015         0.21704
| 97>    H       15.09815        12.60347        -2.46719
| 98>    H        8.82951         8.12111        -3.36364
| 99>    H       11.05835         9.58302        -4.86576
|100>    H       11.74992         9.90417        -6.79065
|101>    H       11.03556        10.17347        -8.38100
|102>    H       12.60687         7.68964        -7.52204
|103>    H       13.10345         8.90646        -8.72987
|104>    H        9.16957         7.37466       -10.25607
|105>    H        9.75145         9.05576       -10.06654
|106>    H        6.41507         6.15578        -7.59222
|107>    H        7.12319         7.35778       -10.30967
|108>    H        0.27306         2.13430        -8.72750
|109>    H        0.13839         2.69565       -11.36327
|110>    H        6.36411         7.24113       -12.32300
|111>    H        4.04552         6.01448       -13.90542
|112>    H        5.38214         7.10129       -14.54403
|113> *
|114>
|115>                          ****END OF INPUT****

CARTESIAN COORDINATES (ANGSTROEM)
---------------------------------
  C      6.281030    4.027710    7.583440
  N      5.584570    3.262030    8.364500
  C      4.473620    2.918400    7.642360
  C      4.507740    3.537810    6.309880
  C      3.317710    3.164340    5.538520
  O      3.012040    3.493250    4.409440
  C      2.584250    2.289690    6.475680
  C      3.334240    2.172830    7.752150
  N      2.668990    1.365560    8.620330
  C      1.594570    0.987310    7.984140
  C      1.477820    1.527290    6.635170
  C      5.681150    4.258090    6.260250
  C      6.249430    5.044490    5.225280
  C      5.630950    5.201690    4.027480
  C      6.130260    5.950200    2.936980
  S      7.660990    6.772880    2.990990
  C      7.492430    7.334930    1.351110
  C      6.272950    6.918940    0.814970
  C      5.514900    6.141210    1.703400
  C      4.157480    5.655860    1.301560
  C      3.238300    6.850310    1.093420
  S      4.046560    8.102880    0.025880
  O      4.349970    9.254120    0.826840
  O      3.267330    8.294900   -1.163550
  C      5.658490    7.340390   -0.456900
  C      8.563460    8.072590    0.797540
  C      8.836640    8.258820   -0.523280
  C      9.954800    9.021480   -0.936470
  N     10.760960    9.626770   -0.068180
  C     11.694930   10.251040   -0.800900
  C     11.485450   10.033000   -2.242010
  C     12.522570   10.722740   -3.022420
  O     12.665540   10.750100   -4.231050
  C     13.340640   11.363030   -1.983510
  C     12.806430   11.048800   -0.642220
  N     13.555830   11.634020    0.319620
  C     14.499590   12.280140   -0.325410
  C     14.424600   12.153920   -1.764670
  C     10.365850    9.242620   -2.345560
  C      9.714250    8.729140   -3.498710
  C     10.170810    8.975840   -4.750590
  C      9.578530    8.493720   -5.941940
  S      8.129280    7.534170   -5.941570
  C      8.124650    7.412750   -7.681240
  C      9.231700    8.071890   -8.215080
  C     10.035680    8.684820   -7.240470
  C     11.283970    9.406350   -7.641890
  C     12.261230    8.414950   -8.253060
  S     11.431960    7.434530   -9.560820
  O     11.371970    6.065630   -9.134020
  O     12.044010    7.717850  -10.828680
  C      9.699160    8.068460   -9.613620
  C      7.033770    6.733330   -8.268410
  C      6.621010    6.760570   -9.565540
  C      5.472620    6.035770   -9.967860
  N      4.762820    5.315110   -9.100400
  C      3.752380    4.785760   -9.802890
  C      3.814270    5.186550  -11.224650
  C      2.688980    4.594090  -11.969970
  O      2.417740    4.701920  -13.146940
  C      1.971100    3.840090  -10.928030
  C      2.651330    3.982550   -9.625570
  N      1.992240    3.292910   -8.663150
  C      0.969000    2.745370   -9.275670
  C      0.895010    3.045240  -10.689040
  C      4.914800    5.988870  -11.342680
  C      5.467340    6.658300  -12.489240
  C      4.936560    6.587190  -13.709690
  H      7.218560    4.442370    7.912940
  H      0.883600    0.331550    8.456110
  H      0.671240    1.332640    5.956260
  H      7.203640    5.516970    5.418770
  H      4.676370    4.714750    3.877920
  H      3.729730    4.991120    2.053000
  H      4.238930    5.092690    0.367550
  H      3.029710    7.362750    2.028280
  H      2.313840    6.576510    0.594980
  H      6.199400    8.125420   -0.972790
  H      5.420260    6.522110   -1.131880
  H      9.274620    8.493100    1.497720
  H      8.235280    7.798420   -1.291310
  H     15.241250   12.840150    0.217040
  H     15.098150   12.603470   -2.467190
  H      8.829510    8.121110   -3.363640
  H     11.058350    9.583020   -4.865760
  H     11.749920    9.904170   -6.790650
  H     11.035560   10.173470   -8.381000
  H     12.606870    7.689640   -7.522040
  H     13.103450    8.906460   -8.729870
  H      9.169570    7.374660  -10.256070
  H      9.751450    9.055760  -10.066540
  H      6.415070    6.155780   -7.592220
  H      7.123190    7.357780  -10.309670
  H      0.273060    2.134300   -8.727500
  H      0.138390    2.695650  -11.363270
  H      6.364110    7.241130  -12.323000
  H      4.045520    6.014480  -13.905420
  H      5.382140    7.101290  -14.544030

 Total Charge           Charge          ....    0
 Multiplicity           Mult            ....    1
 Number of Electrons    NEL             ....  498
 Basis Dimension        Dim             .... 1118

ORBITAL ENERGIES
----------------

  NO   OCC          E(Eh)            E(eV)
   0   2.0000     -89.139530     -2425.6099
   1   2.0000     -89.134837     -2425.4822
   2   2.0000     -88.982004     -2421.3234
   3   2.0000     -88.975629     -2421.1500
   4   2.0000     -19.231660      -523.3201
   5   2.0000     -19.219726      -522.9953
   6   2.0000     -19.203840      -522.5631
   7   2.0000     -19.193166      -522.2726
   8   2.0000     -19.193091      -522.2706
   9   2.0000     -19.188456      -522.1444
  10   2.0000     -19.188352      -522.1416
  11   2.0000     -14.428321      -392.6146
  12   2.0000     -14.422253      -392.4495
  13   2.0000     -14.412570      -392.1860
  14   2.0000     -14.406001      -392.0072
  15   2.0000     -14.401108      -391.8741
  16   2.0000     -14.396010      -391.7354
  17   2.0000     -10.390074      -282.7283
  18   2.0000     -10.378889      -282.4239
  19   2.0000     -10.363900      -282.0160
  20   2.0000     -10.349025      -281.6113
  21   2.0000     -10.347699      -281.5752
  22   2.0000     -10.346709      -281.5483
  23   2.0000     -10.342041      -281.4212
  24   2.0000     -10.341370      -281.4030
  25   2.0000     -10.337576      -281.2997
  26   2.0000     -10.336402      -281.2678
  27   2.0000     -10.333959      -281.2013
  28   2.0000     -10.332232      -281.1543
  29   2.0000     -10.327536      -281.0266
  30   2.0000     -10.325356      -280.9672
  31   2.0000     -10.324729      -280.9502
  32   2.0000     -10.323796      -280.9248
  33   2.0000     -10.323668      -280.9213
  34   2.0000     -10.323084      -280.9054
  35   2.0000     -10.322806      -280.8978
  36   2.0000     -10.319134      -280.7979
  37   2.0000     -10.318076      -280.7691
  38   2.0000     -10.317914      -280.7647
  39   2.0000     -10.314814      -280.6804
  40   2.0000     -10.314454      -280.6706
  41   2.0000     -10.314133      -280.6618
  42   2.0000     -10.312788      -280.6252
  43   2.0000     -10.312092      -280.6063
  44   2.0000     -10.311837      -280.5994
  45   2.0000     -10.311749      -280.5970
  46   2.0000     -10.311552      -280.5916
  47   2.0000     -10.309841      -280.5450
  48   2.0000     -10.308461      -280.5075
  49   2.0000     -10.308210      -280.5007
  50   2.0000     -10.306602      -280.4569
  51   2.0000     -10.305814      -280.4355
  52   2.0000     -10.305614      -280.4300
  53   2.0000     -10.305240      -280.4198
  54   2.0000     -10.304515      -280.4001
  55   2.0000     -10.301212      -280.3102
  56   2.0000     -10.301039      -280.3055
  57   2.0000     -10.299880      -280.2740
  58   2.0000     -10.298248      -280.2296
  59   2.0000     -10.295662      -280.1592
  60   2.0000     -10.294646      -280.1316
  61   2.0000     -10.290986      -280.0320
  62   2.0000     -10.289705      -279.9971
  63   2.0000     -10.282789      -279.8089
  64   2.0000     -10.279610      -279.7224
  65   2.0000     -10.279603      -279.7222
  66   2.0000     -10.278505      -279.6923
  67   2.0000     -10.267652      -279.3970
  68   2.0000      -8.206216      -223.3025
  69   2.0000      -8.201560      -223.1758
  70   2.0000      -8.077708      -219.8056
  71   2.0000      -8.071174      -219.6278
  72   2.0000      -6.174942      -168.0287
  73   2.0000      -6.174858      -168.0264
  74   2.0000      -6.174224      -168.0092
  75   2.0000      -6.170301      -167.9024
  76   2.0000      -6.170162      -167.8987
  77   2.0000      -6.169592      -167.8831
  78   2.0000      -6.046828      -164.5426
  79   2.0000      -6.042840      -164.4340
  80   2.0000      -6.040306      -164.3651
  81   2.0000      -6.039917      -164.3545
  82   2.0000      -6.036334      -164.2570
  83   2.0000      -6.033417      -164.1776
  84   2.0000      -1.201273       -32.6883
  85   2.0000      -1.196284       -32.5526
  86   2.0000      -1.144513       -31.1438
  87   2.0000      -1.132472       -30.8161
  88   2.0000      -1.118079       -30.4245
  89   2.0000      -1.092572       -29.7304
  90   2.0000      -1.081396       -29.4263
  91   2.0000      -1.080413       -29.3995
  92   2.0000      -1.075373       -29.2624
  93   2.0000      -1.074811       -29.2471
  94   2.0000      -1.069927       -29.1142
  95   2.0000      -1.060338       -28.8533
  96   2.0000      -1.049663       -28.5628
  97   2.0000      -1.022643       -27.8275
  98   2.0000      -1.016145       -27.6507
  99   2.0000      -0.951412       -25.8892
 100   2.0000      -0.948496       -25.8099
 101   2.0000      -0.944819       -25.7098
 102   2.0000      -0.940449       -25.5909
 103   2.0000      -0.939999       -25.5787
 104   2.0000      -0.935491       -25.4560
 105   2.0000      -0.926973       -25.2242
 106   2.0000      -0.915080       -24.9006
 107   2.0000      -0.908401       -24.7188
 108   2.0000      -0.900770       -24.5112
 109   2.0000      -0.893065       -24.3015
 110   2.0000      -0.885767       -24.1029
 111   2.0000      -0.876536       -23.8518
 112   2.0000      -0.868608       -23.6360
 113   2.0000      -0.860929       -23.4271
 114   2.0000      -0.857583       -23.3360
 115   2.0000      -0.848195       -23.0806
 116   2.0000      -0.843833       -22.9619
 117   2.0000      -0.837940       -22.8015
 118   2.0000      -0.824280       -22.4298
 119   2.0000      -0.817091       -22.2342
 120   2.0000      -0.808519       -22.0009
 121   2.0000      -0.795203       -21.6386
 122   2.0000      -0.782364       -21.2892
 123   2.0000      -0.777846       -21.1663
 124   2.0000      -0.768445       -20.9104
 125   2.0000      -0.761977       -20.7344
 126   2.0000      -0.757966       -20.6253
 127   2.0000      -0.753764       -20.5110
 128   2.0000      -0.746881       -20.3237
 129   2.0000      -0.738004       -20.0821
 130   2.0000      -0.728162       -19.8143
 131   2.0000      -0.718881       -19.5617
 132   2.0000      -0.713535       -19.4163
 133   2.0000      -0.709852       -19.3161
 134   2.0000      -0.689971       -18.7751
 135   2.0000      -0.687935       -18.7197
 136   2.0000      -0.679875       -18.5004
 137   2.0000      -0.672451       -18.2983
 138   2.0000      -0.664330       -18.0773
 139   2.0000      -0.661318       -17.9954
 140   2.0000      -0.658923       -17.9302
 141   2.0000      -0.653140       -17.7728
 142   2.0000      -0.650926       -17.7126
 143   2.0000      -0.643083       -17.4992
 144   2.0000      -0.638868       -17.3845
 145   2.0000      -0.633834       -17.2475
 146   2.0000      -0.628127       -17.0922
 147   2.0000      -0.623833       -16.9753
 148   2.0000      -0.615451       -16.7473
 149   2.0000      -0.612170       -16.6580
 150   2.0000      -0.606095       -16.4927
 151   2.0000      -0.603286       -16.4162
 152   2.0000      -0.599657       -16.3175
 153   2.0000      -0.598597       -16.2887
 154   2.0000      -0.594270       -16.1709
 155   2.0000      -0.592872       -16.1329
 156   2.0000      -0.588436       -16.0122
 157   2.0000      -0.584492       -15.9048
 158   2.0000      -0.576490       -15.6871
 159   2.0000      -0.574509       -15.6332
 160   2.0000      -0.571803       -15.5596
 161   2.0000      -0.565231       -15.3807
 162   2.0000      -0.561456       -15.2780
 163   2.0000      -0.559238       -15.2176
 164   2.0000      -0.559044       -15.2124
 165   2.0000      -0.556379       -15.1398
 166   2.0000      -0.554299       -15.0832
 167   2.0000      -0.550152       -14.9704
 168   2.0000      -0.546720       -14.8770
 169   2.0000      -0.543179       -14.7806
 170   2.0000      -0.541411       -14.7325
 171   2.0000      -0.538109       -14.6427
 172   2.0000      -0.536298       -14.5934
 173   2.0000      -0.535138       -14.5618
 174   2.0000      -0.533501       -14.5173
 175   2.0000      -0.530659       -14.4400
 176   2.0000      -0.526264       -14.3204
 177   2.0000      -0.525069       -14.2879
 178   2.0000      -0.519851       -14.1459
 179   2.0000      -0.519323       -14.1315
 180   2.0000      -0.517049       -14.0696
 181   2.0000      -0.515915       -14.0388
 182   2.0000      -0.514482       -13.9998
 183   2.0000      -0.511795       -13.9266
 184   2.0000      -0.510260       -13.8849
 185   2.0000      -0.506924       -13.7941
 186   2.0000      -0.503700       -13.7064
 187   2.0000      -0.500618       -13.6225
 188   2.0000      -0.498930       -13.5766
 189   2.0000      -0.497911       -13.5488
 190   2.0000      -0.495144       -13.4735
 191   2.0000      -0.491024       -13.3614
 192   2.0000      -0.490784       -13.3549
 193   2.0000      -0.488867       -13.3027
 194   2.0000      -0.488261       -13.2862
 195   2.0000      -0.485626       -13.2146
 196   2.0000      -0.483893       -13.1674
 197   2.0000      -0.481136       -13.0924
 198   2.0000      -0.477961       -13.0060
 199   2.0000      -0.476824       -12.9750
 200   2.0000      -0.475828       -12.9479
 201   2.0000      -0.473387       -12.8815
 202   2.0000      -0.471687       -12.8353
 203   2.0000      -0.465706       -12.6725
 204   2.0000      -0.465185       -12.6583
 205   2.0000      -0.465101       -12.6560
 206   2.0000      -0.463833       -12.6215
 207   2.0000      -0.458149       -12.4669
 208   2.0000      -0.456737       -12.4284
 209   2.0000      -0.455913       -12.4060
 210   2.0000      -0.448874       -12.2145
 211   2.0000      -0.437504       -11.9051
 212   2.0000      -0.436202       -11.8697
 213   2.0000      -0.432225       -11.7614
 214   2.0000      -0.430643       -11.7184
 215   2.0000      -0.428740       -11.6666
 216   2.0000      -0.403016       -10.9666
 217   2.0000      -0.400486       -10.8978
 218   2.0000      -0.396702       -10.7948
 219   2.0000      -0.395282       -10.7562
 220   2.0000      -0.391053       -10.6411
 221   2.0000      -0.389511       -10.5991
 222   2.0000      -0.384592       -10.4653
 223   2.0000      -0.372204       -10.1282
 224   2.0000      -0.371457       -10.1079
 225   2.0000      -0.369549       -10.0559
 226   2.0000      -0.365946        -9.9579
 227   2.0000      -0.365899        -9.9566
 228   2.0000      -0.365245        -9.9388
 229   2.0000      -0.360962        -9.8223
 230   2.0000      -0.358592        -9.7578
 231   2.0000      -0.355600        -9.6764
 232   2.0000      -0.353862        -9.6291
 233   2.0000      -0.353637        -9.6230
 234   2.0000      -0.349190        -9.5020
 235   2.0000      -0.349061        -9.4984
 236   2.0000      -0.348000        -9.4696
 237   2.0000      -0.345123        -9.3913
 238   2.0000      -0.336187        -9.1481
 239   2.0000      -0.335653        -9.1336
 240   2.0000      -0.333320        -9.0701
 241   2.0000      -0.328151        -8.9294
 242   2.0000      -0.325433        -8.8555
 243   2.0000      -0.321714        -8.7543
 244   2.0000      -0.315488        -8.5849
 245   2.0000      -0.306313        -8.3352
 246   2.0000      -0.293639        -7.9903
 247   2.0000      -0.271704        -7.3935
 248   2.0000      -0.261450        -7.1144
 249   0.0000      -0.131295        -3.5727
 250   0.0000      -0.119124        -3.2415
 251   0.0000      -0.110575        -3.0089
 252   0.0000      -0.075751        -2.0613
 253   0.0000      -0.063511        -1.7282

MULLIKEN ATOMIC CHARGES
-----------------------
   0 C :    0.067006
   1 N :   -0.025076
   2 C :    0.054964
   3 C :   -0.139393
   4 C :    0.224293
   5 O :   -0.154793
   6 C :   -0.007416
   7 C :   -0.013098
   8 N :   -0.044297
   9 C :    0.091421
  10 C :   -0.095834
  11 C :    0.007681
  12 C :   -0.029152
  13 C :    0.020237
  14 C :   -0.081077
  15 S :    0.160272
  16 C :   -0.115173
  17 C :   -0.036315
  18 C :   -0.105763
  19 C :    0.091992
  20 C :    0.033706
  21 S :    0.631818
  22 O :   -0.453419
  23 O :   -0.452387
  24 C :    0.106347
  25 C :    0.103112
  26 C :   -0.065565
  27 C :    0.033458
  28 N :   -0.040652
  29 C :    0.071722
  30 C :   -0.174119
  31 C :    0.226406
  32 O :   -0.166526
  33 C :   -0.006876
  34 C :   -0.043956
  35 N :   -0.051059
  36 C :    0.087183
  37 C :   -0.099010
  38 C :    0.061437
  39 C :   -0.050129
  40 C :    0.023135
  41 C :   -0.083048
  42 S :    0.145028
  43 C :   -0.113293
  44 C :   -0.032695
  45 C :   -0.105052
  46 C :    0.091608
  47 C :    0.032782
  48 S :    0.630923
  49 O :   -0.453949
  50 O :   -0.457172
  51 C :    0.103749
  52 C :    0.106913
  53 C :   -0.063412
  54 C :    0.031455
  55 N :   -0.050053
  56 C :    0.060292
  57 C :   -0.163420
  58 C :    0.219272
  59 O :   -0.141831
  60 C :   -0.019907
  61 C :   -0.033430
  62 N :   -0.055587
  63 C :    0.084975
  64 C :   -0.098544
  65 C :    0.038548
  66 C :   -0.051574
  67 C :    0.017963
  68 H :    0.011767
  69 H :    0.018495
  70 H :    0.002194
  71 H :   -0.013343
  72 H :    0.003399
  73 H :    0.048739
  74 H :    0.029716
  75 H :    0.062967
  76 H :    0.063481
  77 H :    0.065865
  78 H :    0.053604
  79 H :    0.030143
  80 H :   -0.011777
  81 H :    0.008276
  82 H :   -0.007437
  83 H :   -0.022894
  84 H :    0.002379
  85 H :    0.048742
  86 H :    0.028982
  87 H :    0.062094
  88 H :    0.062767
  89 H :    0.067811
  90 H :    0.052209
  91 H :    0.025737
  92 H :   -0.015574
  93 H :    0.003687
  94 H :   -0.009659
  95 H :   -0.027406
  96 H :    0.045902
  97 H :    0.023495
Sum of atomic charges:   -0.0000000

LOEWDIN ATOMIC CHARGES
----------------------
   0 C :    0.091514
   1 N :   -0.076092
   2 C :    0.050120
   3 C :   -0.062488
   4 C :    0.074887
   5 O :   -0.150452
   6 C :   -0.036648
   7 C :    0.034248
   8 N :   -0.086704
   9 C :    0.082552
  10 C :   -0.023961
  11 C :   -0.034166
  12 C :   -0.033287
  13 C :   -0.002194
  14 C :   -0.159056
  15 S :    0.465728
  16 C :   -0.163545
  17 C :   -0.068295
  18 C :   -0.053314
  19 C :   -0.032158
  20 C :   -0.127632
  21 S :    1.156825
  22 O :   -0.511918
  23 O :   -0.513172
  24 C :   -0.131731
  25 C :    0.044475
  26 C :   -0.057854
  27 C :    0.071546
  28 N :   -0.108763
  29 C :    0.049019
  30 C :   -0.050173
  31 C :    0.073407
  32 O :   -0.160481
  33 C :   -0.044526
  34 C :    0.015103
  35 N :   -0.095010
  36 C :    0.068441
  37 C :   -0.036523
  38 C :   -0.024141
  39 C :   -0.037891
  40 C :   -0.003486
  41 C :   -0.159841
  42 S :    0.459357
  43 C :   -0.162239
  44 C :   -0.069232
  45 C :   -0.054973
  46 C :   -0.032619
  47 C :   -0.127496
  48 S :    1.157096
  49 O :   -0.512965
  50 O :   -0.517428
  51 C :   -0.130728
  52 C :    0.038356
  53 C :   -0.055412
  54 C :    0.071463
  55 N :   -0.113995
  56 C :    0.046690
  57 C :   -0.042404
  58 C :    0.068408
  59 O :   -0.142126
  60 C :   -0.042174
  61 C :    0.014038
  62 N :   -0.100454
  63 C :    0.065830
  64 C :   -0.041665
  65 C :   -0.022540
  66 C :   -0.048670
  67 C :    0.009597
  68 H :    0.027768
  69 H :    0.027069
  70 H :    0.037054
  71 H :    0.025702
  72 H :    0.036444
  73 H :    0.048487
  74 H :    0.040088
  75 H :    0.042431
  76 H :    0.041110
  77 H :    0.043854
  78 H :    0.040634
  79 H :    0.046610
  80 H :    0.027236
  81 H :    0.023089
  82 H :    0.033467
  83 H :    0.018951
  84 H :    0.035871
  85 H :    0.048771
  86 H :    0.039035
  87 H :    0.042000
  88 H :    0.040719
  89 H :    0.043971
  90 H :    0.040304
  91 H :    0.044321
  92 H :    0.025993
  93 H :    0.021044
  94 H :    0.032490
  95 H :    0.023774
  96 H :    0.028665
  97 H :    0.026971

  Mayer bond orders larger than 0.100000
B(  0-C ,  1-N ) :   1.7316 B(  0-C , 11-C ) :   1.0170 B(  0-C , 68-H ) :   0.9921
B(  1-N ,  2-C ) :   1.2663 B(  2-C ,  3-C ) :   1.0556 B(  2-C ,  7-C ) :   1.5013
B(  3-C ,  4-C ) :   0.9197 B(  3-C , 11-C ) :   1.5436 B(  4-C ,  5-O ) :   2.1607
B(  4-C ,  6-C ) :   0.9284 B(  5-O , 72-H ) :   0.1005 B(  6-C ,  7-C ) :   1.0535
B(  6-C , 10-C ) :   1.6344 B(  7-C ,  8-N ) :   1.2853 B(  8-N ,  9-C ) :   1.6894
B(  9-C , 10-C ) :   1.0431 B(  9-C , 69-H ) :   0.9886 B( 10-C , 70-H ) :   1.0116
B( 11-C , 12-C ) :   1.1240 B( 12-C , 13-C ) :   1.6330 B( 12-C , 71-H ) :   0.9770
B( 13-C , 14-C ) :   1.1687 B( 13-C , 72-H ) :   0.9449 B( 14-C , 15-S ) :   1.1224
B( 14-C , 18-C ) :   1.4747 B( 15-S , 16-C ) :   1.1287 B( 16-C , 17-C ) :   1.4759
B( 16-C , 25-C ) :   1.1193 B( 17-C , 18-C ) :   1.3244 B( 17-C , 24-C ) :   1.0400
B( 18-C , 19-C ) :   1.0767 B( 19-C , 20-C ) :   1.1048 B( 19-C , 73-H ) :   0.9106
B( 19-C , 74-H ) :   0.8980 B( 20-C , 21-S ) :   0.8218 B( 20-C , 75-H ) :   0.9261
B( 20-C , 76-H ) :   0.9274 B( 21-S , 22-O ) :   1.7062 B( 21-S , 23-O ) :   1.7360
B( 21-S , 24-C ) :   0.8335 B( 24-C , 77-H ) :   0.9053 B( 24-C , 78-H ) :   0.8990
B( 25-C , 26-C ) :   1.6196 B( 25-C , 79-H ) :   0.9533 B( 26-C , 27-C ) :   1.1886
B( 26-C , 80-H ) :   0.9528 B( 27-C , 28-N ) :   1.5694 B( 27-C , 29-C ) :   0.1079
B( 27-C , 38-C ) :   0.9903 B( 28-N , 29-C ) :   1.3812 B( 29-C , 30-C ) :   1.0526
B( 29-C , 34-C ) :   1.3916 B( 30-C , 31-C ) :   0.9071 B( 30-C , 38-C ) :   1.5444
B( 31-C , 32-O ) :   2.1399 B( 31-C , 33-C ) :   0.9426 B( 32-O , 84-H ) :   0.1091
B( 33-C , 34-C ) :   1.0795 B( 33-C , 37-C ) :   1.5810 B( 34-C , 35-N ) :   1.3303
B( 35-N , 36-C ) :   1.6393 B( 36-C , 37-C ) :   1.0839 B( 36-C , 81-H ) :   0.9894
B( 37-C , 82-H ) :   1.0119 B( 38-C , 39-C ) :   1.1330 B( 39-C , 40-C ) :   1.6484
B( 39-C , 83-H ) :   0.9664 B( 40-C , 41-C ) :   1.1519 B( 40-C , 84-H ) :   0.9462
B( 41-C , 42-S ) :   1.1200 B( 41-C , 45-C ) :   1.4824 B( 42-S , 43-C ) :   1.1283
B( 43-C , 44-C ) :   1.4778 B( 43-C , 52-C ) :   1.1228 B( 44-C , 45-C ) :   1.3228
B( 44-C , 51-C ) :   1.0381 B( 45-C , 46-C ) :   1.0711 B( 46-C , 47-C ) :   1.1059
B( 46-C , 85-H ) :   0.9104 B( 46-C , 86-H ) :   0.8997 B( 47-C , 48-S ) :   0.8225
B( 47-C , 87-H ) :   0.9264 B( 47-C , 88-H ) :   0.9279 B( 48-S , 49-O ) :   1.7096
B( 48-S , 50-O ) :   1.7298 B( 48-S , 51-C ) :   0.8347 B( 51-C , 89-H ) :   0.9034
B( 51-C , 90-H ) :   0.9005 B( 52-C , 53-C ) :   1.6279 B( 52-C , 91-H ) :   0.9480
B( 53-C , 54-C ) :   1.1815 B( 53-C , 92-H ) :   0.9536 B( 54-C , 55-N ) :   1.5598
B( 54-C , 56-C ) :   0.1077 B( 54-C , 65-C ) :   1.0094 B( 55-N , 56-C ) :   1.3838
B( 56-C , 57-C ) :   1.0475 B( 56-C , 61-C ) :   1.3981 B( 57-C , 58-C ) :   0.8885
B( 57-C , 65-C ) :   1.5900 B( 58-C , 59-O ) :   2.1991 B( 58-C , 60-C ) :   0.9313
B( 60-C , 61-C ) :   1.0749 B( 60-C , 64-C ) :   1.5891 B( 61-C , 62-N ) :   1.3228
B( 62-N , 63-C ) :   1.6450 B( 63-C , 64-C ) :   1.0850 B( 63-C , 93-H ) :   0.9893
B( 64-C , 94-H ) :   1.0103 B( 65-C , 66-C ) :   1.1037 B( 66-C , 67-C ) :   1.9292
B( 66-C , 95-H ) :   0.9570 B( 67-C , 96-H ) :   0.9300 B( 67-C , 97-H ) :   0.9439

-----------------------------------------------------------------------------
         ABSORPTION SPECTRUM VIA TRANSITION ELECTRIC DIPOLE MOMENTS
-----------------------------------------------------------------------------
State   Energy  Wavelength   fosc         T2         TX        TY        TZ
        (cm-1)    (nm)                  (au**2)     (au)      (au)      (au)
-----------------------------------------------------------------------------
   0   14860.1    672.9   0.325049176   7.20116  -1.22937  -0.73932  -2.26787
   1   15835.9    631.5   1.014123460  21.08259  -2.77737  -2.50344   2.66489
   2   18209.9    549.2   0.787324581  14.23383  -2.54617  -1.65411  -2.23937
   3   18670.8    535.6   0.801130451  14.12589  -3.07989  -2.14924   0.14473
   4   19973.1    500.7   0.224717972   3.70397  -1.50364  -1.04853  -0.58619
   5   21841.4    457.8   0.001186209   0.01788   0.12051   0.00371   0.05783
   6   22186.3    450.7   0.003489311   0.05178  -0.19462  -0.06907   0.09554
   7   22910.5    436.5   0.002693064   0.03870   0.08230  -0.01804  -0.17776
   8   22945.1    435.8   0.000513399   0.00737  -0.04495   0.07282   0.00651
   9   24077.1    415.3   0.402682672   5.50597   1.48771   1.23392  -1.33046
  10   24218.9    412.9   0.079164311   1.07609   0.14456   0.23386  -1.00025
  11   25203.6    396.8   0.003825457   0.04997   0.15717   0.12910   0.09273
  12   25378.7    394.0   0.050514160   0.65527  -0.21287  -0.11669  -0.77223
  13   25507.0    392.0   0.006563688   0.08472   0.18255   0.16663   0.15371
  14   25713.4    388.9   0.002991461   0.03830   0.14442   0.13167  -0.01018
  15   25993.2    384.7   0.042206101   0.53455  -0.43734  -0.57207   0.12658
  16   26592.5    376.0   0.008354645   0.10343   0.22209  -0.06780   0.22250
  17   26609.8    375.8   0.002656273   0.03286  -0.11566   0.06404  -0.12404
  18   27249.3    367.0   0.017015568   0.20557   0.02222   0.40307   0.20643
  19   27560.3    362.8   0.013693846   0.16357  -0.29126   0.02611  -0.27939
  20   27634.1    361.9   0.326442066   3.88899  -0.53944  -0.23319  -1.88245
  21   27859.9    358.9   0.003454161   0.04082   0.20103  -0.00977   0.01751
  22   28198.6    354.6   0.002497872   0.02916  -0.10131   0.13335   0.03343
  23   28412.9    352.0   0.075099962   0.87016   0.60297   0.28267  -0.65321
  24   28729.1    348.1   0.039979353   0.45813   0.29186  -0.05459   0.60825
  25   28949.8    345.4   0.042241179   0.48036   0.12012   0.46867  -0.49626
  26   29651.9    337.2   0.045765359   0.50811   0.52569   0.31276   0.36598
  27   29725.9    336.4   0.026673592   0.29541   0.18637  -0.05366  -0.50774
  28   30348.4    329.5   0.034228062   0.37130  -0.29124  -0.21836  -0.48867
  29   31195.1    320.6   0.041992694   0.44316  -0.57458  -0.33610  -0.00729
  30   31290.5    319.6   0.056703350   0.59659  -0.67675  -0.37066  -0.03485
  31   31507.0    317.4   0.000043077   0.00045   0.00770   0.01961  -0.00251
  32   31556.6    316.9   0.145668143   1.51967   0.90974   0.65953  -0.50702
  33   31681.0    315.6   0.000711556   0.00739  -0.07336  -0.04241   0.01461
  34   32102.3    311.5   0.038387313   0.39366  -0.09779   0.08164   0.61436
  35   32523.2    307.5   0.068478980   0.69317   0.36630   0.01381   0.74753
  36   32586.9    306.9   0.188061937   1.89991   0.81432   0.87596  -0.68519
  37   32875.7    304.2   0.025096915   0.25132  -0.40003  -0.21152   0.21576
  38   33237.2    300.9   0.002722287   0.02696  -0.01608  -0.08374  -0.14033
  39   33552.6    298.0   0.018924041   0.18568   0.27749   0.32546  -0.05251
  40   33867.7    295.3   0.029399455   0.28578  -0.44281  -0.17656  -0.24193
  41   34408.5    290.6   0.028925687   0.27675  -0.19798  -0.19898  -0.44493
  42   34626.0    288.8   0.002662370   0.02531   0.11986   0.06298  -0.08355
  43   34726.2    288.0   0.034350076   0.32565  -0.31033  -0.14404   0.45672
  44   35432.6    282.2   0.004402108   0.04090  -0.14250  -0.02135  -0.14191
  45   35725.8    279.9   0.005791253   0.05337  -0.21807   0.03489   0.06780
  46   36090.4    277.1   0.001911606   0.01744  -0.09249   0.06622   0.06707
  47   36112.0    276.9   0.019764569   0.18018   0.37865   0.19138   0.01346
  48   36614.7    273.1   0.107814694   0.96939  -0.58816  -0.59100   0.52362
  49   36726.0    272.3   0.008538180   0.07654  -0.18184  -0.02721   0.20671
  50   37105.5    269.5   0.074988472   0.66532   0.67699   0.37960  -0.25082
  51   37227.0    268.6   0.109647876   0.96966  -0.68152  -0.53893   0.46340
  52   37369.0    267.6   0.016965980   0.14947  -0.10826  -0.28437   0.23850
  53   37592.2    266.0   0.013090502   0.11464  -0.28365  -0.18355  -0.02220
  54   37732.2    265.0   0.024769534   0.21611  -0.35755  -0.28547   0.08233
  55   37999.6    263.2   0.001676181   0.01452   0.07739   0.08790   0.02840
  56   38033.2    262.9   0.049282883   0.42659  -0.44983  -0.41318   0.23135
  57   38055.7    262.8   0.006877537   0.05950   0.18964   0.15082  -0.02804
  58   38174.8    262.0   0.066304858   0.57180  -0.55866  -0.42726  -0.27777
  59   38401.7    260.4   0.035740635   0.30640  -0.16249  -0.30562   0.43196
  60   38682.7    258.5   0.002207469   0.01879   0.00896   0.01843  -0.13552
  61   38739.4    258.1   0.008814050   0.07490  -0.12113  -0.06597  -0.23638
  62   38858.1    257.3   0.071303091   0.60409   0.57686   0.46339  -0.23790
  63   38945.2    256.8   0.001962969   0.01659  -0.08767  -0.09436  -0.00162
  64   39139.7    255.5   0.000343456   0.00289   0.01863   0.03308  -0.03804
  65   39173.3    255.3   0.001286184   0.01081   0.05359   0.07960   0.04003
  66   39233.7    254.9   0.001182002   0.00992  -0.00027  -0.08246   0.05584
  67   39411.0    253.7   0.008493466   0.07095  -0.05636  -0.13297   0.22381
  68   39615.5    252.4   0.129439176   1.07566  -0.49212  -0.48456   0.77375
  69   40122.1    249.2   0.022879269   0.18773   0.38714   0.17171   0.09146
  70   40161.1    249.0   0.039257846   0.32181  -0.52933  -0.18642  -0.08284
  71   40193.8    248.8   0.005287523   0.04331   0.16904   0.09274  -0.07830
  72   40246.3    248.5   0.022122427   0.18096  -0.34346  -0.18579  -0.16876

FINAL SINGLE POINT ENERGY     -4404.927843004879

DIPOLE MOMENT
-------------
                                X             Y             Z
Electronic contribution:      0.32073      -4.45865      24.26500
Nuclear contribution   :     -0.42539       4.26849     -21.96314
                        -----------------------------------------
Total Dipole Moment    :     -0.10466      -0.19015       2.30186
                        -----------------------------------------
Magnitude (a.u.)       :      2.31207
Magnitude (Debye)      :      5.87681

Rotational constants in cm-1:     0.000865     0.000400     0.000288
Rotational constants in MHz :    25.941072    11.983847     8.622156

                             ****ORCA TERMINATED NORMALLY****
TOTAL RUN TIME: 0 days 0 hours 9 minutes 0 seconds 881 msec
