                         Program Version 4.2.0 -  RELEASE  -
|  1> # ORCA input file
|  2> # SCF done       -177.274643367889          0.000795134317
|  3> ! CAM-B3LYP def2-SVP def2/J RIJCOSX Grid4 TightSCF
|  4> %maxcore 5000
|  5> %tddft
|  6>     Mode sTDDFT
|  7>     Ethresh 5.0
|  8>     maxcore 5000
|  9> end
| 10>
| 11> %pal
| 12>   nprocs 6
| 13>   end
| 14> * xyz 0 1
| 15>    C       -1.04983         3.15539        -2.05824
| 16>    C       -1.81523         3.24360        -0.90302
| 17>    C       -1.60579         2.37730         0.16209
| 18>    C       -0.61287         1.42310         0.03969
| 19>    C        0.15877         1.33412        -1.12537
| 20>    C       -0.05171         2.19804        -2.18403
| 21>    C        1.14787         0.23524        -1.00399
| 22>    O        1.95804        -0.08577        -1.84813
| 23>    C        0.92550        -0.35153         0.33038
| 24>    C       -0.17622         0.38500         0.99872
| 25>    O       -0.61651         0.16816         2.10620
| 26>    C        1.52528        -1.37960         0.98978
| 27>    C        2.57386        -2.24276         0.60929
| 28>    C        3.32777        -2.32830        -0.55267
| 29>    C        4.27029        -3.34901        -0.49282
| 30>    C        4.23971        -4.05531         0.73154
| 31>    S        3.05604        -3.46363         1.79658
| 32>    C        5.22718        -5.06380         0.69504
| 33>    C        5.88905        -5.00697        -0.54276
| 34>    C        5.30707        -3.92647        -1.33127
| 35>    C        5.67239        -3.55607        -2.59143
| 36>    C        6.70713        -4.21856        -3.28629
| 37>    N        7.54850        -4.75816        -3.84876
| 38>    C        5.06271        -2.50092        -3.30544
| 39>    N        4.59763        -1.65529        -3.92299
| 40>    C        6.88644        -5.97146        -0.66974
| 41>    C        6.99520        -6.76382         0.46129
| 42>    S        5.83301        -6.30399         1.70267
| 43>    C        7.88723        -7.84855         0.69309
| 44>    C        7.90726        -8.53172         1.88661
| 45>    C        8.73731        -9.60780         2.18356
| 46>    C        9.78503       -10.02386         1.24048
| 47>    C        9.93941        -9.50097         0.00432
| 48>    S        8.94633        -8.26344        -0.64882
| 49>    C       10.53062       -11.02447         1.92219
| 50>    C        9.98999       -11.22797         3.19350
| 51>    C       10.68961       -12.21783         3.91796
| 52>    C       11.72172       -12.72610         3.19538
| 53>    S       11.88531       -12.03491         1.61558
| 54>    C        8.84527       -10.37324         3.36329
| 55>    C        8.02874       -10.37026         4.51959
| 56>    C        6.74856        -9.91398         4.58424
| 57>    C        5.95827        -9.85367         5.75533
| 58>    C        6.28135       -10.16667         7.06967
| 59>    C        5.22218        -9.93401         7.94031
| 60>    C        4.07479        -9.43787         7.29373
| 61>    S        4.30734        -9.26281         5.60990
| 62>    C        3.06749        -9.22419         8.25849
| 63>    C        3.57353        -9.58222         9.53061
| 64>    C        4.93969       -10.04631         9.36750
| 65>    C        5.79435       -10.50363        10.32665
| 66>    C        5.45832       -10.60228        11.69463
| 67>    N        5.22981       -10.70488        12.81283
| 68>    C        7.10135       -10.92997        10.00835
| 69>    N        8.16358       -11.27680         9.74928
| 70>    C        2.65231        -9.39129        10.55400
| 71>    C        1.44344        -8.89536        10.08593
| 72>    S        1.46458        -8.66687         8.32938
| 73>    C        0.24496        -8.55871        10.74654
| 74>    C       -0.08880        -8.57829        12.06652
| 75>    C       -1.45626        -8.16729        12.46740
| 76>    O       -2.34729        -7.81359        11.72626
| 77>    C       -1.49971        -8.27843        13.94223
| 78>    C       -2.53623        -8.01451        14.81808
| 79>    C       -2.30903        -8.20116        16.17550
| 80>    C       -1.07654        -8.63965        16.64089
| 81>    C       -0.03355        -8.90570        15.76323
| 82>    C       -0.25732        -8.72163        14.41149
| 83>    C        0.67507        -8.93153        13.27620
| 84>    O        1.82444        -9.31069        13.36479
| 85>    H       -1.23480         3.84249        -2.87065
| 86>    H       -2.58508         3.99781        -0.83285
| 87>    H       -2.19576         2.43830         1.06366
| 88>    H        0.54865         2.12067        -3.07744
| 89>    H        1.12068        -1.56298         1.98302
| 90>    H        3.17161        -1.66220        -1.38394
| 91>    H        7.51242        -6.10282        -1.53375
| 92>    H        7.24093        -8.16662         2.65532
| 93>    H       10.70682        -9.83629        -0.67540
| 94>    H       10.45041       -12.53752         4.91574
| 95>    H       12.41980       -13.48435         3.49183
| 96>    H        8.47046       -10.80970         5.40399
| 97>    H        6.25157        -9.59103         3.68134
| 98>    H        7.24505       -10.53893         7.36291
| 99>    H        2.82134        -9.58845        11.59878
|100>    H       -0.55759        -8.22174        10.09368
|101>    H       -3.49067        -7.67360        14.44717
|102>    H       -3.10246        -8.00213        16.88078
|103>    H       -0.92801        -8.77544        17.70202
|104>    H        0.92813        -9.24706        16.11449
|105> *
|106>
|107>                          ****END OF INPUT****

CARTESIAN COORDINATES (ANGSTROEM)
---------------------------------
  C     -1.049830    3.155390   -2.058240
  C     -1.815230    3.243600   -0.903020
  C     -1.605790    2.377300    0.162090
  C     -0.612870    1.423100    0.039690
  C      0.158770    1.334120   -1.125370
  C     -0.051710    2.198040   -2.184030
  C      1.147870    0.235240   -1.003990
  O      1.958040   -0.085770   -1.848130
  C      0.925500   -0.351530    0.330380
  C     -0.176220    0.385000    0.998720
  O     -0.616510    0.168160    2.106200
  C      1.525280   -1.379600    0.989780
  C      2.573860   -2.242760    0.609290
  C      3.327770   -2.328300   -0.552670
  C      4.270290   -3.349010   -0.492820
  C      4.239710   -4.055310    0.731540
  S      3.056040   -3.463630    1.796580
  C      5.227180   -5.063800    0.695040
  C      5.889050   -5.006970   -0.542760
  C      5.307070   -3.926470   -1.331270
  C      5.672390   -3.556070   -2.591430
  C      6.707130   -4.218560   -3.286290
  N      7.548500   -4.758160   -3.848760
  C      5.062710   -2.500920   -3.305440
  N      4.597630   -1.655290   -3.922990
  C      6.886440   -5.971460   -0.669740
  C      6.995200   -6.763820    0.461290
  S      5.833010   -6.303990    1.702670
  C      7.887230   -7.848550    0.693090
  C      7.907260   -8.531720    1.886610
  C      8.737310   -9.607800    2.183560
  C      9.785030  -10.023860    1.240480
  C      9.939410   -9.500970    0.004320
  S      8.946330   -8.263440   -0.648820
  C     10.530620  -11.024470    1.922190
  C      9.989990  -11.227970    3.193500
  C     10.689610  -12.217830    3.917960
  C     11.721720  -12.726100    3.195380
  S     11.885310  -12.034910    1.615580
  C      8.845270  -10.373240    3.363290
  C      8.028740  -10.370260    4.519590
  C      6.748560   -9.913980    4.584240
  C      5.958270   -9.853670    5.755330
  C      6.281350  -10.166670    7.069670
  C      5.222180   -9.934010    7.940310
  C      4.074790   -9.437870    7.293730
  S      4.307340   -9.262810    5.609900
  C      3.067490   -9.224190    8.258490
  C      3.573530   -9.582220    9.530610
  C      4.939690  -10.046310    9.367500
  C      5.794350  -10.503630   10.326650
  C      5.458320  -10.602280   11.694630
  N      5.229810  -10.704880   12.812830
  C      7.101350  -10.929970   10.008350
  N      8.163580  -11.276800    9.749280
  C      2.652310   -9.391290   10.554000
  C      1.443440   -8.895360   10.085930
  S      1.464580   -8.666870    8.329380
  C      0.244960   -8.558710   10.746540
  C     -0.088800   -8.578290   12.066520
  C     -1.456260   -8.167290   12.467400
  O     -2.347290   -7.813590   11.726260
  C     -1.499710   -8.278430   13.942230
  C     -2.536230   -8.014510   14.818080
  C     -2.309030   -8.201160   16.175500
  C     -1.076540   -8.639650   16.640890
  C     -0.033550   -8.905700   15.763230
  C     -0.257320   -8.721630   14.411490
  C      0.675070   -8.931530   13.276200
  O      1.824440   -9.310690   13.364790
  H     -1.234800    3.842490   -2.870650
  H     -2.585080    3.997810   -0.832850
  H     -2.195760    2.438300    1.063660
  H      0.548650    2.120670   -3.077440
  H      1.120680   -1.562980    1.983020
  H      3.171610   -1.662200   -1.383940
  H      7.512420   -6.102820   -1.533750
  H      7.240930   -8.166620    2.655320
  H     10.706820   -9.836290   -0.675400
  H     10.450410  -12.537520    4.915740
  H     12.419800  -13.484350    3.491830
  H      8.470460  -10.809700    5.403990
  H      6.251570   -9.591030    3.681340
  H      7.245050  -10.538930    7.362910
  H      2.821340   -9.588450   11.598780
  H     -0.557590   -8.221740   10.093680
  H     -3.490670   -7.673600   14.447170
  H     -3.102460   -8.002130   16.880780
  H     -0.928010   -8.775440   17.702020
  H      0.928130   -9.247060   16.114490

 Total Charge           Charge          ....    0
 Multiplicity           Mult            ....    1
 Number of Electrons    NEL             ....  512
 Basis Dimension        Dim             .... 1104

ORBITAL ENERGIES
----------------

  NO   OCC          E(Eh)            E(eV)
   0   2.0000     -88.998042     -2421.7598
   1   2.0000     -88.993852     -2421.6458
   2   2.0000     -88.987581     -2421.4752
   3   2.0000     -88.987092     -2421.4619
   4   2.0000     -88.985761     -2421.4257
   5   2.0000     -88.962382     -2420.7895
   6   2.0000     -19.212149      -522.7892
   7   2.0000     -19.207014      -522.6494
   8   2.0000     -19.206688      -522.6406
   9   2.0000     -19.201815      -522.5079
  10   2.0000     -14.433982      -392.7686
  11   2.0000     -14.428684      -392.6244
  12   2.0000     -14.428514      -392.6198
  13   2.0000     -14.422904      -392.4672
  14   2.0000     -10.368988      -282.1545
  15   2.0000     -10.363242      -281.9982
  16   2.0000     -10.362064      -281.9661
  17   2.0000     -10.357836      -281.8510
  18   2.0000     -10.357309      -281.8367
  19   2.0000     -10.355232      -281.7802
  20   2.0000     -10.352152      -281.6964
  21   2.0000     -10.349062      -281.6123
  22   2.0000     -10.343062      -281.4490
  23   2.0000     -10.338902      -281.3358
  24   2.0000     -10.338343      -281.3206
  25   2.0000     -10.337576      -281.2997
  26   2.0000     -10.337317      -281.2927
  27   2.0000     -10.336676      -281.2752
  28   2.0000     -10.334067      -281.2042
  29   2.0000     -10.329219      -281.0723
  30   2.0000     -10.327247      -281.0187
  31   2.0000     -10.326373      -280.9949
  32   2.0000     -10.325571      -280.9731
  33   2.0000     -10.324103      -280.9331
  34   2.0000     -10.321948      -280.8745
  35   2.0000     -10.317476      -280.7528
  36   2.0000     -10.316822      -280.7350
  37   2.0000     -10.313520      -280.6452
  38   2.0000     -10.311927      -280.6018
  39   2.0000     -10.308778      -280.5161
  40   2.0000     -10.308438      -280.5069
  41   2.0000     -10.307094      -280.4703
  42   2.0000     -10.306807      -280.4625
  43   2.0000     -10.306386      -280.4510
  44   2.0000     -10.302071      -280.3336
  45   2.0000     -10.302066      -280.3335
  46   2.0000     -10.299301      -280.2582
  47   2.0000     -10.297360      -280.2054
  48   2.0000     -10.296317      -280.1770
  49   2.0000     -10.296231      -280.1747
  50   2.0000     -10.293823      -280.1092
  51   2.0000     -10.293721      -280.1064
  52   2.0000     -10.292610      -280.0762
  53   2.0000     -10.288653      -279.9685
  54   2.0000     -10.288202      -279.9562
  55   2.0000     -10.287885      -279.9476
  56   2.0000     -10.287275      -279.9310
  57   2.0000     -10.285722      -279.8887
  58   2.0000     -10.284659      -279.8598
  59   2.0000     -10.284570      -279.8574
  60   2.0000     -10.284316      -279.8505
  61   2.0000     -10.284067      -279.8437
  62   2.0000     -10.283940      -279.8402
  63   2.0000     -10.283270      -279.8220
  64   2.0000     -10.280402      -279.7439
  65   2.0000     -10.280098      -279.7357
  66   2.0000     -10.280055      -279.7345
  67   2.0000     -10.279589      -279.7218
  68   2.0000     -10.279289      -279.7137
  69   2.0000     -10.272811      -279.5374
  70   2.0000      -8.092384      -220.2050
  71   2.0000      -8.088737      -220.1057
  72   2.0000      -8.082411      -219.9336
  73   2.0000      -8.082023      -219.9230
  74   2.0000      -8.081013      -219.8956
  75   2.0000      -8.057782      -219.2634
  76   2.0000      -6.061703      -164.9473
  77   2.0000      -6.057813      -164.8415
  78   2.0000      -6.057619      -164.8362
  79   2.0000      -6.054554      -164.7528
  80   2.0000      -6.053723      -164.7302
  81   2.0000      -6.051596      -164.6723
  82   2.0000      -6.051300      -164.6643
  83   2.0000      -6.051115      -164.6592
  84   2.0000      -6.050639      -164.6463
  85   2.0000      -6.047540      -164.5619
  86   2.0000      -6.047027      -164.5480
  87   2.0000      -6.046064      -164.5218
  88   2.0000      -6.044782      -164.4869
  89   2.0000      -6.044561      -164.4809
  90   2.0000      -6.042771      -164.4322
  91   2.0000      -6.027238      -164.0095
  92   2.0000      -6.022967      -163.8933
  93   2.0000      -6.019798      -163.8070
  94   2.0000      -1.127544       -30.6820
  95   2.0000      -1.122093       -30.5337
  96   2.0000      -1.120171       -30.4814
  97   2.0000      -1.114881       -30.3375
  98   2.0000      -1.050540       -28.5867
  99   2.0000      -1.042362       -28.3641
 100   2.0000      -1.024402       -27.8754
 101   2.0000      -1.018483       -27.7143
 102   2.0000      -1.016054       -27.6482
 103   2.0000      -1.007949       -27.4277
 104   2.0000      -1.004635       -27.3375
 105   2.0000      -1.002453       -27.2781
 106   2.0000      -0.995234       -27.0817
 107   2.0000      -0.980204       -26.6727
 108   2.0000      -0.976498       -26.5719
 109   2.0000      -0.972256       -26.4564
 110   2.0000      -0.961290       -26.1580
 111   2.0000      -0.957825       -26.0637
 112   2.0000      -0.937304       -25.5053
 113   2.0000      -0.927475       -25.2379
 114   2.0000      -0.922329       -25.0978
 115   2.0000      -0.915921       -24.9235
 116   2.0000      -0.909600       -24.7515
 117   2.0000      -0.897669       -24.4268
 118   2.0000      -0.886525       -24.1236
 119   2.0000      -0.878863       -23.9151
 120   2.0000      -0.872449       -23.7405
 121   2.0000      -0.866289       -23.5729
 122   2.0000      -0.860570       -23.4173
 123   2.0000      -0.856724       -23.3126
 124   2.0000      -0.852523       -23.1983
 125   2.0000      -0.851582       -23.1727
 126   2.0000      -0.847468       -23.0608
 127   2.0000      -0.845398       -23.0044
 128   2.0000      -0.825685       -22.4680
 129   2.0000      -0.809822       -22.0364
 130   2.0000      -0.801609       -21.8129
 131   2.0000      -0.793009       -21.5789
 132   2.0000      -0.784342       -21.3430
 133   2.0000      -0.775163       -21.0933
 134   2.0000      -0.768065       -20.9001
 135   2.0000      -0.756548       -20.5867
 136   2.0000      -0.737801       -20.0766
 137   2.0000      -0.733309       -19.9544
 138   2.0000      -0.730583       -19.8802
 139   2.0000      -0.727598       -19.7990
 140   2.0000      -0.710266       -19.3273
 141   2.0000      -0.707154       -19.2426
 142   2.0000      -0.703333       -19.1387
 143   2.0000      -0.691579       -18.8188
 144   2.0000      -0.686575       -18.6827
 145   2.0000      -0.682151       -18.5623
 146   2.0000      -0.677837       -18.4449
 147   2.0000      -0.668588       -18.1932
 148   2.0000      -0.664714       -18.0878
 149   2.0000      -0.656343       -17.8600
 150   2.0000      -0.652485       -17.7550
 151   2.0000      -0.649284       -17.6679
 152   2.0000      -0.645636       -17.5687
 153   2.0000      -0.633688       -17.2435
 154   2.0000      -0.631441       -17.1824
 155   2.0000      -0.630453       -17.1555
 156   2.0000      -0.622925       -16.9507
 157   2.0000      -0.619535       -16.8584
 158   2.0000      -0.613169       -16.6852
 159   2.0000      -0.611866       -16.6497
 160   2.0000      -0.605143       -16.4668
 161   2.0000      -0.600417       -16.3382
 162   2.0000      -0.592832       -16.1318
 163   2.0000      -0.583382       -15.8746
 164   2.0000      -0.581785       -15.8312
 165   2.0000      -0.576264       -15.6810
 166   2.0000      -0.568802       -15.4779
 167   2.0000      -0.563035       -15.3210
 168   2.0000      -0.561010       -15.2659
 169   2.0000      -0.556339       -15.1388
 170   2.0000      -0.552970       -15.0471
 171   2.0000      -0.552204       -15.0262
 172   2.0000      -0.548210       -14.9176
 173   2.0000      -0.545050       -14.8316
 174   2.0000      -0.539217       -14.6728
 175   2.0000      -0.531966       -14.4755
 176   2.0000      -0.529731       -14.4147
 177   2.0000      -0.529120       -14.3981
 178   2.0000      -0.524283       -14.2665
 179   2.0000      -0.524203       -14.2643
 180   2.0000      -0.523861       -14.2550
 181   2.0000      -0.521789       -14.1986
 182   2.0000      -0.521083       -14.1794
 183   2.0000      -0.517252       -14.0751
 184   2.0000      -0.516415       -14.0524
 185   2.0000      -0.515043       -14.0150
 186   2.0000      -0.509695       -13.8695
 187   2.0000      -0.507899       -13.8206
 188   2.0000      -0.507455       -13.8085
 189   2.0000      -0.506145       -13.7729
 190   2.0000      -0.501775       -13.6540
 191   2.0000      -0.501721       -13.6525
 192   2.0000      -0.500736       -13.6257
 193   2.0000      -0.496055       -13.4983
 194   2.0000      -0.495392       -13.4803
 195   2.0000      -0.491946       -13.3865
 196   2.0000      -0.485620       -13.2144
 197   2.0000      -0.483982       -13.1698
 198   2.0000      -0.482098       -13.1185
 199   2.0000      -0.476614       -12.9693
 200   2.0000      -0.471246       -12.8232
 201   2.0000      -0.469189       -12.7673
 202   2.0000      -0.468139       -12.7387
 203   2.0000      -0.466102       -12.6833
 204   2.0000      -0.463494       -12.6123
 205   2.0000      -0.463384       -12.6093
 206   2.0000      -0.459963       -12.5162
 207   2.0000      -0.458945       -12.4885
 208   2.0000      -0.456942       -12.4340
 209   2.0000      -0.454727       -12.3738
 210   2.0000      -0.453298       -12.3349
 211   2.0000      -0.451585       -12.2882
 212   2.0000      -0.451368       -12.2824
 213   2.0000      -0.450524       -12.2594
 214   2.0000      -0.448851       -12.2138
 215   2.0000      -0.448528       -12.2051
 216   2.0000      -0.446400       -12.1472
 217   2.0000      -0.443846       -12.0777
 218   2.0000      -0.442446       -12.0396
 219   2.0000      -0.440518       -11.9871
 220   2.0000      -0.439342       -11.9551
 221   2.0000      -0.438124       -11.9220
 222   2.0000      -0.437093       -11.8939
 223   2.0000      -0.435514       -11.8510
 224   2.0000      -0.434462       -11.8223
 225   2.0000      -0.433551       -11.7975
 226   2.0000      -0.432931       -11.7806
 227   2.0000      -0.428611       -11.6631
 228   2.0000      -0.427547       -11.6341
 229   2.0000      -0.424886       -11.5617
 230   2.0000      -0.420542       -11.4435
 231   2.0000      -0.417307       -11.3555
 232   2.0000      -0.414142       -11.2694
 233   2.0000      -0.402851       -10.9621
 234   2.0000      -0.393739       -10.7142
 235   2.0000      -0.389149       -10.5893
 236   2.0000      -0.376683       -10.2501
 237   2.0000      -0.355744        -9.6803
 238   2.0000      -0.348306        -9.4779
 239   2.0000      -0.347385        -9.4528
 240   2.0000      -0.346968        -9.4415
 241   2.0000      -0.342982        -9.3330
 242   2.0000      -0.341800        -9.3009
 243   2.0000      -0.336084        -9.1453
 244   2.0000      -0.334185        -9.0936
 245   2.0000      -0.333426        -9.0730
 246   2.0000      -0.332024        -9.0348
 247   2.0000      -0.325362        -8.8535
 248   2.0000      -0.323000        -8.7893
 249   2.0000      -0.320175        -8.7124
 250   2.0000      -0.317488        -8.6393
 251   2.0000      -0.315061        -8.5732
 252   2.0000      -0.293467        -7.9857
 253   2.0000      -0.281428        -7.6580
 254   2.0000      -0.263285        -7.1643
 255   2.0000      -0.229248        -6.2381
 256   0.0000      -0.113653        -3.0927
 257   0.0000      -0.104539        -2.8447
 258   0.0000      -0.079099        -2.1524
 259   0.0000      -0.067990        -1.8501
 260   0.0000      -0.057867        -1.5746

MULLIKEN ATOMIC CHARGES
-----------------------
   0 C :    0.039051
   1 C :    0.036847
   2 C :   -0.022001
   3 C :    0.013296
   4 C :   -0.013850
   5 C :   -0.020963
   6 C :    0.189160
   7 O :   -0.151963
   8 C :   -0.174813
   9 C :    0.143881
  10 O :   -0.152820
  11 C :    0.057940
  12 C :   -0.108236
  13 C :   -0.009562
  14 C :   -0.001443
  15 C :   -0.084487
  16 S :    0.193589
  17 C :   -0.096753
  18 C :    0.024077
  19 C :    0.305106
  20 C :   -0.297307
  21 C :   -0.189178
  22 N :    0.170733
  23 C :   -0.194703
  24 N :    0.203281
  25 C :   -0.058742
  26 C :   -0.052492
  27 S :    0.163638
  28 C :   -0.024423
  29 C :   -0.104067
  30 C :    0.054558
  31 C :    0.057576
  32 C :   -0.123318
  33 S :    0.141090
  34 C :   -0.107697
  35 C :    0.055384
  36 C :    0.008663
  37 C :   -0.067719
  38 S :    0.133346
  39 C :    0.078052
  40 C :   -0.018449
  41 C :    0.020098
  42 C :   -0.071515
  43 C :   -0.039940
  44 C :    0.013752
  45 C :   -0.112068
  46 S :    0.177140
  47 C :   -0.081954
  48 C :   -0.002959
  49 C :    0.312210
  50 C :   -0.305410
  51 C :   -0.195244
  52 N :    0.199009
  53 C :   -0.183118
  54 N :    0.164270
  55 C :   -0.014408
  56 C :   -0.107295
  57 S :    0.186631
  58 C :    0.057335
  59 C :   -0.176986
  60 C :    0.144745
  61 O :   -0.156456
  62 C :    0.011189
  63 C :   -0.023236
  64 C :    0.037893
  65 C :    0.037573
  66 C :   -0.022331
  67 C :   -0.012124
  68 C :    0.186453
  69 O :   -0.150870
  70 H :   -0.000564
  71 H :   -0.000764
  72 H :   -0.006331
  73 H :   -0.001561
  74 H :    0.009442
  75 H :    0.034367
  76 H :    0.021490
  77 H :   -0.005166
  78 H :    0.042114
  79 H :   -0.010832
  80 H :    0.030989
  81 H :   -0.009243
  82 H :   -0.021067
  83 H :    0.005688
  84 H :    0.032563
  85 H :    0.008713
  86 H :   -0.008702
  87 H :   -0.002779
  88 H :   -0.001736
  89 H :   -0.003287
Sum of atomic charges:   -0.0000000

LOEWDIN ATOMIC CHARGES
----------------------
   0 C :   -0.003693
   1 C :   -0.004186
   2 C :    0.009339
   3 C :   -0.045941
   4 C :   -0.042747
   5 C :    0.010512
   6 C :    0.082693
   7 O :   -0.139260
   8 C :   -0.129044
   9 C :    0.078137
  10 O :   -0.150547
  11 C :    0.046106
  12 C :   -0.178229
  13 C :    0.012507
  14 C :   -0.075669
  15 C :   -0.165861
  16 S :    0.484419
  17 C :   -0.188027
  18 C :   -0.054144
  19 C :    0.076151
  20 C :   -0.092179
  21 C :   -0.014208
  22 N :   -0.032403
  23 C :   -0.024943
  24 N :   -0.010302
  25 C :   -0.042214
  26 C :   -0.168383
  27 S :    0.473195
  28 C :   -0.185362
  29 C :   -0.030670
  30 C :   -0.018634
  31 C :   -0.046553
  32 C :   -0.137106
  33 S :    0.465252
  34 C :   -0.202875
  35 C :   -0.038895
  36 C :   -0.062318
  37 C :   -0.160704
  38 S :    0.425762
  39 C :   -0.049181
  40 C :    0.001873
  41 C :   -0.065376
  42 C :   -0.147219
  43 C :   -0.037161
  44 C :   -0.050625
  45 C :   -0.203236
  46 S :    0.466220
  47 C :   -0.159714
  48 C :   -0.081052
  49 C :    0.078120
  50 C :   -0.097125
  51 C :   -0.024749
  52 N :   -0.014086
  53 C :   -0.012576
  54 N :   -0.038880
  55 C :    0.013778
  56 C :   -0.182280
  57 S :    0.479206
  58 C :    0.046881
  59 C :   -0.133868
  60 C :    0.077733
  61 O :   -0.153665
  62 C :   -0.045914
  63 C :    0.008502
  64 C :   -0.005712
  65 C :   -0.004934
  66 C :    0.009689
  67 C :   -0.042416
  68 C :    0.081821
  69 O :   -0.140772
  70 H :    0.033715
  71 H :    0.033456
  72 H :    0.038097
  73 H :    0.039496
  74 H :    0.040885
  75 H :    0.043097
  76 H :    0.036206
  77 H :    0.024909
  78 H :    0.039233
  79 H :    0.032793
  80 H :    0.025274
  81 H :    0.033471
  82 H :    0.023554
  83 H :    0.038271
  84 H :    0.042723
  85 H :    0.040545
  86 H :    0.037273
  87 H :    0.032758
  88 H :    0.033081
  89 H :    0.038904

  Mayer bond orders larger than 0.100000
B(  0-C ,  1-C ) :   1.3799 B(  0-C ,  5-C ) :   1.3558 B(  0-C , 70-H ) :   0.9883
B(  1-C ,  2-C ) :   1.3600 B(  1-C , 71-H ) :   0.9885 B(  2-C ,  3-C ) :   1.3856
B(  2-C , 72-H ) :   1.0044 B(  3-C ,  4-C ) :   1.3503 B(  3-C ,  9-C ) :   0.9174
B(  4-C ,  5-C ) :   1.3897 B(  4-C ,  6-C ) :   0.9428 B(  5-C , 73-H ) :   1.0040
B(  6-C ,  7-O ) :   2.1558 B(  6-C ,  8-C ) :   0.9484 B(  7-O , 75-H ) :   0.1064
B(  8-C ,  9-C ) :   0.9641 B(  8-C , 11-C ) :   1.6847 B(  9-C , 10-O ) :   2.2444
B( 11-C , 12-C ) :   1.1373 B( 11-C , 74-H ) :   0.9286 B( 12-C , 13-C ) :   1.4286
B( 12-C , 16-S ) :   1.0742 B( 13-C , 14-C ) :   1.2902 B( 13-C , 75-H ) :   0.9680
B( 14-C , 15-C ) :   1.3901 B( 14-C , 19-C ) :   1.0010 B( 15-C , 16-S ) :   1.1591
B( 15-C , 17-C ) :   1.1985 B( 17-C , 18-C ) :   1.4442 B( 17-C , 27-S ) :   1.1089
B( 18-C , 19-C ) :   0.9949 B( 18-C , 25-C ) :   1.3047 B( 19-C , 20-C ) :   1.7141
B( 20-C , 21-C ) :   1.1355 B( 20-C , 23-C ) :   1.1354 B( 21-C , 22-N ) :   2.9865
B( 23-C , 24-N ) :   3.0043 B( 25-C , 26-C ) :   1.4509 B( 25-C , 76-H ) :   0.9804
B( 26-C , 27-S ) :   1.1090 B( 26-C , 28-C ) :   1.1726 B( 28-C , 29-C ) :   1.5107
B( 28-C , 33-S ) :   1.0581 B( 29-C , 30-C ) :   1.2521 B( 29-C , 77-H ) :   0.9571
B( 30-C , 31-C ) :   1.0573 B( 30-C , 39-C ) :   1.3769 B( 31-C , 32-C ) :   1.6083
B( 31-C , 34-C ) :   1.1791 B( 32-C , 33-S ) :   1.1376 B( 32-C , 78-H ) :   0.9405
B( 34-C , 35-C ) :   1.4346 B( 34-C , 38-S ) :   1.0784 B( 35-C , 36-C ) :   1.2221
B( 35-C , 39-C ) :   1.0994 B( 36-C , 37-C ) :   1.5857 B( 36-C , 79-H ) :   0.9985
B( 37-C , 38-S ) :   1.1548 B( 37-C , 80-H ) :   0.9664 B( 39-C , 40-C ) :   1.1675
B( 40-C , 41-C ) :   1.6394 B( 40-C , 81-H ) :   0.9612 B( 41-C , 42-C ) :   1.1337
B( 41-C , 82-H ) :   0.9537 B( 42-C , 43-C ) :   1.4335 B( 42-C , 46-S ) :   1.1161
B( 43-C , 44-C ) :   1.3172 B( 43-C , 83-H ) :   0.9883 B( 44-C , 45-C ) :   1.4285
B( 44-C , 49-C ) :   0.9923 B( 45-C , 46-S ) :   1.0986 B( 45-C , 47-C ) :   1.2115
B( 47-C , 48-C ) :   1.3837 B( 47-C , 57-S ) :   1.1625 B( 48-C , 49-C ) :   1.0012
B( 48-C , 55-C ) :   1.2925 B( 49-C , 50-C ) :   1.7128 B( 50-C , 51-C ) :   1.1346
B( 50-C , 53-C ) :   1.1363 B( 51-C , 52-N ) :   3.0050 B( 53-C , 54-N ) :   2.9832
B( 55-C , 56-C ) :   1.4232 B( 55-C , 84-H ) :   0.9699 B( 56-C , 57-S ) :   1.0662
B( 56-C , 58-C ) :   1.1457 B( 58-C , 59-C ) :   1.6720 B( 58-C , 85-H ) :   0.9287
B( 59-C , 60-C ) :   0.9667 B( 59-C , 68-C ) :   0.9531 B( 60-C , 61-O ) :   2.2405
B( 60-C , 62-C ) :   0.9148 B( 62-C , 63-C ) :   1.3903 B( 62-C , 67-C ) :   1.3508
B( 63-C , 64-C ) :   1.3574 B( 63-C , 86-H ) :   1.0038 B( 64-C , 65-C ) :   1.3802
B( 64-C , 87-H ) :   0.9886 B( 65-C , 66-C ) :   1.3557 B( 65-C , 88-H ) :   0.9889
B( 66-C , 67-C ) :   1.3880 B( 66-C , 89-H ) :   1.0045 B( 67-C , 68-C ) :   0.9427
B( 68-C , 69-O ) :   2.1584 B( 69-O , 84-H ) :   0.1053

-----------------------------------------------------------------------------
         ABSORPTION SPECTRUM VIA TRANSITION ELECTRIC DIPOLE MOMENTS
-----------------------------------------------------------------------------
State   Energy  Wavelength   fosc         T2         TX        TY        TZ
        (cm-1)    (nm)                  (au**2)     (au)      (au)      (au)
-----------------------------------------------------------------------------
   0   10377.3    963.6   0.287168884   9.11023   0.04221  -1.83114   2.39903
   1   11501.3    869.5   0.186917822   5.35031  -1.76682   0.84641   1.22973
   2   16822.9    594.4   0.193334914   3.78342   0.78473   0.45520  -1.72058
   3   17602.9    568.1   0.478621450   8.95125   0.13940  -1.87344   2.32852
   4   19932.7    501.7   0.114620718   1.89310  -0.00431  -0.73426   1.16359
   5   22068.6    453.1   0.306901877   4.57827  -1.37747   1.61762  -0.25328
   6   22655.1    441.4   1.850897143  26.89631   4.01886  -2.11167  -2.50717
   7   23809.2    420.0   0.000067989   0.00094   0.01039   0.01989  -0.02089
   8   24782.6    403.5   0.023041700   0.30609  -0.40755   0.37263   0.03377
   9   25669.4    389.6   0.056549284   0.72525   0.58579  -0.57236  -0.23347
  10   25988.4    384.8   0.154548793   1.95777   1.04023  -0.63766  -0.68489
  11   26415.1    378.6   0.000029459   0.00037  -0.01071   0.00903   0.01307
  12   26883.0    372.0   0.264474310   3.23878  -1.36546   1.10495   0.39163
  13   27032.1    369.9   0.004537489   0.05526   0.17277  -0.14218  -0.07206
  14   28282.0    353.6   0.216547466   2.52068  -0.42050   1.14484  -1.01647
  15   29310.1    341.2   0.003642719   0.04092   0.04405   0.11686   0.15912
  16   29694.5    336.8   0.001487336   0.01649   0.04833  -0.03311  -0.11427
  17   30499.3    327.9   0.134465456   1.45143   1.02976  -0.10604  -0.61626
  18   30570.8    327.1   0.000700750   0.00755  -0.00622   0.00845  -0.08623
  19   30574.0    327.1   0.507326773   5.46274  -0.36911  -0.51372   2.25002
  20   30714.5    325.6   0.009614437   0.10305   0.23277  -0.08201   0.20528
  21   30903.4    323.6   0.198585724   2.11552   1.16675  -0.52744   0.68994
  22   31136.2    321.2   0.000155106   0.00164   0.00915  -0.01653   0.03582
  23   31341.2    319.1   0.005841132   0.06136  -0.10185  -0.19343  -0.11648
  24   31386.7    318.6   0.039609814   0.41546   0.35436  -0.19842  -0.50052
  25   31405.2    318.4   0.185025344   1.93957  -0.53704   0.37647   1.22859
  26   31860.2    313.9   0.731601385   7.55964  -1.49695   1.70439  -1.55365
  27   32025.0    312.3   0.050462096   0.51874   0.42950  -0.43520  -0.38062
  28   32725.5    305.6   0.193227808   1.94383   1.05722   0.23679  -0.87753
  29   32996.6    303.1   0.090272221   0.90066  -0.83815   0.40495  -0.18488
  30   33155.3    301.6   0.194296872   1.92925   0.88858  -0.32020  -1.01840
  31   33820.4    295.7   0.092715691   0.90251   0.52165  -0.27441  -0.74504
  32   33948.9    294.6   0.038495327   0.37330   0.55689  -0.24292  -0.06453
  33   34736.9    287.9   0.000658936   0.00624   0.05215   0.05188   0.02887
  34   34862.4    286.8   0.153028213   1.44507   0.69176  -0.87520   0.44785
  35   35116.7    284.8   0.000893766   0.00838  -0.00151   0.08491   0.03415
  36   35489.2    281.8   0.012479371   0.11576   0.02416   0.19740  -0.27607
  37   35689.7    280.2   0.131430224   1.21235  -0.74014   0.68732  -0.43834
  38   35785.9    279.4   0.126476845   1.16352   0.84880  -0.64625  -0.15944
  39   36017.4    277.6   0.007093591   0.06484   0.19616  -0.10932  -0.12004
  40   36220.5    276.1   0.082508907   0.74993  -0.53924   0.66892  -0.10814
  41   36367.5    275.0   0.028029393   0.25373   0.14369   0.03520  -0.48150
  42   36554.3    273.6   0.071158629   0.64086  -0.02376  -0.45523   0.65808
  43   36703.0    272.5   0.003817999   0.03425   0.08169  -0.15904   0.04774
  44   36745.6    272.1   0.000078222   0.00070  -0.00454   0.02583   0.00358
  45   36865.6    271.3   0.001684723   0.01504   0.10439  -0.02818  -0.05791
  46   37536.7    266.4   0.054842621   0.48099   0.31346  -0.39946   0.47241
  47   37853.6    264.2   0.027619228   0.24020  -0.21741   0.06388  -0.43458
  48   38069.4    262.7   0.103051370   0.89116  -0.44498   0.53250  -0.64000
  49   38301.0    261.1   0.007911803   0.06800  -0.02660   0.13596  -0.22094
  50   38410.4    260.3   0.000290808   0.00249   0.02839   0.03821   0.01504
  51   38684.0    258.5   0.029545252   0.25144  -0.35345   0.11407   0.33689
  52   38702.6    258.4   0.001595464   0.01357  -0.11630   0.00450   0.00511
  53   38737.5    258.1   0.000158453   0.00135  -0.03352  -0.01493   0.00019
  54   39047.6    256.1   0.000035491   0.00030  -0.01049  -0.01371   0.00116
  55   39170.1    255.3   0.002622892   0.02204   0.10165  -0.08557  -0.06626
  56   39342.0    254.2   0.002536971   0.02123  -0.02483  -0.04613   0.13596
  57   39669.0    252.1   0.092297761   0.76598   0.70915  -0.46217  -0.22245
  58   39875.8    250.8   0.012370054   0.10213  -0.10511   0.24439  -0.17707
  59   39950.7    250.3   0.010042759   0.08276  -0.21342   0.16548  -0.09911
  60   40120.0    249.3   0.008969514   0.07360   0.02650  -0.04409   0.26637

FINAL SINGLE POINT ENERGY     -5050.827608953292

DIPOLE MOMENT
-------------
                                X             Y             Z
Electronic contribution:     17.92030      -9.69461     -17.76328
Nuclear contribution   :    -18.10606       9.60716      17.11104
                        -----------------------------------------
Total Dipole Moment    :     -0.18576      -0.08746      -0.65223
                        -----------------------------------------
Magnitude (a.u.)       :      0.68379
Magnitude (Debye)      :      1.73805

Rotational constants in cm-1:     0.000679     0.000410     0.000259
Rotational constants in MHz :    20.352030    12.301814     7.760921

                             ****ORCA TERMINATED NORMALLY****
TOTAL RUN TIME: 0 days 0 hours 8 minutes 37 seconds 358 msec
