                         Program Version 4.2.0 -  RELEASE  -
|  1> # ORCA input file
|  2> # SCF done       -196.149199092523          0.000861948574
|  3> ! CAM-B3LYP def2-SVP def2/J RIJCOSX Grid4 TightSCF
|  4> %maxcore 5000
|  5> %tddft
|  6>     Mode sTDDFT
|  7>     Ethresh 5.0
|  8>     maxcore 5000
|  9> end
| 10>
| 11> %pal
| 12>   nprocs 6
| 13>   end
| 14> * xyz 0 1
| 15>    C        8.23347         4.73027         6.98176
| 16>    C        7.83963         5.32662         8.14601
| 17>    F        8.63894         6.24510         8.72474
| 18>    C        6.61164         5.04252         8.75880
| 19>    C        5.79334         4.10561         8.19401
| 20>    C        6.15420         3.45087         6.99996
| 21>    C        7.38863         3.78277         6.37008
| 22>    C        7.73585         3.19406         5.13207
| 23>    C        6.87067         2.31074         4.54404
| 24>    C        5.65612         1.95422         5.19824
| 25>    C        5.30120         2.49996         6.39679
| 26>    C        4.89041         1.02324         4.34052
| 27>    O        3.85415         0.45554         4.60229
| 28>    C        5.62443         1.00942         3.05097
| 29>    C        6.92018         1.62057         3.26001
| 30>    C        8.03196         1.42771         2.48437
| 31>    C        9.27427         2.04007         2.73744
| 32>    N       10.29168         2.54835         2.89519
| 33>    C        8.05474         0.54120         1.38994
| 34>    N        8.13291        -0.22146         0.53483
| 35>    C        4.98929         0.65390         1.90347
| 36>    C        5.34470         0.98815         0.56390
| 37>    C        5.16560         0.14098        -0.52371
| 38>    C        4.64288        -1.24485        -0.56631
| 39>    N        5.69509         0.74720        -1.61280
| 40>    C        6.20182         1.97098        -1.28848
| 41>    C        6.79429         2.86962        -2.31008
| 42>    C        5.99679         2.17335         0.06267
| 43>    C        6.33852         3.37865         0.76836
| 44>    C        5.69179         3.85766         1.84873
| 45>    C        6.12945         4.96801         2.62904
| 46>    C        7.22155         5.79190         2.44886
| 47>    C        7.38364         6.69313         3.50392
| 48>    C        6.41496         6.54484         4.50817
| 49>    S        5.27415         5.33181         4.12508
| 50>    C        6.70802         7.45634         5.55534
| 51>    C        7.84753         8.19428         5.20194
| 52>    C        8.30216         7.74953         3.89348
| 53>    C        9.35870         8.23105         3.17636
| 54>    C       10.17964         9.27366         3.65374
| 55>    N       10.84598        10.12524         4.03620
| 56>    C        9.68697         7.73095         1.89910
| 57>    N        9.94374         7.33595         0.85336
| 58>    C        8.24801         9.09193         6.19471
| 59>    C        7.44934         9.01404         7.31527
| 60>    S        6.13612         7.85874         7.11486
| 61>    C        7.61155         9.71154         8.55438
| 62>    C        7.26208         9.16504         9.75928
| 63>    C        7.42403         9.79552        10.99614
| 64>    C        7.80446        11.21585        11.06067
| 65>    C        8.22667        11.93404         9.99836
| 66>    S        8.34011        11.30686         8.40445
| 67>    C        7.67769        11.57654        12.42983
| 68>    C        7.29447        10.46008        13.17348
| 69>    C        7.17702        10.75143        14.55029
| 70>    C        7.46235        12.05398        14.81009
| 71>    S        7.89279        12.97454        13.40703
| 72>    C        7.17627         9.32602        12.29399
| 73>    C        6.95195         8.00032        12.75772
| 74>    C        7.33724         6.87093        12.11737
| 75>    C        7.15761         5.55170        12.62533
| 76>    C        6.56725         5.11844        13.77914
| 77>    C        6.59195         3.71435        13.94850
| 78>    C        7.21453         3.05114        12.85874
| 79>    S        7.78156         4.20344        11.68531
| 80>    C        7.33922         1.67364        12.80885
| 81>    S        8.10264         0.78850        11.47686
| 82>    C        7.34520         1.54463        10.00343
| 83>    C        6.86000         0.94213        13.90355
| 84>    C        6.25467         1.60198        15.00148
| 85>    C        6.11731         2.98037        15.04627
| 86>    S        5.34795         3.86943        16.36840
| 87>    C        6.09001         3.12165        17.85287
| 88>    S        5.71465         0.44284        16.18929
| 89>    C        6.29800        -0.86943        15.22638
| 90>    C        6.86812        -0.47264        14.07240
| 91>    H        9.17819         4.98708         6.52798
| 92>    H        6.33225         5.56603         9.65815
| 93>    H        4.84479         3.86728         8.65061
| 94>    H        8.66002         3.48533         4.65778
| 95>    H        4.36957         2.22858         6.86994
| 96>    H        4.07013         0.09033         2.03496
| 97>    H        3.83607        -1.37149         0.15171
| 98>    H        5.43378        -1.95131        -0.31054
| 99>    H        4.27623        -1.48583        -1.56215
|100>    H        5.75193         0.32952        -2.52837
|101>    H        7.06647         2.30627        -3.19971
|102>    H        7.68600         3.35343        -1.91724
|103>    H        6.09028         3.65157        -2.59743
|104>    H        7.19016         3.91960         0.37639
|105>    H        4.79731         3.36240         2.20127
|106>    H        7.87281         5.73175         1.59699
|107>    H        9.10186         9.74222         6.13285
|108>    H        6.82603         8.17638         9.73626
|109>    H        8.54997        12.95964        10.08141
|110>    H        6.89476        10.04407        15.30892
|111>    H        7.45041        12.55279        15.75949
|112>    H        6.50828         7.91839        13.74115
|113>    H        7.87231         6.94449        11.18152
|114>    H        6.12163         5.77121        14.50650
|115>    H        7.34486         0.77348         9.23928
|116>    H        7.92629         2.39810         9.66799
|117>    H        6.32804         1.83874        10.23756
|118>    H        6.05853         3.89177        18.61745
|119>    H        7.11771         2.85002        17.63727
|120>    H        5.51829         2.25609        18.17209
|121>    H        6.17183        -1.86758        15.59714
|122>    H        7.29074        -1.13942        13.34351
|123> *
|124>
|125>                          ****END OF INPUT****

CARTESIAN COORDINATES (ANGSTROEM)
---------------------------------
  C      8.233470    4.730270    6.981760
  C      7.839630    5.326620    8.146010
  F      8.638940    6.245100    8.724740
  C      6.611640    5.042520    8.758800
  C      5.793340    4.105610    8.194010
  C      6.154200    3.450870    6.999960
  C      7.388630    3.782770    6.370080
  C      7.735850    3.194060    5.132070
  C      6.870670    2.310740    4.544040
  C      5.656120    1.954220    5.198240
  C      5.301200    2.499960    6.396790
  C      4.890410    1.023240    4.340520
  O      3.854150    0.455540    4.602290
  C      5.624430    1.009420    3.050970
  C      6.920180    1.620570    3.260010
  C      8.031960    1.427710    2.484370
  C      9.274270    2.040070    2.737440
  N     10.291680    2.548350    2.895190
  C      8.054740    0.541200    1.389940
  N      8.132910   -0.221460    0.534830
  C      4.989290    0.653900    1.903470
  C      5.344700    0.988150    0.563900
  C      5.165600    0.140980   -0.523710
  C      4.642880   -1.244850   -0.566310
  N      5.695090    0.747200   -1.612800
  C      6.201820    1.970980   -1.288480
  C      6.794290    2.869620   -2.310080
  C      5.996790    2.173350    0.062670
  C      6.338520    3.378650    0.768360
  C      5.691790    3.857660    1.848730
  C      6.129450    4.968010    2.629040
  C      7.221550    5.791900    2.448860
  C      7.383640    6.693130    3.503920
  C      6.414960    6.544840    4.508170
  S      5.274150    5.331810    4.125080
  C      6.708020    7.456340    5.555340
  C      7.847530    8.194280    5.201940
  C      8.302160    7.749530    3.893480
  C      9.358700    8.231050    3.176360
  C     10.179640    9.273660    3.653740
  N     10.845980   10.125240    4.036200
  C      9.686970    7.730950    1.899100
  N      9.943740    7.335950    0.853360
  C      8.248010    9.091930    6.194710
  C      7.449340    9.014040    7.315270
  S      6.136120    7.858740    7.114860
  C      7.611550    9.711540    8.554380
  C      7.262080    9.165040    9.759280
  C      7.424030    9.795520   10.996140
  C      7.804460   11.215850   11.060670
  C      8.226670   11.934040    9.998360
  S      8.340110   11.306860    8.404450
  C      7.677690   11.576540   12.429830
  C      7.294470   10.460080   13.173480
  C      7.177020   10.751430   14.550290
  C      7.462350   12.053980   14.810090
  S      7.892790   12.974540   13.407030
  C      7.176270    9.326020   12.293990
  C      6.951950    8.000320   12.757720
  C      7.337240    6.870930   12.117370
  C      7.157610    5.551700   12.625330
  C      6.567250    5.118440   13.779140
  C      6.591950    3.714350   13.948500
  C      7.214530    3.051140   12.858740
  S      7.781560    4.203440   11.685310
  C      7.339220    1.673640   12.808850
  S      8.102640    0.788500   11.476860
  C      7.345200    1.544630   10.003430
  C      6.860000    0.942130   13.903550
  C      6.254670    1.601980   15.001480
  C      6.117310    2.980370   15.046270
  S      5.347950    3.869430   16.368400
  C      6.090010    3.121650   17.852870
  S      5.714650    0.442840   16.189290
  C      6.298000   -0.869430   15.226380
  C      6.868120   -0.472640   14.072400
  H      9.178190    4.987080    6.527980
  H      6.332250    5.566030    9.658150
  H      4.844790    3.867280    8.650610
  H      8.660020    3.485330    4.657780
  H      4.369570    2.228580    6.869940
  H      4.070130    0.090330    2.034960
  H      3.836070   -1.371490    0.151710
  H      5.433780   -1.951310   -0.310540
  H      4.276230   -1.485830   -1.562150
  H      5.751930    0.329520   -2.528370
  H      7.066470    2.306270   -3.199710
  H      7.686000    3.353430   -1.917240
  H      6.090280    3.651570   -2.597430
  H      7.190160    3.919600    0.376390
  H      4.797310    3.362400    2.201270
  H      7.872810    5.731750    1.596990
  H      9.101860    9.742220    6.132850
  H      6.826030    8.176380    9.736260
  H      8.549970   12.959640   10.081410
  H      6.894760   10.044070   15.308920
  H      7.450410   12.552790   15.759490
  H      6.508280    7.918390   13.741150
  H      7.872310    6.944490   11.181520
  H      6.121630    5.771210   14.506500
  H      7.344860    0.773480    9.239280
  H      7.926290    2.398100    9.667990
  H      6.328040    1.838740   10.237560
  H      6.058530    3.891770   18.617450
  H      7.117710    2.850020   17.637270
  H      5.518290    2.256090   18.172090
  H      6.171830   -1.867580   15.597140
  H      7.290740   -1.139420   13.343510

 Total Charge           Charge          ....    0
 Multiplicity           Mult            ....    1
 Number of Electrons    NEL             ....  578
 Basis Dimension        Dim             .... 1256

ORBITAL ENERGIES
----------------

  NO   OCC          E(Eh)            E(eV)
   0   2.0000     -88.984790     -2421.3992
   1   2.0000     -88.979878     -2421.2656
   2   2.0000     -88.970915     -2421.0217
   3   2.0000     -88.952216     -2420.5129
   4   2.0000     -88.943986     -2420.2889
   5   2.0000     -88.942804     -2420.2567
   6   2.0000     -88.918181     -2419.5867
   7   2.0000     -88.917155     -2419.5588
   8   2.0000     -24.794114      -674.6821
   9   2.0000     -19.209005      -522.7036
  10   2.0000     -14.475362      -393.8946
  11   2.0000     -14.424231      -392.5033
  12   2.0000     -14.423864      -392.4933
  13   2.0000     -14.410452      -392.1283
  14   2.0000     -14.406910      -392.0319
  15   2.0000     -10.370154      -282.1862
  16   2.0000     -10.361049      -281.9385
  17   2.0000     -10.357741      -281.8485
  18   2.0000     -10.344887      -281.4987
  19   2.0000     -10.334171      -281.2071
  20   2.0000     -10.333572      -281.1908
  21   2.0000     -10.324698      -280.9493
  22   2.0000     -10.324642      -280.9478
  23   2.0000     -10.324417      -280.9417
  24   2.0000     -10.323307      -280.9115
  25   2.0000     -10.322424      -280.8874
  26   2.0000     -10.321623      -280.8656
  27   2.0000     -10.321033      -280.8496
  28   2.0000     -10.320132      -280.8251
  29   2.0000     -10.313370      -280.6411
  30   2.0000     -10.313204      -280.6365
  31   2.0000     -10.312669      -280.6220
  32   2.0000     -10.312530      -280.6182
  33   2.0000     -10.311001      -280.5766
  34   2.0000     -10.305305      -280.4216
  35   2.0000     -10.302431      -280.3434
  36   2.0000     -10.300462      -280.2898
  37   2.0000     -10.298502      -280.2365
  38   2.0000     -10.297740      -280.2157
  39   2.0000     -10.297714      -280.2151
  40   2.0000     -10.297510      -280.2095
  41   2.0000     -10.296029      -280.1692
  42   2.0000     -10.295960      -280.1673
  43   2.0000     -10.295763      -280.1620
  44   2.0000     -10.295702      -280.1603
  45   2.0000     -10.295253      -280.1481
  46   2.0000     -10.294249      -280.1208
  47   2.0000     -10.294240      -280.1205
  48   2.0000     -10.293822      -280.1091
  49   2.0000     -10.293761      -280.1075
  50   2.0000     -10.292629      -280.0767
  51   2.0000     -10.292423      -280.0711
  52   2.0000     -10.290238      -280.0116
  53   2.0000     -10.289430      -279.9896
  54   2.0000     -10.288171      -279.9554
  55   2.0000     -10.287670      -279.9417
  56   2.0000     -10.286881      -279.9203
  57   2.0000     -10.285919      -279.8941
  58   2.0000     -10.285842      -279.8920
  59   2.0000     -10.285253      -279.8760
  60   2.0000     -10.284573      -279.8575
  61   2.0000     -10.283474      -279.8276
  62   2.0000     -10.281781      -279.7815
  63   2.0000     -10.281153      -279.7644
  64   2.0000     -10.280599      -279.7493
  65   2.0000     -10.278839      -279.7014
  66   2.0000     -10.277720      -279.6710
  67   2.0000     -10.277149      -279.6554
  68   2.0000     -10.274688      -279.5885
  69   2.0000     -10.273596      -279.5588
  70   2.0000     -10.271113      -279.4912
  71   2.0000     -10.270872      -279.4846
  72   2.0000     -10.270319      -279.4696
  73   2.0000     -10.268448      -279.4187
  74   2.0000     -10.264683      -279.3162
  75   2.0000     -10.263240      -279.2770
  76   2.0000      -8.078318      -219.8222
  77   2.0000      -8.073713      -219.6969
  78   2.0000      -8.066371      -219.4971
  79   2.0000      -8.047583      -218.9859
  80   2.0000      -8.039227      -218.7585
  81   2.0000      -8.038716      -218.7446
  82   2.0000      -8.013303      -218.0530
  83   2.0000      -8.012280      -218.0252
  84   2.0000      -6.047705      -164.5664
  85   2.0000      -6.043467      -164.4511
  86   2.0000      -6.042980      -164.4378
  87   2.0000      -6.040679      -164.3752
  88   2.0000      -6.038823      -164.3247
  89   2.0000      -6.036212      -164.2537
  90   2.0000      -6.036011      -164.2482
  91   2.0000      -6.031435      -164.1237
  92   2.0000      -6.028069      -164.0321
  93   2.0000      -6.017063      -163.7326
  94   2.0000      -6.012783      -163.6161
  95   2.0000      -6.009585      -163.5291
  96   2.0000      -6.008847      -163.5090
  97   2.0000      -6.008438      -163.4979
  98   2.0000      -6.004708      -163.3964
  99   2.0000      -6.004002      -163.3772
 100   2.0000      -6.000662      -163.2863
 101   2.0000      -6.000173      -163.2730
 102   2.0000      -5.983905      -162.8303
 103   2.0000      -5.982872      -162.8022
 104   2.0000      -5.979765      -162.7177
 105   2.0000      -5.978761      -162.6904
 106   2.0000      -5.972768      -162.5273
 107   2.0000      -5.971722      -162.4988
 108   2.0000      -1.306293       -35.5461
 109   2.0000      -1.124139       -30.5894
 110   2.0000      -1.093709       -29.7613
 111   2.0000      -1.036615       -28.2077
 112   2.0000      -1.015564       -27.6349
 113   2.0000      -1.013180       -27.5700
 114   2.0000      -1.002755       -27.2864
 115   2.0000      -1.001413       -27.2498
 116   2.0000      -0.997319       -27.1384
 117   2.0000      -0.996905       -27.1272
 118   2.0000      -0.990675       -26.9576
 119   2.0000      -0.987612       -26.8743
 120   2.0000      -0.974146       -26.5078
 121   2.0000      -0.967812       -26.3355
 122   2.0000      -0.966642       -26.3037
 123   2.0000      -0.949802       -25.8454
 124   2.0000      -0.931283       -25.3415
 125   2.0000      -0.925398       -25.1814
 126   2.0000      -0.916680       -24.9441
 127   2.0000      -0.912867       -24.8404
 128   2.0000      -0.911756       -24.8102
 129   2.0000      -0.907723       -24.7004
 130   2.0000      -0.900503       -24.5039
 131   2.0000      -0.890623       -24.2351
 132   2.0000      -0.885367       -24.0920
 133   2.0000      -0.882898       -24.0249
 134   2.0000      -0.872862       -23.7518
 135   2.0000      -0.867867       -23.6159
 136   2.0000      -0.858641       -23.3648
 137   2.0000      -0.856476       -23.3059
 138   2.0000      -0.847338       -23.0572
 139   2.0000      -0.844641       -22.9839
 140   2.0000      -0.837590       -22.7920
 141   2.0000      -0.833037       -22.6681
 142   2.0000      -0.831389       -22.6232
 143   2.0000      -0.829015       -22.5586
 144   2.0000      -0.821884       -22.3646
 145   2.0000      -0.812164       -22.1001
 146   2.0000      -0.802638       -21.8409
 147   2.0000      -0.797907       -21.7121
 148   2.0000      -0.783338       -21.3157
 149   2.0000      -0.778297       -21.1785
 150   2.0000      -0.773978       -21.0610
 151   2.0000      -0.763146       -20.7663
 152   2.0000      -0.758863       -20.6497
 153   2.0000      -0.749681       -20.3999
 154   2.0000      -0.743921       -20.2431
 155   2.0000      -0.732055       -19.9202
 156   2.0000      -0.728386       -19.8204
 157   2.0000      -0.723355       -19.6835
 158   2.0000      -0.708297       -19.2737
 159   2.0000      -0.707501       -19.2521
 160   2.0000      -0.704745       -19.1771
 161   2.0000      -0.698013       -18.9939
 162   2.0000      -0.692746       -18.8506
 163   2.0000      -0.682993       -18.5852
 164   2.0000      -0.676629       -18.4120
 165   2.0000      -0.673732       -18.3332
 166   2.0000      -0.667656       -18.1678
 167   2.0000      -0.665402       -18.1065
 168   2.0000      -0.657020       -17.8784
 169   2.0000      -0.650953       -17.7133
 170   2.0000      -0.645156       -17.5556
 171   2.0000      -0.637171       -17.3383
 172   2.0000      -0.633081       -17.2270
 173   2.0000      -0.630404       -17.1542
 174   2.0000      -0.628608       -17.1053
 175   2.0000      -0.622830       -16.9481
 176   2.0000      -0.620124       -16.8744
 177   2.0000      -0.617274       -16.7969
 178   2.0000      -0.612759       -16.6740
 179   2.0000      -0.608038       -16.5456
 180   2.0000      -0.605495       -16.4764
 181   2.0000      -0.597354       -16.2548
 182   2.0000      -0.593747       -16.1567
 183   2.0000      -0.587040       -15.9742
 184   2.0000      -0.582525       -15.8513
 185   2.0000      -0.574783       -15.6406
 186   2.0000      -0.569316       -15.4919
 187   2.0000      -0.567679       -15.4473
 188   2.0000      -0.564863       -15.3707
 189   2.0000      -0.563641       -15.3374
 190   2.0000      -0.557394       -15.1674
 191   2.0000      -0.550763       -14.9870
 192   2.0000      -0.549469       -14.9518
 193   2.0000      -0.546526       -14.8717
 194   2.0000      -0.544031       -14.8038
 195   2.0000      -0.541415       -14.7326
 196   2.0000      -0.540198       -14.6995
 197   2.0000      -0.535086       -14.5604
 198   2.0000      -0.533813       -14.5258
 199   2.0000      -0.527944       -14.3661
 200   2.0000      -0.523467       -14.2443
 201   2.0000      -0.522915       -14.2292
 202   2.0000      -0.521558       -14.1923
 203   2.0000      -0.518793       -14.1171
 204   2.0000      -0.516630       -14.0582
 205   2.0000      -0.512459       -13.9447
 206   2.0000      -0.511666       -13.9231
 207   2.0000      -0.510063       -13.8795
 208   2.0000      -0.508293       -13.8314
 209   2.0000      -0.506932       -13.7943
 210   2.0000      -0.506412       -13.7802
 211   2.0000      -0.505314       -13.7503
 212   2.0000      -0.502142       -13.6640
 213   2.0000      -0.500708       -13.6249
 214   2.0000      -0.499820       -13.6008
 215   2.0000      -0.498543       -13.5661
 216   2.0000      -0.495841       -13.4925
 217   2.0000      -0.494168       -13.4470
 218   2.0000      -0.493463       -13.4278
 219   2.0000      -0.492308       -13.3964
 220   2.0000      -0.488153       -13.2833
 221   2.0000      -0.486490       -13.2381
 222   2.0000      -0.484202       -13.1758
 223   2.0000      -0.481509       -13.1025
 224   2.0000      -0.476329       -12.9616
 225   2.0000      -0.474037       -12.8992
 226   2.0000      -0.472224       -12.8499
 227   2.0000      -0.469741       -12.7823
 228   2.0000      -0.467749       -12.7281
 229   2.0000      -0.465571       -12.6688
 230   2.0000      -0.461142       -12.5483
 231   2.0000      -0.458591       -12.4789
 232   2.0000      -0.457963       -12.4618
 233   2.0000      -0.457197       -12.4410
 234   2.0000      -0.455968       -12.4075
 235   2.0000      -0.455593       -12.3973
 236   2.0000      -0.453932       -12.3521
 237   2.0000      -0.452744       -12.3198
 238   2.0000      -0.451017       -12.2728
 239   2.0000      -0.446154       -12.1405
 240   2.0000      -0.445349       -12.1186
 241   2.0000      -0.444239       -12.0884
 242   2.0000      -0.441639       -12.0176
 243   2.0000      -0.440139       -11.9768
 244   2.0000      -0.438361       -11.9284
 245   2.0000      -0.435521       -11.8511
 246   2.0000      -0.434624       -11.8267
 247   2.0000      -0.434238       -11.8162
 248   2.0000      -0.433314       -11.7911
 249   2.0000      -0.431726       -11.7479
 250   2.0000      -0.427931       -11.6446
 251   2.0000      -0.427353       -11.6289
 252   2.0000      -0.421554       -11.4711
 253   2.0000      -0.420284       -11.4365
 254   2.0000      -0.418966       -11.4006
 255   2.0000      -0.418306       -11.3827
 256   2.0000      -0.416726       -11.3397
 257   2.0000      -0.414684       -11.2841
 258   2.0000      -0.411660       -11.2018
 259   2.0000      -0.409572       -11.1450
 260   2.0000      -0.408244       -11.1089
 261   2.0000      -0.404816       -11.0156
 262   2.0000      -0.398004       -10.8302
 263   2.0000      -0.397264       -10.8101
 264   2.0000      -0.390867       -10.6360
 265   2.0000      -0.385053       -10.4778
 266   2.0000      -0.383963       -10.4482
 267   2.0000      -0.381297       -10.3756
 268   2.0000      -0.377996       -10.2858
 269   2.0000      -0.364492        -9.9183
 270   2.0000      -0.356336        -9.6964
 271   2.0000      -0.350898        -9.5484
 272   2.0000      -0.344622        -9.3777
 273   2.0000      -0.337948        -9.1960
 274   2.0000      -0.329592        -8.9687
 275   2.0000      -0.327421        -8.9096
 276   2.0000      -0.317482        -8.6391
 277   2.0000      -0.313554        -8.5322
 278   2.0000      -0.308877        -8.4050
 279   2.0000      -0.302351        -8.2274
 280   2.0000      -0.297197        -8.0871
 281   2.0000      -0.296093        -8.0571
 282   2.0000      -0.293836        -7.9957
 283   2.0000      -0.286599        -7.7988
 284   2.0000      -0.278512        -7.5787
 285   2.0000      -0.271510        -7.3882
 286   2.0000      -0.249760        -6.7963
 287   2.0000      -0.241028        -6.5587
 288   2.0000      -0.219349        -5.9688
 289   0.0000      -0.098963        -2.6929
 290   0.0000      -0.083131        -2.2621
 291   0.0000      -0.059855        -1.6287
 292   0.0000      -0.050072        -1.3625
 293   0.0000      -0.028456        -0.7743

MULLIKEN ATOMIC CHARGES
-----------------------
   0 C :   -0.081842
   1 C :    0.303790
   2 F :   -0.185787
   3 C :   -0.012898
   4 C :   -0.034678
   5 C :    0.106041
   6 C :    0.096711
   7 C :   -0.084686
   8 C :    0.036147
   9 C :    0.005786
  10 C :   -0.094763
  11 C :    0.149429
  12 O :   -0.147494
  13 C :   -0.186297
  14 C :    0.290590
  15 C :   -0.315395
  16 C :   -0.199857
  17 N :    0.153006
  18 C :   -0.172918
  19 N :    0.148734
  20 C :   -0.004112
  21 C :    0.014366
  22 C :   -0.117402
  23 C :    0.132635
  24 N :   -0.017641
  25 C :   -0.143796
  26 C :    0.128538
  27 C :    0.053142
  28 C :   -0.045482
  29 C :    0.081566
  30 C :   -0.114209
  31 C :   -0.031738
  32 C :    0.003289
  33 C :   -0.105862
  34 S :    0.180510
  35 C :   -0.106725
  36 C :    0.002472
  37 C :    0.299487
  38 C :   -0.296837
  39 C :   -0.189125
  40 N :    0.168850
  41 C :   -0.182324
  42 N :    0.170181
  43 C :   -0.029191
  44 C :   -0.071162
  45 S :    0.173631
  46 C :   -0.060370
  47 C :   -0.032715
  48 C :    0.033035
  49 C :    0.055832
  50 C :   -0.125112
  51 S :    0.141782
  52 C :   -0.108795
  53 C :    0.054116
  54 C :    0.007858
  55 C :   -0.070281
  56 S :    0.126105
  57 C :    0.069780
  58 C :   -0.007738
  59 C :    0.014739
  60 C :   -0.047381
  61 C :   -0.053231
  62 C :    0.085155
  63 C :   -0.078949
  64 S :    0.087094
  65 C :   -0.111044
  66 S :   -0.023630
  67 C :   -0.106699
  68 C :    0.053194
  69 C :   -0.091682
  70 C :   -0.114406
  71 S :   -0.031698
  72 C :   -0.100117
  73 S :    0.083989
  74 C :   -0.047650
  75 C :    0.014017
  76 H :   -0.003808
  77 H :   -0.003403
  78 H :   -0.010726
  79 H :   -0.008010
  80 H :   -0.015388
  81 H :    0.015568
  82 H :    0.029376
  83 H :    0.057851
  84 H :    0.009050
  85 H :    0.122084
  86 H :    0.006382
  87 H :    0.041793
  88 H :    0.043945
  89 H :   -0.009443
  90 H :   -0.017840
  91 H :    0.002556
  92 H :    0.011862
  93 H :   -0.035185
  94 H :    0.036680
  95 H :   -0.017397
  96 H :    0.025147
  97 H :   -0.019851
  98 H :   -0.019869
  99 H :   -0.017822
 100 H :    0.062664
 101 H :    0.080125
 102 H :    0.065503
 103 H :    0.059974
 104 H :    0.071619
 105 H :    0.074722
 106 H :    0.026100
 107 H :   -0.006136
Sum of atomic charges:   -0.0000000

LOEWDIN ATOMIC CHARGES
----------------------
   0 C :   -0.040606
   1 C :    0.078369
   2 F :   -0.060588
   3 C :   -0.049650
   4 C :   -0.002522
   5 C :   -0.024589
   6 C :   -0.003887
   7 C :    0.011916
   8 C :   -0.019829
   9 C :   -0.061718
  10 C :    0.027184
  11 C :    0.080086
  12 O :   -0.150886
  13 C :   -0.108003
  14 C :    0.076941
  15 C :   -0.136390
  16 C :   -0.019352
  17 N :   -0.057148
  18 C :   -0.008506
  19 N :   -0.067053
  20 C :    0.081721
  21 C :   -0.096144
  22 C :    0.029682
  23 C :   -0.049080
  24 N :    0.107349
  25 C :    0.007812
  26 C :   -0.049720
  27 C :   -0.077445
  28 C :   -0.006590
  29 C :   -0.060529
  30 C :   -0.158999
  31 C :   -0.037335
  32 C :   -0.070097
  33 C :   -0.189510
  34 S :    0.483274
  35 C :   -0.179240
  36 C :   -0.073343
  37 C :    0.082724
  38 C :   -0.103649
  39 C :   -0.016608
  40 N :   -0.034640
  41 C :   -0.014733
  42 N :   -0.035583
  43 C :   -0.038949
  44 C :   -0.180610
  45 S :    0.493183
  46 C :   -0.185508
  47 C :   -0.028744
  48 C :   -0.022951
  49 C :   -0.047409
  50 C :   -0.140269
  51 S :    0.455271
  52 C :   -0.204701
  53 C :   -0.039892
  54 C :   -0.064548
  55 C :   -0.166050
  56 S :    0.419071
  57 C :   -0.051583
  58 C :   -0.000265
  59 C :   -0.062522
  60 C :   -0.151827
  61 C :   -0.063824
  62 C :   -0.057279
  63 C :   -0.176744
  64 S :    0.420058
  65 C :   -0.180135
  66 S :    0.274358
  67 C :   -0.162839
  68 C :   -0.062494
  69 C :   -0.174656
  70 C :   -0.182398
  71 S :    0.272290
  72 C :   -0.161928
  73 S :    0.403322
  74 C :   -0.164270
  75 C :   -0.062221
  76 H :    0.043400
  77 H :    0.031831
  78 H :    0.035202
  79 H :    0.038682
  80 H :    0.038459
  81 H :    0.042417
  82 H :    0.042669
  83 H :    0.050529
  84 H :    0.033683
  85 H :    0.092428
  86 H :    0.033673
  87 H :    0.045526
  88 H :    0.043612
  89 H :    0.030099
  90 H :    0.026726
  91 H :    0.037636
  92 H :    0.036879
  93 H :    0.025685
  94 H :    0.036615
  95 H :    0.030138
  96 H :    0.022734
  97 H :    0.029322
  98 H :    0.022353
  99 H :    0.021773
 100 H :    0.031689
 101 H :    0.014823
 102 H :    0.027142
 103 H :    0.030616
 104 H :    0.031152
 105 H :    0.014372
 106 H :    0.024699
 107 H :    0.027415

  Mayer bond orders larger than 0.100000
B(  0-C ,  1-C ) :   1.4543 B(  0-C ,  6-C ) :   1.1986 B(  0-C , 76-H ) :   1.0121
B(  1-C ,  2-F ) :   1.0610 B(  1-C ,  3-C ) :   1.2201 B(  3-C ,  4-C ) :   1.4686
B(  3-C , 77-H ) :   0.9867 B(  4-C ,  5-C ) :   1.2220 B(  4-C , 78-H ) :   1.0008
B(  5-C ,  6-C ) :   1.2605 B(  5-C , 10-C ) :   1.1856 B(  6-C ,  7-C ) :   1.1980
B(  7-C ,  8-C ) :   1.4514 B(  7-C , 79-H ) :   1.0006 B(  8-C ,  9-C ) :   1.2189
B(  8-C , 14-C ) :   0.9994 B(  9-C , 10-C ) :   1.4593 B(  9-C , 11-C ) :   0.9104
B( 10-C , 80-H ) :   1.0192 B( 11-C , 12-O ) :   2.2734 B( 11-C , 13-C ) :   0.9431
B( 13-C , 14-C ) :   1.0261 B( 13-C , 20-C ) :   1.6762 B( 14-C , 15-C ) :   1.6726
B( 15-C , 16-C ) :   1.1366 B( 15-C , 18-C ) :   1.1762 B( 16-C , 17-N ) :   2.9786
B( 18-C , 19-N ) :   2.9741 B( 20-C , 21-C ) :   1.0832 B( 20-C , 81-H ) :   0.9447
B( 21-C , 22-C ) :   1.4018 B( 21-C , 27-C ) :   1.1976 B( 22-C , 23-C ) :   1.1276
B( 22-C , 24-N ) :   1.2595 B( 23-C , 82-H ) :   0.9344 B( 23-C , 83-H ) :   0.9369
B( 23-C , 84-H ) :   0.9348 B( 24-N , 25-C ) :   1.2048 B( 24-N , 85-H ) :   0.9322
B( 25-C , 26-C ) :   1.1134 B( 25-C , 27-C ) :   1.4750 B( 26-C , 86-H ) :   0.9369
B( 26-C , 87-H ) :   0.9396 B( 26-C , 88-H ) :   0.9428 B( 27-C , 28-C ) :   1.1048
B( 28-C , 29-C ) :   1.7597 B( 28-C , 89-H ) :   0.9446 B( 29-C , 30-C ) :   1.1045
B( 29-C , 90-H ) :   0.9505 B( 30-C , 31-C ) :   1.4785 B( 30-C , 34-S ) :   1.1109
B( 31-C , 32-C ) :   1.2781 B( 31-C , 91-H ) :   0.9909 B( 32-C , 33-C ) :   1.4465
B( 32-C , 37-C ) :   1.0003 B( 33-C , 34-S ) :   1.1175 B( 33-C , 35-C ) :   1.1849
B( 35-C , 36-C ) :   1.4533 B( 35-C , 45-S ) :   1.1261 B( 36-C , 37-C ) :   0.9935
B( 36-C , 43-C ) :   1.2893 B( 37-C , 38-C ) :   1.7093 B( 38-C , 39-C ) :   1.1296
B( 38-C , 41-C ) :   1.1348 B( 39-C , 40-N ) :   2.9931 B( 41-C , 42-N ) :   2.9868
B( 43-C , 44-C ) :   1.4825 B( 43-C , 92-H ) :   0.9865 B( 44-C , 45-S ) :   1.1097
B( 44-C , 46-C ) :   1.0858 B( 46-C , 47-C ) :   1.5509 B( 46-C , 51-S ) :   1.0620
B( 47-C , 48-C ) :   1.2304 B( 47-C , 93-H ) :   0.9611 B( 48-C , 49-C ) :   1.0482
B( 48-C , 57-C ) :   1.4095 B( 49-C , 50-C ) :   1.6174 B( 49-C , 52-C ) :   1.1766
B( 50-C , 51-S ) :   1.1316 B( 50-C , 94-H ) :   0.9407 B( 52-C , 53-C ) :   1.4448
B( 52-C , 56-S ) :   1.0744 B( 53-C , 54-C ) :   1.2208 B( 53-C , 57-C ) :   1.1026
B( 54-C , 55-C ) :   1.5841 B( 54-C , 95-H ) :   0.9976 B( 55-C , 56-S ) :   1.1548
B( 55-C , 96-H ) :   0.9666 B( 57-C , 58-C ) :   1.1373 B( 58-C , 59-C ) :   1.6844
B( 58-C , 97-H ) :   0.9596 B( 59-C , 60-C ) :   1.0999 B( 59-C , 98-H ) :   0.9568
B( 60-C , 61-C ) :   1.5708 B( 60-C , 64-S ) :   1.0601 B( 61-C , 62-C ) :   1.1884
B( 61-C , 99-H ) :   0.9841 B( 62-C , 63-C ) :   1.3023 B( 62-C , 70-C ) :   1.3778
B( 63-C , 64-S ) :   1.0507 B( 63-C , 65-C ) :   1.4202 B( 65-C , 66-S ) :   1.0394
B( 65-C , 68-C ) :   1.3873 B( 66-S , 67-C ) :   0.9919 B( 67-C ,100-H ) :   0.9702
B( 67-C ,101-H ) :   0.9641 B( 67-C ,102-H ) :   0.9689 B( 68-C , 69-C ) :   1.3157
B( 68-C , 75-C ) :   1.1890 B( 69-C , 70-C ) :   1.4229 B( 69-C , 73-S ) :   1.0592
B( 70-C , 71-S ) :   1.0331 B( 71-S , 72-C ) :   0.9945 B( 72-C ,103-H ) :   0.9712
B( 72-C ,104-H ) :   0.9722 B( 72-C ,105-H ) :   0.9644 B( 73-S , 74-C ) :   1.1030
B( 74-C , 75-C ) :   1.6452 B( 74-C ,106-H ) :   0.9683 B( 75-C ,107-H ) :   0.9872

-----------------------------------------------------------------------------
         ABSORPTION SPECTRUM VIA TRANSITION ELECTRIC DIPOLE MOMENTS
-----------------------------------------------------------------------------
State   Energy  Wavelength   fosc         T2         TX        TY        TZ
        (cm-1)    (nm)                  (au**2)     (au)      (au)      (au)
-----------------------------------------------------------------------------
   0   10589.1    944.4   0.103648607   3.22239  -0.18178  -0.69111  -1.64673
   1   15092.9    662.6   0.015615541   0.34061   0.14927   0.37782   0.41903
   2   15769.9    634.1   0.025187586   0.52581  -0.04497  -0.55331   0.46652
   3   18955.1    527.6   0.618671670  10.74510  -0.28929  -1.21760   3.02966
   4   20229.3    494.3   0.006180204   0.10058  -0.09903   0.20133  -0.22414
   5   21125.2    473.4   0.016117391   0.25117   0.16072   0.32121   0.34952
   6   22513.9    444.2   0.203582369   2.97691   0.90494   0.16656   1.45954
   7   22863.9    437.4   0.001813344   0.02611  -0.10192   0.03717  -0.11975
   8   23496.0    425.6   0.211952739   2.96975  -0.15766  -0.46462   1.65198
   9   23910.6    418.2   0.118417943   1.63043  -0.16395   0.45014  -1.18361
  10   24516.3    407.9   0.021956839   0.29484  -0.18823  -0.06489   0.50518
  11   25349.9    394.5   0.210725468   2.73663  -0.49228  -1.57913   0.02520
  12   25560.4    391.2   0.062164167   0.80066  -0.49885  -0.72666  -0.15416
  13   26307.8    380.1   0.049219504   0.61593   0.06324   0.78191   0.02333
  14   26913.0    371.6   0.015176960   0.18565   0.07310   0.41466   0.09148
  15   27337.9    365.8   0.651990064   7.85146   0.22236   2.65738   0.86044
  16   27460.7    364.2   0.019696358   0.23613   0.21193   0.39329  -0.19114
  17   28270.6    353.7   0.086709131   1.00973  -0.29467  -0.84485  -0.45731
  18   28545.4    350.3   0.012161614   0.14026  -0.01300  -0.20905  -0.31047
  19   28610.9    349.5   0.186628326   2.14744   0.49998   1.37344   0.10543
  20   28885.4    346.2   0.174381065   1.98745   0.11455   1.29351   0.54878
  21   29566.4    338.2   0.053065261   0.59086   0.23226   0.71694   0.15136
  22   29851.6    335.0   0.049518501   0.54610   0.66129   0.02899   0.32857
  23   29901.1    334.4   0.129363556   1.42430   0.22753   1.16614  -0.11244
  24   30286.6    330.2   0.030099797   0.32718  -0.33573   0.44157  -0.13958
  25   30547.2    327.4   0.071988412   0.77583  -0.39122  -0.53567   0.57951
  26   30841.1    324.2   0.102489845   1.09402  -0.54445  -0.32626  -0.83135
  27   31199.1    320.5   0.111861145   1.18035   0.71511   0.76946   0.27732
  28   31525.9    317.2   0.459468748   4.79804  -1.43651  -1.56011   0.54821
  29   31969.9    312.8   0.466003135   4.79870  -0.66942   0.51715   2.02068
  30   32087.3    311.7   0.146033474   1.49829  -0.47990   0.33637   1.07464
  31   32688.7    305.9   0.078493288   0.79051   0.10334  -0.79318  -0.38821
  32   32837.9    304.5   0.019325074   0.19374  -0.39328   0.02256  -0.19638
  33   33296.9    300.3   0.057382647   0.56735   0.17936   0.64521   0.34480
  34   33532.6    298.2   0.438035093   4.30048   0.50272  -0.61161  -1.91669
  35   33798.7    295.9   0.090682094   0.88328   0.21430  -0.67962  -0.61275
  36   33901.8    295.0   0.028608209   0.27781  -0.13992   0.11321   0.49539
  37   34170.4    292.7   0.118053302   1.13737  -0.05521   0.37911   0.99529
  38   34321.5    291.4   0.048942816   0.46946   0.51060   0.32825  -0.31779
  39   34385.1    290.8   0.045868896   0.43916  -0.49044  -0.15405   0.41822
  40   34819.3    287.2   0.050527996   0.47774   0.22586   0.09589  -0.64616
  41   34907.2    286.5   0.052825657   0.49820  -0.24376  -0.15485   0.64406
  42   35338.6    283.0   0.083923656   0.78183  -0.27330  -0.20947  -0.81440
  43   35529.1    281.5   0.106154740   0.98363  -0.11675  -0.82713  -0.53465
  44   35671.6    280.3   0.197530667   1.82300   0.46226  -0.72265  -1.04264
  45   35812.6    279.2   0.044601099   0.41000   0.00136  -0.45898  -0.44647
  46   35991.2    277.8   0.740026916   6.76903   0.50915  -1.08584  -2.30884
  47   36122.3    276.8   0.336729041   3.06888   0.22981  -1.54362  -0.79580
  48   36263.9    275.8   0.216409230   1.96461   0.30336  -0.56528  -1.24621
  49   36477.5    274.1   0.009016557   0.08138   0.01118   0.14949   0.24270
  50   36723.3    272.3   0.026148198   0.23441  -0.04401   0.44024  -0.19662
  51   36911.0    270.9   0.026580919   0.23708   0.08389   0.47764  -0.04358
  52   37064.3    269.8   0.072176284   0.64108  -0.01411   0.50911   0.61781
  53   37080.7    269.7   0.067388445   0.59829   0.35509  -0.29581  -0.62024
  54   37559.5    266.2   0.001548546   0.01357   0.10541   0.04951  -0.00315
  55   37826.1    264.4   0.062484264   0.54382   0.04158   0.18703  -0.71212
  56   38043.0    262.9   0.033722066   0.29182  -0.17550  -0.46703  -0.20713
  57   38218.0    261.7   0.021615707   0.18620   0.23705  -0.23188  -0.27611
  58   38586.0    259.2   0.002019142   0.01723   0.07006  -0.03217  -0.10622
  59   38814.0    257.6   0.005086972   0.04315   0.14865   0.09890  -0.10616
  60   39089.9    255.8   0.011323084   0.09536  -0.30707   0.02077   0.02523
  61   39136.5    255.5   0.044083589   0.37083   0.12658  -0.54100  -0.24925
  62   39320.9    254.3   0.117144038   0.98078   0.57162   0.78551   0.19236
  63   39505.7    253.1   0.019894375   0.16579   0.10151   0.12960  -0.37240
  64   39653.0    252.2   0.165587886   1.37476  -0.12177  -0.30103  -1.12664
  65   39818.5    251.1   0.082141528   0.67913  -0.29550  -0.41514  -0.64767
  66   40027.4    249.8   0.041645934   0.34252  -0.43161  -0.38498  -0.08959
  67   40206.5    248.7   0.023260248   0.19046   0.32861  -0.22960  -0.17250
  68   40294.6    248.2   0.161378442   1.31848  -0.51152  -0.67491  -0.77545

FINAL SINGLE POINT ENERGY     -5973.478880652176

DIPOLE MOMENT
-------------
                                X             Y             Z
Electronic contribution:     12.83459      35.25610       9.82827
Nuclear contribution   :    -15.53326     -35.71119     -10.43613
                        -----------------------------------------
Total Dipole Moment    :     -2.69867      -0.45508      -0.60786
                        -----------------------------------------
Magnitude (a.u.)       :      2.80347
Magnitude (Debye)      :      7.12585

Rotational constants in cm-1:     0.000968     0.000487     0.000345
Rotational constants in MHz :    29.017959    14.608308    10.352275

                             ****ORCA TERMINATED NORMALLY****
TOTAL RUN TIME: 0 days 0 hours 13 minutes 39 seconds 935 msec
