                         Program Version 4.2.0 -  RELEASE  -
|  1> # ORCA input file
|  2> # SCF done       -187.413832445059          0.000582679806
|  3> ! CAM-B3LYP def2-SVP def2/J RIJCOSX Grid4 TightSCF
|  4> %maxcore 5000
|  5> %tddft
|  6>     Mode sTDDFT
|  7>     Ethresh 5.0
|  8>     maxcore 5000
|  9> end
| 10>
| 11> %pal
| 12>   nprocs 6
| 13>   end
| 14> * xyz 0 1
| 15>    C       -5.38557        -2.54815        -0.94069
| 16>    C       -4.20007        -2.64490        -1.62148
| 17>    C       -3.52933        -3.86157        -1.86826
| 18>    N       -2.93684        -4.81675        -2.10083
| 19>    C       -3.46180        -1.56165        -2.14370
| 20>    N       -2.79802        -0.73559        -2.58588
| 21>    C       -6.11287        -3.66877        -0.35209
| 22>    C       -7.22377        -3.16224         0.36697
| 23>    C       -8.10775        -3.97158         1.03806
| 24>    C       -7.89040        -5.35244         0.99057
| 25>    C       -6.78269        -5.85162         0.26446
| 26>    C       -5.88522        -5.03084        -0.40840
| 27>    S       -6.70776        -7.58584         0.32601
| 28>    C       -8.14489        -7.61713         1.31288
| 29>    C       -8.65600        -6.39259         1.58437
| 30>   Br       -8.83636        -9.26201         1.88937
| 31>    C       -7.24903        -1.69610         0.24228
| 32>    O       -8.05748        -0.94228         0.75769
| 33>    C       -6.12513        -1.33814        -0.62873
| 34>    C       -5.87370        -0.08769        -1.13325
| 35>    C       -6.54599         1.12604        -0.92602
| 36>    C       -6.19936         2.28888        -1.62688
| 37>    C       -7.00017         3.36407        -1.29694
| 38>    C       -7.96033         3.03382        -0.30992
| 39>    S       -7.89075         1.40569         0.18096
| 40>    C       -8.74493         4.18541        -0.05901
| 41>    C       -8.29502         5.23320        -0.88559
| 42>    C       -7.17059         4.75978        -1.67493
| 43>    C       -6.42529         5.47021        -2.56842
| 44>    C       -5.35396         4.89026        -3.28120
| 45>    N       -4.48300         4.42753        -3.86541
| 46>    C       -6.66182         6.83570        -2.83647
| 47>    N       -6.83470         7.94816        -3.05231
| 48>    C       -9.04589         6.39768        -0.73977
| 49>    C      -10.04952         6.24751         0.20252
| 50>    S      -10.05433         4.65170         0.93182
| 51>    C      -11.04580         7.19314         0.60751
| 52>    C      -11.36170         8.35886        -0.08122
| 53>    F      -10.70100         8.68120        -1.20294
| 54>    C      -12.37490         9.24144         0.31734
| 55>    F      -12.55116        10.32626        -0.45701
| 56>    C      -13.15524         9.06162         1.45347
| 57>    C      -12.82972         7.90423         2.20849
| 58>    C      -11.82080         6.97771         1.77710
| 59>    N      -11.71210         5.94267         2.60466
| 60>    S      -12.76667         6.11376         3.80681
| 61>    N      -13.41493         7.50603         3.33469
| 62>    C      -14.22052         9.95177         1.85454
| 63>    C      -14.98591        10.64927         0.95355
| 64>    C      -16.01867        11.52038         1.29721
| 65>    C      -16.33451        11.80794         2.69671
| 66>    C      -15.71896        11.21213         3.74394
| 67>    S      -14.48191        10.03925         3.58809
| 68>    C      -17.38917        12.75716         2.65508
| 69>    C      -17.73605        13.03244         1.32735
| 70>    C      -18.78922        13.97391         1.25498
| 71>    C      -19.19860        14.37098         2.48782
| 72>    S      -18.33617        13.62904         3.79086
| 73>    C      -16.89177        12.24948         0.46122
| 74>    C      -16.91906        12.14286        -0.94846
| 75>    C      -17.77988        12.77449        -1.78936
| 76>    C      -17.76986        12.54099        -3.15388
| 77>    C      -17.76832        12.29584        -4.34534
| 78>    C      -17.77212        11.99098        -5.69283
| 79>    C      -16.98910        11.04909        -6.33812
| 80>    C      -17.24062        10.95805        -7.71453
| 81>    C      -18.22006        11.82932        -8.14750
| 82>    S      -18.83619        12.77646        -6.82540
| 83>    C      -18.70668        11.98401        -9.44555
| 84>    N      -19.11098        12.11110       -10.51199
| 85>    F      -16.60310        10.11313        -8.52315
| 86>    F      -16.08749        10.29509        -5.70050
| 87>    H       -8.94253        -3.55362         1.57844
| 88>    H       -5.05960        -5.46147        -0.94945
| 89>    H       -9.53708        -6.22818         2.17729
| 90>    H       -5.04957         0.00170        -1.83102
| 91>    H       -5.39854         2.30622        -2.34494
| 92>    H       -8.87016         7.30681        -1.28404
| 93>    H      -14.78492        10.49487        -0.09602
| 94>    H      -15.98825        11.42336         4.76701
| 95>    H      -19.23357        14.35641         0.35484
| 96>    H      -19.97449        15.07279         2.72399
| 97>    H      -16.19745        11.47023        -1.39352
| 98>    H      -18.52122        13.46981        -1.42642
| 99> *
|100>
|101>                          ****END OF INPUT****

CARTESIAN COORDINATES (ANGSTROEM)
---------------------------------
  C     -5.385570   -2.548150   -0.940690
  C     -4.200070   -2.644900   -1.621480
  C     -3.529330   -3.861570   -1.868260
  N     -2.936840   -4.816750   -2.100830
  C     -3.461800   -1.561650   -2.143700
  N     -2.798020   -0.735590   -2.585880
  C     -6.112870   -3.668770   -0.352090
  C     -7.223770   -3.162240    0.366970
  C     -8.107750   -3.971580    1.038060
  C     -7.890400   -5.352440    0.990570
  C     -6.782690   -5.851620    0.264460
  C     -5.885220   -5.030840   -0.408400
  S     -6.707760   -7.585840    0.326010
  C     -8.144890   -7.617130    1.312880
  C     -8.656000   -6.392590    1.584370
  Br    -8.836360   -9.262010    1.889370
  C     -7.249030   -1.696100    0.242280
  O     -8.057480   -0.942280    0.757690
  C     -6.125130   -1.338140   -0.628730
  C     -5.873700   -0.087690   -1.133250
  C     -6.545990    1.126040   -0.926020
  C     -6.199360    2.288880   -1.626880
  C     -7.000170    3.364070   -1.296940
  C     -7.960330    3.033820   -0.309920
  S     -7.890750    1.405690    0.180960
  C     -8.744930    4.185410   -0.059010
  C     -8.295020    5.233200   -0.885590
  C     -7.170590    4.759780   -1.674930
  C     -6.425290    5.470210   -2.568420
  C     -5.353960    4.890260   -3.281200
  N     -4.483000    4.427530   -3.865410
  C     -6.661820    6.835700   -2.836470
  N     -6.834700    7.948160   -3.052310
  C     -9.045890    6.397680   -0.739770
  C    -10.049520    6.247510    0.202520
  S    -10.054330    4.651700    0.931820
  C    -11.045800    7.193140    0.607510
  C    -11.361700    8.358860   -0.081220
  F    -10.701000    8.681200   -1.202940
  C    -12.374900    9.241440    0.317340
  F    -12.551160   10.326260   -0.457010
  C    -13.155240    9.061620    1.453470
  C    -12.829720    7.904230    2.208490
  C    -11.820800    6.977710    1.777100
  N    -11.712100    5.942670    2.604660
  S    -12.766670    6.113760    3.806810
  N    -13.414930    7.506030    3.334690
  C    -14.220520    9.951770    1.854540
  C    -14.985910   10.649270    0.953550
  C    -16.018670   11.520380    1.297210
  C    -16.334510   11.807940    2.696710
  C    -15.718960   11.212130    3.743940
  S    -14.481910   10.039250    3.588090
  C    -17.389170   12.757160    2.655080
  C    -17.736050   13.032440    1.327350
  C    -18.789220   13.973910    1.254980
  C    -19.198600   14.370980    2.487820
  S    -18.336170   13.629040    3.790860
  C    -16.891770   12.249480    0.461220
  C    -16.919060   12.142860   -0.948460
  C    -17.779880   12.774490   -1.789360
  C    -17.769860   12.540990   -3.153880
  C    -17.768320   12.295840   -4.345340
  C    -17.772120   11.990980   -5.692830
  C    -16.989100   11.049090   -6.338120
  C    -17.240620   10.958050   -7.714530
  C    -18.220060   11.829320   -8.147500
  S    -18.836190   12.776460   -6.825400
  C    -18.706680   11.984010   -9.445550
  N    -19.110980   12.111100  -10.511990
  F    -16.603100   10.113130   -8.523150
  F    -16.087490   10.295090   -5.700500
  H     -8.942530   -3.553620    1.578440
  H     -5.059600   -5.461470   -0.949450
  H     -9.537080   -6.228180    2.177290
  H     -5.049570    0.001700   -1.831020
  H     -5.398540    2.306220   -2.344940
  H     -8.870160    7.306810   -1.284040
  H    -14.784920   10.494870   -0.096020
  H    -15.988250   11.423360    4.767010
  H    -19.233570   14.356410    0.354840
  H    -19.974490   15.072790    2.723990
  H    -16.197450   11.470230   -1.393520
  H    -18.521220   13.469810   -1.426420

 Total Charge           Charge          ....    0
 Multiplicity           Mult            ....    1
 Number of Electrons    NEL             ....  564
 Basis Dimension        Dim             .... 1114

ORBITAL ENERGIES
----------------

  NO   OCC          E(Eh)            E(eV)
   0   2.0000    -482.889629    -13140.0948
   1   2.0000     -89.052494     -2423.2416
   2   2.0000     -88.994689     -2421.6686
   3   2.0000     -88.993208     -2421.6283
   4   2.0000     -88.987163     -2421.4638
   5   2.0000     -88.984597     -2421.3940
   6   2.0000     -88.980119     -2421.2721
   7   2.0000     -88.963719     -2420.8259
   8   2.0000     -62.567316     -1702.5432
   9   2.0000     -56.401270     -1534.7566
  10   2.0000     -56.398548     -1534.6825
  11   2.0000     -56.398516     -1534.6817
  12   2.0000     -24.821445      -675.4259
  13   2.0000     -24.819666      -675.3774
  14   2.0000     -24.808402      -675.0709
  15   2.0000     -24.801585      -674.8854
  16   2.0000     -19.229720      -523.2673
  17   2.0000     -14.467588      -393.6831
  18   2.0000     -14.466881      -393.6639
  19   2.0000     -14.431812      -392.7096
  20   2.0000     -14.431244      -392.6941
  21   2.0000     -14.419778      -392.3821
  22   2.0000     -14.417809      -392.3285
  23   2.0000     -14.409478      -392.1018
  24   2.0000     -10.404457      -283.1197
  25   2.0000     -10.403398      -283.0908
  26   2.0000     -10.390524      -282.7405
  27   2.0000     -10.379296      -282.4350
  28   2.0000     -10.377376      -282.3828
  29   2.0000     -10.367294      -282.1084
  30   2.0000     -10.363392      -282.0022
  31   2.0000     -10.357564      -281.8436
  32   2.0000     -10.357283      -281.8360
  33   2.0000     -10.355574      -281.7895
  34   2.0000     -10.346480      -281.5420
  35   2.0000     -10.345899      -281.5262
  36   2.0000     -10.341980      -281.4196
  37   2.0000     -10.339781      -281.3598
  38   2.0000     -10.339509      -281.3524
  39   2.0000     -10.339364      -281.3484
  40   2.0000     -10.337197      -281.2894
  41   2.0000     -10.337098      -281.2867
  42   2.0000     -10.336438      -281.2688
  43   2.0000     -10.335520      -281.2438
  44   2.0000     -10.333753      -281.1957
  45   2.0000     -10.331810      -281.1429
  46   2.0000     -10.331282      -281.1285
  47   2.0000     -10.331029      -281.1216
  48   2.0000     -10.330433      -281.1054
  49   2.0000     -10.330375      -281.1038
  50   2.0000     -10.322139      -280.8797
  51   2.0000     -10.320729      -280.8413
  52   2.0000     -10.316218      -280.7186
  53   2.0000     -10.313388      -280.6416
  54   2.0000     -10.313245      -280.6377
  55   2.0000     -10.312548      -280.6187
  56   2.0000     -10.311042      -280.5777
  57   2.0000     -10.310246      -280.5561
  58   2.0000     -10.309164      -280.5266
  59   2.0000     -10.308859      -280.5183
  60   2.0000     -10.308699      -280.5140
  61   2.0000     -10.307215      -280.4736
  62   2.0000     -10.304846      -280.4091
  63   2.0000     -10.303695      -280.3778
  64   2.0000     -10.303083      -280.3612
  65   2.0000     -10.301197      -280.3098
  66   2.0000     -10.298251      -280.2297
  67   2.0000     -10.296157      -280.1727
  68   2.0000     -10.295188      -280.1463
  69   2.0000     -10.294333      -280.1230
  70   2.0000     -10.290687      -280.0238
  71   2.0000     -10.289506      -279.9917
  72   2.0000     -10.284590      -279.8579
  73   2.0000     -10.282949      -279.8133
  74   2.0000     -10.282902      -279.8120
  75   2.0000     -10.282132      -279.7910
  76   2.0000      -8.796738      -239.3714
  77   2.0000      -8.143881      -221.6063
  78   2.0000      -8.088238      -220.0921
  79   2.0000      -8.085588      -220.0200
  80   2.0000      -8.082268      -219.9297
  81   2.0000      -8.079393      -219.8515
  82   2.0000      -8.076103      -219.7619
  83   2.0000      -8.059171      -219.3012
  84   2.0000      -6.633033      -180.4940
  85   2.0000      -6.618476      -180.0979
  86   2.0000      -6.618267      -180.0922
  87   2.0000      -6.115152      -166.4017
  88   2.0000      -6.107468      -166.1927
  89   2.0000      -6.106135      -166.1564
  90   2.0000      -6.057574      -164.8350
  91   2.0000      -6.054976      -164.7643
  92   2.0000      -6.053062      -164.7122
  93   2.0000      -6.051837      -164.6789
  94   2.0000      -6.050713      -164.6483
  95   2.0000      -6.050247      -164.6356
  96   2.0000      -6.048895      -164.5988
  97   2.0000      -6.048167      -164.5790
  98   2.0000      -6.047801      -164.5690
  99   2.0000      -6.045791      -164.5143
 100   2.0000      -6.044201      -164.4711
 101   2.0000      -6.043592      -164.4545
 102   2.0000      -6.041499      -164.3976
 103   2.0000      -6.041479      -164.3970
 104   2.0000      -6.037345      -164.2845
 105   2.0000      -6.028617      -164.0470
 106   2.0000      -6.024333      -163.9304
 107   2.0000      -6.021230      -163.8460
 108   2.0000      -2.748940       -74.8025
 109   2.0000      -2.744794       -74.6896
 110   2.0000      -2.744659       -74.6860
 111   2.0000      -2.733082       -74.3709
 112   2.0000      -2.733066       -74.3705
 113   2.0000      -1.344603       -36.5885
 114   2.0000      -1.326187       -36.0874
 115   2.0000      -1.325785       -36.0765
 116   2.0000      -1.311958       -35.7002
 117   2.0000      -1.155213       -31.4350
 118   2.0000      -1.145111       -31.1601
 119   2.0000      -1.049671       -28.5630
 120   2.0000      -1.027893       -27.9704
 121   2.0000      -1.024438       -27.8764
 122   2.0000      -1.019621       -27.7453
 123   2.0000      -1.018795       -27.7228
 124   2.0000      -1.017579       -27.6897
 125   2.0000      -1.015106       -27.6224
 126   2.0000      -1.009042       -27.4574
 127   2.0000      -1.007179       -27.4067
 128   2.0000      -0.997622       -27.1467
 129   2.0000      -0.996589       -27.1186
 130   2.0000      -0.993413       -27.0321
 131   2.0000      -0.987871       -26.8813
 132   2.0000      -0.975838       -26.5539
 133   2.0000      -0.962581       -26.1932
 134   2.0000      -0.947333       -25.7782
 135   2.0000      -0.938335       -25.5334
 136   2.0000      -0.926424       -25.2093
 137   2.0000      -0.916154       -24.9298
 138   2.0000      -0.913364       -24.8539
 139   2.0000      -0.906060       -24.6551
 140   2.0000      -0.898036       -24.4368
 141   2.0000      -0.890808       -24.2401
 142   2.0000      -0.889057       -24.1925
 143   2.0000      -0.885626       -24.0991
 144   2.0000      -0.879595       -23.9350
 145   2.0000      -0.875708       -23.8292
 146   2.0000      -0.861324       -23.4378
 147   2.0000      -0.858236       -23.3538
 148   2.0000      -0.856149       -23.2970
 149   2.0000      -0.851088       -23.1593
 150   2.0000      -0.834467       -22.7070
 151   2.0000      -0.828108       -22.5340
 152   2.0000      -0.823791       -22.4165
 153   2.0000      -0.807361       -21.9694
 154   2.0000      -0.797157       -21.6917
 155   2.0000      -0.784349       -21.3432
 156   2.0000      -0.781774       -21.2731
 157   2.0000      -0.768413       -20.9096
 158   2.0000      -0.763050       -20.7636
 159   2.0000      -0.755113       -20.5477
 160   2.0000      -0.745763       -20.2932
 161   2.0000      -0.740877       -20.1603
 162   2.0000      -0.730776       -19.8854
 163   2.0000      -0.722462       -19.6592
 164   2.0000      -0.709139       -19.2967
 165   2.0000      -0.702963       -19.1286
 166   2.0000      -0.699411       -19.0319
 167   2.0000      -0.697218       -18.9723
 168   2.0000      -0.690977       -18.8024
 169   2.0000      -0.689604       -18.7651
 170   2.0000      -0.679198       -18.4819
 171   2.0000      -0.674974       -18.3670
 172   2.0000      -0.670162       -18.2360
 173   2.0000      -0.668421       -18.1887
 174   2.0000      -0.662534       -18.0285
 175   2.0000      -0.657375       -17.8881
 176   2.0000      -0.656297       -17.8587
 177   2.0000      -0.651273       -17.7220
 178   2.0000      -0.642584       -17.4856
 179   2.0000      -0.635041       -17.2804
 180   2.0000      -0.629854       -17.1392
 181   2.0000      -0.626574       -17.0499
 182   2.0000      -0.624995       -17.0070
 183   2.0000      -0.621546       -16.9131
 184   2.0000      -0.613891       -16.7048
 185   2.0000      -0.611494       -16.6396
 186   2.0000      -0.608336       -16.5537
 187   2.0000      -0.603323       -16.4172
 188   2.0000      -0.600770       -16.3478
 189   2.0000      -0.591771       -16.1029
 190   2.0000      -0.589851       -16.0507
 191   2.0000      -0.583788       -15.8857
 192   2.0000      -0.579258       -15.7624
 193   2.0000      -0.575870       -15.6702
 194   2.0000      -0.574198       -15.6247
 195   2.0000      -0.570302       -15.5187
 196   2.0000      -0.568858       -15.4794
 197   2.0000      -0.564590       -15.3633
 198   2.0000      -0.560202       -15.2439
 199   2.0000      -0.558889       -15.2081
 200   2.0000      -0.553044       -15.0491
 201   2.0000      -0.552907       -15.0454
 202   2.0000      -0.548989       -14.9387
 203   2.0000      -0.547269       -14.8919
 204   2.0000      -0.546618       -14.8742
 205   2.0000      -0.539684       -14.6855
 206   2.0000      -0.533065       -14.5054
 207   2.0000      -0.527809       -14.3624
 208   2.0000      -0.524729       -14.2786
 209   2.0000      -0.524138       -14.2625
 210   2.0000      -0.521685       -14.1958
 211   2.0000      -0.518628       -14.1126
 212   2.0000      -0.514892       -14.0109
 213   2.0000      -0.513398       -13.9703
 214   2.0000      -0.512417       -13.9436
 215   2.0000      -0.508470       -13.8362
 216   2.0000      -0.507828       -13.8187
 217   2.0000      -0.502444       -13.6722
 218   2.0000      -0.501683       -13.6515
 219   2.0000      -0.499439       -13.5904
 220   2.0000      -0.498669       -13.5695
 221   2.0000      -0.496482       -13.5100
 222   2.0000      -0.492220       -13.3940
 223   2.0000      -0.491319       -13.3695
 224   2.0000      -0.490621       -13.3505
 225   2.0000      -0.490229       -13.3398
 226   2.0000      -0.480353       -13.0711
 227   2.0000      -0.478147       -13.0110
 228   2.0000      -0.475551       -12.9404
 229   2.0000      -0.464674       -12.6444
 230   2.0000      -0.464349       -12.6356
 231   2.0000      -0.461919       -12.5695
 232   2.0000      -0.460925       -12.5424
 233   2.0000      -0.459876       -12.5139
 234   2.0000      -0.457487       -12.4489
 235   2.0000      -0.456131       -12.4120
 236   2.0000      -0.454703       -12.3731
 237   2.0000      -0.453031       -12.3276
 238   2.0000      -0.452858       -12.3229
 239   2.0000      -0.451746       -12.2926
 240   2.0000      -0.448258       -12.1977
 241   2.0000      -0.446698       -12.1553
 242   2.0000      -0.444826       -12.1043
 243   2.0000      -0.444061       -12.0835
 244   2.0000      -0.441476       -12.0132
 245   2.0000      -0.440544       -11.9878
 246   2.0000      -0.438400       -11.9295
 247   2.0000      -0.437873       -11.9151
 248   2.0000      -0.432108       -11.7583
 249   2.0000      -0.430856       -11.7242
 250   2.0000      -0.429943       -11.6993
 251   2.0000      -0.428994       -11.6735
 252   2.0000      -0.426754       -11.6126
 253   2.0000      -0.425157       -11.5691
 254   2.0000      -0.421775       -11.4771
 255   2.0000      -0.416272       -11.3273
 256   2.0000      -0.413173       -11.2430
 257   2.0000      -0.411078       -11.1860
 258   2.0000      -0.410747       -11.1770
 259   2.0000      -0.404760       -11.0141
 260   2.0000      -0.398251       -10.8370
 261   2.0000      -0.394582       -10.7371
 262   2.0000      -0.391795       -10.6613
 263   2.0000      -0.385345       -10.4858
 264   2.0000      -0.378859       -10.3093
 265   2.0000      -0.372781       -10.1439
 266   2.0000      -0.361410        -9.8345
 267   2.0000      -0.355791        -9.6816
 268   2.0000      -0.354683        -9.6514
 269   2.0000      -0.351788        -9.5726
 270   2.0000      -0.348212        -9.4753
 271   2.0000      -0.345583        -9.4038
 272   2.0000      -0.337244        -9.1769
 273   2.0000      -0.332849        -9.0573
 274   2.0000      -0.326297        -8.8790
 275   2.0000      -0.321842        -8.7578
 276   2.0000      -0.317381        -8.6364
 277   2.0000      -0.298587        -8.1250
 278   2.0000      -0.298465        -8.1216
 279   2.0000      -0.286185        -7.7875
 280   2.0000      -0.267365        -7.2754
 281   2.0000      -0.235631        -6.4118
 282   0.0000      -0.117647        -3.2013
 283   0.0000      -0.095506        -2.5989
 284   0.0000      -0.089054        -2.4233
 285   0.0000      -0.067737        -1.8432
 286   0.0000      -0.066051        -1.7973

MULLIKEN ATOMIC CHARGES
-----------------------
   0 C :    0.318283
   1 C :   -0.348236
   2 C :   -0.183058
   3 N :    0.149176
   4 C :   -0.196901
   5 N :    0.159031
   6 C :    0.014160
   7 C :   -0.009898
   8 C :   -0.071734
   9 C :    0.117761
  10 C :   -0.091659
  11 C :   -0.020593
  12 S :    0.190426
  13 C :   -0.123587
  14 C :    0.038371
  15 Br:    0.026703
  16 C :    0.163315
  17 O :   -0.190775
  18 C :   -0.089753
  19 C :   -0.032349
  20 C :   -0.051549
  21 C :   -0.062829
  22 C :    0.046732
  23 C :   -0.072963
  24 S :    0.243990
  25 C :   -0.091769
  26 C :    0.020102
  27 C :    0.306768
  28 C :   -0.293760
  29 C :   -0.195637
  30 N :    0.183420
  31 C :   -0.192117
  32 N :    0.179603
  33 C :   -0.043396
  34 C :   -0.126685
  35 S :    0.227918
  36 C :    0.110123
  37 C :    0.149558
  38 F :   -0.158075
  39 C :    0.153145
  40 F :   -0.164433
  41 C :    0.047590
  42 C :   -0.002352
  43 C :   -0.013388
  44 N :   -0.313722
  45 S :    0.538396
  46 N :   -0.288034
  47 C :   -0.113329
  48 C :   -0.028672
  49 C :    0.049037
  50 C :    0.063380
  51 C :   -0.123677
  52 S :    0.186318
  53 C :   -0.111808
  54 C :    0.061891
  55 C :   -0.003186
  56 C :   -0.067854
  57 S :    0.130032
  58 C :    0.073734
  59 C :   -0.008634
  60 C :   -0.102224
  61 C :   -0.000907
  62 C :    0.053495
  63 C :   -0.197111
  64 C :    0.209378
  65 C :    0.286594
  66 C :   -0.348192
  67 S :    0.246937
  68 C :   -0.137461
  69 N :    0.137161
  70 F :   -0.147510
  71 F :   -0.160958
  72 H :   -0.011198
  73 H :   -0.004080
  74 H :   -0.003634
  75 H :    0.021725
  76 H :    0.029275
  77 H :    0.017162
  78 H :   -0.003361
  79 H :    0.038302
  80 H :   -0.012059
  81 H :    0.028091
  82 H :   -0.009520
  83 H :    0.007539
Sum of atomic charges:    0.0000000

LOEWDIN ATOMIC CHARGES
----------------------
   0 C :    0.076011
   1 C :   -0.139924
   2 C :   -0.017943
   3 N :   -0.051889
   4 C :   -0.024410
   5 N :   -0.045756
   6 C :   -0.019535
   7 C :   -0.051479
   8 C :    0.022184
   9 C :   -0.032997
  10 C :   -0.143402
  11 C :   -0.008500
  12 S :    0.436223
  13 C :   -0.271017
  14 C :   -0.070662
  15 Br:    0.139010
  16 C :    0.085892
  17 O :   -0.175236
  18 C :   -0.110786
  19 C :    0.056453
  20 C :   -0.183558
  21 C :    0.012146
  22 C :   -0.075583
  23 C :   -0.167092
  24 S :    0.547891
  25 C :   -0.188657
  26 C :   -0.060583
  27 C :    0.076854
  28 C :   -0.099926
  29 C :   -0.019749
  30 N :   -0.024829
  31 C :   -0.018692
  32 N :   -0.027745
  33 C :   -0.020412
  34 C :   -0.158863
  35 S :    0.522268
  36 C :   -0.070316
  37 C :    0.076512
  38 F :   -0.032075
  39 C :    0.073764
  40 F :   -0.038233
  41 C :   -0.070471
  42 C :   -0.050739
  43 C :   -0.049076
  44 N :   -0.300300
  45 S :    0.659814
  46 N :   -0.288525
  47 C :   -0.170585
  48 C :   -0.004664
  49 C :   -0.013430
  50 C :   -0.054242
  51 C :   -0.140686
  52 S :    0.498663
  53 C :   -0.198903
  54 C :   -0.036692
  55 C :   -0.065459
  56 C :   -0.162742
  57 S :    0.424923
  58 C :   -0.053853
  59 C :    0.022075
  60 C :   -0.069638
  61 C :    0.012715
  62 C :   -0.086502
  63 C :   -0.195998
  64 C :    0.028412
  65 C :    0.056347
  66 C :   -0.261522
  67 S :    0.499340
  68 C :   -0.055611
  69 N :   -0.040419
  70 F :   -0.031153
  71 F :   -0.043107
  72 H :    0.040622
  73 H :    0.041823
  74 H :    0.038738
  75 H :    0.054302
  76 H :    0.048245
  77 H :    0.040037
  78 H :    0.036875
  79 H :    0.037321
  80 H :    0.029359
  81 H :    0.024822
  82 H :    0.035012
  83 H :    0.039520

  Mayer bond orders larger than 0.100000
B(  0-C ,  1-C ) :   1.6309 B(  0-C ,  6-C ) :   0.9997 B(  0-C , 18-C ) :   1.0740
B(  1-C ,  2-C ) :   1.1450 B(  1-C ,  4-C ) :   1.1415 B(  2-C ,  3-N ) :   2.9672
B(  4-C ,  5-N ) :   2.9712 B(  6-C ,  7-C ) :   1.2724 B(  6-C , 11-C ) :   1.4157
B(  7-C ,  8-C ) :   1.4208 B(  7-C , 16-C ) :   0.9628 B(  8-C ,  9-C ) :   1.2463
B(  8-C , 72-H ) :   1.0167 B(  9-C , 10-C ) :   1.3048 B(  9-C , 14-C ) :   1.1630
B( 10-C , 11-C ) :   1.3274 B( 10-C , 12-S ) :   1.0883 B( 11-C , 73-H ) :   0.9794
B( 12-S , 13-C ) :   1.0871 B( 13-C , 14-C ) :   1.6177 B( 13-C , 15-Br) :   1.0209
B( 14-C , 74-H ) :   1.0004 B( 16-C , 17-O ) :   2.1128 B( 16-C , 18-C ) :   0.9840
B( 18-C , 19-C ) :   1.4941 B( 19-C , 20-C ) :   1.2668 B( 19-C , 75-H ) :   0.9428
B( 20-C , 21-C ) :   1.3255 B( 20-C , 24-S ) :   1.0717 B( 21-C , 22-C ) :   1.3332
B( 21-C , 76-H ) :   1.0088 B( 22-C , 23-C ) :   1.3554 B( 22-C , 27-C ) :   0.9833
B( 23-C , 24-S ) :   1.1283 B( 23-C , 25-C ) :   1.2023 B( 25-C , 26-C ) :   1.4134
B( 25-C , 35-S ) :   1.1077 B( 26-C , 27-C ) :   0.9957 B( 26-C , 33-C ) :   1.2935
B( 27-C , 28-C ) :   1.7173 B( 28-C , 29-C ) :   1.1344 B( 28-C , 31-C ) :   1.1336
B( 29-C , 30-N ) :   2.9941 B( 31-C , 32-N ) :   2.9944 B( 33-C , 34-C ) :   1.4465
B( 33-C , 77-H ) :   0.9933 B( 34-C , 35-S ) :   1.1211 B( 34-C , 36-C ) :   1.1138
B( 36-C , 37-C ) :   1.3826 B( 36-C , 41-C ) :   0.1146 B( 36-C , 43-C ) :   1.1675
B( 37-C , 38-F ) :   1.1529 B( 37-C , 39-C ) :   1.1570 B( 39-C , 40-F ) :   1.1404
B( 39-C , 41-C ) :   1.4191 B( 41-C , 42-C ) :   1.1668 B( 41-C , 47-C ) :   1.0605
B( 42-C , 43-C ) :   1.1528 B( 42-C , 46-N ) :   1.5325 B( 43-C , 44-N ) :   1.5242
B( 44-N , 45-S ) :   1.2518 B( 44-N , 46-N ) :   0.1440 B( 45-S , 46-N ) :   1.2670
B( 47-C , 48-C ) :   1.5307 B( 47-C , 52-S ) :   1.0769 B( 48-C , 49-C ) :   1.2575
B( 48-C , 78-H ) :   0.9648 B( 49-C , 50-C ) :   1.0605 B( 49-C , 58-C ) :   1.3589
B( 50-C , 51-C ) :   1.5736 B( 50-C , 53-C ) :   1.1912 B( 51-C , 52-S ) :   1.1637
B( 51-C , 79-H ) :   0.9410 B( 53-C , 54-C ) :   1.4413 B( 53-C , 57-S ) :   1.0791
B( 54-C , 55-C ) :   1.2056 B( 54-C , 58-C ) :   1.0927 B( 55-C , 56-C ) :   1.5921
B( 55-C , 80-H ) :   1.0002 B( 56-C , 57-S ) :   1.1538 B( 56-C , 81-H ) :   0.9653
B( 58-C , 59-C ) :   1.1852 B( 59-C , 60-C ) :   1.6421 B( 59-C , 82-H ) :   0.9623
B( 60-C , 61-C ) :   1.0316 B( 60-C , 83-H ) :   0.9539 B( 61-C , 62-C ) :   2.2467
B( 62-C , 63-C ) :   0.9607 B( 63-C , 64-C ) :   1.4487 B( 63-C , 66-C ) :   0.1442
B( 63-C , 67-S ) :   1.1065 B( 64-C , 65-C ) :   1.2194 B( 64-C , 71-F ) :   1.1951
B( 65-C , 66-C ) :   1.4598 B( 65-C , 70-F ) :   1.2110 B( 66-C , 67-S ) :   1.1061
B( 66-C , 68-C ) :   1.1957 B( 68-C , 69-N ) :   3.0139

-----------------------------------------------------------------------------
         ABSORPTION SPECTRUM VIA TRANSITION ELECTRIC DIPOLE MOMENTS
-----------------------------------------------------------------------------
State   Energy  Wavelength   fosc         T2         TX        TY        TZ
        (cm-1)    (nm)                  (au**2)     (au)      (au)      (au)
-----------------------------------------------------------------------------
   0   13153.1    760.3   0.844879651  21.14675  -3.01191   3.41834  -0.62456
   1   15695.8    637.1   0.060224467   1.26318  -0.39621  -0.45641  -0.94757
   2   18926.2    528.4   0.528476135   9.19256   1.85914  -2.36745   0.36243
   3   20802.6    480.7   0.774815991  12.26185   1.70469  -3.03446  -0.38461
   4   21469.5    465.8   0.451410959   6.92190   0.58082   0.58702   2.49799
   5   22982.4    435.1   0.122036356   1.74811   0.25558   0.96098  -0.87138
   6   24234.8    412.6   0.244193271   3.31718   0.47665   0.11562   1.75403
   7   24926.4    401.2   0.385061190   5.08565  -0.13519  -0.01802  -2.25101
   8   25435.4    393.2   0.084580342   1.09473  -0.06632   0.94663  -0.44070
   9   26103.7    383.1   0.028335424   0.35736   0.45104  -0.23649  -0.31305
  10   26891.8    371.9   0.119143111   1.45856  -0.47867  -0.96627   0.54383
  11   28100.7    355.9   0.192060327   2.25007   0.45457   1.42710  -0.08267
  12   28527.5    350.5   0.091249432   1.05303  -0.59617  -0.49722  -0.67111
  13   28826.5    346.9   0.067908336   0.77554  -0.21491  -0.73402   0.43655
  14   29253.4    341.8   0.170258842   1.91606   0.34826   0.50463  -1.24102
  15   29572.3    338.2   0.385775395   4.29463   0.79418  -0.24595  -1.89827
  16   30017.4    333.1   0.010387917   0.11393   0.15161   0.09931  -0.28475
  17   30246.8    330.6   0.037585424   0.40909   0.52776  -0.35851   0.04505
  18   30732.7    325.4   0.138683869   1.48560  -0.45828  -0.99186   0.54017
  19   31269.8    319.8   0.034666818   0.36498   0.58315  -0.15774   0.00487
  20   31889.8    313.6   0.158553729   1.63682   0.59058   1.06399  -0.39493
  21   32080.7    311.7   0.258887643   2.65670   1.19167  -0.96438  -0.55370
  22   32649.2    306.3   0.592982906   5.97922   1.25896   1.77060  -1.12214
  23   33071.8    302.4   0.309366196   3.07958  -1.46951  -0.14607   0.94804
  24   33568.5    297.9   0.119822661   1.17512   0.20194   0.38988  -0.99113
  25   33667.8    297.0   0.001284041   0.01256   0.07419   0.01119   0.08322
  26   33810.9    295.8   0.130433859   1.27002   0.16293   1.02751  -0.43323
  27   34056.9    293.6   0.052085831   0.50349  -0.51356   0.10312   0.47865
  28   34647.9    288.6   0.101598819   0.96536   0.43990  -0.07479  -0.87536
  29   34921.8    286.4   0.140890235   1.32819  -0.93910   0.44666   0.49676
  30   35177.4    284.3   0.203804357   1.90733  -0.01826   1.03610  -0.91296
  31   35703.3    280.1   0.037414415   0.34499  -0.31403  -0.37897  -0.32057
  32   35788.0    279.4   0.103964037   0.95636   0.54034  -0.81160  -0.07550
  33   36143.6    276.7   0.098456773   0.89679  -0.72593   0.10040   0.59977
  34   36406.0    274.7   0.027879722   0.25211   0.01248  -0.46894   0.17903
  35   36643.1    272.9   0.004488921   0.04033  -0.11337   0.12841   0.10483
  36   36774.9    271.9   0.065333507   0.58487  -0.73155   0.06979   0.21174
  37   36959.7    270.6   0.140577974   1.25217   0.93211  -0.61803   0.03713
  38   37381.6    267.5   0.208530432   1.83648  -0.70794   1.13967   0.19094
  39   37798.5    264.6   0.013334411   0.11614  -0.23647  -0.23067  -0.08374
  40   38025.3    263.0   0.087943214   0.76139  -0.71642   0.35990   0.34438
  41   38332.1    260.9   0.033696052   0.28940  -0.24590   0.44795  -0.16813
  42   38389.1    260.5   0.104804269   0.89877   0.38671  -0.86157   0.08316
  43   38770.2    257.9   0.144270633   1.22506  -0.52227   0.96241   0.16140
  44   39007.6    256.4   0.009774266   0.08249  -0.21605   0.06077   0.17922
  45   39144.4    255.5   0.037260548   0.31337  -0.13402  -0.17281   0.51531
  46   39231.5    254.9   0.012983837   0.10895  -0.15817  -0.11094  -0.26763
  47   39545.9    252.9   0.049928574   0.41565   0.39447  -0.50866  -0.03608
  48   39776.1    251.4   0.044349944   0.36707   0.44874   0.16938  -0.37015
  49   40313.4    248.1   0.103394455   0.84435   0.12801  -0.29707   0.86007

FINAL SINGLE POINT ENERGY     -8203.315928414127

DIPOLE MOMENT
-------------
                                X             Y             Z
Electronic contribution:     20.72152    -123.89344       7.98381
Nuclear contribution   :    -23.67796     123.33176      -2.06786
                        -----------------------------------------
Total Dipole Moment    :     -2.95644      -0.56168       5.91595
                        -----------------------------------------
Magnitude (a.u.)       :      6.63736
Magnitude (Debye)      :     16.87082

Rotational constants in cm-1:     0.000895     0.000194     0.000185
Rotational constants in MHz :    26.841511     5.830413     5.540546

                             ****ORCA TERMINATED NORMALLY****
TOTAL RUN TIME: 0 days 0 hours 15 minutes 6 seconds 847 msec
