                         Program Version 4.2.0 -  RELEASE  -
|  1> # ORCA input file
|  2> # SCF done       -211.834672834796          0.000724824223
|  3> ! CAM-B3LYP def2-SVP def2/J RIJCOSX Grid4 TightSCF
|  4> %maxcore 5000
|  5> %tddft
|  6>     Mode sTDDFT
|  7>     Ethresh 5.0
|  8>     maxcore 5000
|  9> end
| 10>
| 11> %pal
| 12>   nprocs 6
| 13>   end
| 14> * xyz 0 1
| 15>    C       -0.91710        -2.94682        -1.48135
| 16>    C       -0.91814        -2.71652        -0.13741
| 17>    C       -0.94245        -1.33896         0.14361
| 18>    C       -0.95939        -0.55427        -1.02031
| 19>    S       -0.94586        -1.50473        -2.43889
| 20>    C       -0.98861         0.81725        -0.65382
| 21>    C       -0.99011         0.88973         0.75496
| 22>    C       -0.95910        -0.46134         1.29853
| 23>    C       -0.94578        -0.81802         2.61574
| 24>    C       -0.96305         0.13551         3.65538
| 25>    N       -0.97516         0.90020         4.50988
| 26>    C       -0.91070        -2.16656         3.02786
| 27>    N       -0.87997        -3.26146         3.36787
| 28>    C       -1.02403         2.19333         1.22469
| 29>    C       -1.04573         3.12108         0.18664
| 30>    S       -1.02087         2.35472        -1.39348
| 31>    C       -1.10281         4.53055         0.31506
| 32>    C       -1.12064         5.38264        -0.81498
| 33>    C       -1.24495         6.81109        -0.72768
| 34>    N       -1.17229         7.52471        -1.87036
| 35>    C       -1.05257         6.92270        -3.00878
| 36>    C       -0.99624         5.51301        -3.09562
| 37>    N       -1.01341         4.79367        -2.02036
| 38>    F       -0.90214         4.89264        -4.26786
| 39>    F       -0.95836         7.68495        -4.10056
| 40>    C       -1.39844         7.47108         0.52192
| 41>    C       -1.29543         6.62469         1.65177
| 42>    C       -1.15811         5.19133         1.56388
| 43>    N       -1.10794         4.63013         2.77138
| 44>    S       -1.21786         5.76230         3.89876
| 45>    N       -1.33967         7.03402         2.91895
| 46>    C       -1.67516         8.86730         0.68265
| 47>    C       -2.09356         9.66273        -0.37144
| 48>    C       -2.43256        11.00033        -0.29326
| 49>    C       -2.24150        11.75923         0.93777
| 50>    C       -1.85409        11.18606         2.10181
| 51>    S       -1.53537         9.51261         2.30666
| 52>    C       -2.54581        13.11153         0.60942
| 53>    C       -2.91867        13.19598        -0.73372
| 54>    C       -3.24073        14.51704        -1.11636
| 55>    C       -3.10301        15.38206        -0.07839
| 56>    S       -2.58717        14.63445         1.39822
| 57>    C       -2.89594        11.88231        -1.31945
| 58>    C       -3.28198        11.61267        -2.63779
| 59>    C       -3.54200        10.37140        -3.16551
| 60>    C       -3.84450        10.09273        -4.50867
| 61>    C       -4.06270         8.73721        -4.90019
| 62>    C       -4.42250         8.36513        -6.23398
| 63>    N       -4.53443         7.05591        -6.54978
| 64>    C       -4.37338         6.16522        -5.62368
| 65>    C       -4.08284         6.53993        -4.29567
| 66>    N       -3.91479         7.78222        -3.96452
| 67>    F       -3.92203         5.62617        -3.32713
| 68>    F       -4.48317         4.88512        -5.97552
| 69>    C       -4.62143         9.32901        -7.25054
| 70>    C       -4.32456        10.66470        -6.89092
| 71>    C       -3.95180        11.04877        -5.55108
| 72>    N       -3.75992        12.36352        -5.45421
| 73>    S       -4.02358        13.04266        -6.88868
| 74>    N       -4.39484        11.71431        -7.70774
| 75>    C       -5.02110         9.04253        -8.58119
| 76>    C       -5.70179         7.97742        -9.09130
| 77>    C       -5.62092         7.70617       -10.55439
| 78>    O       -5.19740         8.45027       -11.40909
| 79>    C       -6.11806         6.32585       -10.71982
| 80>    C       -6.13357         5.54459       -11.83842
| 81>    C       -6.62707         4.22308       -11.74910
| 82>    C       -7.08722         3.73298       -10.49222
| 83>    C       -7.56500         2.41067       -10.40852
| 84>    C       -7.58235         1.63066       -11.53098
| 85>    C       -7.13824         2.09499       -12.77617
| 86>    C       -6.66810         3.37517       -12.87458
| 87>    F       -8.04094         0.36669       -11.45330
| 88>    C       -7.06777         4.56886        -9.35090
| 89>    C       -6.59942         5.84909        -9.46649
| 90>    C       -6.48313         6.92519        -8.48704
| 91>    C       -7.18682         6.99907        -7.31161
| 92>    C       -7.22405         8.14152        -6.49135
| 93>    N       -7.28915         9.04777        -5.78824
| 94>    C       -7.99435         5.95964        -6.80945
| 95>    N       -8.65322         5.14523        -6.33920
| 96>    H       -0.90182        -3.89451        -1.98181
| 97>    H       -0.90305        -3.49607         0.60215
| 98>    H       -1.03461         2.49311         2.25631
| 99>    H       -2.12780         9.17686        -1.33101
|100>    H       -1.74190        11.75525         3.01152
|101>    H       -3.55308        14.81238        -2.10114
|102>    H       -3.27531        16.44054        -0.07697
|103>    H       -3.41222        12.46868        -3.28707
|104>    H       -3.55581         9.50211        -2.52849
|105>    H       -4.69757         9.77403        -9.31644
|106>    H       -5.77119         5.92714       -12.78093
|107>    H       -7.91723         2.02069        -9.46638
|108>    H       -7.17612         1.43395       -13.62750
|109>    H       -6.31934         3.75545       -13.82303
|110>    H       -7.41060         4.17016        -8.40931
|111> *
|112>
|113>                          ****END OF INPUT****

CARTESIAN COORDINATES (ANGSTROEM)
---------------------------------
  C     -0.917100   -2.946820   -1.481350
  C     -0.918140   -2.716520   -0.137410
  C     -0.942450   -1.338960    0.143610
  C     -0.959390   -0.554270   -1.020310
  S     -0.945860   -1.504730   -2.438890
  C     -0.988610    0.817250   -0.653820
  C     -0.990110    0.889730    0.754960
  C     -0.959100   -0.461340    1.298530
  C     -0.945780   -0.818020    2.615740
  C     -0.963050    0.135510    3.655380
  N     -0.975160    0.900200    4.509880
  C     -0.910700   -2.166560    3.027860
  N     -0.879970   -3.261460    3.367870
  C     -1.024030    2.193330    1.224690
  C     -1.045730    3.121080    0.186640
  S     -1.020870    2.354720   -1.393480
  C     -1.102810    4.530550    0.315060
  C     -1.120640    5.382640   -0.814980
  C     -1.244950    6.811090   -0.727680
  N     -1.172290    7.524710   -1.870360
  C     -1.052570    6.922700   -3.008780
  C     -0.996240    5.513010   -3.095620
  N     -1.013410    4.793670   -2.020360
  F     -0.902140    4.892640   -4.267860
  F     -0.958360    7.684950   -4.100560
  C     -1.398440    7.471080    0.521920
  C     -1.295430    6.624690    1.651770
  C     -1.158110    5.191330    1.563880
  N     -1.107940    4.630130    2.771380
  S     -1.217860    5.762300    3.898760
  N     -1.339670    7.034020    2.918950
  C     -1.675160    8.867300    0.682650
  C     -2.093560    9.662730   -0.371440
  C     -2.432560   11.000330   -0.293260
  C     -2.241500   11.759230    0.937770
  C     -1.854090   11.186060    2.101810
  S     -1.535370    9.512610    2.306660
  C     -2.545810   13.111530    0.609420
  C     -2.918670   13.195980   -0.733720
  C     -3.240730   14.517040   -1.116360
  C     -3.103010   15.382060   -0.078390
  S     -2.587170   14.634450    1.398220
  C     -2.895940   11.882310   -1.319450
  C     -3.281980   11.612670   -2.637790
  C     -3.542000   10.371400   -3.165510
  C     -3.844500   10.092730   -4.508670
  C     -4.062700    8.737210   -4.900190
  C     -4.422500    8.365130   -6.233980
  N     -4.534430    7.055910   -6.549780
  C     -4.373380    6.165220   -5.623680
  C     -4.082840    6.539930   -4.295670
  N     -3.914790    7.782220   -3.964520
  F     -3.922030    5.626170   -3.327130
  F     -4.483170    4.885120   -5.975520
  C     -4.621430    9.329010   -7.250540
  C     -4.324560   10.664700   -6.890920
  C     -3.951800   11.048770   -5.551080
  N     -3.759920   12.363520   -5.454210
  S     -4.023580   13.042660   -6.888680
  N     -4.394840   11.714310   -7.707740
  C     -5.021100    9.042530   -8.581190
  C     -5.701790    7.977420   -9.091300
  C     -5.620920    7.706170  -10.554390
  O     -5.197400    8.450270  -11.409090
  C     -6.118060    6.325850  -10.719820
  C     -6.133570    5.544590  -11.838420
  C     -6.627070    4.223080  -11.749100
  C     -7.087220    3.732980  -10.492220
  C     -7.565000    2.410670  -10.408520
  C     -7.582350    1.630660  -11.530980
  C     -7.138240    2.094990  -12.776170
  C     -6.668100    3.375170  -12.874580
  F     -8.040940    0.366690  -11.453300
  C     -7.067770    4.568860   -9.350900
  C     -6.599420    5.849090   -9.466490
  C     -6.483130    6.925190   -8.487040
  C     -7.186820    6.999070   -7.311610
  C     -7.224050    8.141520   -6.491350
  N     -7.289150    9.047770   -5.788240
  C     -7.994350    5.959640   -6.809450
  N     -8.653220    5.145230   -6.339200
  H     -0.901820   -3.894510   -1.981810
  H     -0.903050   -3.496070    0.602150
  H     -1.034610    2.493110    2.256310
  H     -2.127800    9.176860   -1.331010
  H     -1.741900   11.755250    3.011520
  H     -3.553080   14.812380   -2.101140
  H     -3.275310   16.440540   -0.076970
  H     -3.412220   12.468680   -3.287070
  H     -3.555810    9.502110   -2.528490
  H     -4.697570    9.774030   -9.316440
  H     -5.771190    5.927140  -12.780930
  H     -7.917230    2.020690   -9.466380
  H     -7.176120    1.433950  -13.627500
  H     -6.319340    3.755450  -13.823030
  H     -7.410600    4.170160   -8.409310

 Total Charge           Charge          ....    0
 Multiplicity           Mult            ....    1
 Number of Electrons    NEL             ....  590
 Basis Dimension        Dim             .... 1233

ORBITAL ENERGIES
----------------

  NO   OCC          E(Eh)            E(eV)
   0   2.0000     -89.051260     -2423.2080
   1   2.0000     -89.027332     -2422.5569
   2   2.0000     -88.988303     -2421.4948
   3   2.0000     -88.985107     -2421.4079
   4   2.0000     -88.984938     -2421.4033
   5   2.0000     -88.963138     -2420.8101
   6   2.0000     -24.827688      -675.5957
   7   2.0000     -24.824617      -675.5122
   8   2.0000     -24.813431      -675.2078
   9   2.0000     -24.809101      -675.0900
  10   2.0000     -24.776222      -674.1953
  11   2.0000     -19.196639      -522.3671
  12   2.0000     -14.467246      -393.6738
  13   2.0000     -14.462933      -393.5564
  14   2.0000     -14.461214      -393.5096
  15   2.0000     -14.459054      -393.4509
  16   2.0000     -14.451054      -393.2332
  17   2.0000     -14.444169      -393.0458
  18   2.0000     -14.441263      -392.9667
  19   2.0000     -14.435141      -392.8002
  20   2.0000     -14.427616      -392.5954
  21   2.0000     -14.427538      -392.5933
  22   2.0000     -14.402668      -391.9165
  23   2.0000     -14.400593      -391.8600
  24   2.0000     -10.441649      -284.1317
  25   2.0000     -10.440276      -284.0943
  26   2.0000     -10.423600      -283.6406
  27   2.0000     -10.416754      -283.4543
  28   2.0000     -10.361125      -281.9405
  29   2.0000     -10.360455      -281.9223
  30   2.0000     -10.358535      -281.8701
  31   2.0000     -10.354464      -281.7593
  32   2.0000     -10.350303      -281.6461
  33   2.0000     -10.349931      -281.6359
  34   2.0000     -10.349306      -281.6189
  35   2.0000     -10.347773      -281.5772
  36   2.0000     -10.340349      -281.3752
  37   2.0000     -10.338246      -281.3180
  38   2.0000     -10.333626      -281.1923
  39   2.0000     -10.331369      -281.1308
  40   2.0000     -10.329702      -281.0855
  41   2.0000     -10.329075      -281.0684
  42   2.0000     -10.328600      -281.0555
  43   2.0000     -10.328208      -281.0448
  44   2.0000     -10.328073      -281.0411
  45   2.0000     -10.327262      -281.0191
  46   2.0000     -10.326042      -280.9859
  47   2.0000     -10.324297      -280.9384
  48   2.0000     -10.323522      -280.9173
  49   2.0000     -10.322925      -280.9011
  50   2.0000     -10.322312      -280.8844
  51   2.0000     -10.314300      -280.6664
  52   2.0000     -10.312929      -280.6291
  53   2.0000     -10.306643      -280.4580
  54   2.0000     -10.305100      -280.4160
  55   2.0000     -10.304333      -280.3952
  56   2.0000     -10.303011      -280.3592
  57   2.0000     -10.301816      -280.3267
  58   2.0000     -10.301361      -280.3143
  59   2.0000     -10.298592      -280.2389
  60   2.0000     -10.298218      -280.2288
  61   2.0000     -10.297670      -280.2138
  62   2.0000     -10.297099      -280.1983
  63   2.0000     -10.295374      -280.1514
  64   2.0000     -10.295330      -280.1502
  65   2.0000     -10.293648      -280.1044
  66   2.0000     -10.290778      -280.0263
  67   2.0000     -10.290056      -280.0067
  68   2.0000     -10.288659      -279.9687
  69   2.0000     -10.286917      -279.9212
  70   2.0000     -10.286228      -279.9025
  71   2.0000     -10.286162      -279.9007
  72   2.0000     -10.285602      -279.8855
  73   2.0000     -10.283877      -279.8385
  74   2.0000     -10.283764      -279.8354
  75   2.0000     -10.280772      -279.7540
  76   2.0000     -10.280458      -279.7455
  77   2.0000     -10.278210      -279.6843
  78   2.0000     -10.276117      -279.6274
  79   2.0000     -10.276100      -279.6269
  80   2.0000     -10.275208      -279.6026
  81   2.0000      -8.142107      -221.5580
  82   2.0000      -8.119029      -220.9300
  83   2.0000      -8.083260      -219.9567
  84   2.0000      -8.079094      -219.8433
  85   2.0000      -8.077691      -219.8051
  86   2.0000      -8.058586      -219.2853
  87   2.0000      -6.113231      -166.3495
  88   2.0000      -6.105471      -166.1383
  89   2.0000      -6.104850      -166.1214
  90   2.0000      -6.090230      -165.7236
  91   2.0000      -6.082413      -165.5109
  92   2.0000      -6.081526      -165.4867
  93   2.0000      -6.052466      -164.6960
  94   2.0000      -6.048529      -164.5889
  95   2.0000      -6.048038      -164.5755
  96   2.0000      -6.047171      -164.5519
  97   2.0000      -6.045945      -164.5185
  98   2.0000      -6.043718      -164.4579
  99   2.0000      -6.042428      -164.4228
 100   2.0000      -6.041404      -164.3950
 101   2.0000      -6.040180      -164.3617
 102   2.0000      -6.028025      -164.0309
 103   2.0000      -6.023780      -163.9154
 104   2.0000      -6.020600      -163.8288
 105   2.0000      -1.353311       -36.8255
 106   2.0000      -1.338522       -36.4230
 107   2.0000      -1.336601       -36.3708
 108   2.0000      -1.323108       -36.0036
 109   2.0000      -1.290665       -35.1208
 110   2.0000      -1.149257       -31.2729
 111   2.0000      -1.126918       -30.6650
 112   2.0000      -1.125204       -30.6184
 113   2.0000      -1.111863       -30.2553
 114   2.0000      -1.105028       -30.0693
 115   2.0000      -1.051294       -28.6072
 116   2.0000      -1.040471       -28.3127
 117   2.0000      -1.030077       -28.0298
 118   2.0000      -1.019089       -27.7308
 119   2.0000      -1.016189       -27.6519
 120   2.0000      -1.007270       -27.4092
 121   2.0000      -1.005064       -27.3492
 122   2.0000      -1.002957       -27.2918
 123   2.0000      -0.998100       -27.1597
 124   2.0000      -0.987075       -26.8597
 125   2.0000      -0.983568       -26.7642
 126   2.0000      -0.982675       -26.7400
 127   2.0000      -0.980747       -26.6875
 128   2.0000      -0.969866       -26.3914
 129   2.0000      -0.964757       -26.2524
 130   2.0000      -0.959791       -26.1172
 131   2.0000      -0.953015       -25.9328
 132   2.0000      -0.934756       -25.4360
 133   2.0000      -0.916286       -24.9334
 134   2.0000      -0.913269       -24.8513
 135   2.0000      -0.903560       -24.5871
 136   2.0000      -0.898058       -24.4374
 137   2.0000      -0.895199       -24.3596
 138   2.0000      -0.882593       -24.0166
 139   2.0000      -0.875352       -23.8195
 140   2.0000      -0.873323       -23.7643
 141   2.0000      -0.871642       -23.7186
 142   2.0000      -0.865162       -23.5423
 143   2.0000      -0.859934       -23.4000
 144   2.0000      -0.850722       -23.1493
 145   2.0000      -0.849070       -23.1044
 146   2.0000      -0.829678       -22.5767
 147   2.0000      -0.826777       -22.4977
 148   2.0000      -0.821009       -22.3408
 149   2.0000      -0.817464       -22.2443
 150   2.0000      -0.805223       -21.9112
 151   2.0000      -0.800923       -21.7942
 152   2.0000      -0.790222       -21.5030
 153   2.0000      -0.781471       -21.2649
 154   2.0000      -0.774036       -21.0626
 155   2.0000      -0.771715       -20.9994
 156   2.0000      -0.762498       -20.7486
 157   2.0000      -0.754469       -20.5302
 158   2.0000      -0.750927       -20.4337
 159   2.0000      -0.742015       -20.1913
 160   2.0000      -0.738438       -20.0939
 161   2.0000      -0.733021       -19.9465
 162   2.0000      -0.714648       -19.4466
 163   2.0000      -0.711119       -19.3505
 164   2.0000      -0.701787       -19.0966
 165   2.0000      -0.698414       -19.0048
 166   2.0000      -0.696108       -18.9421
 167   2.0000      -0.689396       -18.7594
 168   2.0000      -0.688510       -18.7353
 169   2.0000      -0.682151       -18.5623
 170   2.0000      -0.680788       -18.5252
 171   2.0000      -0.671870       -18.2825
 172   2.0000      -0.671440       -18.2708
 173   2.0000      -0.665263       -18.1027
 174   2.0000      -0.663975       -18.0677
 175   2.0000      -0.661047       -17.9880
 176   2.0000      -0.657917       -17.9028
 177   2.0000      -0.652663       -17.7599
 178   2.0000      -0.647494       -17.6192
 179   2.0000      -0.640331       -17.4243
 180   2.0000      -0.634797       -17.2737
 181   2.0000      -0.634470       -17.2648
 182   2.0000      -0.627049       -17.0629
 183   2.0000      -0.623367       -16.9627
 184   2.0000      -0.622149       -16.9295
 185   2.0000      -0.620288       -16.8789
 186   2.0000      -0.617451       -16.8017
 187   2.0000      -0.612560       -16.6686
 188   2.0000      -0.608348       -16.5540
 189   2.0000      -0.605552       -16.4779
 190   2.0000      -0.604985       -16.4625
 191   2.0000      -0.599770       -16.3206
 192   2.0000      -0.596273       -16.2254
 193   2.0000      -0.585378       -15.9289
 194   2.0000      -0.581098       -15.8125
 195   2.0000      -0.577063       -15.7027
 196   2.0000      -0.575238       -15.6530
 197   2.0000      -0.572431       -15.5766
 198   2.0000      -0.565270       -15.3818
 199   2.0000      -0.565233       -15.3808
 200   2.0000      -0.561521       -15.2798
 201   2.0000      -0.555205       -15.1079
 202   2.0000      -0.553987       -15.0748
 203   2.0000      -0.550975       -14.9928
 204   2.0000      -0.548484       -14.9250
 205   2.0000      -0.547530       -14.8990
 206   2.0000      -0.546896       -14.8818
 207   2.0000      -0.543719       -14.7953
 208   2.0000      -0.541119       -14.7246
 209   2.0000      -0.536321       -14.5940
 210   2.0000      -0.535227       -14.5643
 211   2.0000      -0.531575       -14.4649
 212   2.0000      -0.530347       -14.4315
 213   2.0000      -0.529324       -14.4036
 214   2.0000      -0.522467       -14.2171
 215   2.0000      -0.521811       -14.1992
 216   2.0000      -0.520691       -14.1687
 217   2.0000      -0.519096       -14.1253
 218   2.0000      -0.518392       -14.1062
 219   2.0000      -0.516752       -14.0615
 220   2.0000      -0.513088       -13.9618
 221   2.0000      -0.512636       -13.9495
 222   2.0000      -0.511456       -13.9174
 223   2.0000      -0.506965       -13.7952
 224   2.0000      -0.501992       -13.6599
 225   2.0000      -0.499825       -13.6009
 226   2.0000      -0.495368       -13.4797
 227   2.0000      -0.494022       -13.4430
 228   2.0000      -0.492048       -13.3893
 229   2.0000      -0.490401       -13.3445
 230   2.0000      -0.487069       -13.2538
 231   2.0000      -0.485025       -13.1982
 232   2.0000      -0.483679       -13.1616
 233   2.0000      -0.481265       -13.0959
 234   2.0000      -0.475768       -12.9463
 235   2.0000      -0.473383       -12.8814
 236   2.0000      -0.473086       -12.8733
 237   2.0000      -0.470215       -12.7952
 238   2.0000      -0.468864       -12.7585
 239   2.0000      -0.467561       -12.7230
 240   2.0000      -0.461372       -12.5546
 241   2.0000      -0.459364       -12.4999
 242   2.0000      -0.457571       -12.4512
 243   2.0000      -0.455804       -12.4031
 244   2.0000      -0.455296       -12.3892
 245   2.0000      -0.454499       -12.3676
 246   2.0000      -0.452620       -12.3164
 247   2.0000      -0.448918       -12.2157
 248   2.0000      -0.446541       -12.1510
 249   2.0000      -0.443986       -12.0815
 250   2.0000      -0.441861       -12.0237
 251   2.0000      -0.438603       -11.9350
 252   2.0000      -0.437849       -11.9145
 253   2.0000      -0.437084       -11.8937
 254   2.0000      -0.436635       -11.8814
 255   2.0000      -0.436472       -11.8770
 256   2.0000      -0.430947       -11.7267
 257   2.0000      -0.427824       -11.6417
 258   2.0000      -0.425462       -11.5774
 259   2.0000      -0.425096       -11.5675
 260   2.0000      -0.423875       -11.5342
 261   2.0000      -0.418433       -11.3862
 262   2.0000      -0.417127       -11.3506
 263   2.0000      -0.413278       -11.2459
 264   2.0000      -0.409480       -11.1425
 265   2.0000      -0.408644       -11.1198
 266   2.0000      -0.406441       -11.0598
 267   2.0000      -0.405152       -11.0247
 268   2.0000      -0.404984       -11.0202
 269   2.0000      -0.400778       -10.9057
 270   2.0000      -0.395753       -10.7690
 271   2.0000      -0.394292       -10.7292
 272   2.0000      -0.390021       -10.6130
 273   2.0000      -0.380757       -10.3609
 274   2.0000      -0.373551       -10.1648
 275   2.0000      -0.371569       -10.1109
 276   2.0000      -0.369648       -10.0586
 277   2.0000      -0.369144       -10.0449
 278   2.0000      -0.366745        -9.9797
 279   2.0000      -0.365255        -9.9391
 280   2.0000      -0.356481        -9.7003
 281   2.0000      -0.351541        -9.5659
 282   2.0000      -0.344337        -9.3699
 283   2.0000      -0.340824        -9.2743
 284   2.0000      -0.332575        -9.0498
 285   2.0000      -0.330105        -8.9826
 286   2.0000      -0.323040        -8.7904
 287   2.0000      -0.317865        -8.6496
 288   2.0000      -0.317580        -8.6418
 289   2.0000      -0.297757        -8.1024
 290   2.0000      -0.293247        -7.9797
 291   2.0000      -0.285962        -7.7814
 292   2.0000      -0.281697        -7.6654
 293   2.0000      -0.258451        -7.0328
 294   2.0000      -0.222430        -6.0526
 295   0.0000      -0.131724        -3.5844
 296   0.0000      -0.105758        -2.8778
 297   0.0000      -0.096407        -2.6234
 298   0.0000      -0.061516        -1.6739
 299   0.0000      -0.052158        -1.4193

MULLIKEN ATOMIC CHARGES
-----------------------
   0 C :   -0.076945
   1 C :    0.031043
   2 C :   -0.025626
   3 C :   -0.123156
   4 S :    0.190875
   5 C :   -0.062231
   6 C :    0.029700
   7 C :    0.303053
   8 C :   -0.300967
   9 C :   -0.186241
  10 N :    0.173041
  11 C :   -0.194560
  12 N :    0.171724
  13 C :   -0.054374
  14 C :   -0.182857
  15 S :    0.211676
  16 C :    0.181886
  17 C :   -0.048191
  18 C :   -0.042523
  19 N :   -0.016523
  20 C :    0.159456
  21 C :    0.151470
  22 N :   -0.050795
  23 F :   -0.137181
  24 F :   -0.144725
  25 C :    0.137901
  26 C :   -0.013804
  27 C :   -0.008940
  28 N :   -0.274551
  29 S :    0.566272
  30 N :   -0.340426
  31 C :   -0.125465
  32 C :   -0.071347
  33 C :    0.077601
  34 C :    0.060574
  35 C :   -0.115799
  36 S :    0.191920
  37 C :   -0.103952
  38 C :    0.056058
  39 C :    0.016335
  40 C :   -0.067528
  41 S :    0.132114
  42 C :    0.096400
  43 C :    0.014395
  44 C :   -0.128347
  45 C :    0.125398
  46 C :   -0.008904
  47 C :   -0.094782
  48 N :   -0.007649
  49 C :    0.175848
  50 C :    0.115092
  51 N :   -0.009113
  52 F :   -0.165712
  53 F :   -0.142244
  54 C :    0.080214
  55 C :    0.018513
  56 C :    0.004964
  57 N :   -0.286444
  58 S :    0.524447
  59 N :   -0.271730
  60 C :   -0.043015
  61 C :   -0.123194
  62 C :    0.129725
  63 O :   -0.148403
  64 C :    0.019727
  65 C :   -0.090093
  66 C :    0.102205
  67 C :    0.103408
  68 C :   -0.098931
  69 C :    0.302337
  70 C :   -0.033971
  71 C :   -0.011363
  72 F :   -0.194674
  73 C :   -0.092614
  74 C :    0.036459
  75 C :    0.352547
  76 C :   -0.373357
  77 C :   -0.192622
  78 N :    0.154876
  79 C :   -0.193590
  80 N :    0.149023
  81 H :    0.038359
  82 H :    0.015076
  83 H :    0.021120
  84 H :    0.013128
  85 H :    0.036849
  86 H :   -0.009892
  87 H :    0.030754
  88 H :    0.000949
  89 H :   -0.000392
  90 H :    0.027249
  91 H :   -0.016092
  92 H :   -0.006580
  93 H :   -0.000269
  94 H :   -0.012494
  95 H :   -0.006583
Sum of atomic charges:   -0.0000000

LOEWDIN ATOMIC CHARGES
----------------------
   0 C :   -0.171790
   1 C :   -0.035139
   2 C :   -0.068397
   3 C :   -0.186078
   4 S :    0.484090
   5 C :   -0.173315
   6 C :   -0.077305
   7 C :    0.082320
   8 C :   -0.105568
   9 C :   -0.016281
  10 N :   -0.036352
  11 C :   -0.017289
  12 N :   -0.035223
  13 C :   -0.003864
  14 C :   -0.173252
  15 S :    0.516756
  16 C :   -0.028020
  17 C :   -0.017653
  18 C :    0.007383
  19 N :   -0.029084
  20 C :    0.063322
  21 C :    0.058980
  22 N :   -0.054563
  23 F :   -0.024533
  24 F :   -0.029191
  25 C :   -0.063249
  26 C :   -0.043713
  27 C :   -0.042172
  28 N :   -0.266862
  29 S :    0.683042
  30 N :   -0.308979
  31 C :   -0.149715
  32 C :   -0.006179
  33 C :    0.007747
  34 C :   -0.049847
  35 C :   -0.145984
  36 S :    0.524754
  37 C :   -0.202869
  38 C :   -0.036667
  39 C :   -0.058429
  40 C :   -0.160364
  41 S :    0.425386
  42 C :   -0.047845
  43 C :    0.038180
  44 C :   -0.036651
  45 C :    0.015693
  46 C :   -0.012237
  47 C :    0.013579
  48 N :   -0.037850
  49 C :    0.065520
  50 C :    0.029247
  51 N :   -0.031436
  52 F :   -0.049123
  53 F :   -0.030631
  54 C :   -0.080960
  55 C :   -0.023933
  56 C :   -0.046948
  57 N :   -0.276805
  58 S :    0.653458
  59 N :   -0.287518
  60 C :    0.077122
  61 C :   -0.093053
  62 C :    0.082446
  63 O :   -0.148750
  64 C :   -0.056282
  65 C :    0.029490
  66 C :   -0.020081
  67 C :    0.002639
  68 C :   -0.043493
  69 C :    0.090370
  70 C :   -0.041647
  71 C :    0.002937
  72 F :   -0.069054
  73 C :    0.007995
  74 C :   -0.011807
  75 C :    0.080308
  76 C :   -0.153682
  77 C :   -0.015958
  78 N :   -0.065822
  79 C :   -0.021918
  80 N :   -0.065643
  81 H :    0.028689
  82 H :    0.043294
  83 H :    0.037774
  84 H :    0.036768
  85 H :    0.036960
  86 H :    0.033828
  87 H :    0.025055
  88 H :    0.032704
  89 H :    0.028622
  90 H :    0.048748
  91 H :    0.037729
  92 H :    0.041651
  93 H :    0.039993
  94 H :    0.034274
  95 H :    0.038196

  Mayer bond orders larger than 0.100000
B(  0-C ,  1-C ) :   1.5377 B(  0-C ,  4-S ) :   1.1571 B(  0-C , 81-H ) :   0.9646
B(  1-C ,  2-C ) :   1.2838 B(  1-C , 82-H ) :   0.9958 B(  2-C ,  3-C ) :   1.4381
B(  2-C ,  7-C ) :   1.0138 B(  3-C ,  4-S ) :   1.1321 B(  3-C ,  5-C ) :   1.2010
B(  5-C ,  6-C ) :   1.4042 B(  5-C , 15-S ) :   1.1062 B(  6-C ,  7-C ) :   0.9901
B(  6-C , 13-C ) :   1.2903 B(  7-C ,  8-C ) :   1.7084 B(  8-C ,  9-C ) :   1.1378
B(  8-C , 11-C ) :   1.1309 B(  9-C , 10-N ) :   2.9877 B( 11-C , 12-N ) :   3.0023
B( 13-C , 14-C ) :   1.4011 B( 13-C , 83-H ) :   0.9818 B( 14-C , 15-S ) :   1.0793
B( 14-C , 16-C ) :   1.2185 B( 16-C , 17-C ) :   1.2762 B( 16-C , 25-C ) :   0.1159
B( 16-C , 27-C ) :   1.2018 B( 17-C , 18-C ) :   1.1324 B( 17-C , 22-N ) :   1.3846
B( 18-C , 19-N ) :   1.4024 B( 18-C , 25-C ) :   1.2807 B( 19-N , 20-C ) :   1.6506
B( 20-C , 21-C ) :   1.1170 B( 20-C , 24-F ) :   1.1562 B( 21-C , 22-N ) :   1.6399
B( 21-C , 23-F ) :   1.1889 B( 25-C , 26-C ) :   1.1841 B( 25-C , 31-C ) :   1.1824
B( 26-C , 27-C ) :   1.1153 B( 26-C , 30-N ) :   1.4664 B( 27-C , 28-N ) :   1.5212
B( 28-N , 29-S ) :   1.2854 B( 28-N , 30-N ) :   0.1483 B( 29-S , 30-N ) :   1.2601
B( 31-C , 32-C ) :   1.4327 B( 31-C , 36-S ) :   1.0995 B( 32-C , 33-C ) :   1.3100
B( 32-C , 84-H ) :   0.9404 B( 33-C , 34-C ) :   1.0936 B( 33-C , 42-C ) :   1.2444
B( 34-C , 35-C ) :   1.5563 B( 34-C , 37-C ) :   1.1638 B( 35-C , 36-S ) :   1.1563
B( 35-C , 85-H ) :   0.9412 B( 37-C , 38-C ) :   1.4327 B( 37-C , 41-S ) :   1.0797
B( 38-C , 39-C ) :   1.2263 B( 38-C , 42-C ) :   1.0983 B( 39-C , 40-C ) :   1.5859
B( 39-C , 86-H ) :   0.9982 B( 40-C , 41-S ) :   1.1514 B( 40-C , 87-H ) :   0.9662
B( 42-C , 43-C ) :   1.2568 B( 43-C , 44-C ) :   1.4035 B( 43-C , 88-H ) :   0.9495
B( 44-C , 45-C ) :   1.3352 B( 44-C , 89-H ) :   0.9463 B( 45-C , 46-C ) :   1.1938
B( 45-C , 54-C ) :   0.1117 B( 45-C , 56-C ) :   1.1284 B( 46-C , 47-C ) :   1.1424
B( 46-C , 51-N ) :   1.4508 B( 47-C , 48-N ) :   1.4389 B( 47-C , 54-C ) :   1.2544
B( 48-N , 49-C ) :   1.6187 B( 49-C , 50-C ) :   1.1370 B( 49-C , 53-F ) :   1.1803
B( 50-C , 51-N ) :   1.6356 B( 50-C , 52-F ) :   1.1144 B( 54-C , 55-C ) :   1.1762
B( 54-C , 60-C ) :   1.1700 B( 55-C , 56-C ) :   1.1210 B( 55-C , 59-N ) :   1.5690
B( 56-C , 57-N ) :   1.5239 B( 57-N , 58-S ) :   1.2686 B( 57-N , 59-N ) :   0.1453
B( 58-S , 59-N ) :   1.2561 B( 60-C , 61-C ) :   1.5772 B( 60-C , 90-H ) :   0.9403
B( 61-C , 62-C ) :   0.9509 B( 61-C , 75-C ) :   1.0638 B( 62-C , 63-O ) :   2.2631
B( 62-C , 64-C ) :   0.9136 B( 64-C , 65-C ) :   1.4756 B( 64-C , 74-C ) :   1.2165
B( 65-C , 66-C ) :   1.1856 B( 65-C , 91-H ) :   1.0153 B( 66-C , 67-C ) :   1.2594
B( 66-C , 71-C ) :   1.2377 B( 67-C , 68-C ) :   1.2025 B( 67-C , 73-C ) :   1.1993
B( 68-C , 69-C ) :   1.4410 B( 68-C , 92-H ) :   1.0067 B( 69-C , 70-C ) :   1.2571
B( 69-C , 72-F ) :   1.0841 B( 70-C , 71-C ) :   1.4575 B( 70-C , 93-H ) :   0.9932
B( 71-C , 94-H ) :   0.9966 B( 73-C , 74-C ) :   1.4665 B( 73-C , 95-H ) :   0.9942
B( 74-C , 75-C ) :   0.9994 B( 75-C , 76-C ) :   1.6057 B( 76-C , 77-C ) :   1.1810
B( 76-C , 79-C ) :   1.1446 B( 77-C , 78-N ) :   2.9889 B( 79-C , 80-N ) :   2.9863

-----------------------------------------------------------------------------
         ABSORPTION SPECTRUM VIA TRANSITION ELECTRIC DIPOLE MOMENTS
-----------------------------------------------------------------------------
State   Energy  Wavelength   fosc         T2         TX        TY        TZ
        (cm-1)    (nm)                  (au**2)     (au)      (au)      (au)
-----------------------------------------------------------------------------
   0    5595.1   1787.3   0.304342736  17.90735   1.80348  -2.31908   3.04576
   1   10592.7    944.1   0.332820036  10.34380  -0.96133  -1.73476  -2.53185
   2   13029.8    767.5   0.507943754  12.83370   0.30927   3.34273   1.25067
   3   14030.4    712.7   0.088831773   2.08437   0.19082   1.26453   0.67002
   4   18458.9    541.7   0.041572005   0.74143  -0.25195  -0.69459  -0.44214
   5   19384.9    515.9   0.035519723   0.60323   0.21079  -0.70847   0.23847
   6   19841.6    504.0   0.172437015   2.86108  -0.96236  -0.93287  -1.03184
   7   19963.2    500.9   0.005839506   0.09630  -0.30957  -0.00929  -0.01941
   8   20812.8    480.5   0.053535513   0.84681  -0.08857  -0.83352   0.37975
   9   21008.6    476.0   0.025392511   0.39791   0.37369  -0.47474  -0.18134
  10   21799.9    458.7   0.014011682   0.21160  -0.09174   0.13701   0.42943
  11   23924.1    418.0   0.082422449   1.13419   0.23045  -0.84036   0.61227
  12   24208.2    413.1   0.144659204   1.96725  -0.07088  -0.66032  -1.23540
  13   24801.6    403.2   0.019011885   0.25236  -0.20991  -0.17411  -0.42188
  14   25067.3    398.9   0.037150897   0.48791   0.32794  -0.40039   0.46909
  15   25423.2    393.3   0.009720417   0.12587   0.00469   0.08839  -0.34357
  16   25609.9    390.5   0.029996497   0.38560   0.04771  -0.02497   0.61863
  17   26328.5    379.8   0.132988913   1.66289  -0.09450  -1.05470  -0.73591
  18   26597.2    376.0   0.000448434   0.00555   0.01103  -0.00189  -0.07366
  19   26747.4    373.9   0.006286946   0.07738   0.04818  -0.12490  -0.24384
  20   26875.6    372.1   0.041077431   0.50318  -0.15841  -0.43458  -0.53779
  21   27343.4    365.7   0.016948118   0.20405  -0.09099   0.04499  -0.44017
  22   28506.6    350.8   0.097777055   1.12919   0.10347  -0.84534   0.63552
  23   28647.3    349.1   0.043346260   0.49813  -0.03377  -0.70145   0.07042
  24   29128.8    343.3   0.017033964   0.19252  -0.18473   0.23408   0.32186
  25   29367.2    340.5   0.003176451   0.03561   0.02822  -0.00554   0.18650
  26   29544.1    338.5   0.199023936   2.21773   0.08456   1.22844   0.83757
  27   29687.8    336.8   0.134217185   1.48835   0.03722  -1.20064  -0.21316
  28   29911.0    334.3   0.018863536   0.20762   0.20287  -0.37787  -0.15388
  29   30078.1    332.5   0.028633206   0.31340   0.38844   0.36902  -0.16227
  30   30336.1    329.6   0.007012372   0.07610  -0.13274  -0.15185   0.18821
  31   30862.0    324.0   0.204306981   2.17939  -0.00103   0.40735  -1.41896
  32   30995.6    322.6   0.001896346   0.02014  -0.12041   0.00348  -0.07504
  33   31478.6    317.7   0.443508623   4.63833  -0.08778  -1.92317   0.96542
  34   31661.8    315.8   0.165221345   1.71793   0.04098   1.07274   0.75198
  35   31866.1    313.8   0.148169352   1.53075   0.11375   0.93326   0.80426
  36   32033.9    312.2   0.078383947   0.80555   0.08789  -0.59801   0.66349
  37   32240.0    310.2   0.322743444   3.29562   0.03209  -0.12375   1.81088
  38   32372.9    308.9   0.062976517   0.64043  -0.02215   0.53667  -0.59323
  39   32474.7    307.9   0.178058559   1.80507   0.04209   0.69368  -1.14983
  40   32628.3    306.5   0.011619096   0.11723   0.25583   0.14763   0.17318
  41   32880.2    304.1   0.104460015   1.04590  -0.41108   0.92974   0.11179
  42   33158.3    301.6   0.104700845   1.03952   0.02676   0.01559   1.01910
  43   33278.2    300.5   0.003871521   0.03830   0.06689  -0.18321   0.01612
  44   33382.8    299.6   0.038062413   0.37536  -0.38649  -0.37728  -0.28922
  45   33589.6    297.7   0.422876227   4.14462   0.05096  -0.79810  -1.87218
  46   33709.8    296.6   0.072341140   0.70649  -0.18273   0.71885  -0.39542
  47   34002.2    294.1   0.102066107   0.98821  -0.31515   0.94193   0.04087
  48   34412.9    290.6   0.012164161   0.11637   0.00788  -0.03339   0.33940
  49   34567.2    289.3   0.598744481   5.70234  -0.12548   2.14397   1.04403
  50   34728.7    287.9   0.023177787   0.21971  -0.04939  -0.00544   0.46610
  51   34851.4    286.9   0.173044317   1.63461  -0.06033   1.23473   0.32620
  52   35036.0    285.4   0.033585338   0.31558   0.07631   0.15081   0.53574
  53   35251.4    283.7   0.007398776   0.06910   0.04844   0.10396  -0.23652
  54   35454.6    282.1   0.048818732   0.45330  -0.31330  -0.55657   0.21301
  55   35719.6    280.0   0.060204442   0.55488   0.16205   0.42170   0.59227
  56   35776.9    279.5   0.007397511   0.06807  -0.14152   0.19111   0.10733
  57   35889.4    278.6   0.077359653   0.70962   0.00117  -0.48544  -0.68845
  58   36140.2    276.7   0.154397847   1.40646  -0.04295  -0.91811  -0.74946
  59   36269.1    275.7   0.009974983   0.09054   0.01236  -0.17461  -0.24475
  60   36528.8    273.8   0.350893675   3.16239  -0.35704   1.25362   1.20968
  61   36742.9    272.2   0.013003260   0.11651   0.22234  -0.24484   0.08442
  62   36978.8    270.4   0.096773836   0.86155   0.08672  -0.06844   0.92160
  63   37067.6    269.8   0.115184225   1.02300   0.02508   0.69240  -0.73685
  64   37178.9    269.0   0.007010455   0.06208   0.01014   0.21460   0.12618
  65   37289.9    268.2   0.087339874   0.77108   0.08790  -0.86928   0.08778
  66   37640.6    265.7   0.048856222   0.42731   0.24137   0.18619  -0.57826
  67   37944.0    263.5   0.154932561   1.34423  -0.00498   0.64315  -0.96466
  68   38230.0    261.6   0.035198379   0.30311   0.03632   0.54867  -0.02727
  69   38533.9    259.5   0.170438939   1.45613   0.14047   0.34106  -1.14895
  70   38861.0    257.3   0.013863112   0.11744  -0.13080   0.29144   0.12408
  71   39245.7    254.8   0.123050676   1.03221  -0.04261   0.00885   1.01504
  72   39635.8    252.3   0.019500027   0.16197   0.07587   0.34062   0.20047
  73   39756.8    251.5   0.004148918   0.03436  -0.10312  -0.09682   0.11978
  74   39880.8    250.7   0.010774005   0.08894   0.04459  -0.29443  -0.01622
  75   39980.5    250.1   0.013118281   0.10802   0.05210  -0.30940   0.09788
  76   40150.3    249.1   0.018346646   0.15043   0.35015   0.01421   0.16620
  77   40205.5    248.7   0.066119171   0.54140   0.36108   0.60052  -0.22450

FINAL SINGLE POINT ENERGY     -5796.645595427276

DIPOLE MOMENT
-------------
                                X             Y             Z
Electronic contribution:     11.43116      -8.21810      12.05965
Nuclear contribution   :     -8.72265       9.33935     -10.98345
                        -----------------------------------------
Total Dipole Moment    :      2.70851       1.12125       1.07620
                        -----------------------------------------
Magnitude (a.u.)       :      3.12273
Magnitude (Debye)      :      7.93734

Rotational constants in cm-1:     0.000662     0.000513     0.000304
Rotational constants in MHz :    19.849119    15.366645     9.118183

                             ****ORCA TERMINATED NORMALLY****
TOTAL RUN TIME: 0 days 0 hours 13 minutes 17 seconds 425 msec
