                         Program Version 4.2.0 -  RELEASE  -
|  1> # ORCA input file
|  2> # SCF done       -203.812004005221          0.000843962855
|  3> ! CAM-B3LYP def2-SVP def2/J RIJCOSX Grid4 TightSCF
|  4> %maxcore 5000
|  5> %tddft
|  6>     Mode sTDDFT
|  7>     Ethresh 5.0
|  8>     maxcore 5000
|  9> end
| 10>
| 11> %pal
| 12>   nprocs 6
| 13>   end
| 14> * xyz 0 1
| 15>    C       -3.54426         4.05763         0.98472
| 16>    C       -2.51803         4.08214         1.89454
| 17>    C       -2.48386         3.29192         3.06164
| 18>    N       -2.39565         2.68165         4.02968
| 19>    C       -1.33047         4.81419         1.71524
| 20>    N       -0.32619         5.35719         1.58327
| 21>    C       -4.65703         3.11856         0.98036
| 22>    C       -5.23981         3.10864        -0.32122
| 23>    C       -6.30368         2.30822        -0.62247
| 24>    C       -6.84851         1.48038         0.38498
| 25>    C       -6.28191         1.50306         1.69255
| 26>    C       -5.17330         2.33337         1.97420
| 27>    C       -6.84867         0.68612         2.69160
| 28>    C       -7.92060        -0.11811         2.41460
| 29>    C       -8.47507        -0.14276         1.12627
| 30>    C       -7.95014         0.63919         0.13324
| 31>    C       -4.54597         4.08571        -1.17411
| 32>    O       -4.71411         4.32136        -2.34844
| 33>    C       -3.60730         4.79856        -0.25638
| 34>    C       -3.09227         5.99677        -0.64103
| 35>    C       -2.46936         6.99899         0.14663
| 36>    S       -1.22699         7.94130        -0.61341
| 37>    C       -0.74241         8.66487         0.86962
| 38>    C       -1.54022         8.22895         1.93022
| 39>    C       -2.58065         7.33364         1.50514
| 40>    C       -3.55151         6.89832         2.44633
| 41>    C       -4.84613         6.25474         2.10651
| 42>    O       -5.38864         5.44677         2.81134
| 43>    O       -5.45423         6.69143         0.98425
| 44>    C       -3.34354         7.17799         3.78084
| 45>    C       -2.24705         7.91730         4.21652
| 46>    C       -1.35352         8.46750         3.32224
| 47>    O       -0.34165         9.19073         3.83332
| 48>    C        0.31710         9.63761         0.86791
| 49>    S        0.00321        11.26305         1.43344
| 50>    C        1.64842        11.72405         1.10042
| 51>    C        2.34957        10.70026         0.50911
| 52>    C        1.59590         9.51341         0.37831
| 53>    C        2.18994         8.23855        -0.12995
| 54>    C        3.49782         8.50354        -0.87008
| 55>    C        4.40828         9.40442        -0.02479
| 56>    C        5.75441         9.49866        -0.69116
| 57>    O        6.77837         9.05637        -0.25819
| 58>    C        3.78073        10.79700         0.08865
| 59>    C        2.09723        13.04595         1.41870
| 60>    S        2.89760        13.98883         0.22029
| 61>    C        2.99328        15.38388         1.24511
| 62>    C        2.34370        15.13380         2.46166
| 63>    C        1.90400        13.78018         2.59523
| 64>    C        1.37618        13.33419         3.84043
| 65>    C        1.16903        11.90652         4.15238
| 66>    O        1.81185        10.99308         3.68175
| 67>    O        0.19763        11.70230         5.04094
| 68>    C        1.15717        14.26730         4.82798
| 69>    C        1.42311        15.62381         4.62918
| 70>    C        2.00399        16.07895         3.46717
| 71>    O        2.19673        17.39253         3.23331
| 72>    C        3.68256        16.51842         0.76897
| 73>    C        4.37275        17.41616         1.53473
| 74>    C        4.91320        18.68161         1.08742
| 75>    C        4.63178        19.31257        -0.09795
| 76>    C        5.15128        20.57047        -0.46574
| 77>    N        5.54291        21.58850        -0.82457
| 78>    C        3.76976        18.81346        -1.09579
| 79>    N        3.07111        18.48051        -1.94471
| 80>    C        5.73268        19.22412         2.16489
| 81>    C        5.68258        18.32464         3.26752
| 82>    C        4.84523        17.16249         2.91952
| 83>    O        4.67559        16.16949         3.59838
| 84>    C        6.35095        18.57243         4.43119
| 85>    C        7.10807        19.75972         4.55233
| 86>    C        7.16773        20.66227         3.45183
| 87>    C        6.47075        20.37406         2.25545
| 88>    C        7.93012        21.84080         3.58108
| 89>    C        8.59998        22.11780         4.74181
| 90>    C        8.53948        21.22897         5.82526
| 91>    C        7.80901        20.07519         5.73260
| 92>    H       -6.73094         2.31197        -1.61432
| 93>    H       -4.77583         2.35382         2.97620
| 94>    H       -6.41738         0.70882         3.68139
| 95>    H       -8.34807        -0.73985         3.18711
| 96>    H       -9.32137        -0.78260         0.92491
| 97>    H       -8.37465         0.62596        -0.86012
| 98>    H       -3.17253         6.20832        -1.70374
| 99>    H       -4.94886         7.37552         0.52486
|100>    H       -4.06348         6.81178         4.49646
|101>    H       -2.08932         8.08653         5.26902
|102>    H        0.34307         9.41975         3.18281
|103>    H        1.48832         7.72573        -0.78940
|104>    H        2.37396         7.57579         0.72120
|105>    H        3.29186         8.99453        -1.82386
|106>    H        3.99557         7.55485        -1.07548
|107>    H        4.53215         8.96690         0.96990
|108>    H        5.72183        10.01698        -1.67192
|109>    H        3.83299        11.29788        -0.88470
|110>    H        4.33696        11.40625         0.80411
|111>    H        0.06283        10.74417         5.16662
|112>    H        0.76496        13.94151         5.77819
|113>    H        1.18046        16.32903         5.41220
|114>    H        1.92517        17.90509         4.00668
|115>    H        3.70240        16.63169        -0.30805
|116>    H        6.30075        17.87218         5.25210
|117>    H        6.54361        21.07254         1.43702
|118>    H        7.97290        22.52241         2.74421
|119>    H        9.18057        23.02373         4.83123
|120>    H        9.07495        21.46234         6.73340
|121>    H        7.75986        19.38629         6.56337
|122> *
|123>
|124>                          ****END OF INPUT****

CARTESIAN COORDINATES (ANGSTROEM)
---------------------------------
  C     -3.544260    4.057630    0.984720
  C     -2.518030    4.082140    1.894540
  C     -2.483860    3.291920    3.061640
  N     -2.395650    2.681650    4.029680
  C     -1.330470    4.814190    1.715240
  N     -0.326190    5.357190    1.583270
  C     -4.657030    3.118560    0.980360
  C     -5.239810    3.108640   -0.321220
  C     -6.303680    2.308220   -0.622470
  C     -6.848510    1.480380    0.384980
  C     -6.281910    1.503060    1.692550
  C     -5.173300    2.333370    1.974200
  C     -6.848670    0.686120    2.691600
  C     -7.920600   -0.118110    2.414600
  C     -8.475070   -0.142760    1.126270
  C     -7.950140    0.639190    0.133240
  C     -4.545970    4.085710   -1.174110
  O     -4.714110    4.321360   -2.348440
  C     -3.607300    4.798560   -0.256380
  C     -3.092270    5.996770   -0.641030
  C     -2.469360    6.998990    0.146630
  S     -1.226990    7.941300   -0.613410
  C     -0.742410    8.664870    0.869620
  C     -1.540220    8.228950    1.930220
  C     -2.580650    7.333640    1.505140
  C     -3.551510    6.898320    2.446330
  C     -4.846130    6.254740    2.106510
  O     -5.388640    5.446770    2.811340
  O     -5.454230    6.691430    0.984250
  C     -3.343540    7.177990    3.780840
  C     -2.247050    7.917300    4.216520
  C     -1.353520    8.467500    3.322240
  O     -0.341650    9.190730    3.833320
  C      0.317100    9.637610    0.867910
  S      0.003210   11.263050    1.433440
  C      1.648420   11.724050    1.100420
  C      2.349570   10.700260    0.509110
  C      1.595900    9.513410    0.378310
  C      2.189940    8.238550   -0.129950
  C      3.497820    8.503540   -0.870080
  C      4.408280    9.404420   -0.024790
  C      5.754410    9.498660   -0.691160
  O      6.778370    9.056370   -0.258190
  C      3.780730   10.797000    0.088650
  C      2.097230   13.045950    1.418700
  S      2.897600   13.988830    0.220290
  C      2.993280   15.383880    1.245110
  C      2.343700   15.133800    2.461660
  C      1.904000   13.780180    2.595230
  C      1.376180   13.334190    3.840430
  C      1.169030   11.906520    4.152380
  O      1.811850   10.993080    3.681750
  O      0.197630   11.702300    5.040940
  C      1.157170   14.267300    4.827980
  C      1.423110   15.623810    4.629180
  C      2.003990   16.078950    3.467170
  O      2.196730   17.392530    3.233310
  C      3.682560   16.518420    0.768970
  C      4.372750   17.416160    1.534730
  C      4.913200   18.681610    1.087420
  C      4.631780   19.312570   -0.097950
  C      5.151280   20.570470   -0.465740
  N      5.542910   21.588500   -0.824570
  C      3.769760   18.813460   -1.095790
  N      3.071110   18.480510   -1.944710
  C      5.732680   19.224120    2.164890
  C      5.682580   18.324640    3.267520
  C      4.845230   17.162490    2.919520
  O      4.675590   16.169490    3.598380
  C      6.350950   18.572430    4.431190
  C      7.108070   19.759720    4.552330
  C      7.167730   20.662270    3.451830
  C      6.470750   20.374060    2.255450
  C      7.930120   21.840800    3.581080
  C      8.599980   22.117800    4.741810
  C      8.539480   21.228970    5.825260
  C      7.809010   20.075190    5.732600
  H     -6.730940    2.311970   -1.614320
  H     -4.775830    2.353820    2.976200
  H     -6.417380    0.708820    3.681390
  H     -8.348070   -0.739850    3.187110
  H     -9.321370   -0.782600    0.924910
  H     -8.374650    0.625960   -0.860120
  H     -3.172530    6.208320   -1.703740
  H     -4.948860    7.375520    0.524860
  H     -4.063480    6.811780    4.496460
  H     -2.089320    8.086530    5.269020
  H      0.343070    9.419750    3.182810
  H      1.488320    7.725730   -0.789400
  H      2.373960    7.575790    0.721200
  H      3.291860    8.994530   -1.823860
  H      3.995570    7.554850   -1.075480
  H      4.532150    8.966900    0.969900
  H      5.721830   10.016980   -1.671920
  H      3.832990   11.297880   -0.884700
  H      4.336960   11.406250    0.804110
  H      0.062830   10.744170    5.166620
  H      0.764960   13.941510    5.778190
  H      1.180460   16.329030    5.412200
  H      1.925170   17.905090    4.006680
  H      3.702400   16.631690   -0.308050
  H      6.300750   17.872180    5.252100
  H      6.543610   21.072540    1.437020
  H      7.972900   22.522410    2.744210
  H      9.180570   23.023730    4.831230
  H      9.074950   21.462340    6.733400
  H      7.759860   19.386290    6.563370

 Total Charge           Charge          ....    0
 Multiplicity           Mult            ....    1
 Number of Electrons    NEL             ....  544
 Basis Dimension        Dim             .... 1240

ORBITAL ENERGIES
----------------

  NO   OCC          E(Eh)            E(eV)
   0   2.0000     -88.992345     -2421.6048
   1   2.0000     -88.990620     -2421.5579
   2   2.0000     -88.974465     -2421.1183
   3   2.0000     -19.276458      -524.5391
   4   2.0000     -19.272070      -524.4197
   5   2.0000     -19.264342      -524.2094
   6   2.0000     -19.259395      -524.0748
   7   2.0000     -19.216510      -522.9078
   8   2.0000     -19.211794      -522.7795
   9   2.0000     -19.210060      -522.7323
  10   2.0000     -19.208095      -522.6788
  11   2.0000     -19.199251      -522.4382
  12   2.0000     -14.414991      -392.2518
  13   2.0000     -14.413774      -392.2187
  14   2.0000     -14.412581      -392.1863
  15   2.0000     -14.406719      -392.0268
  16   2.0000     -10.413070      -283.3540
  17   2.0000     -10.403459      -283.0925
  18   2.0000     -10.367114      -282.1035
  19   2.0000     -10.367046      -282.1017
  20   2.0000     -10.364853      -282.0420
  21   2.0000     -10.358523      -281.8697
  22   2.0000     -10.356587      -281.8171
  23   2.0000     -10.343688      -281.4661
  24   2.0000     -10.340365      -281.3756
  25   2.0000     -10.339213      -281.3443
  26   2.0000     -10.338833      -281.3339
  27   2.0000     -10.335239      -281.2362
  28   2.0000     -10.331684      -281.1394
  29   2.0000     -10.326022      -280.9853
  30   2.0000     -10.324890      -280.9545
  31   2.0000     -10.323678      -280.9216
  32   2.0000     -10.323409      -280.9142
  33   2.0000     -10.321190      -280.8539
  34   2.0000     -10.318000      -280.7670
  35   2.0000     -10.317772      -280.7609
  36   2.0000     -10.316822      -280.7350
  37   2.0000     -10.315630      -280.7026
  38   2.0000     -10.315186      -280.6905
  39   2.0000     -10.312416      -280.6151
  40   2.0000     -10.310094      -280.5519
  41   2.0000     -10.309506      -280.5359
  42   2.0000     -10.308950      -280.5208
  43   2.0000     -10.302697      -280.3506
  44   2.0000     -10.301480      -280.3175
  45   2.0000     -10.300401      -280.2882
  46   2.0000     -10.299355      -280.2597
  47   2.0000     -10.298699      -280.2418
  48   2.0000     -10.298272      -280.2302
  49   2.0000     -10.298125      -280.2262
  50   2.0000     -10.298096      -280.2254
  51   2.0000     -10.297257      -280.2026
  52   2.0000     -10.297082      -280.1979
  53   2.0000     -10.295892      -280.1655
  54   2.0000     -10.294456      -280.1264
  55   2.0000     -10.292645      -280.0771
  56   2.0000     -10.291765      -280.0532
  57   2.0000     -10.291252      -280.0392
  58   2.0000     -10.290138      -280.0089
  59   2.0000     -10.288802      -279.9725
  60   2.0000     -10.287938      -279.9490
  61   2.0000     -10.287428      -279.9352
  62   2.0000     -10.286947      -279.9221
  63   2.0000     -10.286451      -279.9086
  64   2.0000     -10.286323      -279.9051
  65   2.0000     -10.285908      -279.8938
  66   2.0000     -10.285784      -279.8904
  67   2.0000     -10.284438      -279.8538
  68   2.0000     -10.284303      -279.8501
  69   2.0000     -10.284225      -279.8480
  70   2.0000     -10.282619      -279.8043
  71   2.0000     -10.280018      -279.7335
  72   2.0000     -10.278358      -279.6883
  73   2.0000     -10.276428      -279.6358
  74   2.0000     -10.275915      -279.6219
  75   2.0000     -10.275580      -279.6127
  76   2.0000     -10.274517      -279.5838
  77   2.0000      -8.087261      -220.0656
  78   2.0000      -8.085662      -220.0220
  79   2.0000      -8.069285      -219.5764
  80   2.0000      -6.056108      -164.7951
  81   2.0000      -6.054584      -164.7536
  82   2.0000      -6.052004      -164.6834
  83   2.0000      -6.050444      -164.6410
  84   2.0000      -6.050298      -164.6370
  85   2.0000      -6.048551      -164.5894
  86   2.0000      -6.038725      -164.3221
  87   2.0000      -6.034633      -164.2107
  88   2.0000      -6.031087      -164.1142
  89   2.0000      -1.196816       -32.5670
  90   2.0000      -1.182259       -32.1709
  91   2.0000      -1.175413       -31.9846
  92   2.0000      -1.167678       -31.7741
  93   2.0000      -1.131333       -30.7851
  94   2.0000      -1.126659       -30.6580
  95   2.0000      -1.122942       -30.5568
  96   2.0000      -1.098487       -29.8914
  97   2.0000      -1.096761       -29.8444
  98   2.0000      -1.028724       -27.9930
  99   2.0000      -1.022904       -27.8346
 100   2.0000      -1.017095       -27.6766
 101   2.0000      -1.010248       -27.4902
 102   2.0000      -1.000585       -27.2273
 103   2.0000      -0.998151       -27.1611
 104   2.0000      -0.992850       -27.0168
 105   2.0000      -0.990512       -26.9532
 106   2.0000      -0.986075       -26.8325
 107   2.0000      -0.971900       -26.4468
 108   2.0000      -0.962366       -26.1873
 109   2.0000      -0.954602       -25.9760
 110   2.0000      -0.951003       -25.8781
 111   2.0000      -0.938741       -25.5444
 112   2.0000      -0.927755       -25.2455
 113   2.0000      -0.921256       -25.0687
 114   2.0000      -0.913495       -24.8575
 115   2.0000      -0.904339       -24.6083
 116   2.0000      -0.892314       -24.2811
 117   2.0000      -0.883769       -24.0486
 118   2.0000      -0.881472       -23.9861
 119   2.0000      -0.874061       -23.7844
 120   2.0000      -0.870265       -23.6811
 121   2.0000      -0.867934       -23.6177
 122   2.0000      -0.859456       -23.3870
 123   2.0000      -0.857968       -23.3465
 124   2.0000      -0.852702       -23.2032
 125   2.0000      -0.850589       -23.1457
 126   2.0000      -0.838507       -22.8169
 127   2.0000      -0.828861       -22.5545
 128   2.0000      -0.826603       -22.4930
 129   2.0000      -0.817728       -22.2515
 130   2.0000      -0.805003       -21.9052
 131   2.0000      -0.786341       -21.3974
 132   2.0000      -0.774601       -21.0780
 133   2.0000      -0.761292       -20.7158
 134   2.0000      -0.760266       -20.6879
 135   2.0000      -0.752242       -20.4695
 136   2.0000      -0.749057       -20.3829
 137   2.0000      -0.746211       -20.3054
 138   2.0000      -0.729298       -19.8452
 139   2.0000      -0.726472       -19.7683
 140   2.0000      -0.720303       -19.6004
 141   2.0000      -0.717912       -19.5354
 142   2.0000      -0.714876       -19.4528
 143   2.0000      -0.704349       -19.1663
 144   2.0000      -0.702610       -19.1190
 145   2.0000      -0.699044       -19.0220
 146   2.0000      -0.696599       -18.9554
 147   2.0000      -0.690078       -18.7780
 148   2.0000      -0.688923       -18.7465
 149   2.0000      -0.682130       -18.5617
 150   2.0000      -0.679106       -18.4794
 151   2.0000      -0.668166       -18.1817
 152   2.0000      -0.666238       -18.1293
 153   2.0000      -0.661789       -18.0082
 154   2.0000      -0.656883       -17.8747
 155   2.0000      -0.647372       -17.6159
 156   2.0000      -0.640061       -17.4170
 157   2.0000      -0.636134       -17.3101
 158   2.0000      -0.627614       -17.0783
 159   2.0000      -0.626737       -17.0544
 160   2.0000      -0.622759       -16.9461
 161   2.0000      -0.609950       -16.5976
 162   2.0000      -0.608901       -16.5690
 163   2.0000      -0.606934       -16.5155
 164   2.0000      -0.602482       -16.3944
 165   2.0000      -0.597356       -16.2549
 166   2.0000      -0.597103       -16.2480
 167   2.0000      -0.587726       -15.9928
 168   2.0000      -0.584800       -15.9132
 169   2.0000      -0.576830       -15.6963
 170   2.0000      -0.572372       -15.5750
 171   2.0000      -0.565100       -15.3772
 172   2.0000      -0.563481       -15.3331
 173   2.0000      -0.562260       -15.2999
 174   2.0000      -0.558295       -15.1920
 175   2.0000      -0.555364       -15.1122
 176   2.0000      -0.551978       -15.0201
 177   2.0000      -0.547815       -14.9068
 178   2.0000      -0.546004       -14.8575
 179   2.0000      -0.544530       -14.8174
 180   2.0000      -0.543589       -14.7918
 181   2.0000      -0.542939       -14.7741
 182   2.0000      -0.540251       -14.7010
 183   2.0000      -0.538597       -14.6560
 184   2.0000      -0.537426       -14.6241
 185   2.0000      -0.535356       -14.5678
 186   2.0000      -0.534487       -14.5441
 187   2.0000      -0.532687       -14.4952
 188   2.0000      -0.527727       -14.3602
 189   2.0000      -0.524678       -14.2772
 190   2.0000      -0.522601       -14.2207
 191   2.0000      -0.522290       -14.2122
 192   2.0000      -0.518654       -14.1133
 193   2.0000      -0.516140       -14.0449
 194   2.0000      -0.514527       -14.0010
 195   2.0000      -0.512067       -13.9340
 196   2.0000      -0.510467       -13.8905
 197   2.0000      -0.509320       -13.8593
 198   2.0000      -0.508175       -13.8281
 199   2.0000      -0.506198       -13.7744
 200   2.0000      -0.504598       -13.7308
 201   2.0000      -0.502097       -13.6628
 202   2.0000      -0.501666       -13.6510
 203   2.0000      -0.497739       -13.5442
 204   2.0000      -0.496841       -13.5197
 205   2.0000      -0.496230       -13.5031
 206   2.0000      -0.494746       -13.4627
 207   2.0000      -0.491237       -13.3672
 208   2.0000      -0.488070       -13.2811
 209   2.0000      -0.486663       -13.2428
 210   2.0000      -0.484248       -13.1770
 211   2.0000      -0.482620       -13.1328
 212   2.0000      -0.477050       -12.9812
 213   2.0000      -0.471768       -12.8375
 214   2.0000      -0.469350       -12.7717
 215   2.0000      -0.467552       -12.7227
 216   2.0000      -0.465613       -12.6700
 217   2.0000      -0.463782       -12.6201
 218   2.0000      -0.460363       -12.5271
 219   2.0000      -0.455779       -12.4024
 220   2.0000      -0.455460       -12.3937
 221   2.0000      -0.452260       -12.3066
 222   2.0000      -0.450027       -12.2459
 223   2.0000      -0.448697       -12.2097
 224   2.0000      -0.448160       -12.1950
 225   2.0000      -0.446367       -12.1463
 226   2.0000      -0.444078       -12.0840
 227   2.0000      -0.441342       -12.0095
 228   2.0000      -0.441097       -12.0029
 229   2.0000      -0.437821       -11.9137
 230   2.0000      -0.435521       -11.8511
 231   2.0000      -0.434139       -11.8135
 232   2.0000      -0.431167       -11.7327
 233   2.0000      -0.430144       -11.7048
 234   2.0000      -0.428978       -11.6731
 235   2.0000      -0.428527       -11.6608
 236   2.0000      -0.427777       -11.6404
 237   2.0000      -0.425812       -11.5869
 238   2.0000      -0.423651       -11.5281
 239   2.0000      -0.423232       -11.5167
 240   2.0000      -0.419351       -11.4111
 241   2.0000      -0.418297       -11.3824
 242   2.0000      -0.416727       -11.3397
 243   2.0000      -0.412644       -11.2286
 244   2.0000      -0.407827       -11.0975
 245   2.0000      -0.407422       -11.0865
 246   2.0000      -0.405525       -11.0349
 247   2.0000      -0.401141       -10.9156
 248   2.0000      -0.399612       -10.8740
 249   2.0000      -0.395971       -10.7749
 250   2.0000      -0.389669       -10.6034
 251   2.0000      -0.381738       -10.3876
 252   2.0000      -0.373293       -10.1578
 253   2.0000      -0.367151        -9.9907
 254   2.0000      -0.361747        -9.8436
 255   2.0000      -0.360433        -9.8079
 256   2.0000      -0.353243        -9.6122
 257   2.0000      -0.346708        -9.4344
 258   2.0000      -0.337552        -9.1852
 259   2.0000      -0.335059        -9.1174
 260   2.0000      -0.332591        -9.0503
 261   2.0000      -0.329572        -8.9681
 262   2.0000      -0.323123        -8.7926
 263   2.0000      -0.321509        -8.7487
 264   2.0000      -0.319697        -8.6994
 265   2.0000      -0.313705        -8.5363
 266   2.0000      -0.310196        -8.4409
 267   2.0000      -0.303190        -8.2502
 268   2.0000      -0.295466        -8.0400
 269   2.0000      -0.282333        -7.6827
 270   2.0000      -0.272771        -7.4225
 271   2.0000      -0.257103        -6.9961
 272   0.0000      -0.106562        -2.8997
 273   0.0000      -0.092587        -2.5194
 274   0.0000      -0.064835        -1.7642
 275   0.0000      -0.056936        -1.5493
 276   0.0000      -0.042801        -1.1647

MULLIKEN ATOMIC CHARGES
-----------------------
   0 C :    0.244089
   1 C :   -0.298465
   2 C :   -0.187832
   3 N :    0.158595
   4 C :   -0.188667
   5 N :    0.150510
   6 C :    0.053032
   7 C :    0.024177
   8 C :   -0.087616
   9 C :    0.097008
  10 C :    0.091303
  11 C :   -0.055995
  12 C :   -0.014046
  13 C :    0.034480
  14 C :    0.033104
  15 C :   -0.015492
  16 C :    0.144546
  17 O :   -0.144266
  18 C :   -0.125787
  19 C :    0.015583
  20 C :   -0.242485
  21 S :    0.229508
  22 C :   -0.153912
  23 C :    0.153569
  24 C :    0.094979
  25 C :   -0.069133
  26 C :    0.129769
  27 O :   -0.183318
  28 O :   -0.152270
  29 C :    0.021175
  30 C :   -0.046633
  31 C :    0.120739
  32 O :   -0.199419
  33 C :   -0.277402
  34 S :    0.164857
  35 C :   -0.123870
  36 C :   -0.029716
  37 C :   -0.065262
  38 C :    0.190407
  39 C :    0.012341
  40 C :   -0.125077
  41 C :    0.163229
  42 O :   -0.162408
  43 C :    0.172447
  44 C :   -0.205128
  45 S :    0.216670
  46 C :   -0.168725
  47 C :    0.131242
  48 C :    0.144678
  49 C :   -0.033036
  50 C :    0.119570
  51 O :   -0.231469
  52 O :   -0.166725
  53 C :    0.027105
  54 C :   -0.061371
  55 C :    0.142007
  56 O :   -0.164860
  57 C :    0.008825
  58 C :   -0.063472
  59 C :    0.308297
  60 C :   -0.348950
  61 C :   -0.183466
  62 N :    0.149374
  63 C :   -0.204541
  64 N :    0.154772
  65 C :    0.054126
  66 C :   -0.011506
  67 C :    0.139093
  68 O :   -0.157092
  69 C :   -0.094804
  70 C :    0.102930
  71 C :    0.099689
  72 C :   -0.093400
  73 C :   -0.023030
  74 C :    0.036860
  75 C :    0.037835
  76 C :   -0.021649
  77 H :   -0.016438
  78 H :   -0.005754
  79 H :   -0.013040
  80 H :   -0.008261
  81 H :   -0.008954
  82 H :   -0.021151
  83 H :    0.022057
  84 H :    0.187516
  85 H :    0.012721
  86 H :   -0.015752
  87 H :    0.217385
  88 H :    0.012008
  89 H :    0.041352
  90 H :    0.007834
  91 H :    0.023927
  92 H :    0.020666
  93 H :   -0.019197
  94 H :    0.013904
  95 H :    0.033908
  96 H :    0.197163
  97 H :    0.002217
  98 H :   -0.029683
  99 H :    0.191455
 100 H :    0.023806
 101 H :   -0.016020
 102 H :   -0.007430
 103 H :   -0.007979
 104 H :   -0.004715
 105 H :   -0.005790
 106 H :   -0.017979
Sum of atomic charges:   -0.0000000

LOEWDIN ATOMIC CHARGES
----------------------
   0 C :    0.060747
   1 C :   -0.132501
   2 C :   -0.015157
   3 N :   -0.053127
   4 C :   -0.006085
   5 N :   -0.068867
   6 C :   -0.016000
   7 C :   -0.054607
   8 C :    0.031356
   9 C :   -0.008735
  10 C :   -0.002713
  11 C :    0.028665
  12 C :   -0.005014
  13 C :   -0.015528
  14 C :   -0.016233
  15 C :   -0.010472
  16 C :    0.087495
  17 O :   -0.145428
  18 C :   -0.082145
  19 C :    0.012053
  20 C :   -0.217415
  21 S :    0.532716
  22 C :   -0.163489
  23 C :   -0.069884
  24 C :   -0.029467
  25 C :   -0.115067
  26 C :    0.078231
  27 O :   -0.158813
  28 O :   -0.026512
  29 C :    0.047975
  30 C :   -0.070408
  31 C :    0.089045
  32 O :   -0.024564
  33 C :   -0.228663
  34 S :    0.461638
  35 C :   -0.181192
  36 C :   -0.045301
  37 C :   -0.036286
  38 C :   -0.022821
  39 C :   -0.017054
  40 C :   -0.064521
  41 C :    0.114429
  42 O :   -0.116077
  43 C :   -0.022941
  44 C :   -0.170633
  45 S :    0.529673
  46 C :   -0.177003
  47 C :   -0.035228
  48 C :   -0.023392
  49 C :   -0.085921
  50 C :    0.075775
  51 O :   -0.200608
  52 O :   -0.024781
  53 C :    0.028118
  54 C :   -0.075552
  55 C :    0.082866
  56 O :   -0.017368
  57 C :    0.035071
  58 C :   -0.084001
  59 C :    0.074957
  60 C :   -0.141445
  61 C :   -0.017957
  62 N :   -0.056107
  63 C :   -0.023010
  64 N :   -0.054788
  65 C :   -0.025760
  66 C :   -0.054334
  67 C :    0.075109
  68 O :   -0.149619
  69 C :    0.025973
  70 C :   -0.009108
  71 C :   -0.007191
  72 C :    0.017998
  73 C :   -0.005623
  74 C :   -0.014205
  75 C :   -0.012815
  76 C :   -0.011418
  77 H :    0.037645
  78 H :    0.039700
  79 H :    0.033843
  80 H :    0.031625
  81 H :    0.031075
  82 H :    0.030401
  83 H :    0.042897
  84 H :    0.090693
  85 H :    0.045124
  86 H :    0.036680
  87 H :    0.076473
  88 H :    0.026281
  89 H :    0.047660
  90 H :    0.023043
  91 H :    0.032912
  92 H :    0.036224
  93 H :   -0.010309
  94 H :    0.028269
  95 H :    0.037255
  96 H :    0.089211
  97 H :    0.039130
  98 H :    0.030240
  99 H :    0.103711
 100 H :    0.043197
 101 H :    0.037198
 102 H :    0.038933
 103 H :    0.034880
 104 H :    0.033214
 105 H :    0.032601
 106 H :    0.031260

  Mayer bond orders larger than 0.100000
B(  0-C ,  1-C ) :   1.6482 B(  0-C ,  6-C ) :   1.0032 B(  0-C , 18-C ) :   1.0414
B(  1-C ,  2-C ) :   1.1374 B(  1-C ,  4-C ) :   1.1732 B(  2-C ,  3-N ) :   2.9931
B(  4-C ,  5-N ) :   2.9882 B(  6-C ,  7-C ) :   1.2177 B(  6-C , 11-C ) :   1.4663
B(  7-C ,  8-C ) :   1.4658 B(  7-C , 16-C ) :   0.9221 B(  8-C ,  9-C ) :   1.1864
B(  8-C , 77-H ) :   1.0153 B(  9-C , 10-C ) :   1.2551 B(  9-C , 15-C ) :   1.2438
B( 10-C , 11-C ) :   1.2034 B( 10-C , 12-C ) :   1.2422 B( 11-C , 78-H ) :   0.9904
B( 12-C , 13-C ) :   1.4868 B( 12-C , 79-H ) :   0.9971 B( 13-C , 14-C ) :   1.2604
B( 13-C , 80-H ) :   0.9888 B( 14-C , 15-C ) :   1.4884 B( 14-C , 81-H ) :   0.9891
B( 15-C , 82-H ) :   0.9971 B( 16-C , 17-O ) :   2.2749 B( 16-C , 18-C ) :   0.9342
B( 18-C , 19-C ) :   1.6901 B( 19-C , 20-C ) :   1.1146 B( 19-C , 83-H ) :   0.9271
B( 20-C , 21-S ) :   1.1261 B( 20-C , 22-C ) :   0.1178 B( 20-C , 24-C ) :   1.3400
B( 21-S , 22-C ) :   1.2426 B( 22-C , 23-C ) :   1.3791 B( 22-C , 33-C ) :   1.0142
B( 23-C , 24-C ) :   1.2011 B( 23-C , 31-C ) :   1.1095 B( 24-C , 25-C ) :   1.1908
B( 25-C , 26-C ) :   0.9196 B( 25-C , 29-C ) :   1.4954 B( 26-C , 27-O ) :   2.1559
B( 26-C , 28-O ) :   1.2317 B( 28-O , 84-H ) :   0.9434 B( 29-C , 30-C ) :   1.2202
B( 29-C , 85-H ) :   0.9905 B( 30-C , 31-C ) :   1.4650 B( 30-C , 86-H ) :   0.9971
B( 31-C , 32-O ) :   1.2583 B( 32-O , 87-H ) :   0.8960 B( 33-C , 34-S ) :   1.1273
B( 33-C , 35-C ) :   0.1214 B( 33-C , 37-C ) :   1.5260 B( 34-S , 35-C ) :   1.1211
B( 35-C , 36-C ) :   1.5588 B( 35-C , 44-C ) :   1.0265 B( 36-C , 37-C ) :   1.2923
B( 36-C , 43-C ) :   1.0561 B( 37-C , 38-C ) :   1.0558 B( 38-C , 39-C ) :   1.0915
B( 38-C , 88-H ) :   0.9001 B( 38-C , 89-H ) :   0.9020 B( 39-C , 40-C ) :   1.0185
B( 39-C , 90-H ) :   0.9406 B( 39-C , 91-H ) :   0.9369 B( 40-C , 41-C ) :   0.9284
B( 40-C , 43-C ) :   1.0265 B( 40-C , 92-H ) :   0.9245 B( 41-C , 42-O ) :   2.2283
B( 41-C , 93-H ) :   0.9357 B( 43-C , 94-H ) :   0.8990 B( 43-C , 95-H ) :   0.9045
B( 44-C , 45-S ) :   1.2283 B( 44-C , 46-C ) :   0.1169 B( 44-C , 48-C ) :   1.3714
B( 45-S , 46-C ) :   1.1332 B( 46-C , 47-C ) :   1.3307 B( 46-C , 57-C ) :   1.1853
B( 47-C , 48-C ) :   1.2511 B( 47-C , 55-C ) :   1.1748 B( 48-C , 49-C ) :   1.1829
B( 49-C , 50-C ) :   0.9308 B( 49-C , 53-C ) :   1.5200 B( 50-C , 51-O ) :   2.0336
B( 50-C , 52-O ) :   1.3153 B( 52-O , 96-H ) :   0.9215 B( 53-C , 54-C ) :   1.2180
B( 53-C , 97-H ) :   0.9851 B( 54-C , 55-C ) :   1.4385 B( 54-C , 98-H ) :   0.9836
B( 55-C , 56-O ) :   1.2474 B( 56-O , 99-H ) :   0.9495 B( 57-C , 58-C ) :   1.5881
B( 57-C ,100-H ) :   0.9298 B( 58-C , 59-C ) :   1.0960 B( 58-C , 67-C ) :   0.9386
B( 59-C , 60-C ) :   1.6250 B( 59-C , 65-C ) :   0.9850 B( 60-C , 61-C ) :   1.1480
B( 60-C , 63-C ) :   1.1446 B( 61-C , 62-N ) :   2.9649 B( 63-C , 64-N ) :   2.9839
B( 65-C , 66-C ) :   1.2127 B( 65-C , 72-C ) :   1.4501 B( 66-C , 67-C ) :   0.9400
B( 66-C , 69-C ) :   1.4728 B( 67-C , 68-O ) :   2.2129 B( 69-C , 70-C ) :   1.1741
B( 69-C ,101-H ) :   1.0172 B( 70-C , 71-C ) :   1.2570 B( 70-C , 76-C ) :   1.2452
B( 71-C , 72-C ) :   1.2018 B( 71-C , 73-C ) :   1.2415 B( 72-C ,102-H ) :   0.9898
B( 73-C , 74-C ) :   1.4885 B( 73-C ,103-H ) :   0.9970 B( 74-C , 75-C ) :   1.2613
B( 74-C ,104-H ) :   0.9880 B( 75-C , 76-C ) :   1.4889 B( 75-C ,105-H ) :   0.9880
B( 76-C ,106-H ) :   0.9971

-----------------------------------------------------------------------------
         ABSORPTION SPECTRUM VIA TRANSITION ELECTRIC DIPOLE MOMENTS
-----------------------------------------------------------------------------
State   Energy  Wavelength   fosc         T2         TX        TY        TZ
        (cm-1)    (nm)                  (au**2)     (au)      (au)      (au)
-----------------------------------------------------------------------------
   0   16909.7    591.4   1.542451571  30.02964  -2.75786  -4.73390  -0.11827
   1   19019.8    525.8   0.027940396   0.48362  -0.08335   0.11073   0.68148
   2   23226.7    430.5   0.010850054   0.15379  -0.02241  -0.23350   0.31426
   3   23857.1    419.2   0.011778456   0.16253  -0.23566  -0.29221  -0.14702
   4   23993.5    416.8   0.002277790   0.03125   0.17001   0.00425  -0.04827
   5   24905.0    401.5   0.041318616   0.54618   0.66391   0.01450   0.32433
   6   25403.2    393.7   0.009897133   0.12826   0.28022   0.19149   0.11433
   7   26564.0    376.4   0.080309799   0.99529   0.46893   0.37468   0.79688
   8   26984.8    370.6   0.028710758   0.35027   0.14310  -0.35968   0.44768
   9   27272.1    366.7   0.118322968   1.42832   1.03517   0.48642   0.34662
  10   28360.9    352.6   0.034754874   0.40343   0.06688   0.58002  -0.25008
  11   28491.4    351.0   0.061844270   0.71460  -0.42409  -0.39323  -0.61654
  12   29088.3    343.8   0.004590256   0.05195  -0.07751  -0.18471  -0.10875
  13   30181.1    331.3   0.087534561   0.95482  -0.67571  -0.70586  -0.00190
  14   30278.0    330.3   0.029038757   0.31574   0.06210   0.32674  -0.45290
  15   30587.4    326.9   0.072316289   0.77834  -0.77285  -0.38620   0.17860
  16   30920.3    323.4   0.091922266   0.97871   0.05861  -0.97925  -0.12784
  17   31282.5    319.7   0.043888542   0.46188   0.64030   0.10564   0.20183
  18   31402.9    318.4   0.033325970   0.34937  -0.47597  -0.21693  -0.27525
  19   32213.9    310.4   0.043490349   0.44445   0.09607  -0.28689   0.59407
  20   32328.0    309.3   0.143380196   1.46011   1.01207   0.59739  -0.28098
  21   32780.8    305.1   0.711935308   7.14983  -1.82332  -1.70706  -0.95461
  22   32892.3    304.0   0.493338507   4.93772   1.33745   0.79060   1.58868
  23   33035.7    302.7   0.044195476   0.44042  -0.07138   0.06887  -0.65619
  24   33524.1    298.3   0.031376416   0.30812  -0.26734   0.46442   0.14478
  25   33593.6    297.7   0.075519133   0.74007  -0.84144  -0.17894   0.00541
  26   33645.7    297.2   0.035615300   0.34848   0.30777  -0.05795  -0.50040
  27   33779.7    296.0   0.054716539   0.53326  -0.50510  -0.16654   0.50040
  28   34369.6    291.0   0.001268283   0.01215   0.02683  -0.10642  -0.01015
  29   34572.9    289.2   0.042028334   0.40020  -0.58994   0.01405  -0.22799
  30   34676.8    288.4   0.047993993   0.45564   0.27654   0.04143  -0.61437
  31   35085.6    285.0   0.018774198   0.17616  -0.22738  -0.29195   0.19805
  32   35149.5    284.5   0.132050452   1.23679  -0.84384  -0.65905   0.30064
  33   35348.8    282.9   0.005429628   0.05057   0.11084   0.05798   0.18687
  34   36148.8    276.6   0.019151639   0.17442  -0.20342   0.19753  -0.30663
  35   36809.7    271.7   0.099541023   0.89026  -0.37626   0.03104  -0.86471
  36   37119.8    269.4   0.159043557   1.41054  -0.06121  -1.07403   0.50325
  37   37351.4    267.7   0.028214644   0.24868  -0.37442  -0.30893   0.11425
  38   37523.1    266.5   0.115262777   1.01127  -0.54278  -0.30759  -0.78870
  39   37767.7    264.8   0.018794682   0.16383  -0.04655  -0.36469   0.16930
  40   38002.2    263.1   0.048216455   0.41770  -0.47232  -0.17298  -0.40581
  41   38457.8    260.0   0.092435084   0.79128  -0.18517  -0.20989   0.84435
  42   38769.2    257.9   0.038000881   0.32269  -0.49300  -0.25836  -0.11353
  43   38929.2    256.9   0.003639875   0.03078   0.06380  -0.10651  -0.12396
  44   39113.7    255.7   0.049944323   0.42037   0.39703   0.03840   0.51114
  45   39139.0    255.5   0.176629354   1.48569   0.16741   0.17220  -1.19500
  46   39394.7    253.8   0.031339311   0.26190  -0.39812  -0.31848   0.04438
  47   39613.9    252.4   0.016430173   0.13654  -0.04349  -0.01546  -0.36662
  48   39676.8    252.0   0.025204514   0.20913  -0.42366  -0.10480  -0.13659
  49   39908.8    250.6   0.020824530   0.17178  -0.26168   0.12872  -0.29451
  50   40269.1    248.3   0.015922863   0.13017  -0.19440  -0.13837  -0.27062

FINAL SINGLE POINT ENERGY     -4428.741237725715

DIPOLE MOMENT
-------------
                                X             Y             Z
Electronic contribution:     -9.33090       9.13850     -10.33380
Nuclear contribution   :      8.99273      -7.26373      12.35432
                        -----------------------------------------
Total Dipole Moment    :     -0.33817       1.87477       2.02052
                        -----------------------------------------
Magnitude (a.u.)       :      2.77698
Magnitude (Debye)      :      7.05852

Rotational constants in cm-1:     0.002615     0.000272     0.000267
Rotational constants in MHz :    78.385695     8.153520     7.992295

                             ****ORCA TERMINATED NORMALLY****
TOTAL RUN TIME: 0 days 0 hours 12 minutes 11 seconds 607 msec
