                         Program Version 4.2.0 -  RELEASE  -
|  1> # ORCA input file
|  2> # SCF done       -199.861152417629          0.000843131447
|  3> ! CAM-B3LYP def2-SVP def2/J RIJCOSX Grid4 TightSCF
|  4> %maxcore 5000
|  5> %tddft
|  6>     Mode sTDDFT
|  7>     Ethresh 5.0
|  8>     maxcore 5000
|  9> end
| 10>
| 11> %pal
| 12>   nprocs 6
| 13>   end
| 14> * xyz 0 1
| 15>    C       -2.42332        -0.68188         2.84336
| 16>    C       -2.24125         0.50879         3.52620
| 17>    C       -3.05163         0.77200         4.63282
| 18>    C       -2.88608         1.98851         5.34103
| 19>    N       -2.74926         2.97386         5.90733
| 20>    C       -4.03170        -0.14568         5.05669
| 21>    C       -4.83710         0.15056         6.18285
| 22>    N       -5.49751         0.37305         7.09152
| 23>    C       -4.21341        -1.34450         4.36523
| 24>    C       -3.41078        -1.59007         3.27176
| 25>    C       -3.41760        -2.76258         2.37288
| 26>    O       -4.13706        -3.73991         2.47230
| 27>    C       -2.40501        -2.49379         1.34960
| 28>    C       -1.74919        -1.23933         1.66871
| 29>    C       -0.66676        -0.68137         1.04355
| 30>    C       -0.07165         0.53986         1.43026
| 31>    N        0.45241         1.52465         1.69758
| 32>    C        0.03088        -1.24712        -0.04654
| 33>    N        0.65621        -1.64975        -0.92071
| 34>    C       -2.17268        -3.26470         0.23720
| 35>    C       -2.73685        -4.48600        -0.15440
| 36>    C       -2.39872        -5.09285        -1.37282
| 37>    C       -3.03940        -6.30038        -1.55606
| 38>    C       -3.87271        -6.63979        -0.46050
| 39>    S       -3.88485        -5.46099         0.76557
| 40>    C       -4.46336        -7.89925        -0.73150
| 41>    C       -4.00732        -8.35133        -1.98865
| 42>    C       -3.10810        -7.36060        -2.55126
| 43>    C       -2.47355        -7.41063        -3.75701
| 44>    C       -2.62557        -8.50150        -4.64003
| 45>    N       -2.74698        -9.38501        -5.36028
| 46>    C       -1.62979        -6.37189        -4.20606
| 47>    N       -0.95137        -5.52454        -4.57406
| 48>    C       -4.52320        -9.59760        -2.33322
| 49>    C       -5.35924       -10.08538        -1.34591
| 50>    S       -5.52425        -9.00681         0.01975
| 51>    C       -6.04829       -11.33464        -1.32651
| 52>    N       -6.78924       -11.61114        -0.26354
| 53>    N       -7.43381       -12.72473        -0.12103
| 54>    C       -7.41291       -13.69395        -1.02424
| 55>    C       -6.66862       -13.51656        -2.22543
| 56>    C       -5.95671       -12.28548        -2.38323
| 57>    N       -5.29866       -12.23466        -3.53814
| 58>    S       -5.55406       -13.60134        -4.34285
| 59>    N       -6.50775       -14.32373        -3.27044
| 60>    C       -8.13743       -14.88680        -0.72919
| 61>    C       -8.23063       -16.03355        -1.49577
| 62>    C       -9.00918       -17.00095        -0.86640
| 63>    C       -9.50545       -16.57356         0.38394
| 64>    S       -9.01247       -14.98842         0.78052
| 65>    C      -10.26704       -17.62973         0.94628
| 66>    C      -10.24895       -18.71923         0.04931
| 67>    C       -9.45028       -18.36210        -1.11133
| 68>    C       -9.15055       -19.16500        -2.17241
| 69>    C       -9.62579       -20.49218        -2.23738
| 70>    N      -10.02523       -21.56674        -2.26523
| 71>    C       -8.35153       -18.72695        -3.24992
| 72>    N       -7.70829       -18.37033        -4.12907
| 73>    C      -10.93865       -19.82360         0.52388
| 74>    C      -11.48561       -19.60034         1.78187
| 75>    S      -11.15720       -17.96791         2.35447
| 76>    C      -12.26158       -20.47401         2.56976
| 77>    C      -12.38415       -21.82928         2.46755
| 78>    C      -13.56546       -22.48744         3.08963
| 79>    O      -14.34536       -21.99476         3.86830
| 80>    C      -13.60308       -23.84700         2.50284
| 81>    C      -14.56876       -24.82064         2.64594
| 82>    C      -14.40052       -26.02045         1.95215
| 83>    C      -13.27529       -26.21047         1.12686
| 84>    C      -12.29815       -25.22160         0.99660
| 85>    C      -12.46374       -24.03954         1.69695
| 86>    C      -11.61532       -22.84902         1.78619
| 87>    C      -10.27248       -22.83474         1.51750
| 88>    C       -9.41851       -21.75793         1.82989
| 89>    N       -8.68292       -20.91582         2.08866
| 90>    C       -9.56316       -23.93445         0.98648
| 91>    N       -8.94249       -24.80181         0.56524
| 92>    C      -13.13455       -27.42745         0.41393
| 93>    N      -13.01773       -28.40731        -0.16611
| 94>    C      -15.36929       -27.04641         2.07084
| 95>    N      -16.16275       -27.86478         2.17977
| 96>    H       -1.50361         1.23806         3.23196
| 97>    H       -4.96179        -2.05788         4.67534
| 98>    H       -1.45105        -2.88579        -0.47670
| 99>    H       -1.70947        -4.64232        -2.06510
|100>    H       -4.31804       -10.14247        -3.23690
|101>    H       -7.74698       -16.13099        -2.45097
|102>    H      -11.08444       -20.73582        -0.02513
|103>    H      -12.90231       -20.01348         3.31556
|104>    H      -15.43095       -24.65895         3.27488
|105>    H      -11.45318       -25.39430         0.34881
|106> *
|107>
|108>                          ****END OF INPUT****

CARTESIAN COORDINATES (ANGSTROEM)
---------------------------------
  C     -2.423320   -0.681880    2.843360
  C     -2.241250    0.508790    3.526200
  C     -3.051630    0.772000    4.632820
  C     -2.886080    1.988510    5.341030
  N     -2.749260    2.973860    5.907330
  C     -4.031700   -0.145680    5.056690
  C     -4.837100    0.150560    6.182850
  N     -5.497510    0.373050    7.091520
  C     -4.213410   -1.344500    4.365230
  C     -3.410780   -1.590070    3.271760
  C     -3.417600   -2.762580    2.372880
  O     -4.137060   -3.739910    2.472300
  C     -2.405010   -2.493790    1.349600
  C     -1.749190   -1.239330    1.668710
  C     -0.666760   -0.681370    1.043550
  C     -0.071650    0.539860    1.430260
  N      0.452410    1.524650    1.697580
  C      0.030880   -1.247120   -0.046540
  N      0.656210   -1.649750   -0.920710
  C     -2.172680   -3.264700    0.237200
  C     -2.736850   -4.486000   -0.154400
  C     -2.398720   -5.092850   -1.372820
  C     -3.039400   -6.300380   -1.556060
  C     -3.872710   -6.639790   -0.460500
  S     -3.884850   -5.460990    0.765570
  C     -4.463360   -7.899250   -0.731500
  C     -4.007320   -8.351330   -1.988650
  C     -3.108100   -7.360600   -2.551260
  C     -2.473550   -7.410630   -3.757010
  C     -2.625570   -8.501500   -4.640030
  N     -2.746980   -9.385010   -5.360280
  C     -1.629790   -6.371890   -4.206060
  N     -0.951370   -5.524540   -4.574060
  C     -4.523200   -9.597600   -2.333220
  C     -5.359240  -10.085380   -1.345910
  S     -5.524250   -9.006810    0.019750
  C     -6.048290  -11.334640   -1.326510
  N     -6.789240  -11.611140   -0.263540
  N     -7.433810  -12.724730   -0.121030
  C     -7.412910  -13.693950   -1.024240
  C     -6.668620  -13.516560   -2.225430
  C     -5.956710  -12.285480   -2.383230
  N     -5.298660  -12.234660   -3.538140
  S     -5.554060  -13.601340   -4.342850
  N     -6.507750  -14.323730   -3.270440
  C     -8.137430  -14.886800   -0.729190
  C     -8.230630  -16.033550   -1.495770
  C     -9.009180  -17.000950   -0.866400
  C     -9.505450  -16.573560    0.383940
  S     -9.012470  -14.988420    0.780520
  C    -10.267040  -17.629730    0.946280
  C    -10.248950  -18.719230    0.049310
  C     -9.450280  -18.362100   -1.111330
  C     -9.150550  -19.165000   -2.172410
  C     -9.625790  -20.492180   -2.237380
  N    -10.025230  -21.566740   -2.265230
  C     -8.351530  -18.726950   -3.249920
  N     -7.708290  -18.370330   -4.129070
  C    -10.938650  -19.823600    0.523880
  C    -11.485610  -19.600340    1.781870
  S    -11.157200  -17.967910    2.354470
  C    -12.261580  -20.474010    2.569760
  C    -12.384150  -21.829280    2.467550
  C    -13.565460  -22.487440    3.089630
  O    -14.345360  -21.994760    3.868300
  C    -13.603080  -23.847000    2.502840
  C    -14.568760  -24.820640    2.645940
  C    -14.400520  -26.020450    1.952150
  C    -13.275290  -26.210470    1.126860
  C    -12.298150  -25.221600    0.996600
  C    -12.463740  -24.039540    1.696950
  C    -11.615320  -22.849020    1.786190
  C    -10.272480  -22.834740    1.517500
  C     -9.418510  -21.757930    1.829890
  N     -8.682920  -20.915820    2.088660
  C     -9.563160  -23.934450    0.986480
  N     -8.942490  -24.801810    0.565240
  C    -13.134550  -27.427450    0.413930
  N    -13.017730  -28.407310   -0.166110
  C    -15.369290  -27.046410    2.070840
  N    -16.162750  -27.864780    2.179770
  H     -1.503610    1.238060    3.231960
  H     -4.961790   -2.057880    4.675340
  H     -1.451050   -2.885790   -0.476700
  H     -1.709470   -4.642320   -2.065100
  H     -4.318040  -10.142470   -3.236900
  H     -7.746980  -16.130990   -2.450970
  H    -11.084440  -20.735820   -0.025130
  H    -12.902310  -20.013480    3.315560
  H    -15.430950  -24.658950    3.274880
  H    -11.453180  -25.394300    0.348810

 Total Charge           Charge          ....    0
 Multiplicity           Mult            ....    1
 Number of Electrons    NEL             ....  566
 Basis Dimension        Dim             .... 1204

ORBITAL ENERGIES
----------------

  NO   OCC          E(Eh)            E(eV)
   0   2.0000     -89.071722     -2423.7648
   1   2.0000     -89.016157     -2422.2528
   2   2.0000     -89.010935     -2422.1107
   3   2.0000     -89.010020     -2422.0858
   4   2.0000     -89.009588     -2422.0740
   5   2.0000     -19.253073      -523.9028
   6   2.0000     -19.243526      -523.6430
   7   2.0000     -14.485934      -394.1823
   8   2.0000     -14.485776      -394.1780
   9   2.0000     -14.474866      -393.8811
  10   2.0000     -14.474331      -393.8666
  11   2.0000     -14.449337      -393.1865
  12   2.0000     -14.446554      -393.1107
  13   2.0000     -14.445418      -393.0798
  14   2.0000     -14.445073      -393.0704
  15   2.0000     -14.441640      -392.9770
  16   2.0000     -14.440620      -392.9492
  17   2.0000     -14.437371      -392.8608
  18   2.0000     -14.436041      -392.8246
  19   2.0000     -14.434626      -392.7861
  20   2.0000     -14.432964      -392.7409
  21   2.0000     -14.431987      -392.7143
  22   2.0000     -14.430975      -392.6868
  23   2.0000     -10.401224      -283.0317
  24   2.0000     -10.394965      -282.8614
  25   2.0000     -10.384201      -282.5685
  26   2.0000     -10.382407      -282.5197
  27   2.0000     -10.372013      -282.2368
  28   2.0000     -10.371547      -282.2241
  29   2.0000     -10.371071      -282.2112
  30   2.0000     -10.370600      -282.1984
  31   2.0000     -10.370294      -282.1900
  32   2.0000     -10.369950      -282.1807
  33   2.0000     -10.369026      -282.1555
  34   2.0000     -10.369006      -282.1550
  35   2.0000     -10.368624      -282.1446
  36   2.0000     -10.368538      -282.1423
  37   2.0000     -10.366718      -282.0927
  38   2.0000     -10.366196      -282.0785
  39   2.0000     -10.364885      -282.0429
  40   2.0000     -10.363864      -282.0151
  41   2.0000     -10.363254      -281.9985
  42   2.0000     -10.356017      -281.8016
  43   2.0000     -10.355037      -281.7749
  44   2.0000     -10.353047      -281.7207
  45   2.0000     -10.351542      -281.6798
  46   2.0000     -10.349485      -281.6238
  47   2.0000     -10.349392      -281.6213
  48   2.0000     -10.348825      -281.6059
  49   2.0000     -10.348318      -281.5921
  50   2.0000     -10.347239      -281.5627
  51   2.0000     -10.346212      -281.5347
  52   2.0000     -10.345771      -281.5227
  53   2.0000     -10.345715      -281.5212
  54   2.0000     -10.345177      -281.5066
  55   2.0000     -10.344555      -281.4897
  56   2.0000     -10.344359      -281.4843
  57   2.0000     -10.341785      -281.4143
  58   2.0000     -10.341699      -281.4119
  59   2.0000     -10.341652      -281.4107
  60   2.0000     -10.340272      -281.3731
  61   2.0000     -10.339275      -281.3460
  62   2.0000     -10.338844      -281.3342
  63   2.0000     -10.338618      -281.3281
  64   2.0000     -10.337077      -281.2862
  65   2.0000     -10.334023      -281.2031
  66   2.0000     -10.333466      -281.1879
  67   2.0000     -10.332956      -281.1740
  68   2.0000     -10.331053      -281.1222
  69   2.0000     -10.330925      -281.1188
  70   2.0000     -10.329078      -281.0685
  71   2.0000     -10.328466      -281.0518
  72   2.0000     -10.327985      -281.0388
  73   2.0000     -10.327122      -281.0153
  74   2.0000     -10.327098      -281.0146
  75   2.0000     -10.326356      -280.9944
  76   2.0000     -10.326193      -280.9900
  77   2.0000     -10.324520      -280.9445
  78   2.0000     -10.323816      -280.9253
  79   2.0000     -10.322044      -280.8771
  80   2.0000     -10.321419      -280.8601
  81   2.0000      -8.163018      -222.1270
  82   2.0000      -8.110823      -220.7067
  83   2.0000      -8.103847      -220.5169
  84   2.0000      -8.103349      -220.5033
  85   2.0000      -8.103251      -220.5007
  86   2.0000      -6.134172      -166.9193
  87   2.0000      -6.126151      -166.7011
  88   2.0000      -6.125762      -166.6905
  89   2.0000      -6.079975      -165.4445
  90   2.0000      -6.075798      -165.3309
  91   2.0000      -6.073329      -165.2637
  92   2.0000      -6.073109      -165.2577
  93   2.0000      -6.072644      -165.2451
  94   2.0000      -6.072582      -165.2433
  95   2.0000      -6.068755      -165.1392
  96   2.0000      -6.068219      -165.1246
  97   2.0000      -6.067921      -165.1165
  98   2.0000      -6.066393      -165.0749
  99   2.0000      -6.065934      -165.0625
 100   2.0000      -6.065889      -165.0612
 101   2.0000      -1.176141       -32.0044
 102   2.0000      -1.168731       -31.8028
 103   2.0000      -1.159518       -31.5521
 104   2.0000      -1.151441       -31.3323
 105   2.0000      -1.068423       -29.0733
 106   2.0000      -1.065592       -28.9962
 107   2.0000      -1.050595       -28.5881
 108   2.0000      -1.049422       -28.5562
 109   2.0000      -1.040466       -28.3125
 110   2.0000      -1.038041       -28.2465
 111   2.0000      -1.035668       -28.1820
 112   2.0000      -1.035236       -28.1702
 113   2.0000      -1.032992       -28.1092
 114   2.0000      -1.025359       -27.9014
 115   2.0000      -1.022864       -27.8335
 116   2.0000      -1.020937       -27.7811
 117   2.0000      -1.019185       -27.7334
 118   2.0000      -1.017793       -27.6955
 119   2.0000      -1.017591       -27.6901
 120   2.0000      -1.016210       -27.6525
 121   2.0000      -1.014340       -27.6016
 122   2.0000      -1.012906       -27.5626
 123   2.0000      -1.010639       -27.5009
 124   2.0000      -0.989832       -26.9347
 125   2.0000      -0.987257       -26.8646
 126   2.0000      -0.982928       -26.7468
 127   2.0000      -0.979052       -26.6414
 128   2.0000      -0.961738       -26.1702
 129   2.0000      -0.951671       -25.8963
 130   2.0000      -0.938411       -25.5355
 131   2.0000      -0.936838       -25.4927
 132   2.0000      -0.934505       -25.4292
 133   2.0000      -0.932850       -25.3841
 134   2.0000      -0.913856       -24.8673
 135   2.0000      -0.911675       -24.8079
 136   2.0000      -0.908981       -24.7346
 137   2.0000      -0.907228       -24.6869
 138   2.0000      -0.891199       -24.2507
 139   2.0000      -0.890157       -24.2224
 140   2.0000      -0.879037       -23.9198
 141   2.0000      -0.877051       -23.8658
 142   2.0000      -0.864612       -23.5273
 143   2.0000      -0.855773       -23.2868
 144   2.0000      -0.840842       -22.8805
 145   2.0000      -0.818261       -22.2660
 146   2.0000      -0.815946       -22.2030
 147   2.0000      -0.808304       -21.9951
 148   2.0000      -0.799572       -21.7575
 149   2.0000      -0.797600       -21.7038
 150   2.0000      -0.797254       -21.6944
 151   2.0000      -0.776612       -21.1327
 152   2.0000      -0.769541       -20.9403
 153   2.0000      -0.760932       -20.7060
 154   2.0000      -0.759576       -20.6691
 155   2.0000      -0.749534       -20.3959
 156   2.0000      -0.737430       -20.0665
 157   2.0000      -0.724496       -19.7145
 158   2.0000      -0.721350       -19.6289
 159   2.0000      -0.718053       -19.5392
 160   2.0000      -0.715367       -19.4661
 161   2.0000      -0.709488       -19.3062
 162   2.0000      -0.705312       -19.1925
 163   2.0000      -0.702375       -19.1126
 164   2.0000      -0.695150       -18.9160
 165   2.0000      -0.693831       -18.8801
 166   2.0000      -0.684816       -18.6348
 167   2.0000      -0.674146       -18.3445
 168   2.0000      -0.668780       -18.1984
 169   2.0000      -0.667222       -18.1560
 170   2.0000      -0.663209       -18.0468
 171   2.0000      -0.661705       -18.0059
 172   2.0000      -0.652333       -17.7509
 173   2.0000      -0.645696       -17.5703
 174   2.0000      -0.638886       -17.3850
 175   2.0000      -0.637876       -17.3575
 176   2.0000      -0.634603       -17.2684
 177   2.0000      -0.630627       -17.1602
 178   2.0000      -0.625209       -17.0128
 179   2.0000      -0.617271       -16.7968
 180   2.0000      -0.614261       -16.7149
 181   2.0000      -0.605167       -16.4674
 182   2.0000      -0.604268       -16.4430
 183   2.0000      -0.602512       -16.3952
 184   2.0000      -0.595307       -16.1991
 185   2.0000      -0.587312       -15.9816
 186   2.0000      -0.579484       -15.7686
 187   2.0000      -0.575255       -15.6535
 188   2.0000      -0.574171       -15.6240
 189   2.0000      -0.574120       -15.6226
 190   2.0000      -0.570492       -15.5239
 191   2.0000      -0.566933       -15.4270
 192   2.0000      -0.566500       -15.4152
 193   2.0000      -0.565095       -15.3770
 194   2.0000      -0.562127       -15.2963
 195   2.0000      -0.559418       -15.2225
 196   2.0000      -0.550040       -14.9674
 197   2.0000      -0.544310       -14.8114
 198   2.0000      -0.540824       -14.7166
 199   2.0000      -0.539971       -14.6934
 200   2.0000      -0.537221       -14.6185
 201   2.0000      -0.533538       -14.5183
 202   2.0000      -0.532562       -14.4917
 203   2.0000      -0.531185       -14.4543
 204   2.0000      -0.529076       -14.3969
 205   2.0000      -0.525804       -14.3079
 206   2.0000      -0.524034       -14.2597
 207   2.0000      -0.522948       -14.2301
 208   2.0000      -0.521124       -14.1805
 209   2.0000      -0.518707       -14.1147
 210   2.0000      -0.517384       -14.0787
 211   2.0000      -0.515382       -14.0243
 212   2.0000      -0.511940       -13.9306
 213   2.0000      -0.511743       -13.9252
 214   2.0000      -0.505197       -13.7471
 215   2.0000      -0.501357       -13.6426
 216   2.0000      -0.499733       -13.5984
 217   2.0000      -0.498640       -13.5687
 218   2.0000      -0.496259       -13.5039
 219   2.0000      -0.493182       -13.4202
 220   2.0000      -0.478939       -13.0326
 221   2.0000      -0.476899       -12.9771
 222   2.0000      -0.475400       -12.9363
 223   2.0000      -0.474951       -12.9241
 224   2.0000      -0.473401       -12.8819
 225   2.0000      -0.472709       -12.8631
 226   2.0000      -0.472273       -12.8512
 227   2.0000      -0.470603       -12.8058
 228   2.0000      -0.468440       -12.7469
 229   2.0000      -0.467770       -12.7287
 230   2.0000      -0.465696       -12.6722
 231   2.0000      -0.464703       -12.6452
 232   2.0000      -0.464232       -12.6324
 233   2.0000      -0.462582       -12.5875
 234   2.0000      -0.461468       -12.5572
 235   2.0000      -0.460877       -12.5411
 236   2.0000      -0.460021       -12.5178
 237   2.0000      -0.458041       -12.4639
 238   2.0000      -0.457360       -12.4454
 239   2.0000      -0.457303       -12.4438
 240   2.0000      -0.456782       -12.4297
 241   2.0000      -0.456643       -12.4259
 242   2.0000      -0.455644       -12.3987
 243   2.0000      -0.454942       -12.3796
 244   2.0000      -0.454871       -12.3777
 245   2.0000      -0.453390       -12.3374
 246   2.0000      -0.452498       -12.3131
 247   2.0000      -0.449691       -12.2367
 248   2.0000      -0.448444       -12.2028
 249   2.0000      -0.446184       -12.1413
 250   2.0000      -0.444967       -12.1082
 251   2.0000      -0.444262       -12.0890
 252   2.0000      -0.441950       -12.0261
 253   2.0000      -0.441281       -12.0079
 254   2.0000      -0.438259       -11.9256
 255   2.0000      -0.437329       -11.9003
 256   2.0000      -0.433334       -11.7916
 257   2.0000      -0.431231       -11.7344
 258   2.0000      -0.431001       -11.7281
 259   2.0000      -0.430169       -11.7055
 260   2.0000      -0.425728       -11.5846
 261   2.0000      -0.424681       -11.5562
 262   2.0000      -0.422765       -11.5040
 263   2.0000      -0.413179       -11.2432
 264   2.0000      -0.409550       -11.1444
 265   2.0000      -0.405699       -11.0396
 266   2.0000      -0.398603       -10.8465
 267   2.0000      -0.390585       -10.6284
 268   2.0000      -0.377640       -10.2761
 269   2.0000      -0.373720       -10.1694
 270   2.0000      -0.370413       -10.0794
 271   2.0000      -0.369699       -10.0600
 272   2.0000      -0.367841       -10.0095
 273   2.0000      -0.366480        -9.9724
 274   2.0000      -0.363521        -9.8919
 275   2.0000      -0.351539        -9.5659
 276   2.0000      -0.343585        -9.3494
 277   2.0000      -0.341917        -9.3040
 278   2.0000      -0.339215        -9.2305
 279   2.0000      -0.337070        -9.1721
 280   2.0000      -0.330878        -9.0037
 281   2.0000      -0.298098        -8.1117
 282   2.0000      -0.276887        -7.5345
 283   0.0000      -0.140641        -3.8270
 284   0.0000      -0.128840        -3.5059
 285   0.0000      -0.112683        -3.0663
 286   0.0000      -0.111976        -3.0470
 287   0.0000      -0.110151        -2.9974

MULLIKEN ATOMIC CHARGES
-----------------------
   0 C :    0.043987
   1 C :   -0.040029
   2 C :   -0.059367
   3 C :   -0.175860
   4 N :    0.205360
   5 C :   -0.065702
   6 C :   -0.175677
   7 N :    0.200537
   8 C :   -0.033887
   9 C :   -0.002527
  10 C :    0.169625
  11 O :   -0.173097
  12 C :   -0.097412
  13 C :    0.320010
  14 C :   -0.334694
  15 C :   -0.186318
  16 N :    0.174619
  17 C :   -0.196020
  18 N :    0.170973
  19 C :   -0.025512
  20 C :   -0.052453
  21 C :   -0.057919
  22 C :    0.052139
  23 C :   -0.072719
  24 S :    0.252341
  25 C :   -0.091330
  26 C :    0.017912
  27 C :    0.306933
  28 C :   -0.292482
  29 C :   -0.186016
  30 N :    0.179191
  31 C :   -0.193291
  32 N :    0.184514
  33 C :   -0.053844
  34 C :   -0.123457
  35 S :    0.262639
  36 C :    0.014009
  37 N :   -0.057062
  38 N :   -0.057702
  39 C :    0.011103
  40 C :    0.032041
  41 C :    0.036071
  42 N :   -0.257057
  43 S :    0.582223
  44 N :   -0.252903
  45 C :   -0.127016
  46 C :   -0.050446
  47 C :    0.016733
  48 C :   -0.088049
  49 S :    0.260443
  50 C :   -0.075845
  51 C :   -0.000348
  52 C :    0.309030
  53 C :   -0.287054
  54 C :   -0.183761
  55 N :    0.170761
  56 C :   -0.182989
  57 N :    0.180442
  58 C :   -0.004842
  59 C :   -0.113902
  60 S :    0.230387
  61 C :    0.089518
  62 C :   -0.141930
  63 C :    0.141152
  64 O :   -0.126151
  65 C :    0.012999
  66 C :   -0.033067
  67 C :   -0.067865
  68 C :   -0.062345
  69 C :   -0.031568
  70 C :    0.024375
  71 C :    0.268448
  72 C :   -0.318561
  73 C :   -0.196125
  74 N :    0.174529
  75 C :   -0.170986
  76 N :    0.180294
  77 C :   -0.171494
  78 N :    0.203233
  79 C :   -0.172924
  80 N :    0.198578
  81 H :    0.023028
  82 H :    0.016672
  83 H :    0.024206
  84 H :    0.031795
  85 H :    0.022808
  86 H :    0.022014
  87 H :    0.026565
  88 H :    0.029398
  89 H :    0.018737
  90 H :    0.029233
Sum of atomic charges:   -0.0000000

LOEWDIN ATOMIC CHARGES
----------------------
   0 C :    0.004325
   1 C :    0.034690
   2 C :   -0.022219
   3 C :   -0.031969
   4 N :   -0.008202
   5 C :   -0.028121
   6 C :   -0.032303
   7 N :   -0.012007
   8 C :    0.048160
   9 C :   -0.030044
  10 C :    0.084440
  11 O :   -0.161533
  12 C :   -0.116355
  13 C :    0.068764
  14 C :   -0.122699
  15 C :   -0.022236
  16 N :   -0.032198
  17 C :   -0.023606
  18 N :   -0.031342
  19 C :    0.063524
  20 C :   -0.183273
  21 C :    0.017912
  22 C :   -0.071959
  23 C :   -0.161408
  24 S :    0.552648
  25 C :   -0.180445
  26 C :   -0.057382
  27 C :    0.074362
  28 C :   -0.095386
  29 C :   -0.017365
  30 N :   -0.025539
  31 C :   -0.020005
  32 N :   -0.020866
  33 C :   -0.011943
  34 C :   -0.169652
  35 S :    0.530316
  36 C :   -0.026568
  37 N :   -0.059522
  38 N :   -0.061993
  39 C :   -0.024359
  40 C :   -0.053695
  41 C :   -0.053078
  42 N :   -0.261922
  43 S :    0.704540
  44 N :   -0.261678
  45 C :   -0.173551
  46 C :   -0.008302
  47 C :   -0.061135
  48 C :   -0.175947
  49 S :    0.530323
  50 C :   -0.155979
  51 C :   -0.060944
  52 C :    0.079250
  53 C :   -0.093855
  54 C :   -0.011806
  55 N :   -0.031118
  56 C :   -0.017786
  57 N :   -0.022789
  58 C :    0.011455
  59 C :   -0.182423
  60 S :    0.510554
  61 C :    0.052261
  62 C :   -0.097137
  63 C :    0.083439
  64 O :   -0.127455
  65 C :   -0.032185
  66 C :    0.049726
  67 C :   -0.028445
  68 C :   -0.021121
  69 C :    0.034843
  70 C :    0.005349
  71 C :    0.058274
  72 C :   -0.120855
  73 C :   -0.014831
  74 N :   -0.033228
  75 C :   -0.023306
  76 N :   -0.027018
  77 C :   -0.031435
  78 N :   -0.008121
  79 C :   -0.032328
  80 N :   -0.012159
  81 H :    0.053146
  82 H :    0.054093
  83 H :    0.055490
  84 H :    0.049717
  85 H :    0.042163
  86 H :    0.042586
  87 H :    0.042802
  88 H :    0.049422
  89 H :    0.054989
  90 H :    0.054569

  Mayer bond orders larger than 0.100000
B(  0-C ,  1-C ) :   1.3633 B(  0-C ,  9-C ) :   1.3355 B(  0-C , 13-C ) :   0.9560
B(  1-C ,  2-C ) :   1.3883 B(  1-C , 81-H ) :   0.9854 B(  2-C ,  3-C ) :   1.0868
B(  2-C ,  5-C ) :   1.4069 B(  3-C ,  4-N ) :   3.0430 B(  5-C ,  6-C ) :   1.0859
B(  5-C ,  8-C ) :   1.3585 B(  6-C ,  7-N ) :   3.0448 B(  8-C ,  9-C ) :   1.3648
B(  8-C , 82-H ) :   1.0154 B(  9-C , 10-C ) :   0.9416 B( 10-C , 11-O ) :   2.1338
B( 10-C , 12-C ) :   0.9919 B( 12-C , 13-C ) :   1.0824 B( 12-C , 19-C ) :   1.4709
B( 13-C , 14-C ) :   1.6535 B( 14-C , 15-C ) :   1.1454 B( 14-C , 17-C ) :   1.1423
B( 15-C , 16-N ) :   2.9627 B( 17-C , 18-N ) :   2.9712 B( 19-C , 20-C ) :   1.2875
B( 19-C , 83-H ) :   0.9423 B( 20-C , 21-C ) :   1.3105 B( 20-C , 24-S ) :   1.0675
B( 21-C , 22-C ) :   1.3457 B( 21-C , 84-H ) :   1.0074 B( 22-C , 23-C ) :   1.3509
B( 22-C , 27-C ) :   0.9813 B( 23-C , 24-S ) :   1.1382 B( 23-C , 25-C ) :   1.2074
B( 25-C , 26-C ) :   1.4191 B( 25-C , 35-S ) :   1.1191 B( 26-C , 27-C ) :   1.0002
B( 26-C , 33-C ) :   1.2688 B( 27-C , 28-C ) :   1.7201 B( 28-C , 29-C ) :   1.1356
B( 28-C , 31-C ) :   1.1331 B( 29-C , 30-N ) :   2.9876 B( 31-C , 32-N ) :   2.9924
B( 33-C , 34-C ) :   1.4780 B( 33-C , 85-H ) :   0.9807 B( 34-C , 35-S ) :   1.0993
B( 34-C , 36-C ) :   1.1644 B( 36-C , 37-N ) :   1.7135 B( 36-C , 39-C ) :   0.1219
B( 36-C , 41-C ) :   1.1232 B( 37-N , 38-N ) :   1.2368 B( 38-N , 39-C ) :   1.7132
B( 39-C , 40-C ) :   1.1255 B( 39-C , 45-C ) :   1.1666 B( 40-C , 41-C ) :   1.1938
B( 40-C , 44-N ) :   1.5447 B( 41-C , 42-N ) :   1.5411 B( 42-N , 43-S ) :   1.2829
B( 42-N , 44-N ) :   0.1407 B( 43-S , 44-N ) :   1.2825 B( 45-C , 46-C ) :   1.4801
B( 45-C , 49-S ) :   1.0948 B( 46-C , 47-C ) :   1.2715 B( 46-C , 86-H ) :   0.9809
B( 47-C , 48-C ) :   1.4245 B( 47-C , 52-C ) :   0.9986 B( 48-C , 49-S ) :   1.1246
B( 48-C , 50-C ) :   1.1973 B( 50-C , 51-C ) :   1.4061 B( 50-C , 60-S ) :   1.1599
B( 51-C , 52-C ) :   0.9949 B( 51-C , 58-C ) :   1.3718 B( 52-C , 53-C ) :   1.7178
B( 53-C , 54-C ) :   1.1352 B( 53-C , 56-C ) :   1.1345 B( 54-C , 55-N ) :   2.9788
B( 56-C , 57-N ) :   2.9889 B( 58-C , 59-C ) :   1.3777 B( 58-C , 87-H ) :   0.9784
B( 59-C , 60-S ) :   1.0913 B( 59-C , 61-C ) :   1.1518 B( 61-C , 62-C ) :   1.6476
B( 61-C , 88-H ) :   0.9313 B( 62-C , 63-C ) :   0.9515 B( 62-C , 71-C ) :   1.0441
B( 63-C , 64-O ) :   2.2791 B( 63-C , 65-C ) :   0.9000 B( 65-C , 66-C ) :   1.3683
B( 65-C , 70-C ) :   1.3365 B( 66-C , 67-C ) :   1.3671 B( 66-C , 89-H ) :   1.0142
B( 67-C , 68-C ) :   1.4033 B( 67-C , 79-C ) :   1.0859 B( 68-C , 69-C ) :   1.3862
B( 68-C , 77-C ) :   1.0867 B( 69-C , 70-C ) :   1.3661 B( 69-C , 90-H ) :   0.9898
B( 70-C , 71-C ) :   0.9725 B( 71-C , 72-C ) :   1.6665 B( 72-C , 73-C ) :   1.1717
B( 72-C , 75-C ) :   1.1266 B( 73-C , 74-N ) :   2.9933 B( 75-C , 76-N ) :   2.9889
B( 77-C , 78-N ) :   3.0428 B( 79-C , 80-N ) :   3.0457

-----------------------------------------------------------------------------
         ABSORPTION SPECTRUM VIA TRANSITION ELECTRIC DIPOLE MOMENTS
-----------------------------------------------------------------------------
State   Energy  Wavelength   fosc         T2         TX        TY        TZ
        (cm-1)    (nm)                  (au**2)     (au)      (au)      (au)
-----------------------------------------------------------------------------
   0   13942.5    717.2   1.288002925  30.41241   2.36080   4.97688  -0.26406
   1   15605.4    640.8   0.167703915   3.53788   0.52918   1.48213   1.03012
   2   18529.4    539.7   0.848743768  15.07964   1.56254   3.53709  -0.35651
   3   20452.5    488.9   0.113348857   1.82451  -0.58469  -0.31783  -1.17543
   4   20547.0    486.7   0.024477160   0.39218   0.29092   0.31845   0.45402
   5   21991.4    454.7   0.193147794   2.89143   0.12011   1.24425   1.15276
   6   22405.6    446.3   0.049343009   0.72501   0.36366   0.76510   0.08595
   7   23952.6    417.5   0.241808895   3.32349  -0.37535   1.07322   1.42507
   8   24985.5    400.2   0.053454139   0.70432   0.56386   0.22951  -0.57767
   9   25406.1    393.6   0.220298179   2.85462   0.77081   1.44934  -0.39985
  10   27713.4    360.8   0.009065574   0.10769  -0.15563  -0.10870  -0.26769
  11   28208.2    354.5   0.030821823   0.35971  -0.43252   0.21473   0.35571
  12   28397.6    352.1   0.163611047   1.89673  -0.84943  -0.02120   1.08386
  13   28714.8    348.3   0.049816041   0.57114  -0.12558   0.62510   0.40572
  14   28803.7    347.2   0.077648901   0.88749  -0.16348   0.56679   0.73452
  15   29141.2    343.2   0.009805329   0.11077   0.09001   0.11803   0.29789
  16   29462.6    339.4   0.047908035   0.53532  -0.41845  -0.59786   0.05267
  17   30170.0    331.5   0.021379688   0.23329   0.16055   0.24713   0.38268
  18   30271.8    330.3   0.030647964   0.33330  -0.55460   0.01404  -0.15977
  19   30557.0    327.3   0.047291340   0.50950  -0.14890   0.24659   0.65309
  20   30580.5    327.0   0.002801113   0.03016  -0.00573  -0.08522  -0.15120
  21   31287.3    319.6   0.052930038   0.55694   0.54984   0.49449  -0.10052
  22   31438.8    318.1   0.078675379   0.82385  -0.32195  -0.79719  -0.29101
  23   31626.5    316.2   0.019734840   0.20543   0.41630  -0.00506  -0.17915
  24   31769.4    314.8   0.072432281   0.75058  -0.60887  -0.57458   0.22298
  25   32213.9    310.4   0.127416849   1.30215   0.61674   0.61903  -0.73388
  26   32304.2    309.6   0.377607280   3.84819  -1.08488  -1.62587   0.16660
  27   32691.8    305.9   0.128276841   1.29177   0.68204   0.44273  -0.79409
  28   33171.0    301.5   0.331083395   3.28590  -0.39520   0.82728   1.56375
  29   33214.8    301.1   0.137082449   1.35871   0.29671  -0.84703  -0.74378
  30   33534.9    298.2   0.169860480   1.66752   0.52512  -0.31110  -1.13797
  31   34166.4    292.7   0.205766973   1.98268   0.19266  -1.14653  -0.79438
  32   34495.0    289.9   0.017604854   0.16802  -0.25760   0.26598   0.17582
  33   34548.9    289.4   0.089303470   0.85096  -0.80404  -0.44707   0.06787
  34   34806.5    287.3   0.681274261   6.44373   1.15398  -0.63422  -2.17022
  35   35144.6    284.5   0.274576278   2.57205   1.26811   0.96908  -0.15759
  36   35264.8    283.6   0.739107209   6.89989  -1.72077  -1.87371   0.65424
  37   35505.7    281.6   0.222585215   2.06383   1.30894   0.22127  -0.54914
  38   36050.5    277.4   0.057958935   0.52928   0.25272  -0.43662  -0.52419
  39   36490.1    274.0   0.036558005   0.32982  -0.22859  -0.22828   0.47483
  40   36799.6    271.7   0.054360653   0.48631  -0.13698   0.30558   0.61170
  41   36965.1    270.5   0.004637157   0.04130  -0.14856   0.12000  -0.06949
  42   37102.1    269.5   0.174122864   1.54502   1.03684   0.38588  -0.56663
  43   37195.0    268.9   0.077813149   0.68872   0.64132   0.52576  -0.03179
  44   37264.6    268.4   0.004333602   0.03828   0.12299  -0.15003   0.02547
  45   37432.1    267.2   0.045782058   0.40265   0.20757   0.51124   0.31336
  46   37490.4    266.7   0.027256121   0.23934  -0.02918   0.44508   0.20098
  47   37696.6    265.3   0.034452637   0.30088   0.26240   0.23102  -0.42268
  48   37760.8    264.8   0.002536624   0.02212   0.00686  -0.03588  -0.14416
  49   37814.6    264.4   0.009482356   0.08255  -0.18726  -0.21571  -0.03086
  50   38022.4    263.0   0.067992960   0.58871   0.27139   0.71655  -0.04013
  51   38354.5    260.7   0.097210589   0.83440   0.03452  -0.51674  -0.75245
  52   38492.7    259.8   0.010404261   0.08898  -0.00788   0.16520   0.24825
  53   38646.1    258.8   0.025294074   0.21547   0.35044  -0.11811  -0.28056
  54   38886.5    257.2   0.036640144   0.31019   0.44651  -0.01425  -0.33259
  55   38914.6    257.0   0.015543090   0.13149  -0.14468  -0.09441   0.31882
  56   38984.7    256.5   0.025519193   0.21550   0.13294   0.44427  -0.02127
  57   39304.8    254.4   0.121164244   1.01486  -0.48973  -0.87996   0.02634
  58   39374.5    254.0   0.017489162   0.14623  -0.35742  -0.01250   0.13535
  59   39716.5    251.8   0.016227281   0.13451   0.25584   0.21325  -0.15356
  60   39831.0    251.1   0.005453143   0.04507   0.14863   0.14859   0.03000
  61   39946.1    250.3   0.020249909   0.16689   0.25579   0.27432  -0.16189
  62   40248.1    248.5   0.034740012   0.28416  -0.13642   0.35751   0.37113

FINAL SINGLE POINT ENERGY     -5228.604204783232

DIPOLE MOMENT
-------------
                                X             Y             Z
Electronic contribution:      1.50925       0.60916      -3.36010
Nuclear contribution   :     -2.94259       0.08112       2.99656
                        -----------------------------------------
Total Dipole Moment    :     -1.43335       0.69028      -0.36354
                        -----------------------------------------
Magnitude (a.u.)       :      1.63191
Magnitude (Debye)      :      4.14798

Rotational constants in cm-1:     0.001604     0.000158     0.000145
Rotational constants in MHz :    48.093892     4.731723     4.358271

                             ****ORCA TERMINATED NORMALLY****
TOTAL RUN TIME: 0 days 0 hours 9 minutes 3 seconds 347 msec
