                         Program Version 4.2.0 -  RELEASE  -
|  1> # ORCA input file
|  2> # SCF done       -183.698690661432          0.000654332856
|  3> ! CAM-B3LYP def2-SVP def2/J RIJCOSX Grid4 TightSCF
|  4> %maxcore 5000
|  5> %tddft
|  6>     Mode sTDDFT
|  7>     Ethresh 5.0
|  8>     maxcore 5000
|  9> end
| 10>
| 11> %pal
| 12>   nprocs 6
| 13>   end
| 14> * xyz 0 1
| 15>    C       -1.64413        -0.25397         5.28307
| 16>    C       -0.43236         0.33650         4.91972
| 17>    N        0.10040         1.30885         5.82823
| 18>    O       -0.65858         1.79290         6.64126
| 19>    O        1.28144         1.59863         5.74884
| 20>    C        0.19806        -0.01385         3.71583
| 21>    C        1.51355         0.57650         3.24953
| 22>    O        2.61050         0.05133         3.94619
| 23>    C       -0.41978        -0.96240         2.91824
| 24>    C       -1.62699        -1.57458         3.27319
| 25>    C       -2.23199        -1.19838         4.48030
| 26>    C       -2.23639        -2.56619         2.42442
| 27>    C       -1.79257        -3.03969         1.20563
| 28>    C       -2.64696        -4.00353         0.66820
| 29>    C       -3.75639        -4.26887         1.49068
| 30>    S       -3.74320        -3.33379         2.91281
| 31>    C       -4.56386        -5.25481         0.86988
| 32>    C       -3.95733        -5.61255        -0.35259
| 33>    C       -2.73572        -4.83772        -0.51761
| 34>    C       -1.86351        -4.88435        -1.56499
| 35>    C       -2.06118        -5.74504        -2.66550
| 36>    N       -2.22425        -6.44508        -3.55838
| 37>    C       -0.71173        -4.07080        -1.61438
| 38>    N        0.22056        -3.40458        -1.65132
| 39>    C       -4.67480        -6.57851        -1.04595
| 40>    C       -5.82034        -6.95424        -0.35498
| 41>    S       -6.01474        -6.10417         1.17140
| 42>    C       -6.79477        -7.89520        -0.72731
| 43>    C       -7.92360        -8.22012         0.03207
| 44>    C       -8.75257        -9.21291        -0.58724
| 45>    N       -9.87046        -9.64406        -0.00540
| 46>    C      -10.17487        -9.11597         1.16188
| 47>    C      -11.41911        -9.59491         1.81247
| 48>    O      -12.13882       -10.43191         1.30840
| 49>    C      -11.71664        -8.97895         3.11650
| 50>    C      -10.94393        -8.05267         3.69396
| 51>    C       -9.70106        -7.53640         3.09630
| 52>    O       -9.01827        -6.69342         3.63985
| 53>    C       -9.34663        -8.12374         1.78063
| 54>    N       -8.24027        -7.69101         1.21297
| 55>    C       -8.25914        -9.64833        -1.82187
| 56>    S       -6.77479        -8.82366        -2.19826
| 57>    C       -8.87595       -10.61058        -2.63835
| 58>    C       -8.45587       -11.09450        -3.87124
| 59>    C       -9.33807       -12.04285        -4.37224
| 60>    C      -10.43216       -12.27798        -3.51334
| 61>    S      -10.38051       -11.33641        -2.08963
| 62>    C      -11.26363       -13.25521        -4.11693
| 63>    C      -10.70144       -13.63646        -5.34696
| 64>    C       -9.47352       -12.88762        -5.55037
| 65>    C       -8.62749       -12.95844        -6.61776
| 66>    C       -8.87045       -13.82258        -7.70620
| 67>    N       -9.07308       -14.52741        -8.58729
| 68>    C       -7.45877       -12.17211        -6.69986
| 69>    N       -6.51012       -11.53177        -6.76450
| 70>    C      -11.45920       -14.60230        -6.01322
| 71>    C      -12.59015       -14.95930        -5.30843
| 72>    S      -12.71637       -14.08092        -3.78923
| 73>    C      -13.60178       -15.92096        -5.67423
| 74>    C      -13.49236       -16.67777        -6.84748
| 75>    C      -14.46610       -17.59612        -7.17167
| 76>    C      -15.55547       -17.79255        -6.33133
| 77>    C      -15.70681       -17.03630        -5.16617
| 78>    C      -14.72798       -16.10706        -4.86482
| 79>    C      -16.95954       -17.14067        -4.32820
| 80>    O      -18.11032       -16.85412        -5.08902
| 81>    N      -16.50149       -18.82056        -6.70634
| 82>    O      -16.78261       -18.89549        -7.88129
| 83>    O      -16.89775       -19.56459        -5.84023
| 84>    H       -2.10101         0.04483         6.21438
| 85>    H        1.48145         1.67173         3.33433
| 86>    H        1.66812         0.31364         2.20011
| 87>    H        2.62611         0.46674         4.82212
| 88>    H        0.06182        -1.23475         1.99320
| 89>    H       -3.16335        -1.65388         4.78075
| 90>    H       -0.89197        -2.70415         0.72626
| 91>    H       -4.40508        -7.00172        -1.99698
| 92>    H      -12.62283        -9.33036         3.59122
| 93>    H      -11.20067        -7.62538         4.65390
| 94>    H       -7.55507       -10.75648        -4.35149
| 95>    H      -11.19444       -15.01715        -6.96778
| 96>    H      -12.64710       -16.55038        -7.50292
| 97>    H      -14.39240       -18.18322        -8.07456
| 98>    H      -14.83882       -15.50629        -3.97311
| 99>    H      -16.88007       -16.47039        -3.46225
|100>    H      -17.09514       -18.16483        -3.97167
|101>    H      -18.08689       -15.93485        -5.37797
|102> *
|103>
|104>                          ****END OF INPUT****

CARTESIAN COORDINATES (ANGSTROEM)
---------------------------------
  C     -1.644130   -0.253970    5.283070
  C     -0.432360    0.336500    4.919720
  N      0.100400    1.308850    5.828230
  O     -0.658580    1.792900    6.641260
  O      1.281440    1.598630    5.748840
  C      0.198060   -0.013850    3.715830
  C      1.513550    0.576500    3.249530
  O      2.610500    0.051330    3.946190
  C     -0.419780   -0.962400    2.918240
  C     -1.626990   -1.574580    3.273190
  C     -2.231990   -1.198380    4.480300
  C     -2.236390   -2.566190    2.424420
  C     -1.792570   -3.039690    1.205630
  C     -2.646960   -4.003530    0.668200
  C     -3.756390   -4.268870    1.490680
  S     -3.743200   -3.333790    2.912810
  C     -4.563860   -5.254810    0.869880
  C     -3.957330   -5.612550   -0.352590
  C     -2.735720   -4.837720   -0.517610
  C     -1.863510   -4.884350   -1.564990
  C     -2.061180   -5.745040   -2.665500
  N     -2.224250   -6.445080   -3.558380
  C     -0.711730   -4.070800   -1.614380
  N      0.220560   -3.404580   -1.651320
  C     -4.674800   -6.578510   -1.045950
  C     -5.820340   -6.954240   -0.354980
  S     -6.014740   -6.104170    1.171400
  C     -6.794770   -7.895200   -0.727310
  C     -7.923600   -8.220120    0.032070
  C     -8.752570   -9.212910   -0.587240
  N     -9.870460   -9.644060   -0.005400
  C    -10.174870   -9.115970    1.161880
  C    -11.419110   -9.594910    1.812470
  O    -12.138820  -10.431910    1.308400
  C    -11.716640   -8.978950    3.116500
  C    -10.943930   -8.052670    3.693960
  C     -9.701060   -7.536400    3.096300
  O     -9.018270   -6.693420    3.639850
  C     -9.346630   -8.123740    1.780630
  N     -8.240270   -7.691010    1.212970
  C     -8.259140   -9.648330   -1.821870
  S     -6.774790   -8.823660   -2.198260
  C     -8.875950  -10.610580   -2.638350
  C     -8.455870  -11.094500   -3.871240
  C     -9.338070  -12.042850   -4.372240
  C    -10.432160  -12.277980   -3.513340
  S    -10.380510  -11.336410   -2.089630
  C    -11.263630  -13.255210   -4.116930
  C    -10.701440  -13.636460   -5.346960
  C     -9.473520  -12.887620   -5.550370
  C     -8.627490  -12.958440   -6.617760
  C     -8.870450  -13.822580   -7.706200
  N     -9.073080  -14.527410   -8.587290
  C     -7.458770  -12.172110   -6.699860
  N     -6.510120  -11.531770   -6.764500
  C    -11.459200  -14.602300   -6.013220
  C    -12.590150  -14.959300   -5.308430
  S    -12.716370  -14.080920   -3.789230
  C    -13.601780  -15.920960   -5.674230
  C    -13.492360  -16.677770   -6.847480
  C    -14.466100  -17.596120   -7.171670
  C    -15.555470  -17.792550   -6.331330
  C    -15.706810  -17.036300   -5.166170
  C    -14.727980  -16.107060   -4.864820
  C    -16.959540  -17.140670   -4.328200
  O    -18.110320  -16.854120   -5.089020
  N    -16.501490  -18.820560   -6.706340
  O    -16.782610  -18.895490   -7.881290
  O    -16.897750  -19.564590   -5.840230
  H     -2.101010    0.044830    6.214380
  H      1.481450    1.671730    3.334330
  H      1.668120    0.313640    2.200110
  H      2.626110    0.466740    4.822120
  H      0.061820   -1.234750    1.993200
  H     -3.163350   -1.653880    4.780750
  H     -0.891970   -2.704150    0.726260
  H     -4.405080   -7.001720   -1.996980
  H    -12.622830   -9.330360    3.591220
  H    -11.200670   -7.625380    4.653900
  H     -7.555070  -10.756480   -4.351490
  H    -11.194440  -15.017150   -6.967780
  H    -12.647100  -16.550380   -7.502920
  H    -14.392400  -18.183220   -8.074560
  H    -14.838820  -15.506290   -3.973110
  H    -16.880070  -16.470390   -3.462250
  H    -17.095140  -18.164830   -3.971670
  H    -18.086890  -15.934850   -5.377970

 Total Charge           Charge          ....    0
 Multiplicity           Mult            ....    1
 Number of Electrons    NEL             ....  506
 Basis Dimension        Dim             .... 1076

ORBITAL ENERGIES
----------------

  NO   OCC          E(Eh)            E(eV)
   0   2.0000     -89.011915     -2422.1373
   1   2.0000     -88.997864     -2421.7550
   2   2.0000     -88.997606     -2421.7480
   3   2.0000     -88.994741     -2421.6700
   4   2.0000     -88.994693     -2421.6687
   5   2.0000     -19.253745      -523.9210
   6   2.0000     -19.251522      -523.8606
   7   2.0000     -19.242323      -523.6102
   8   2.0000     -19.241309      -523.5826
   9   2.0000     -19.240097      -523.5497
  10   2.0000     -19.240000      -523.5470
  11   2.0000     -19.218133      -522.9520
  12   2.0000     -19.194517      -522.3094
  13   2.0000     -14.657917      -398.8622
  14   2.0000     -14.646175      -398.5427
  15   2.0000     -14.466980      -393.6665
  16   2.0000     -14.466803      -393.6617
  17   2.0000     -14.436985      -392.8503
  18   2.0000     -14.436654      -392.8413
  19   2.0000     -14.436562      -392.8388
  20   2.0000     -14.436414      -392.8348
  21   2.0000     -10.389893      -282.7234
  22   2.0000     -10.389796      -282.7207
  23   2.0000     -10.371363      -282.2191
  24   2.0000     -10.371281      -282.2169
  25   2.0000     -10.358925      -281.8807
  26   2.0000     -10.358806      -281.8774
  27   2.0000     -10.357043      -281.8295
  28   2.0000     -10.356733      -281.8210
  29   2.0000     -10.347912      -281.5810
  30   2.0000     -10.347429      -281.5679
  31   2.0000     -10.345772      -281.5228
  32   2.0000     -10.345493      -281.5152
  33   2.0000     -10.341256      -281.3999
  34   2.0000     -10.340202      -281.3712
  35   2.0000     -10.338918      -281.3363
  36   2.0000     -10.338460      -281.3238
  37   2.0000     -10.337363      -281.2940
  38   2.0000     -10.336855      -281.2801
  39   2.0000     -10.336789      -281.2783
  40   2.0000     -10.336632      -281.2741
  41   2.0000     -10.335943      -281.2553
  42   2.0000     -10.335626      -281.2467
  43   2.0000     -10.335201      -281.2351
  44   2.0000     -10.332150      -281.1521
  45   2.0000     -10.331567      -281.1362
  46   2.0000     -10.331457      -281.1332
  47   2.0000     -10.325562      -280.9728
  48   2.0000     -10.322095      -280.8785
  49   2.0000     -10.321397      -280.8595
  50   2.0000     -10.320856      -280.8448
  51   2.0000     -10.318384      -280.7775
  52   2.0000     -10.318047      -280.7683
  53   2.0000     -10.313704      -280.6502
  54   2.0000     -10.313529      -280.6454
  55   2.0000     -10.311303      -280.5848
  56   2.0000     -10.310954      -280.5753
  57   2.0000     -10.310929      -280.5746
  58   2.0000     -10.310663      -280.5674
  59   2.0000     -10.310417      -280.5607
  60   2.0000     -10.309524      -280.5364
  61   2.0000     -10.309259      -280.5292
  62   2.0000     -10.308219      -280.5009
  63   2.0000     -10.305107      -280.4162
  64   2.0000     -10.303394      -280.3696
  65   2.0000     -10.301122      -280.3078
  66   2.0000     -10.300355      -280.2869
  67   2.0000     -10.299097      -280.2527
  68   2.0000     -10.297174      -280.2004
  69   2.0000      -8.105917      -220.5732
  70   2.0000      -8.092343      -220.2038
  71   2.0000      -8.092059      -220.1961
  72   2.0000      -8.088019      -220.0862
  73   2.0000      -8.088014      -220.0860
  74   2.0000      -6.075043      -165.3103
  75   2.0000      -6.070948      -165.1989
  76   2.0000      -6.068508      -165.1325
  77   2.0000      -6.061509      -164.9421
  78   2.0000      -6.061206      -164.9338
  79   2.0000      -6.057430      -164.8310
  80   2.0000      -6.057420      -164.8308
  81   2.0000      -6.057323      -164.8281
  82   2.0000      -6.057078      -164.8215
  83   2.0000      -6.054897      -164.7621
  84   2.0000      -6.054605      -164.7542
  85   2.0000      -6.052930      -164.7086
  86   2.0000      -6.052909      -164.7080
  87   2.0000      -6.050334      -164.6380
  88   2.0000      -6.050328      -164.6378
  89   2.0000      -1.332252       -36.2524
  90   2.0000      -1.323110       -36.0037
  91   2.0000      -1.157599       -31.4999
  92   2.0000      -1.152755       -31.3681
  93   2.0000      -1.150689       -31.3118
  94   2.0000      -1.143123       -31.1059
  95   2.0000      -1.117134       -30.3988
  96   2.0000      -1.107299       -30.1311
  97   2.0000      -1.087703       -29.5979
  98   2.0000      -1.052893       -28.6507
  99   2.0000      -1.052148       -28.6304
 100   2.0000      -1.045267       -28.4432
 101   2.0000      -1.029455       -28.0129
 102   2.0000      -1.028438       -27.9852
 103   2.0000      -1.023628       -27.8543
 104   2.0000      -1.014688       -27.6111
 105   2.0000      -1.014281       -27.6000
 106   2.0000      -1.008604       -27.4455
 107   2.0000      -1.002752       -27.2863
 108   2.0000      -0.990623       -26.9562
 109   2.0000      -0.987537       -26.8722
 110   2.0000      -0.966719       -26.3058
 111   2.0000      -0.963296       -26.2126
 112   2.0000      -0.952885       -25.9293
 113   2.0000      -0.931763       -25.3546
 114   2.0000      -0.927395       -25.2357
 115   2.0000      -0.911910       -24.8143
 116   2.0000      -0.902930       -24.5700
 117   2.0000      -0.890098       -24.2208
 118   2.0000      -0.885885       -24.1062
 119   2.0000      -0.881177       -23.9780
 120   2.0000      -0.878662       -23.9096
 121   2.0000      -0.873002       -23.7556
 122   2.0000      -0.870376       -23.6841
 123   2.0000      -0.861732       -23.4489
 124   2.0000      -0.861623       -23.4460
 125   2.0000      -0.835738       -22.7416
 126   2.0000      -0.827393       -22.5145
 127   2.0000      -0.810699       -22.0602
 128   2.0000      -0.806390       -21.9430
 129   2.0000      -0.803623       -21.8677
 130   2.0000      -0.785997       -21.3881
 131   2.0000      -0.781753       -21.2726
 132   2.0000      -0.781506       -21.2659
 133   2.0000      -0.770137       -20.9565
 134   2.0000      -0.765057       -20.8183
 135   2.0000      -0.747646       -20.3445
 136   2.0000      -0.739537       -20.1238
 137   2.0000      -0.720016       -19.5926
 138   2.0000      -0.717122       -19.5139
 139   2.0000      -0.709624       -19.3098
 140   2.0000      -0.709122       -19.2962
 141   2.0000      -0.701211       -19.0809
 142   2.0000      -0.697955       -18.9923
 143   2.0000      -0.690676       -18.7942
 144   2.0000      -0.688458       -18.7339
 145   2.0000      -0.685685       -18.6584
 146   2.0000      -0.678672       -18.4676
 147   2.0000      -0.672725       -18.3058
 148   2.0000      -0.655362       -17.8333
 149   2.0000      -0.652678       -17.7603
 150   2.0000      -0.649410       -17.6713
 151   2.0000      -0.643836       -17.5197
 152   2.0000      -0.641272       -17.4499
 153   2.0000      -0.638833       -17.3835
 154   2.0000      -0.635548       -17.2941
 155   2.0000      -0.632959       -17.2237
 156   2.0000      -0.627912       -17.0864
 157   2.0000      -0.624947       -17.0057
 158   2.0000      -0.624182       -16.9849
 159   2.0000      -0.616310       -16.7706
 160   2.0000      -0.610743       -16.6192
 161   2.0000      -0.603321       -16.4172
 162   2.0000      -0.598914       -16.2973
 163   2.0000      -0.595353       -16.2004
 164   2.0000      -0.593217       -16.1423
 165   2.0000      -0.586214       -15.9517
 166   2.0000      -0.584064       -15.8932
 167   2.0000      -0.582030       -15.8379
 168   2.0000      -0.574005       -15.6195
 169   2.0000      -0.570296       -15.5185
 170   2.0000      -0.567871       -15.4526
 171   2.0000      -0.563810       -15.3421
 172   2.0000      -0.558195       -15.1893
 173   2.0000      -0.554793       -15.0967
 174   2.0000      -0.554701       -15.0942
 175   2.0000      -0.550247       -14.9730
 176   2.0000      -0.547618       -14.9014
 177   2.0000      -0.545884       -14.8543
 178   2.0000      -0.539680       -14.6854
 179   2.0000      -0.535610       -14.5747
 180   2.0000      -0.534304       -14.5391
 181   2.0000      -0.530703       -14.4412
 182   2.0000      -0.528592       -14.3837
 183   2.0000      -0.524196       -14.2641
 184   2.0000      -0.523499       -14.2451
 185   2.0000      -0.519175       -14.1275
 186   2.0000      -0.516642       -14.0585
 187   2.0000      -0.515219       -14.0198
 188   2.0000      -0.514773       -14.0077
 189   2.0000      -0.512253       -13.9391
 190   2.0000      -0.511512       -13.9189
 191   2.0000      -0.505661       -13.7597
 192   2.0000      -0.504668       -13.7327
 193   2.0000      -0.503400       -13.6982
 194   2.0000      -0.500014       -13.6061
 195   2.0000      -0.498984       -13.5781
 196   2.0000      -0.496085       -13.4992
 197   2.0000      -0.494560       -13.4577
 198   2.0000      -0.490031       -13.3344
 199   2.0000      -0.484173       -13.1750
 200   2.0000      -0.479861       -13.0577
 201   2.0000      -0.478130       -13.0106
 202   2.0000      -0.476458       -12.9651
 203   2.0000      -0.470099       -12.7920
 204   2.0000      -0.467807       -12.7297
 205   2.0000      -0.467404       -12.7187
 206   2.0000      -0.466718       -12.7000
 207   2.0000      -0.464993       -12.6531
 208   2.0000      -0.462816       -12.5939
 209   2.0000      -0.460790       -12.5387
 210   2.0000      -0.459366       -12.5000
 211   2.0000      -0.458320       -12.4715
 212   2.0000      -0.454176       -12.3588
 213   2.0000      -0.451578       -12.2881
 214   2.0000      -0.446973       -12.1627
 215   2.0000      -0.446598       -12.1525
 216   2.0000      -0.445558       -12.1242
 217   2.0000      -0.445044       -12.1103
 218   2.0000      -0.442040       -12.0285
 219   2.0000      -0.441494       -12.0137
 220   2.0000      -0.433122       -11.7858
 221   2.0000      -0.432126       -11.7588
 222   2.0000      -0.423903       -11.5350
 223   2.0000      -0.419039       -11.4026
 224   2.0000      -0.413196       -11.2436
 225   2.0000      -0.410557       -11.1718
 226   2.0000      -0.408656       -11.1201
 227   2.0000      -0.401193       -10.9170
 228   2.0000      -0.397266       -10.8102
 229   2.0000      -0.396130       -10.7792
 230   2.0000      -0.387416       -10.5421
 231   2.0000      -0.386074       -10.5056
 232   2.0000      -0.380906       -10.3650
 233   2.0000      -0.379403       -10.3241
 234   2.0000      -0.377837       -10.2815
 235   2.0000      -0.377785       -10.2801
 236   2.0000      -0.374995       -10.2041
 237   2.0000      -0.367327        -9.9955
 238   2.0000      -0.364000        -9.9049
 239   2.0000      -0.361344        -9.8327
 240   2.0000      -0.360848        -9.8192
 241   2.0000      -0.356263        -9.6944
 242   2.0000      -0.355814        -9.6822
 243   2.0000      -0.349839        -9.5196
 244   2.0000      -0.349610        -9.5134
 245   2.0000      -0.347311        -9.4508
 246   2.0000      -0.342523        -9.3205
 247   2.0000      -0.337089        -9.1727
 248   2.0000      -0.330266        -8.9870
 249   2.0000      -0.328384        -8.9358
 250   2.0000      -0.311497        -8.4763
 251   2.0000      -0.281331        -7.6554
 252   2.0000      -0.243817        -6.6346
 253   0.0000      -0.124950        -3.4001
 254   0.0000      -0.112626        -3.0647
 255   0.0000      -0.101411        -2.7595
 256   0.0000      -0.099621        -2.7108
 257   0.0000      -0.069782        -1.8989

MULLIKEN ATOMIC CHARGES
-----------------------
   0 C :    0.000227
   1 C :    0.108157
   2 N :    0.261189
   3 O :   -0.225738
   4 O :   -0.264784
   5 C :   -0.078589
   6 C :    0.321963
   7 O :   -0.322409
   8 C :   -0.110942
   9 C :    0.196913
  10 C :   -0.055579
  11 C :   -0.075342
  12 C :   -0.036828
  13 C :    0.010636
  14 C :   -0.092949
  15 S :    0.180465
  16 C :   -0.086735
  17 C :    0.028623
  18 C :    0.304212
  19 C :   -0.293320
  20 C :   -0.189867
  21 N :    0.175263
  22 C :   -0.184157
  23 N :    0.171670
  24 C :   -0.078468
  25 C :   -0.078074
  26 S :    0.240212
  27 C :   -0.121828
  28 C :    0.025943
  29 C :    0.026021
  30 N :    0.038133
  31 C :   -0.111601
  32 C :    0.137905
  33 O :   -0.109046
  34 C :   -0.015722
  35 C :   -0.016378
  36 C :    0.136752
  37 O :   -0.107698
  38 C :   -0.112221
  39 N :    0.037948
  40 C :   -0.119812
  41 S :    0.237901
  42 C :   -0.080842
  43 C :   -0.077245
  44 C :    0.025346
  45 C :   -0.086516
  46 S :    0.238858
  47 C :   -0.092368
  48 C :    0.013454
  49 C :    0.302957
  50 C :   -0.293709
  51 C :   -0.184695
  52 N :    0.168790
  53 C :   -0.189279
  54 N :    0.176259
  55 C :   -0.040342
  56 C :   -0.070766
  57 S :    0.175459
  58 C :    0.189526
  59 C :   -0.046861
  60 C :    0.027713
  61 C :    0.097895
  62 C :   -0.091623
  63 C :   -0.140728
  64 C :    0.324181
  65 O :   -0.314527
  66 N :    0.252392
  67 O :   -0.230460
  68 O :   -0.228965
  69 H :    0.010965
  70 H :    0.008398
  71 H :   -0.001422
  72 H :    0.171921
  73 H :   -0.019645
  74 H :   -0.001623
  75 H :    0.009522
  76 H :    0.009863
  77 H :    0.020123
  78 H :    0.020124
  79 H :    0.010399
  80 H :    0.006281
  81 H :   -0.005741
  82 H :    0.005294
  83 H :   -0.015495
  84 H :   -0.011252
  85 H :    0.041094
  86 H :    0.165242
Sum of atomic charges:   -0.0000000

LOEWDIN ATOMIC CHARGES
----------------------
   0 C :    0.012683
   1 C :   -0.041855
   2 N :    0.291682
   3 O :   -0.191985
   4 O :   -0.205948
   5 C :   -0.008039
   6 C :    0.074520
   7 O :   -0.138409
   8 C :   -0.008576
   9 C :   -0.009933
  10 C :   -0.031617
  11 C :   -0.162064
  12 C :   -0.018586
  13 C :   -0.069621
  14 C :   -0.173608
  15 S :    0.489017
  16 C :   -0.182776
  17 C :   -0.067368
  18 C :    0.080949
  19 C :   -0.100921
  20 C :   -0.017154
  21 N :   -0.029985
  22 C :   -0.016322
  23 N :   -0.030833
  24 C :   -0.027637
  25 C :   -0.181763
  26 S :    0.529782
  27 C :   -0.190401
  28 C :   -0.055931
  29 C :   -0.056431
  30 N :   -0.008817
  31 C :   -0.039891
  32 C :    0.055495
  33 O :   -0.104217
  34 C :   -0.011109
  35 C :   -0.011081
  36 C :    0.055432
  37 O :   -0.103445
  38 C :   -0.039202
  39 N :   -0.009147
  40 C :   -0.188841
  41 S :    0.522253
  42 C :   -0.183406
  43 C :   -0.026580
  44 C :   -0.069108
  45 C :   -0.181123
  46 S :    0.529393
  47 C :   -0.176467
  48 C :   -0.068767
  49 C :    0.081451
  50 C :   -0.101629
  51 C :   -0.015876
  52 N :   -0.032395
  53 C :   -0.017282
  54 N :   -0.030130
  55 C :   -0.023596
  56 C :   -0.159156
  57 S :    0.485411
  58 C :   -0.020825
  59 C :   -0.010557
  60 C :    0.008183
  61 C :   -0.021045
  62 C :   -0.027601
  63 C :   -0.032134
  64 C :    0.075551
  65 O :   -0.132276
  66 N :    0.284853
  67 O :   -0.195749
  68 O :   -0.188633
  69 H :    0.042967
  70 H :    0.014677
  71 H :    0.023862
  72 H :    0.059627
  73 H :    0.034036
  74 H :    0.024477
  75 H :    0.040758
  76 H :    0.037966
  77 H :    0.046841
  78 H :    0.046874
  79 H :    0.038091
  80 H :    0.039669
  81 H :    0.036047
  82 H :    0.043659
  83 H :    0.019579
  84 H :    0.009540
  85 H :    0.034886
  86 H :    0.077637

  Mayer bond orders larger than 0.100000
B(  0-C ,  1-C ) :   1.3659 B(  0-C , 10-C ) :   1.3967 B(  0-C , 69-H ) :   0.9846
B(  1-C ,  2-N ) :   0.9053 B(  1-C ,  5-C ) :   1.3700 B(  2-N ,  3-O ) :   1.5786
B(  2-N ,  4-O ) :   1.4827 B(  3-O ,  4-O ) :   0.2531 B(  5-C ,  6-C ) :   1.0015
B(  5-C ,  8-C ) :   1.4265 B(  6-C ,  7-O ) :   1.0894 B(  6-C , 70-H ) :   0.9301
B(  6-C , 71-H ) :   0.9249 B(  7-O , 72-H ) :   0.9641 B(  8-C ,  9-C ) :   1.3200
B(  8-C , 73-H ) :   0.9943 B(  9-C , 10-C ) :   1.3016 B(  9-C , 11-C ) :   1.0809
B( 10-C , 74-H ) :   0.9867 B( 11-C , 12-C ) :   1.4860 B( 11-C , 15-S ) :   1.1001
B( 12-C , 13-C ) :   1.2845 B( 12-C , 75-H ) :   0.9876 B( 13-C , 14-C ) :   1.4332
B( 13-C , 18-C ) :   1.0022 B( 14-C , 15-S ) :   1.1366 B( 14-C , 16-C ) :   1.1910
B( 16-C , 17-C ) :   1.4106 B( 16-C , 26-S ) :   1.1011 B( 17-C , 18-C ) :   0.9899
B( 17-C , 24-C ) :   1.3245 B( 18-C , 19-C ) :   1.7133 B( 19-C , 20-C ) :   1.1329
B( 19-C , 22-C ) :   1.1318 B( 20-C , 21-N ) :   2.9933 B( 22-C , 23-N ) :   2.9872
B( 24-C , 25-C ) :   1.3910 B( 24-C , 76-H ) :   0.9947 B( 25-C , 26-S ) :   1.1152
B( 25-C , 27-C ) :   1.2373 B( 27-C , 28-C ) :   1.3233 B( 27-C , 40-C ) :   0.1181
B( 27-C , 41-S ) :   1.1541 B( 28-C , 29-C ) :   1.1867 B( 28-C , 39-N ) :   1.4167
B( 29-C , 30-N ) :   1.4170 B( 29-C , 40-C ) :   1.3214 B( 30-N , 31-C ) :   1.6974
B( 31-C , 32-C ) :   0.8979 B( 31-C , 38-C ) :   1.1069 B( 32-C , 33-O ) :   2.2448
B( 32-C , 34-C ) :   1.0219 B( 34-C , 35-C ) :   1.6775 B( 34-C , 77-H ) :   0.9988
B( 35-C , 36-C ) :   1.0233 B( 35-C , 78-H ) :   0.9981 B( 36-C , 37-O ) :   2.2455
B( 36-C , 38-C ) :   0.8990 B( 38-C , 39-N ) :   1.6984 B( 40-C , 41-S ) :   1.1568
B( 40-C , 42-C ) :   1.2379 B( 42-C , 43-C ) :   1.3901 B( 42-C , 46-S ) :   1.1133
B( 43-C , 44-C ) :   1.3235 B( 43-C , 79-H ) :   0.9953 B( 44-C , 45-C ) :   1.4122
B( 44-C , 49-C ) :   0.9893 B( 45-C , 46-S ) :   1.1023 B( 45-C , 47-C ) :   1.1884
B( 47-C , 48-C ) :   1.4376 B( 47-C , 57-S ) :   1.1309 B( 48-C , 49-C ) :   1.0029
B( 48-C , 55-C ) :   1.2797 B( 49-C , 50-C ) :   1.7128 B( 50-C , 51-C ) :   1.1326
B( 50-C , 53-C ) :   1.1315 B( 51-C , 52-N ) :   2.9867 B( 53-C , 54-N ) :   2.9943
B( 55-C , 56-C ) :   1.4928 B( 55-C , 80-H ) :   0.9881 B( 56-C , 57-S ) :   1.1031
B( 56-C , 58-C ) :   1.0734 B( 58-C , 59-C ) :   1.3478 B( 58-C , 63-C ) :   1.2915
B( 59-C , 60-C ) :   1.3692 B( 59-C , 81-H ) :   0.9955 B( 60-C , 61-C ) :   1.4046
B( 60-C , 82-H ) :   0.9902 B( 61-C , 62-C ) :   1.4016 B( 61-C , 66-N ) :   0.8667
B( 62-C , 63-C ) :   1.4189 B( 62-C , 64-C ) :   1.0208 B( 63-C , 83-H ) :   0.9850
B( 64-C , 65-O ) :   1.0571 B( 64-C , 84-H ) :   0.9351 B( 64-C , 85-H ) :   0.9117
B( 65-O , 86-H ) :   0.9798 B( 66-N , 67-O ) :   1.5571 B( 66-N , 68-O ) :   1.5440
B( 67-O , 68-O ) :   0.2722

-----------------------------------------------------------------------------
         ABSORPTION SPECTRUM VIA TRANSITION ELECTRIC DIPOLE MOMENTS
-----------------------------------------------------------------------------
State   Energy  Wavelength   fosc         T2         TX        TY        TZ
        (cm-1)    (nm)                  (au**2)     (au)      (au)      (au)
-----------------------------------------------------------------------------
   0    9982.4   1001.8   0.685435207  22.60521   2.74333   3.29067   2.06177
   1   12049.3    829.9   0.008097123   0.22123  -0.34306  -0.05122   0.31767
   2   13523.3    739.5   0.048457954   1.17966  -0.60580  -0.75131  -0.49819
   3   15995.7    625.2   0.107793927   2.21854   0.95367  -0.04092  -1.14341
   4   19781.5    505.5   0.016289927   0.27110  -0.30824   0.03766   0.41794
   5   22136.5    451.7   0.037090254   0.55160  -0.40889  -0.51541  -0.34461
   6   24302.8    411.5   0.245792234   3.32956  -1.19531  -1.24774  -0.58646
   7   24803.6    403.2   1.756377128  23.31193   2.55449   3.35168   2.35643
   8   24834.6    402.7   0.001718422   0.02278   0.05229  -0.13322   0.04793
   9   25651.5    389.8   0.000002815   0.00004   0.00398   0.00442   0.00089
  10   26285.1    380.4   0.005587023   0.06998  -0.05967  -0.16976  -0.19390
  11   26586.4    376.1   0.001008598   0.01249  -0.06142   0.08163  -0.04533
  12   26994.5    370.4   0.105957627   1.29221  -0.93926  -0.63741   0.06087
  13   27703.6    361.0   0.137833356   1.63792  -1.00582  -0.78586  -0.09318
  14   29081.1    343.9   0.125293816   1.41839  -0.71650   0.08605   0.94742
  15   29289.4    341.4   0.010412075   0.11703  -0.10526  -0.22448  -0.23571
  16   30242.7    330.7   0.004389976   0.04779   0.18468   0.11457  -0.02355
  17   30705.2    325.7   0.000895888   0.00961   0.06820   0.07013  -0.00600
  18   30801.3    324.7   0.000018521   0.00020   0.00832   0.01034   0.00467
  19   31967.9    312.8   0.245788690   2.53118  -1.24895  -0.97971  -0.10714
  20   32223.1    310.3   0.389608888   3.98050   0.66828  -0.62663  -1.77235
  21   32579.6    306.9   0.087305466   0.88221   0.47458   0.61835   0.52404
  22   32734.6    305.5   0.380637537   3.82807   1.47274   0.29908  -1.25286
  23   32974.1    303.3   0.306957353   3.06465   0.69882  -0.58614  -1.49423
  24   33388.8    299.5   0.540091971   5.32529  -1.49653   0.03259   1.75631
  25   33801.3    295.8   0.010645000   0.10368   0.14979   0.22282   0.17774
  26   33823.0    295.7   0.238612578   2.32251  -0.77883  -1.05691  -0.77387
  27   34081.7    293.4   0.045651603   0.44097  -0.42855  -0.45544  -0.22337
  28   34293.7    291.6   0.014452826   0.13874   0.29310   0.21938   0.06862
  29   34952.4    286.1   0.003314788   0.03122  -0.11953   0.01051   0.12971
  30   35033.9    285.4   0.292744257   2.75090  -0.94449   0.19021   1.35006
  31   35170.0    284.3   0.019445174   0.18202  -0.07112  -0.21377  -0.36230
  32   35212.3    284.0   0.043737820   0.40892   0.32804   0.45706   0.30399
  33   35486.1    281.8   0.006231260   0.05781  -0.10855  -0.16542  -0.13662
  34   35556.3    281.2   0.192087589   1.77852   1.12114   0.53024  -0.49031
  35   36328.9    275.3   0.036743639   0.33297  -0.45963  -0.14434   0.31762
  36   36349.4    275.1   0.053330060   0.48300   0.30742   0.47909   0.39871
  37   36727.7    272.3   0.117217581   1.05069   0.50619   0.72069   0.52447
  38   37026.8    270.1   0.081940147   0.72854  -0.54880   0.14947   0.63642
  39   37040.5    270.0   0.022497789   0.19996   0.20445   0.02982  -0.39657
  40   37052.6    269.9   0.002437562   0.02166  -0.02080   0.08317  -0.11962
  41   37179.3    269.0   0.067017519   0.59342  -0.60237  -0.18826   0.44174
  42   37511.9    266.6   0.000059809   0.00052   0.01452  -0.01251  -0.01255
  43   37587.2    266.0   0.055930741   0.48988   0.26810   0.46018   0.45413
  44   38495.6    259.8   0.001987489   0.01700  -0.07987  -0.07827  -0.06701
  45   38728.6    258.2   0.003197074   0.02718   0.07674   0.11339   0.09181
  46   39019.0    256.3   0.091768131   0.77427   0.75040   0.35979  -0.28585
  47   39177.4    255.2   0.004343725   0.03650  -0.10477   0.05650   0.14944
  48   39329.7    254.3   0.009054377   0.07579  -0.19647   0.03467   0.18970
  49   39461.4    253.4   0.008357486   0.06972  -0.21136  -0.04287   0.15235
  50   39603.9    252.5   0.061057581   0.50755  -0.27442  -0.45277  -0.47670
  51   39775.8    251.4   0.021157660   0.17512   0.19030  -0.12924  -0.34957
  52   40133.3    249.2   0.005556327   0.04558  -0.17036  -0.11743   0.05258
  53   40281.4    248.3   0.006759493   0.05524  -0.05122   0.10826   0.20224

FINAL SINGLE POINT ENERGY     -4866.230712751412

DIPOLE MOMENT
-------------
                                X             Y             Z
Electronic contribution:      2.09866      -2.68826      -4.87660
Nuclear contribution   :     -4.15840       3.41005       7.15066
                        -----------------------------------------
Total Dipole Moment    :     -2.05974       0.72179       2.27406
                        -----------------------------------------
Magnitude (a.u.)       :      3.15196
Magnitude (Debye)      :      8.01165

Rotational constants in cm-1:     0.002488     0.000238     0.000218
Rotational constants in MHz :    74.581415     7.141166     6.530968

                             ****ORCA TERMINATED NORMALLY****
TOTAL RUN TIME: 0 days 0 hours 7 minutes 36 seconds 72 msec
