                         Program Version 4.2.0 -  RELEASE  -
|  1> # ORCA input file
|  2> # SCF done       -184.867865048241          0.000558161366
|  3> ! CAM-B3LYP def2-SVP def2/J RIJCOSX Grid4 TightSCF
|  4> %maxcore 5000
|  5> %tddft
|  6>     Mode sTDDFT
|  7>     Ethresh 5.0
|  8>     maxcore 5000
|  9> end
| 10>
| 11> %pal
| 12>   nprocs 6
| 13>   end
| 14> * xyz 0 1
| 15>    C       -4.33677         0.99059        -4.65442
| 16>    C       -3.37029         0.01625        -4.63414
| 17>    C       -2.81366        -0.56703        -5.79157
| 18>    N       -2.31834        -1.08191        -6.69050
| 19>    C       -2.79221        -0.55776        -3.48255
| 20>    N       -2.26520        -1.08793        -2.61004
| 21>    C       -4.93590         1.55587        -5.86099
| 22>    C       -5.91773         2.50344        -5.48011
| 23>    C       -6.66475         3.21353        -6.38778
| 24>    C       -6.42719         2.97853        -7.74627
| 25>    C       -5.44350         2.03221        -8.12089
| 26>    C       -4.69134         1.31280        -7.19957
| 27>    S       -5.30896         1.90079        -9.84807
| 28>    C       -6.55835         3.10233       -10.04070
| 29>    C       -7.05268         3.57831        -8.87343
| 30>   Br       -7.08827         3.61407       -11.76492
| 31>    C       -5.97165         2.57776        -4.01049
| 32>    O       -6.71104         3.28707        -3.35385
| 33>    C       -4.95856         1.63508        -3.51566
| 34>    C       -4.64023         1.42693        -2.19558
| 35>    C       -5.17995         2.00913        -1.04492
| 36>    C       -4.68837         1.67454         0.24502
| 37>    O       -3.69012         0.78533         0.34781
| 38>    C       -3.22549         0.46148         1.64046
| 39>    C       -5.33695         2.34756         1.26826
| 40>    C       -6.33044         3.20282         0.79911
| 41>    S       -6.46764         3.17690        -0.92998
| 42>    C       -7.16845         4.03226         1.59049
| 43>    C       -8.15638         4.84860         0.99155
| 44>    C       -9.04439         5.67918         1.75832
| 45>    N       -9.92817         6.45292         1.12133
| 46>    C       -9.99915         6.44235        -0.18732
| 47>    C       -9.13020         5.59362        -0.94950
| 48>    N       -8.24964         4.84238        -0.34166
| 49>    C       -9.21013         5.57313        -2.36583
| 50>    N       -9.31818         5.59825        -3.50531
| 51>    C      -10.93556         7.28285        -0.83870
| 52>    N      -11.67929         7.94849        -1.40014
| 53>    C       -9.02855         5.71301         3.17720
| 54>    C       -7.97202         4.98171         3.77318
| 55>    C       -7.07333         4.14686         2.99731
| 56>    N       -6.15069         3.57308         3.77043
| 57>    S       -6.36225         4.05112         5.28952
| 58>    N       -7.62850         4.99600         5.05908
| 59>    C      -10.00455         6.47273         3.87323
| 60>    C      -10.38030         6.41736         5.23371
| 61>    O       -9.86698         5.49337         6.05363
| 62>    C      -10.38125         5.41212         7.36441
| 63>    C      -11.36317         7.35161         5.56375
| 64>    C      -11.78677         8.11228         4.48633
| 65>    S      -10.95302         7.65201         3.02867
| 66>    C      -12.71164         9.17547         4.43334
| 67>    C      -13.64500         9.58257         5.34174
| 68>    C      -14.23361         8.97024         6.50983
| 69>    C      -14.43090         7.62844         6.72104
| 70>    C      -15.06963         7.09604         7.85863
| 71>    N      -15.54844         6.60501         8.77936
| 72>    C      -14.08264         6.62466         5.79601
| 73>    N      -13.84432         5.76390         5.07484
| 74>    C      -14.82317        10.03840         7.31237
| 75>    C      -14.80935        11.23630         6.55437
| 76>    C      -14.15192        10.98278         5.25722
| 77>    O      -14.00333        11.75095         4.33693
| 78>    C      -15.33155        12.41508         7.02786
| 79>    C      -15.88242        12.41483         8.31385
| 80>    C      -15.88044        11.21640         9.06724
| 81>    C      -15.36075        10.02106         8.58475
| 82>    S      -16.59865        11.44442        10.63198
| 83>    C      -16.89176        13.12230        10.25814
| 84>    C      -16.47273        13.49471         9.02544
| 85>   Br      -17.71811        14.22259        11.53170
| 86>    H       -7.40512         3.92569        -6.05802
| 87>    H       -3.95446         0.60449        -7.53914
| 88>    H       -7.82563         4.32185        -8.80582
| 89>    H       -3.85074         0.71756        -1.97714
| 90>    H       -2.43420        -0.27035         1.49097
| 91>    H       -4.02229         0.02406         2.24848
| 92>    H       -2.82293         1.34274         2.14787
| 93>    H       -5.12183         2.24921         2.31555
| 94>    H       -9.87170         4.56864         7.82605
| 95>    H      -11.46008         5.22862         7.35718
| 96>    H      -10.16558         6.32033         7.93511
| 97>    H      -11.72632         7.50240         6.56366
| 98>    H      -12.61842         9.82522         3.56772
| 99>    H      -15.31601        13.30979         6.42591
|100>    H      -15.37702         9.13458         9.19693
|101>    H      -16.57412        14.48976         8.63262
|102> *
|103>
|104>                          ****END OF INPUT****

CARTESIAN COORDINATES (ANGSTROEM)
---------------------------------
  C     -4.336770    0.990590   -4.654420
  C     -3.370290    0.016250   -4.634140
  C     -2.813660   -0.567030   -5.791570
  N     -2.318340   -1.081910   -6.690500
  C     -2.792210   -0.557760   -3.482550
  N     -2.265200   -1.087930   -2.610040
  C     -4.935900    1.555870   -5.860990
  C     -5.917730    2.503440   -5.480110
  C     -6.664750    3.213530   -6.387780
  C     -6.427190    2.978530   -7.746270
  C     -5.443500    2.032210   -8.120890
  C     -4.691340    1.312800   -7.199570
  S     -5.308960    1.900790   -9.848070
  C     -6.558350    3.102330  -10.040700
  C     -7.052680    3.578310   -8.873430
  Br    -7.088270    3.614070  -11.764920
  C     -5.971650    2.577760   -4.010490
  O     -6.711040    3.287070   -3.353850
  C     -4.958560    1.635080   -3.515660
  C     -4.640230    1.426930   -2.195580
  C     -5.179950    2.009130   -1.044920
  C     -4.688370    1.674540    0.245020
  O     -3.690120    0.785330    0.347810
  C     -3.225490    0.461480    1.640460
  C     -5.336950    2.347560    1.268260
  C     -6.330440    3.202820    0.799110
  S     -6.467640    3.176900   -0.929980
  C     -7.168450    4.032260    1.590490
  C     -8.156380    4.848600    0.991550
  C     -9.044390    5.679180    1.758320
  N     -9.928170    6.452920    1.121330
  C     -9.999150    6.442350   -0.187320
  C     -9.130200    5.593620   -0.949500
  N     -8.249640    4.842380   -0.341660
  C     -9.210130    5.573130   -2.365830
  N     -9.318180    5.598250   -3.505310
  C    -10.935560    7.282850   -0.838700
  N    -11.679290    7.948490   -1.400140
  C     -9.028550    5.713010    3.177200
  C     -7.972020    4.981710    3.773180
  C     -7.073330    4.146860    2.997310
  N     -6.150690    3.573080    3.770430
  S     -6.362250    4.051120    5.289520
  N     -7.628500    4.996000    5.059080
  C    -10.004550    6.472730    3.873230
  C    -10.380300    6.417360    5.233710
  O     -9.866980    5.493370    6.053630
  C    -10.381250    5.412120    7.364410
  C    -11.363170    7.351610    5.563750
  C    -11.786770    8.112280    4.486330
  S    -10.953020    7.652010    3.028670
  C    -12.711640    9.175470    4.433340
  C    -13.645000    9.582570    5.341740
  C    -14.233610    8.970240    6.509830
  C    -14.430900    7.628440    6.721040
  C    -15.069630    7.096040    7.858630
  N    -15.548440    6.605010    8.779360
  C    -14.082640    6.624660    5.796010
  N    -13.844320    5.763900    5.074840
  C    -14.823170   10.038400    7.312370
  C    -14.809350   11.236300    6.554370
  C    -14.151920   10.982780    5.257220
  O    -14.003330   11.750950    4.336930
  C    -15.331550   12.415080    7.027860
  C    -15.882420   12.414830    8.313850
  C    -15.880440   11.216400    9.067240
  C    -15.360750   10.021060    8.584750
  S    -16.598650   11.444420   10.631980
  C    -16.891760   13.122300   10.258140
  C    -16.472730   13.494710    9.025440
  Br   -17.718110   14.222590   11.531700
  H     -7.405120    3.925690   -6.058020
  H     -3.954460    0.604490   -7.539140
  H     -7.825630    4.321850   -8.805820
  H     -3.850740    0.717560   -1.977140
  H     -2.434200   -0.270350    1.490970
  H     -4.022290    0.024060    2.248480
  H     -2.822930    1.342740    2.147870
  H     -5.121830    2.249210    2.315550
  H     -9.871700    4.568640    7.826050
  H    -11.460080    5.228620    7.357180
  H    -10.165580    6.320330    7.935110
  H    -11.726320    7.502400    6.563660
  H    -12.618420    9.825220    3.567720
  H    -15.316010   13.309790    6.425910
  H    -15.377020    9.134580    9.196930
  H    -16.574120   14.489760    8.632620

 Total Charge           Charge          ....    0
 Multiplicity           Mult            ....    1
 Number of Electrons    NEL             ....  568
 Basis Dimension        Dim             .... 1130

ORBITAL ENERGIES
----------------

  NO   OCC          E(Eh)            E(eV)
   0   2.0000    -482.891655    -13140.1500
   1   2.0000    -482.877774    -13139.7723
   2   2.0000     -89.053411     -2423.2665
   3   2.0000     -88.982920     -2421.3484
   4   2.0000     -88.976200     -2421.1655
   5   2.0000     -88.966520     -2420.9021
   6   2.0000     -88.955540     -2420.6033
   7   2.0000     -62.569363     -1702.5989
   8   2.0000     -62.555456     -1702.2205
   9   2.0000     -56.403321     -1534.8124
  10   2.0000     -56.400592     -1534.7381
  11   2.0000     -56.400561     -1534.7373
  12   2.0000     -56.389394     -1534.4334
  13   2.0000     -56.386700     -1534.3601
  14   2.0000     -56.386665     -1534.3592
  15   2.0000     -19.269836      -524.3589
  16   2.0000     -19.263073      -524.1749
  17   2.0000     -19.223496      -523.0979
  18   2.0000     -19.209035      -522.7044
  19   2.0000     -14.475660      -393.9027
  20   2.0000     -14.469535      -393.7361
  21   2.0000     -14.460259      -393.4836
  22   2.0000     -14.459624      -393.4664
  23   2.0000     -14.436544      -392.8383
  24   2.0000     -14.434130      -392.7726
  25   2.0000     -14.427028      -392.5794
  26   2.0000     -14.425437      -392.5361
  27   2.0000     -14.405183      -391.9850
  28   2.0000     -14.403593      -391.9417
  29   2.0000     -10.393048      -282.8092
  30   2.0000     -10.392510      -282.7946
  31   2.0000     -10.374397      -282.3017
  32   2.0000     -10.366885      -282.0973
  33   2.0000     -10.365799      -282.0677
  34   2.0000     -10.358380      -281.8659
  35   2.0000     -10.357134      -281.8319
  36   2.0000     -10.357030      -281.8291
  37   2.0000     -10.354531      -281.7611
  38   2.0000     -10.354173      -281.7514
  39   2.0000     -10.354043      -281.7478
  40   2.0000     -10.353264      -281.7266
  41   2.0000     -10.349826      -281.6331
  42   2.0000     -10.349594      -281.6268
  43   2.0000     -10.341694      -281.4118
  44   2.0000     -10.337809      -281.3061
  45   2.0000     -10.333874      -281.1990
  46   2.0000     -10.331239      -281.1273
  47   2.0000     -10.330156      -281.0978
  48   2.0000     -10.329864      -281.0899
  49   2.0000     -10.329566      -281.0818
  50   2.0000     -10.329506      -281.0801
  51   2.0000     -10.329282      -281.0741
  52   2.0000     -10.329034      -281.0673
  53   2.0000     -10.326741      -281.0049
  54   2.0000     -10.326666      -281.0029
  55   2.0000     -10.324724      -280.9500
  56   2.0000     -10.324071      -280.9322
  57   2.0000     -10.317982      -280.7666
  58   2.0000     -10.317252      -280.7467
  59   2.0000     -10.315599      -280.7017
  60   2.0000     -10.315382      -280.6958
  61   2.0000     -10.314702      -280.6773
  62   2.0000     -10.309744      -280.5424
  63   2.0000     -10.309377      -280.5324
  64   2.0000     -10.308297      -280.5030
  65   2.0000     -10.307856      -280.4910
  66   2.0000     -10.307346      -280.4772
  67   2.0000     -10.303324      -280.3677
  68   2.0000     -10.301365      -280.3144
  69   2.0000     -10.301197      -280.3098
  70   2.0000     -10.297516      -280.2096
  71   2.0000     -10.297331      -280.2046
  72   2.0000     -10.297254      -280.2025
  73   2.0000     -10.295095      -280.1438
  74   2.0000     -10.289769      -279.9988
  75   2.0000     -10.287440      -279.9355
  76   2.0000     -10.283970      -279.8410
  77   2.0000     -10.280919      -279.7580
  78   2.0000     -10.278464      -279.6912
  79   2.0000      -8.798792      -239.4273
  80   2.0000      -8.784876      -239.0486
  81   2.0000      -8.144767      -221.6304
  82   2.0000      -8.078945      -219.8393
  83   2.0000      -8.069813      -219.5908
  84   2.0000      -8.062485      -219.3914
  85   2.0000      -8.047626      -218.9870
  86   2.0000      -6.635124      -180.5509
  87   2.0000      -6.621111      -180.1696
  88   2.0000      -6.620509      -180.1532
  89   2.0000      -6.620307      -180.1477
  90   2.0000      -6.606637      -179.7757
  91   2.0000      -6.606450      -179.7706
  92   2.0000      -6.115831      -166.4202
  93   2.0000      -6.107900      -166.2044
  94   2.0000      -6.107734      -166.1999
  95   2.0000      -6.048644      -164.5920
  96   2.0000      -6.044351      -164.4752
  97   2.0000      -6.040157      -164.3610
  98   2.0000      -6.039318      -164.3382
  99   2.0000      -6.034801      -164.2153
 100   2.0000      -6.032155      -164.1433
 101   2.0000      -6.031861      -164.1353
 102   2.0000      -6.027907      -164.0277
 103   2.0000      -6.023742      -163.9143
 104   2.0000      -6.017117      -163.7341
 105   2.0000      -6.012554      -163.6099
 106   2.0000      -6.009535      -163.5278
 107   2.0000      -2.750991       -74.8583
 108   2.0000      -2.746885       -74.7465
 109   2.0000      -2.746738       -74.7425
 110   2.0000      -2.737032       -74.4784
 111   2.0000      -2.735119       -74.4264
 112   2.0000      -2.735105       -74.4260
 113   2.0000      -2.732891       -74.3658
 114   2.0000      -2.732796       -74.3632
 115   2.0000      -2.721269       -74.0495
 116   2.0000      -2.721252       -74.0490
 117   2.0000      -1.180654       -32.1272
 118   2.0000      -1.169702       -31.8292
 119   2.0000      -1.151079       -31.3225
 120   2.0000      -1.139362       -31.0036
 121   2.0000      -1.134499       -30.8713
 122   2.0000      -1.125251       -30.6196
 123   2.0000      -1.061988       -28.8982
 124   2.0000      -1.032626       -28.0992
 125   2.0000      -1.023012       -27.8376
 126   2.0000      -1.021541       -27.7976
 127   2.0000      -1.012513       -27.5519
 128   2.0000      -1.011484       -27.5239
 129   2.0000      -1.008120       -27.4323
 130   2.0000      -1.005142       -27.3513
 131   2.0000      -1.003180       -27.2979
 132   2.0000      -1.002864       -27.2893
 133   2.0000      -0.998830       -27.1795
 134   2.0000      -0.990033       -26.9402
 135   2.0000      -0.983232       -26.7551
 136   2.0000      -0.979555       -26.6551
 137   2.0000      -0.974329       -26.5128
 138   2.0000      -0.951011       -25.8783
 139   2.0000      -0.932815       -25.3832
 140   2.0000      -0.921293       -25.0697
 141   2.0000      -0.917774       -24.9739
 142   2.0000      -0.917047       -24.9541
 143   2.0000      -0.905266       -24.6335
 144   2.0000      -0.898552       -24.4509
 145   2.0000      -0.894308       -24.3354
 146   2.0000      -0.890347       -24.2276
 147   2.0000      -0.876446       -23.8493
 148   2.0000      -0.875552       -23.8250
 149   2.0000      -0.864409       -23.5218
 150   2.0000      -0.855149       -23.2698
 151   2.0000      -0.848736       -23.0953
 152   2.0000      -0.841353       -22.8944
 153   2.0000      -0.838074       -22.8052
 154   2.0000      -0.834864       -22.7178
 155   2.0000      -0.821619       -22.3574
 156   2.0000      -0.818800       -22.2807
 157   2.0000      -0.806783       -21.9537
 158   2.0000      -0.802080       -21.8257
 159   2.0000      -0.788324       -21.4514
 160   2.0000      -0.775711       -21.1082
 161   2.0000      -0.769623       -20.9425
 162   2.0000      -0.752333       -20.4720
 163   2.0000      -0.749429       -20.3930
 164   2.0000      -0.744411       -20.2565
 165   2.0000      -0.725282       -19.7359
 166   2.0000      -0.720516       -19.6062
 167   2.0000      -0.712757       -19.3951
 168   2.0000      -0.707923       -19.2636
 169   2.0000      -0.702449       -19.1146
 170   2.0000      -0.694120       -18.8880
 171   2.0000      -0.686400       -18.6779
 172   2.0000      -0.681043       -18.5321
 173   2.0000      -0.678090       -18.4518
 174   2.0000      -0.669660       -18.2224
 175   2.0000      -0.666189       -18.1279
 176   2.0000      -0.659746       -17.9526
 177   2.0000      -0.653258       -17.7760
 178   2.0000      -0.646442       -17.5906
 179   2.0000      -0.642748       -17.4901
 180   2.0000      -0.639835       -17.4108
 181   2.0000      -0.636281       -17.3141
 182   2.0000      -0.632567       -17.2130
 183   2.0000      -0.630001       -17.1432
 184   2.0000      -0.614420       -16.7192
 185   2.0000      -0.612871       -16.6771
 186   2.0000      -0.608580       -16.5603
 187   2.0000      -0.604944       -16.4614
 188   2.0000      -0.601432       -16.3658
 189   2.0000      -0.591673       -16.1002
 190   2.0000      -0.590859       -16.0781
 191   2.0000      -0.583545       -15.8791
 192   2.0000      -0.579056       -15.7569
 193   2.0000      -0.577024       -15.7016
 194   2.0000      -0.568584       -15.4720
 195   2.0000      -0.566878       -15.4255
 196   2.0000      -0.564149       -15.3513
 197   2.0000      -0.562661       -15.3108
 198   2.0000      -0.558343       -15.1933
 199   2.0000      -0.551973       -15.0200
 200   2.0000      -0.548852       -14.9350
 201   2.0000      -0.546759       -14.8781
 202   2.0000      -0.541795       -14.7430
 203   2.0000      -0.540564       -14.7095
 204   2.0000      -0.534636       -14.5482
 205   2.0000      -0.531167       -14.4538
 206   2.0000      -0.528175       -14.3724
 207   2.0000      -0.527956       -14.3664
 208   2.0000      -0.524141       -14.2626
 209   2.0000      -0.518370       -14.1056
 210   2.0000      -0.517352       -14.0779
 211   2.0000      -0.514785       -14.0080
 212   2.0000      -0.514011       -13.9869
 213   2.0000      -0.509991       -13.8775
 214   2.0000      -0.509607       -13.8671
 215   2.0000      -0.504811       -13.7366
 216   2.0000      -0.501602       -13.6493
 217   2.0000      -0.499642       -13.5960
 218   2.0000      -0.498303       -13.5595
 219   2.0000      -0.496115       -13.5000
 220   2.0000      -0.495094       -13.4722
 221   2.0000      -0.488961       -13.3053
 222   2.0000      -0.486513       -13.2387
 223   2.0000      -0.485025       -13.1982
 224   2.0000      -0.483902       -13.1677
 225   2.0000      -0.479926       -13.0595
 226   2.0000      -0.477660       -12.9978
 227   2.0000      -0.477464       -12.9925
 228   2.0000      -0.468153       -12.7391
 229   2.0000      -0.466100       -12.6832
 230   2.0000      -0.463174       -12.6036
 231   2.0000      -0.461146       -12.5484
 232   2.0000      -0.459737       -12.5101
 233   2.0000      -0.458660       -12.4808
 234   2.0000      -0.455054       -12.3827
 235   2.0000      -0.454782       -12.3752
 236   2.0000      -0.453488       -12.3400
 237   2.0000      -0.453031       -12.3276
 238   2.0000      -0.449137       -12.2216
 239   2.0000      -0.448108       -12.1936
 240   2.0000      -0.446450       -12.1485
 241   2.0000      -0.440168       -11.9776
 242   2.0000      -0.439077       -11.9479
 243   2.0000      -0.438886       -11.9427
 244   2.0000      -0.437802       -11.9132
 245   2.0000      -0.436986       -11.8910
 246   2.0000      -0.433697       -11.8015
 247   2.0000      -0.432417       -11.7667
 248   2.0000      -0.431338       -11.7373
 249   2.0000      -0.429288       -11.6815
 250   2.0000      -0.428804       -11.6684
 251   2.0000      -0.426113       -11.5951
 252   2.0000      -0.421347       -11.4654
 253   2.0000      -0.420122       -11.4321
 254   2.0000      -0.416732       -11.3399
 255   2.0000      -0.415120       -11.2960
 256   2.0000      -0.413538       -11.2529
 257   2.0000      -0.412320       -11.2198
 258   2.0000      -0.410545       -11.1715
 259   2.0000      -0.404964       -11.0196
 260   2.0000      -0.397556       -10.8181
 261   2.0000      -0.395643       -10.7660
 262   2.0000      -0.386180       -10.5085
 263   2.0000      -0.381959       -10.3936
 264   2.0000      -0.381012       -10.3679
 265   2.0000      -0.379710       -10.3324
 266   2.0000      -0.376321       -10.2402
 267   2.0000      -0.374194       -10.1823
 268   2.0000      -0.367110        -9.9896
 269   2.0000      -0.362506        -9.8643
 270   2.0000      -0.357562        -9.7298
 271   2.0000      -0.353009        -9.6059
 272   2.0000      -0.348827        -9.4921
 273   2.0000      -0.343087        -9.3359
 274   2.0000      -0.326677        -8.8893
 275   2.0000      -0.323408        -8.8004
 276   2.0000      -0.319851        -8.7036
 277   2.0000      -0.317227        -8.6322
 278   2.0000      -0.311517        -8.4768
 279   2.0000      -0.304529        -8.2867
 280   2.0000      -0.302261        -8.2249
 281   2.0000      -0.287024        -7.8103
 282   2.0000      -0.282172        -7.6783
 283   2.0000      -0.245552        -6.6818
 284   0.0000      -0.140608        -3.8261
 285   0.0000      -0.096336        -2.6214
 286   0.0000      -0.077639        -2.1127
 287   0.0000      -0.067148        -1.8272
 288   0.0000      -0.057099        -1.5537

MULLIKEN ATOMIC CHARGES
-----------------------
   0 C :    0.323660
   1 C :   -0.359891
   2 C :   -0.192815
   3 N :    0.147844
   4 C :   -0.195057
   5 N :    0.148451
   6 C :    0.015008
   7 C :   -0.014455
   8 C :   -0.074344
   9 C :    0.117142
  10 C :   -0.091090
  11 C :   -0.024786
  12 S :    0.180859
  13 C :   -0.122536
  14 C :    0.036701
  15 Br:    0.019014
  16 C :    0.159687
  17 O :   -0.173807
  18 C :   -0.091375
  19 C :   -0.032816
  20 C :   -0.113409
  21 C :    0.282164
  22 O :   -0.288064
  23 C :    0.175064
  24 C :   -0.118836
  25 C :   -0.118415
  26 S :    0.203607
  27 C :    0.184457
  28 C :   -0.056686
  29 C :   -0.050884
  30 N :    0.001638
  31 C :   -0.101423
  32 C :   -0.105371
  33 N :    0.026287
  34 C :   -0.209779
  35 N :    0.241618
  36 C :   -0.239701
  37 N :    0.248050
  38 C :    0.193074
  39 C :   -0.031283
  40 C :   -0.011809
  41 N :   -0.296835
  42 S :    0.543464
  43 N :   -0.250096
  44 C :   -0.236061
  45 C :    0.255608
  46 O :   -0.274114
  47 C :    0.171838
  48 C :   -0.091834
  49 C :   -0.047402
  50 S :    0.201580
  51 C :    0.092846
  52 C :   -0.127179
  53 C :    0.270058
  54 C :   -0.345915
  55 C :   -0.178072
  56 N :    0.158292
  57 C :   -0.209148
  58 N :    0.179383
  59 C :    0.002637
  60 C :    0.006064
  61 C :    0.134123
  62 O :   -0.134863
  63 C :   -0.072779
  64 C :    0.114827
  65 C :   -0.084740
  66 C :   -0.027927
  67 S :    0.187402
  68 C :   -0.124292
  69 C :    0.040259
  70 Br:    0.028670
  71 H :   -0.001202
  72 H :   -0.008480
  73 H :   -0.000701
  74 H :    0.021440
  75 H :    0.056551
  76 H :    0.028143
  77 H :    0.027676
  78 H :   -0.012410
  79 H :    0.041203
  80 H :    0.038185
  81 H :    0.029004
  82 H :   -0.009647
  83 H :    0.029268
  84 H :   -0.005687
  85 H :   -0.004072
  86 H :   -0.000763
Sum of atomic charges:   -0.0000000

LOEWDIN ATOMIC CHARGES
----------------------
   0 C :    0.076490
   1 C :   -0.148346
   2 C :   -0.018220
   3 N :   -0.061802
   4 C :   -0.022811
   5 N :   -0.056671
   6 C :   -0.020123
   7 C :   -0.050500
   8 C :    0.023619
   9 C :   -0.033927
  10 C :   -0.145091
  11 C :   -0.012150
  12 S :    0.428899
  13 C :   -0.273661
  14 C :   -0.068848
  15 Br:    0.133079
  16 C :    0.083157
  17 O :   -0.164491
  18 C :   -0.111640
  19 C :    0.058129
  20 C :   -0.219704
  21 C :    0.048853
  22 O :   -0.076407
  23 C :    0.084073
  24 C :   -0.095756
  25 C :   -0.149860
  26 S :    0.542366
  27 C :   -0.045219
  28 C :   -0.005332
  29 C :   -0.013196
  30 N :   -0.015162
  31 C :   -0.021738
  32 C :   -0.012063
  33 N :   -0.005477
  34 C :   -0.030384
  35 N :    0.002991
  36 C :   -0.039104
  37 N :    0.001307
  38 C :   -0.021793
  39 C :   -0.044599
  40 C :   -0.032209
  41 N :   -0.287077
  42 S :    0.674744
  43 N :   -0.255636
  44 C :   -0.186886
  45 C :    0.047775
  46 O :   -0.063614
  47 C :    0.081408
  48 C :   -0.066446
  49 C :   -0.170877
  50 S :    0.511139
  51 C :    0.048108
  52 C :   -0.084437
  53 C :    0.066167
  54 C :   -0.143227
  55 C :   -0.022227
  56 N :   -0.050429
  57 C :   -0.021291
  58 N :   -0.040989
  59 C :   -0.019468
  60 C :   -0.052429
  61 C :    0.083281
  62 O :   -0.134986
  63 C :    0.024805
  64 C :   -0.032142
  65 C :   -0.142748
  66 C :   -0.013429
  67 S :    0.433733
  68 C :   -0.270505
  69 C :   -0.069318
  70 Br:    0.140583
  71 H :    0.044611
  72 H :    0.040262
  73 H :    0.039792
  74 H :    0.049339
  75 H :    0.036603
  76 H :    0.019051
  77 H :    0.018766
  78 H :    0.025391
  79 H :    0.031478
  80 H :    0.023422
  81 H :    0.018377
  82 H :    0.030550
  83 H :    0.048757
  84 H :    0.042875
  85 H :    0.040498
  86 H :    0.039967

  Mayer bond orders larger than 0.100000
B(  0-C ,  1-C ) :   1.6088 B(  0-C ,  6-C ) :   0.9947 B(  0-C , 18-C ) :   1.0943
B(  1-C ,  2-C ) :   1.1486 B(  1-C ,  4-C ) :   1.1473 B(  2-C ,  3-N ) :   2.9673
B(  4-C ,  5-N ) :   2.9615 B(  6-C ,  7-C ) :   1.2761 B(  6-C , 11-C ) :   1.4161
B(  7-C ,  8-C ) :   1.4244 B(  7-C , 16-C ) :   0.9564 B(  8-C ,  9-C ) :   1.2394
B(  8-C , 71-H ) :   1.0182 B(  9-C , 10-C ) :   1.3095 B(  9-C , 14-C ) :   1.1613
B( 10-C , 11-C ) :   1.3249 B( 10-C , 12-S ) :   1.0850 B( 11-C , 72-H ) :   0.9797
B( 12-S , 13-C ) :   1.0845 B( 13-C , 14-C ) :   1.6175 B( 13-C , 15-Br) :   1.0165
B( 14-C , 73-H ) :   1.0019 B( 16-C , 17-O ) :   2.1319 B( 16-C , 18-C ) :   0.9767
B( 18-C , 19-C ) :   1.4630 B( 19-C , 20-C ) :   1.3074 B( 19-C , 74-H ) :   0.9317
B( 20-C , 21-C ) :   1.3027 B( 20-C , 26-S ) :   1.0365 B( 21-C , 22-O ) :   1.1955
B( 21-C , 24-C ) :   1.2529 B( 22-O , 23-C ) :   0.9441 B( 23-C , 75-H ) :   0.9785
B( 23-C , 76-H ) :   0.9707 B( 23-C , 77-H ) :   0.9707 B( 24-C , 25-C ) :   1.3503
B( 24-C , 78-H ) :   0.9921 B( 25-C , 26-S ) :   1.1183 B( 25-C , 27-C ) :   1.2172
B( 27-C , 28-C ) :   1.2508 B( 27-C , 38-C ) :   0.1165 B( 27-C , 40-C ) :   1.1921
B( 28-C , 29-C ) :   1.1260 B( 28-C , 33-N ) :   1.4094 B( 29-C , 30-N ) :   1.4011
B( 29-C , 38-C ) :   1.2450 B( 30-N , 31-C ) :   1.6880 B( 31-C , 32-C ) :   1.2145
B( 31-C , 36-C ) :   1.1650 B( 32-C , 33-N ) :   1.7132 B( 32-C , 34-C ) :   1.1627
B( 34-C , 35-N ) :   3.0189 B( 36-C , 37-N ) :   3.0402 B( 38-C , 39-C ) :   1.1938
B( 38-C , 44-C ) :   1.1836 B( 39-C , 40-C ) :   1.0885 B( 39-C , 43-N ) :   1.5290
B( 40-C , 41-N ) :   1.5215 B( 41-N , 42-S ) :   1.2612 B( 41-N , 43-N ) :   0.1502
B( 42-S , 43-N ) :   1.3080 B( 44-C , 45-C ) :   1.3575 B( 44-C , 49-C ) :   0.1004
B( 44-C , 50-S ) :   1.1430 B( 45-C , 46-O ) :   1.2251 B( 45-C , 48-C ) :   1.2688
B( 46-O , 47-C ) :   0.9465 B( 47-C , 79-H ) :   0.9775 B( 47-C , 80-H ) :   0.9698
B( 47-C , 81-H ) :   0.9690 B( 48-C , 49-C ) :   1.3906 B( 48-C , 82-H ) :   0.9904
B( 49-C , 50-S ) :   1.0844 B( 49-C , 51-C ) :   1.1450 B( 51-C , 52-C ) :   1.6528
B( 51-C , 83-H ) :   0.9274 B( 52-C , 53-C ) :   1.0437 B( 52-C , 61-C ) :   0.9386
B( 53-C , 54-C ) :   1.6326 B( 53-C , 59-C ) :   1.0138 B( 54-C , 55-C ) :   1.1286
B( 54-C , 57-C ) :   1.1751 B( 55-C , 56-N ) :   2.9879 B( 57-C , 58-N ) :   2.9888
B( 59-C , 60-C ) :   1.2744 B( 59-C , 66-C ) :   1.4118 B( 60-C , 61-C ) :   0.9204
B( 60-C , 63-C ) :   1.4261 B( 61-C , 62-O ) :   2.2705 B( 63-C , 64-C ) :   1.2499
B( 63-C , 84-H ) :   1.0170 B( 64-C , 65-C ) :   1.3064 B( 64-C , 69-C ) :   1.1625
B( 65-C , 66-C ) :   1.3266 B( 65-C , 67-S ) :   1.0864 B( 66-C , 85-H ) :   0.9842
B( 67-S , 68-C ) :   1.0870 B( 68-C , 69-C ) :   1.6186 B( 68-C , 70-Br) :   1.0222
B( 69-C , 86-H ) :   1.0008

-----------------------------------------------------------------------------
         ABSORPTION SPECTRUM VIA TRANSITION ELECTRIC DIPOLE MOMENTS
-----------------------------------------------------------------------------
State   Energy  Wavelength   fosc         T2         TX        TY        TZ
        (cm-1)    (nm)                  (au**2)     (au)      (au)      (au)
-----------------------------------------------------------------------------
   0    7718.2   1295.6   0.595003304  25.37935   2.83717  -2.40431  -3.39839
   1   15878.1    629.8   0.084202664   1.74583  -1.10592   0.48989   0.53178
   2   18489.8    540.8   0.356612931   6.34950   1.69975  -0.96440  -1.59069
   3   19563.3    511.2   0.001150001   0.01935  -0.11381   0.06296  -0.04935
   4   19896.6    502.6   0.021742808   0.35976  -0.27761   0.52797   0.06276
   5   20510.7    487.6   0.132218790   2.12221  -0.40579   0.54191   1.28992
   6   20711.2    482.8   0.433411498   6.88924  -1.06816   1.10256   2.12900
   7   21421.5    466.8   0.049335177   0.75820   0.67589  -0.53590  -0.11910
   8   23376.4    427.8   0.014406610   0.20289  -0.14552  -0.40380   0.13659
   9   24135.3    414.3   0.117889715   1.60805  -0.16002   0.65965   1.07112
  10   24721.4    404.5   0.011295833   0.15043   0.24621  -0.29934  -0.01421
  11   24953.7    400.7   0.070098691   0.92480  -0.37027   0.52848   0.71303
  12   25268.0    395.8   0.051464624   0.67052   0.56257  -0.41741  -0.42404
  13   25684.9    389.3   0.008838304   0.11328  -0.25557  -0.15970   0.14988
  14   26504.6    377.3   0.151000018   1.87556  -0.51181   0.37142   1.21477
  15   26916.7    371.5   0.049913735   0.61048   0.51532  -0.58718   0.01234
  16   27288.4    366.5   0.070418463   0.84954  -0.36546   0.54615   0.64630
  17   27821.6    359.4   0.009685738   0.11461   0.31840   0.07952   0.08312
  18   28059.6    356.4   0.027954464   0.32798  -0.46532   0.10183   0.31794
  19   28612.2    349.5   0.014593946   0.16792   0.06165  -0.08965  -0.39507
  20   29711.7    336.6   0.187818294   2.08107  -0.32726   0.28504  -1.37576
  21   29940.9    334.0   0.234430715   2.57766  -0.97018   1.25772   0.23354
  22   30146.6    331.7   0.291581494   3.18418   0.61763  -1.50775  -0.72760
  23   30269.4    330.4   0.049991655   0.54371   0.17358   0.56232   0.44428
  24   30626.3    326.5   0.021005503   0.22579  -0.09557   0.44305  -0.14270
  25   30972.0    322.9   1.039440875  11.04857   1.57120  -1.10384   2.71320
  26   31611.2    316.3   0.002756246   0.02870  -0.07680   0.00337   0.15098
  27   31761.2    314.8   0.131444085   1.36245  -0.67770   0.49616  -0.81056
  28   31899.6    313.5   0.001579396   0.01630   0.02724  -0.10252  -0.07104
  29   32072.6    311.8   0.027914559   0.28653  -0.06514  -0.17569  -0.50142
  30   32424.6    308.4   0.091318568   0.92717   0.65979  -0.49479   0.49702
  31   32689.9    305.9   0.138473912   1.39454  -0.17052  -0.11348  -1.16301
  32   32882.5    304.1   0.038697172   0.38743  -0.01844  -0.51234   0.35299
  33   33471.9    298.8   0.023417237   0.23032   0.03825   0.02744   0.47760
  34   33642.0    297.2   0.026163964   0.25603   0.23849  -0.29101   0.33833
  35   33760.2    296.2   0.024799539   0.24183  -0.21999  -0.01567   0.43954
  36   34614.2    288.9   0.298511284   2.83911   0.85334  -1.45277   0.01930
  37   34757.3    287.7   0.138119509   1.30823   0.91341  -0.54851   0.41598
  38   34804.7    287.3   0.022111009   0.20914   0.21995  -0.03612   0.39933
  39   34887.3    286.6   0.013839682   0.13060   0.15469  -0.05799   0.32141
  40   35055.9    285.3   0.211827068   1.98928   0.40803  -1.28528   0.41335
  41   35404.9    282.4   0.119937054   1.11523   0.78547  -0.21196   0.67331
  42   35846.5    279.0   0.056992380   0.52341   0.22536  -0.68355  -0.07336
  43   36335.7    275.2   0.095269387   0.86317   0.70003  -0.51272  -0.33204
  44   36866.3    271.3   0.033373609   0.29802   0.30562  -0.17094   0.41880
  45   36922.4    270.8   0.055857860   0.49805  -0.58543   0.39073  -0.05147
  46   37495.0    266.7   0.018808310   0.16514   0.15038  -0.31857  -0.20257
  47   37729.2    265.0   0.066906212   0.58380  -0.25239   0.64530   0.32199
  48   37969.8    263.4   0.060542133   0.52492   0.20080  -0.37983  -0.58338
  49   37989.1    263.2   0.114023318   0.98812   0.39814  -0.74864  -0.51880
  50   38063.2    262.7   0.009481014   0.08200  -0.02510  -0.05862   0.27917
  51   38215.8    261.7   0.100382956   0.86476   0.02020  -0.40640   0.83617
  52   38329.9    260.9   0.018926675   0.16256   0.19903  -0.03841  -0.34853
  53   38624.0    258.9   0.011013935   0.09388  -0.27279   0.12219   0.06731
  54   38840.5    257.5   0.059818917   0.50702  -0.53953   0.27560  -0.37414
  55   39156.8    255.4   0.167308656   1.40665  -0.19755   0.28513   1.13417
  56   39380.5    253.9   0.096733475   0.80867   0.47781  -0.24128   0.72260
  57   39494.7    253.2   0.003481573   0.02902   0.06064   0.02707  -0.15688
  58   39690.3    252.0   0.056954950   0.47241  -0.54168   0.31639  -0.28087
  59   39902.0    250.6   0.084027179   0.69327   0.43056  -0.48374  -0.52334
  60   40235.5    248.5   0.004305498   0.03523  -0.13585   0.09961   0.08276

FINAL SINGLE POINT ENERGY     -9898.012630070596

DIPOLE MOMENT
-------------
                                X             Y             Z
Electronic contribution:    -64.65757      69.12565     -39.84043
Nuclear contribution   :     64.31922     -66.64885      44.78510
                        -----------------------------------------
Total Dipole Moment    :     -0.33835       2.47680       4.94467
                        -----------------------------------------
Magnitude (a.u.)       :      5.54065
Magnitude (Debye)      :     14.08320

Rotational constants in cm-1:     0.001506     0.000199     0.000178
Rotational constants in MHz :    45.142245     5.951679     5.338719

                             ****ORCA TERMINATED NORMALLY****
TOTAL RUN TIME: 0 days 0 hours 9 minutes 40 seconds 560 msec
