                         Program Version 4.2.0 -  RELEASE  -
|  1> # ORCA input file
|  2> # SCF done       -214.799613143109          0.000295415098
|  3> ! CAM-B3LYP def2-SVP def2/J RIJCOSX Grid4 TightSCF
|  4> %maxcore 5000
|  5> %tddft
|  6>     Mode sTDDFT
|  7>     Ethresh 5.0
|  8>     maxcore 5000
|  9> end
| 10>
| 11> %pal
| 12>   nprocs 6
| 13>   end
| 14> * xyz 0 1
| 15>    C       -9.30024        -7.64497       -10.84991
| 16>    C       -8.50451        -7.94619       -11.91912
| 17>    F       -9.00136        -7.90188       -13.16255
| 18>    C       -7.15504        -8.30610       -11.72990
| 19>    F       -6.39803        -8.59715       -12.79686
| 20>    C       -6.61966        -8.35900       -10.47358
| 21>    C       -7.41392        -8.05412        -9.35114
| 22>    C       -8.77846        -7.68988        -9.54113
| 23>    C       -9.59454        -7.37938        -8.42995
| 24>    C       -9.06135        -7.42701        -7.16811
| 25>    C       -7.69919        -7.79399        -6.98735
| 26>    C       -6.88859        -8.10456        -8.04072
| 27>    C       -7.37038        -7.78928        -5.54622
| 28>    O       -6.31946        -8.12826        -5.05130
| 29>    C       -8.62628        -7.39364        -4.85535
| 30>    C       -9.64889        -7.15893        -5.85970
| 31>    C      -10.91975        -6.69747        -5.63869
| 32>    C      -11.46495        -6.37932        -4.37654
| 33>    N      -11.98179        -6.08936        -3.39284
| 34>    C      -11.86297        -6.45725        -6.66021
| 35>    N      -12.67489        -6.24699        -7.44403
| 36>    C       -8.81963        -7.42805        -3.51048
| 37>    C       -7.81182        -7.53529        -2.49284
| 38>    C       -6.57740        -6.84601        -2.56524
| 39>    O       -6.42849        -5.96066        -3.57205
| 40>    C       -5.19604        -5.29496        -3.71618
| 41>    C       -5.64195        -7.05986        -1.56565
| 42>    C       -5.89475        -7.90735        -0.48676
| 43>    C       -7.17983        -8.48740        -0.34213
| 44>    C       -8.10340        -8.29195        -1.35226
| 45>    O       -7.43520        -9.12980         0.81529
| 46>    C       -8.60645        -9.90696         0.92197
| 47>    C       -4.85989        -8.15487         0.48121
| 48>    C       -4.60604        -9.31936         1.20628
| 49>    C       -3.49077        -9.17976         2.11292
| 50>    N       -3.12939       -10.19466         2.90272
| 51>    C       -3.79954       -11.31997         2.79884
| 52>    C       -3.37812       -12.42689         3.68787
| 53>    O       -2.50343       -12.29940         4.52221
| 54>    C       -4.08963       -13.69840         3.47375
| 55>    C       -5.07939       -13.84940         2.58756
| 56>    C       -5.58909       -12.76163         1.73041
| 57>    O       -6.55208       -12.91007         1.00757
| 58>    C       -4.86019       -11.47525         1.85172
| 59>    N       -5.23968       -10.48960         1.07486
| 60>    C       -2.88140        -7.91915         2.05496
| 61>    S       -3.69505        -6.94240         0.88607
| 62>    C       -1.78418        -7.44053         2.83451
| 63>    C       -1.29708        -6.11803         2.67336
| 64>    O       -1.91321        -5.37573         1.71881
| 65>    C       -1.47054        -4.06048         1.47454
| 66>    C       -0.27215        -5.67564         3.47860
| 67>    C        0.34983        -6.50525         4.42592
| 68>    C       -0.14077        -7.82791         4.58371
| 69>    C       -1.19158        -8.26162         3.79525
| 70>    O        0.42207        -8.58913         5.54509
| 71>    C       -0.08479        -9.89083         5.77439
| 72>    C        1.37361        -5.92024         5.23439
| 73>    C        2.39458        -6.44580         5.96371
| 74>    C        3.01846        -5.58443         7.00977
| 75>    O        2.86674        -4.39261         7.15003
| 76>    C        3.80956        -6.50318         7.85215
| 77>    C        4.47235        -6.24450         9.01678
| 78>    C        5.14028        -7.30119         9.67568
| 79>    C        5.10614        -8.60925         9.11098
| 80>    C        5.76707        -9.65994         9.77846
| 81>    C        6.43153        -9.42310        10.94900
| 82>    C        6.46566        -8.12897        11.50539
| 83>    C        5.83427        -7.08904        10.88272
| 84>    F        7.12387        -7.92582        12.65526
| 85>    F        7.05878       -10.42399        11.58158
| 86>    C        4.41961        -8.84405         7.89716
| 87>    C        3.78294        -7.80433         7.27418
| 88>    C        3.02395        -7.74355         6.02776
| 89>    C        3.07457        -8.66931         5.01904
| 90>    C        2.52271        -8.44540         3.74295
| 91>    N        2.10217        -8.28030         2.68777
| 92>    C        3.73855        -9.90781         5.12017
| 93>    N        4.24683       -10.93623         5.16410
| 94>    H      -10.33099        -7.37073       -11.01190
| 95>    H       -5.58527        -8.63730       -10.34584
| 96>    H      -10.62475        -7.11578        -8.60627
| 97>    H       -5.85904        -8.38411        -7.87600
| 98>    H       -9.83851        -7.42482        -3.14170
| 99>    H       -4.97413        -4.66844        -2.84633
|100>    H       -5.30630        -4.66388        -4.59665
|101>    H       -4.38145        -6.00553        -3.88007
|102>    H       -4.66815        -6.59923        -1.61916
|103>    H       -9.07525        -8.75588        -1.29569
|104>    H       -9.50806        -9.28686         0.88902
|105>    H       -8.54162       -10.39775         1.89115
|106>    H       -8.64466       -10.66993         0.14090
|107>    H       -3.75969       -14.52040         4.09480
|108>    H       -5.58256       -14.79935         2.46552
|109>    H       -2.09292        -3.68875         0.66252
|110>    H       -0.42152        -4.04620         1.16591
|111>    H       -1.60506        -3.42472         2.35435
|112>    H        0.10706        -4.67141         3.37505
|113>    H       -1.58022        -9.25996         3.89946
|114>    H        0.51255       -10.29460         6.59038
|115>    H        0.02576       -10.52698         4.89324
|116>    H       -1.13611        -9.86715         6.06862
|117>    H        1.29079        -4.84074         5.34378
|118>    H        4.48486        -5.24847         9.43259
|119>    H        5.75361       -10.65636         9.36515
|120>    H        5.86918        -6.10414        11.32146
|121>    H        4.40571        -9.84455         7.49496
|122> *
|123>
|124>                          ****END OF INPUT****

CARTESIAN COORDINATES (ANGSTROEM)
---------------------------------
  C     -9.300240   -7.644970  -10.849910
  C     -8.504510   -7.946190  -11.919120
  F     -9.001360   -7.901880  -13.162550
  C     -7.155040   -8.306100  -11.729900
  F     -6.398030   -8.597150  -12.796860
  C     -6.619660   -8.359000  -10.473580
  C     -7.413920   -8.054120   -9.351140
  C     -8.778460   -7.689880   -9.541130
  C     -9.594540   -7.379380   -8.429950
  C     -9.061350   -7.427010   -7.168110
  C     -7.699190   -7.793990   -6.987350
  C     -6.888590   -8.104560   -8.040720
  C     -7.370380   -7.789280   -5.546220
  O     -6.319460   -8.128260   -5.051300
  C     -8.626280   -7.393640   -4.855350
  C     -9.648890   -7.158930   -5.859700
  C    -10.919750   -6.697470   -5.638690
  C    -11.464950   -6.379320   -4.376540
  N    -11.981790   -6.089360   -3.392840
  C    -11.862970   -6.457250   -6.660210
  N    -12.674890   -6.246990   -7.444030
  C     -8.819630   -7.428050   -3.510480
  C     -7.811820   -7.535290   -2.492840
  C     -6.577400   -6.846010   -2.565240
  O     -6.428490   -5.960660   -3.572050
  C     -5.196040   -5.294960   -3.716180
  C     -5.641950   -7.059860   -1.565650
  C     -5.894750   -7.907350   -0.486760
  C     -7.179830   -8.487400   -0.342130
  C     -8.103400   -8.291950   -1.352260
  O     -7.435200   -9.129800    0.815290
  C     -8.606450   -9.906960    0.921970
  C     -4.859890   -8.154870    0.481210
  C     -4.606040   -9.319360    1.206280
  C     -3.490770   -9.179760    2.112920
  N     -3.129390  -10.194660    2.902720
  C     -3.799540  -11.319970    2.798840
  C     -3.378120  -12.426890    3.687870
  O     -2.503430  -12.299400    4.522210
  C     -4.089630  -13.698400    3.473750
  C     -5.079390  -13.849400    2.587560
  C     -5.589090  -12.761630    1.730410
  O     -6.552080  -12.910070    1.007570
  C     -4.860190  -11.475250    1.851720
  N     -5.239680  -10.489600    1.074860
  C     -2.881400   -7.919150    2.054960
  S     -3.695050   -6.942400    0.886070
  C     -1.784180   -7.440530    2.834510
  C     -1.297080   -6.118030    2.673360
  O     -1.913210   -5.375730    1.718810
  C     -1.470540   -4.060480    1.474540
  C     -0.272150   -5.675640    3.478600
  C      0.349830   -6.505250    4.425920
  C     -0.140770   -7.827910    4.583710
  C     -1.191580   -8.261620    3.795250
  O      0.422070   -8.589130    5.545090
  C     -0.084790   -9.890830    5.774390
  C      1.373610   -5.920240    5.234390
  C      2.394580   -6.445800    5.963710
  C      3.018460   -5.584430    7.009770
  O      2.866740   -4.392610    7.150030
  C      3.809560   -6.503180    7.852150
  C      4.472350   -6.244500    9.016780
  C      5.140280   -7.301190    9.675680
  C      5.106140   -8.609250    9.110980
  C      5.767070   -9.659940    9.778460
  C      6.431530   -9.423100   10.949000
  C      6.465660   -8.128970   11.505390
  C      5.834270   -7.089040   10.882720
  F      7.123870   -7.925820   12.655260
  F      7.058780  -10.423990   11.581580
  C      4.419610   -8.844050    7.897160
  C      3.782940   -7.804330    7.274180
  C      3.023950   -7.743550    6.027760
  C      3.074570   -8.669310    5.019040
  C      2.522710   -8.445400    3.742950
  N      2.102170   -8.280300    2.687770
  C      3.738550   -9.907810    5.120170
  N      4.246830  -10.936230    5.164100
  H    -10.330990   -7.370730  -11.011900
  H     -5.585270   -8.637300  -10.345840
  H    -10.624750   -7.115780   -8.606270
  H     -5.859040   -8.384110   -7.876000
  H     -9.838510   -7.424820   -3.141700
  H     -4.974130   -4.668440   -2.846330
  H     -5.306300   -4.663880   -4.596650
  H     -4.381450   -6.005530   -3.880070
  H     -4.668150   -6.599230   -1.619160
  H     -9.075250   -8.755880   -1.295690
  H     -9.508060   -9.286860    0.889020
  H     -8.541620  -10.397750    1.891150
  H     -8.644660  -10.669930    0.140900
  H     -3.759690  -14.520400    4.094800
  H     -5.582560  -14.799350    2.465520
  H     -2.092920   -3.688750    0.662520
  H     -0.421520   -4.046200    1.165910
  H     -1.605060   -3.424720    2.354350
  H      0.107060   -4.671410    3.375050
  H     -1.580220   -9.259960    3.899460
  H      0.512550  -10.294600    6.590380
  H      0.025760  -10.526980    4.893240
  H     -1.136110   -9.867150    6.068620
  H      1.290790   -4.840740    5.343780
  H      4.484860   -5.248470    9.432590
  H      5.753610  -10.656360    9.365150
  H      5.869180   -6.104140   11.321460
  H      4.405710   -9.844550    7.494960

 Total Charge           Charge          ....    0
 Multiplicity           Mult            ....    1
 Number of Electrons    NEL             ....  546
 Basis Dimension        Dim             .... 1250

ORBITAL ENERGIES
----------------

  NO   OCC          E(Eh)            E(eV)
   0   2.0000     -88.990905     -2421.5656
   1   2.0000     -24.798284      -674.7956
   2   2.0000     -24.797113      -674.7637
   3   2.0000     -24.795239      -674.7128
   4   2.0000     -24.794761      -674.6997
   5   2.0000     -19.271454      -524.4029
   6   2.0000     -19.259432      -524.0758
   7   2.0000     -19.254205      -523.9335
   8   2.0000     -19.243152      -523.6328
   9   2.0000     -19.230749      -523.2953
  10   2.0000     -19.228239      -523.2270
  11   2.0000     -19.213946      -522.8381
  12   2.0000     -19.212634      -522.8023
  13   2.0000     -14.444538      -393.0559
  14   2.0000     -14.439079      -392.9073
  15   2.0000     -14.415910      -392.2769
  16   2.0000     -14.415587      -392.2681
  17   2.0000     -14.413246      -392.2044
  18   2.0000     -14.409488      -392.1021
  19   2.0000     -10.381370      -282.4914
  20   2.0000     -10.380360      -282.4639
  21   2.0000     -10.378897      -282.4241
  22   2.0000     -10.377908      -282.3972
  23   2.0000     -10.377577      -282.3882
  24   2.0000     -10.376714      -282.3647
  25   2.0000     -10.364661      -282.0368
  26   2.0000     -10.362603      -281.9808
  27   2.0000     -10.346745      -281.5493
  28   2.0000     -10.345633      -281.5190
  29   2.0000     -10.345590      -281.5178
  30   2.0000     -10.342414      -281.4314
  31   2.0000     -10.342115      -281.4233
  32   2.0000     -10.340526      -281.3800
  33   2.0000     -10.339513      -281.3525
  34   2.0000     -10.337253      -281.2910
  35   2.0000     -10.336485      -281.2701
  36   2.0000     -10.334692      -281.2213
  37   2.0000     -10.331865      -281.1443
  38   2.0000     -10.329815      -281.0885
  39   2.0000     -10.328002      -281.0392
  40   2.0000     -10.325215      -280.9634
  41   2.0000     -10.324368      -280.9403
  42   2.0000     -10.321597      -280.8649
  43   2.0000     -10.318742      -280.7872
  44   2.0000     -10.318701      -280.7861
  45   2.0000     -10.318497      -280.7806
  46   2.0000     -10.317674      -280.7582
  47   2.0000     -10.315884      -280.7095
  48   2.0000     -10.315444      -280.6975
  49   2.0000     -10.311356      -280.5863
  50   2.0000     -10.310654      -280.5672
  51   2.0000     -10.310633      -280.5666
  52   2.0000     -10.310120      -280.5526
  53   2.0000     -10.309993      -280.5492
  54   2.0000     -10.309687      -280.5408
  55   2.0000     -10.306912      -280.4653
  56   2.0000     -10.306324      -280.4493
  57   2.0000     -10.306266      -280.4478
  58   2.0000     -10.306029      -280.4413
  59   2.0000     -10.303145      -280.3628
  60   2.0000     -10.303002      -280.3589
  61   2.0000     -10.301759      -280.3251
  62   2.0000     -10.301138      -280.3082
  63   2.0000     -10.300897      -280.3016
  64   2.0000     -10.300144      -280.2812
  65   2.0000     -10.299164      -280.2545
  66   2.0000     -10.298008      -280.2230
  67   2.0000     -10.297115      -280.1987
  68   2.0000     -10.296942      -280.1940
  69   2.0000     -10.296267      -280.1757
  70   2.0000     -10.296266      -280.1756
  71   2.0000     -10.293031      -280.0876
  72   2.0000     -10.291759      -280.0530
  73   2.0000     -10.291577      -280.0481
  74   2.0000     -10.289239      -279.9844
  75   2.0000     -10.288366      -279.9607
  76   2.0000     -10.284546      -279.8567
  77   2.0000     -10.284132      -279.8454
  78   2.0000     -10.272556      -279.5305
  79   2.0000      -8.083849      -219.9727
  80   2.0000      -6.052718      -164.7028
  81   2.0000      -6.048328      -164.5834
  82   2.0000      -6.047334      -164.5563
  83   2.0000      -1.320523       -35.9333
  84   2.0000      -1.317778       -35.8586
  85   2.0000      -1.305649       -35.5285
  86   2.0000      -1.302974       -35.4557
  87   2.0000      -1.175861       -31.9968
  88   2.0000      -1.164015       -31.6745
  89   2.0000      -1.162535       -31.6342
  90   2.0000      -1.152756       -31.3681
  91   2.0000      -1.145095       -31.1596
  92   2.0000      -1.140786       -31.0424
  93   2.0000      -1.127973       -30.6937
  94   2.0000      -1.127679       -30.6857
  95   2.0000      -1.094021       -29.7698
  96   2.0000      -1.020258       -27.7626
  97   2.0000      -1.019161       -27.7328
  98   2.0000      -1.014270       -27.5997
  99   2.0000      -1.003779       -27.3142
 100   2.0000      -1.001221       -27.2446
 101   2.0000      -0.999878       -27.2081
 102   2.0000      -0.994326       -27.0570
 103   2.0000      -0.990466       -26.9519
 104   2.0000      -0.980809       -26.6892
 105   2.0000      -0.976491       -26.5717
 106   2.0000      -0.968009       -26.3409
 107   2.0000      -0.961181       -26.1551
 108   2.0000      -0.939543       -25.5663
 109   2.0000      -0.931494       -25.3472
 110   2.0000      -0.927287       -25.2328
 111   2.0000      -0.914409       -24.8823
 112   2.0000      -0.904468       -24.6118
 113   2.0000      -0.894679       -24.3454
 114   2.0000      -0.891634       -24.2626
 115   2.0000      -0.888079       -24.1659
 116   2.0000      -0.884427       -24.0665
 117   2.0000      -0.870252       -23.6808
 118   2.0000      -0.862291       -23.4641
 119   2.0000      -0.857084       -23.3224
 120   2.0000      -0.853032       -23.2122
 121   2.0000      -0.846480       -23.0339
 122   2.0000      -0.839732       -22.8503
 123   2.0000      -0.836546       -22.7636
 124   2.0000      -0.827038       -22.5048
 125   2.0000      -0.819318       -22.2948
 126   2.0000      -0.812251       -22.1025
 127   2.0000      -0.799330       -21.7509
 128   2.0000      -0.798654       -21.7325
 129   2.0000      -0.787835       -21.4381
 130   2.0000      -0.784073       -21.3357
 131   2.0000      -0.770449       -20.9650
 132   2.0000      -0.766039       -20.8450
 133   2.0000      -0.762659       -20.7530
 134   2.0000      -0.760498       -20.6942
 135   2.0000      -0.748361       -20.3640
 136   2.0000      -0.747659       -20.3448
 137   2.0000      -0.728980       -19.8366
 138   2.0000      -0.725592       -19.7443
 139   2.0000      -0.713743       -19.4219
 140   2.0000      -0.713256       -19.4087
 141   2.0000      -0.703574       -19.1452
 142   2.0000      -0.700436       -19.0598
 143   2.0000      -0.697583       -18.9822
 144   2.0000      -0.685686       -18.6585
 145   2.0000      -0.682277       -18.5657
 146   2.0000      -0.678455       -18.4617
 147   2.0000      -0.674961       -18.3666
 148   2.0000      -0.671826       -18.2813
 149   2.0000      -0.667439       -18.1619
 150   2.0000      -0.657132       -17.8815
 151   2.0000      -0.653621       -17.7859
 152   2.0000      -0.650753       -17.7079
 153   2.0000      -0.645977       -17.5779
 154   2.0000      -0.644920       -17.5492
 155   2.0000      -0.640702       -17.4344
 156   2.0000      -0.639200       -17.3935
 157   2.0000      -0.635428       -17.2909
 158   2.0000      -0.620746       -16.8914
 159   2.0000      -0.614752       -16.7283
 160   2.0000      -0.612061       -16.6550
 161   2.0000      -0.610406       -16.6100
 162   2.0000      -0.608712       -16.5639
 163   2.0000      -0.604566       -16.4511
 164   2.0000      -0.604075       -16.4377
 165   2.0000      -0.602290       -16.3891
 166   2.0000      -0.594878       -16.1875
 167   2.0000      -0.586287       -15.9537
 168   2.0000      -0.585159       -15.9230
 169   2.0000      -0.582346       -15.8464
 170   2.0000      -0.580477       -15.7956
 171   2.0000      -0.577120       -15.7042
 172   2.0000      -0.575516       -15.6606
 173   2.0000      -0.573853       -15.6153
 174   2.0000      -0.566680       -15.4202
 175   2.0000      -0.565438       -15.3863
 176   2.0000      -0.565076       -15.3765
 177   2.0000      -0.562932       -15.3182
 178   2.0000      -0.562283       -15.3005
 179   2.0000      -0.559769       -15.2321
 180   2.0000      -0.553593       -15.0640
 181   2.0000      -0.553122       -15.0512
 182   2.0000      -0.552525       -15.0350
 183   2.0000      -0.550636       -14.9836
 184   2.0000      -0.546854       -14.8807
 185   2.0000      -0.545900       -14.8547
 186   2.0000      -0.544100       -14.8057
 187   2.0000      -0.543699       -14.7948
 188   2.0000      -0.540158       -14.6984
 189   2.0000      -0.537754       -14.6330
 190   2.0000      -0.533616       -14.5204
 191   2.0000      -0.532282       -14.4841
 192   2.0000      -0.529917       -14.4198
 193   2.0000      -0.528619       -14.3844
 194   2.0000      -0.528229       -14.3738
 195   2.0000      -0.526274       -14.3206
 196   2.0000      -0.524257       -14.2658
 197   2.0000      -0.522586       -14.2203
 198   2.0000      -0.517669       -14.0865
 199   2.0000      -0.515695       -14.0328
 200   2.0000      -0.515058       -14.0155
 201   2.0000      -0.513271       -13.9668
 202   2.0000      -0.510049       -13.8791
 203   2.0000      -0.508618       -13.8402
 204   2.0000      -0.504725       -13.7343
 205   2.0000      -0.503621       -13.7042
 206   2.0000      -0.501661       -13.6509
 207   2.0000      -0.498626       -13.5683
 208   2.0000      -0.497512       -13.5380
 209   2.0000      -0.496647       -13.5144
 210   2.0000      -0.494406       -13.4535
 211   2.0000      -0.492018       -13.3885
 212   2.0000      -0.490934       -13.3590
 213   2.0000      -0.488390       -13.2898
 214   2.0000      -0.487066       -13.2537
 215   2.0000      -0.483615       -13.1598
 216   2.0000      -0.482829       -13.1384
 217   2.0000      -0.478966       -13.0333
 218   2.0000      -0.477233       -12.9862
 219   2.0000      -0.468650       -12.7526
 220   2.0000      -0.466539       -12.6952
 221   2.0000      -0.464027       -12.6268
 222   2.0000      -0.461957       -12.5705
 223   2.0000      -0.461623       -12.5614
 224   2.0000      -0.458016       -12.4633
 225   2.0000      -0.456544       -12.4232
 226   2.0000      -0.452839       -12.3224
 227   2.0000      -0.449448       -12.2301
 228   2.0000      -0.446905       -12.1609
 229   2.0000      -0.445973       -12.1355
 230   2.0000      -0.444398       -12.0927
 231   2.0000      -0.442268       -12.0347
 232   2.0000      -0.441965       -12.0265
 233   2.0000      -0.438863       -11.9421
 234   2.0000      -0.435993       -11.8640
 235   2.0000      -0.432029       -11.7561
 236   2.0000      -0.429059       -11.6753
 237   2.0000      -0.427580       -11.6351
 238   2.0000      -0.426345       -11.6014
 239   2.0000      -0.423550       -11.5254
 240   2.0000      -0.423475       -11.5234
 241   2.0000      -0.418082       -11.3766
 242   2.0000      -0.415987       -11.3196
 243   2.0000      -0.414949       -11.2913
 244   2.0000      -0.410568       -11.1721
 245   2.0000      -0.409174       -11.1342
 246   2.0000      -0.407465       -11.0877
 247   2.0000      -0.404535       -11.0080
 248   2.0000      -0.399579       -10.8731
 249   2.0000      -0.395688       -10.7672
 250   2.0000      -0.393776       -10.7152
 251   2.0000      -0.386817       -10.5258
 252   2.0000      -0.384458       -10.4616
 253   2.0000      -0.381389       -10.3781
 254   2.0000      -0.375840       -10.2271
 255   2.0000      -0.372211       -10.1284
 256   2.0000      -0.365312        -9.9406
 257   2.0000      -0.362699        -9.8695
 258   2.0000      -0.355918        -9.6850
 259   2.0000      -0.348525        -9.4838
 260   2.0000      -0.339805        -9.2466
 261   2.0000      -0.336505        -9.1568
 262   2.0000      -0.335606        -9.1323
 263   2.0000      -0.328235        -8.9317
 264   2.0000      -0.322912        -8.7869
 265   2.0000      -0.317775        -8.6471
 266   2.0000      -0.314233        -8.5507
 267   2.0000      -0.310065        -8.4373
 268   2.0000      -0.300112        -8.1665
 269   2.0000      -0.297845        -8.1048
 270   2.0000      -0.289423        -7.8756
 271   2.0000      -0.276626        -7.5274
 272   2.0000      -0.249392        -6.7863
 273   0.0000      -0.102549        -2.7905
 274   0.0000      -0.093387        -2.5412
 275   0.0000      -0.082172        -2.2360
 276   0.0000      -0.074442        -2.0257
 277   0.0000      -0.056183        -1.5288

MULLIKEN ATOMIC CHARGES
-----------------------
   0 C :   -0.107792
   1 C :    0.241017
   2 F :   -0.172088
   3 C :    0.237512
   4 F :   -0.171903
   5 C :   -0.103639
   6 C :    0.116486
   7 C :    0.113099
   8 C :   -0.083646
   9 C :    0.048875
  10 C :   -0.008705
  11 C :   -0.083373
  12 C :    0.149986
  13 O :   -0.141038
  14 C :   -0.057770
  15 C :    0.309933
  16 C :   -0.346094
  17 C :   -0.198108
  18 N :    0.156390
  19 C :   -0.183580
  20 N :    0.147061
  21 C :   -0.044802
  22 C :    0.063202
  23 C :    0.263743
  24 O :   -0.302091
  25 C :    0.178978
  26 C :   -0.161772
  27 C :    0.072557
  28 C :    0.232946
  29 C :   -0.151002
  30 O :   -0.299890
  31 C :    0.183366
  32 C :   -0.170429
  33 C :    0.056056
  34 C :    0.040542
  35 N :    0.047377
  36 C :   -0.105162
  37 C :    0.147182
  38 O :   -0.123613
  39 C :   -0.017805
  40 C :   -0.010878
  41 C :    0.138833
  42 O :   -0.112707
  43 C :   -0.135948
  44 N :    0.087449
  45 C :   -0.152177
  46 S :    0.230658
  47 C :    0.099648
  48 C :    0.226024
  49 O :   -0.344591
  50 C :    0.178480
  51 C :   -0.151894
  52 C :    0.073977
  53 C :    0.242690
  54 C :   -0.172502
  55 O :   -0.312701
  56 C :    0.181164
  57 C :   -0.003717
  58 C :   -0.109822
  59 C :    0.132133
  60 O :   -0.146564
  61 C :    0.016271
  62 C :   -0.085710
  63 C :    0.112501
  64 C :    0.116052
  65 C :   -0.110872
  66 C :    0.243088
  67 C :    0.237340
  68 C :   -0.105432
  69 F :   -0.173764
  70 F :   -0.172654
  71 C :   -0.093204
  72 C :    0.045006
  73 C :    0.315098
  74 C :   -0.331047
  75 C :   -0.209787
  76 N :    0.169478
  77 C :   -0.187505
  78 N :    0.147860
  79 H :    0.007852
  80 H :   -0.002534
  81 H :   -0.007175
  82 H :   -0.013856
  83 H :    0.032532
  84 H :    0.020286
  85 H :    0.038802
  86 H :    0.034864
  87 H :   -0.033303
  88 H :   -0.028206
  89 H :    0.021425
  90 H :    0.032024
  91 H :    0.036277
  92 H :    0.016648
  93 H :    0.017318
  94 H :    0.038431
  95 H :    0.038237
  96 H :    0.034531
  97 H :   -0.032982
  98 H :   -0.016126
  99 H :    0.034820
 100 H :    0.047831
 101 H :    0.039763
 102 H :    0.018355
 103 H :   -0.011729
 104 H :    0.004192
 105 H :   -0.002239
 106 H :   -0.008319
Sum of atomic charges:   -0.0000000

LOEWDIN ATOMIC CHARGES
----------------------
   0 C :   -0.029188
   1 C :    0.065758
   2 F :   -0.049655
   3 C :    0.067381
   4 F :   -0.050015
   5 C :   -0.034148
   6 C :   -0.008459
   7 C :   -0.007482
   8 C :    0.017354
   9 C :   -0.023898
  10 C :   -0.050161
  11 C :    0.026392
  12 C :    0.081893
  13 O :   -0.135487
  14 C :   -0.086696
  15 C :    0.076334
  16 C :   -0.138380
  17 C :   -0.022713
  18 N :   -0.051225
  19 C :   -0.017112
  20 N :   -0.054574
  21 C :    0.086274
  22 C :   -0.047834
  23 C :    0.070576
  24 O :   -0.082466
  25 C :    0.078446
  26 C :   -0.063270
  27 C :   -0.035397
  28 C :    0.052641
  29 C :   -0.036896
  30 O :   -0.086863
  31 C :    0.080294
  32 C :   -0.172022
  33 C :   -0.042442
  34 C :   -0.039193
  35 N :    0.005181
  36 C :   -0.045807
  37 C :    0.060370
  38 O :   -0.116213
  39 C :   -0.014235
  40 C :   -0.010265
  41 C :    0.058717
  42 O :   -0.106379
  43 C :   -0.052398
  44 N :    0.019612
  45 C :   -0.170253
  46 S :    0.562821
  47 C :   -0.031502
  48 C :    0.043961
  49 O :   -0.110459
  50 C :    0.081806
  51 C :   -0.041434
  52 C :   -0.047555
  53 C :    0.065392
  54 C :   -0.041876
  55 O :   -0.075942
  56 C :    0.083250
  57 C :    0.070270
  58 C :   -0.087481
  59 C :    0.084949
  60 O :   -0.145068
  61 C :   -0.054467
  62 C :    0.029509
  63 C :   -0.011435
  64 C :   -0.005476
  65 C :   -0.031841
  66 C :    0.066140
  67 C :    0.064791
  68 C :   -0.033299
  69 F :   -0.051404
  70 F :   -0.050337
  71 C :    0.008204
  72 C :   -0.016104
  73 C :    0.068321
  74 C :   -0.132862
  75 C :   -0.017811
  76 N :   -0.052051
  77 C :   -0.019518
  78 N :   -0.058082
  79 H :    0.047696
  80 H :    0.044190
  81 H :    0.039577
  82 H :    0.038750
  83 H :    0.045893
  84 H :    0.013931
  85 H :    0.030305
  86 H :    0.020453
  87 H :    0.022182
  88 H :    0.033988
  89 H :    0.012945
  90 H :    0.028471
  91 H :    0.021984
  92 H :    0.045163
  93 H :    0.045273
  94 H :    0.030043
  95 H :    0.022434
  96 H :    0.020407
  97 H :    0.032528
  98 H :    0.032123
  99 H :    0.028909
 100 H :    0.025971
 101 H :    0.024098
 102 H :    0.044628
 103 H :    0.039643
 104 H :    0.046519
 105 H :    0.044151
 106 H :    0.038239

  Mayer bond orders larger than 0.100000
B(  0-C ,  1-C ) :   1.4425 B(  0-C ,  5-C ) :   0.1090 B(  0-C ,  7-C ) :   1.1874
B(  0-C , 79-H ) :   1.0062 B(  1-C ,  2-F ) :   1.1336 B(  1-C ,  3-C ) :   1.1909
B(  3-C ,  4-F ) :   1.1335 B(  3-C ,  5-C ) :   1.4447 B(  5-C ,  6-C ) :   1.1921
B(  5-C , 80-H ) :   1.0062 B(  6-C ,  7-C ) :   1.2552 B(  6-C , 11-C ) :   1.1889
B(  7-C ,  8-C ) :   1.2193 B(  8-C ,  9-C ) :   1.4476 B(  8-C , 81-H ) :   0.9888
B(  9-C , 10-C ) :   1.2192 B(  9-C , 15-C ) :   0.9874 B( 10-C , 11-C ) :   1.4757
B( 10-C , 12-C ) :   0.9378 B( 11-C , 82-H ) :   1.0153 B( 12-C , 13-O ) :   2.2326
B( 12-C , 14-C ) :   0.9361 B( 14-C , 15-C ) :   1.0662 B( 14-C , 21-C ) :   1.6381
B( 15-C , 16-C ) :   1.6390 B( 16-C , 17-C ) :   1.1411 B( 16-C , 19-C ) :   1.1450
B( 17-C , 18-N ) :   2.9811 B( 19-C , 20-N ) :   2.9632 B( 21-C , 22-C ) :   1.0869
B( 21-C , 83-H ) :   0.9442 B( 22-C , 23-C ) :   1.3298 B( 22-C , 29-C ) :   1.2810
B( 23-C , 24-O ) :   1.1773 B( 23-C , 26-C ) :   1.2957 B( 24-O , 25-C ) :   0.9553
B( 25-C , 84-H ) :   0.9678 B( 25-C , 85-H ) :   0.9782 B( 25-C , 86-H ) :   0.9685
B( 26-C , 27-C ) :   1.3174 B( 26-C , 87-H ) :   0.9898 B( 27-C , 28-C ) :   1.3383
B( 27-C , 32-C ) :   1.0380 B( 28-C , 29-C ) :   1.3004 B( 28-C , 30-O ) :   1.1852
B( 29-C , 88-H ) :   1.0024 B( 30-O , 31-C ) :   0.9503 B( 31-C , 89-H ) :   0.9673
B( 31-C , 90-H ) :   0.9783 B( 31-C , 91-H ) :   0.9683 B( 32-C , 33-C ) :   1.3565
B( 32-C , 45-C ) :   0.1361 B( 32-C , 46-S ) :   1.1726 B( 33-C , 34-C ) :   1.1787
B( 33-C , 44-N ) :   1.4340 B( 34-C , 35-N ) :   1.4214 B( 34-C , 45-C ) :   1.3239
B( 35-N , 36-C ) :   1.7126 B( 36-C , 37-C ) :   0.9023 B( 36-C , 43-C ) :   1.0907
B( 37-C , 38-O ) :   2.2033 B( 37-C , 39-C ) :   1.0316 B( 39-C , 40-C ) :   1.6850
B( 39-C , 92-H ) :   0.9983 B( 40-C , 41-C ) :   1.0197 B( 40-C , 93-H ) :   0.9974
B( 41-C , 42-O ) :   2.2334 B( 41-C , 43-C ) :   0.8952 B( 43-C , 44-N ) :   1.7122
B( 45-C , 46-S ) :   1.1874 B( 45-C , 47-C ) :   1.1362 B( 47-C , 48-C ) :   1.2609
B( 47-C , 54-C ) :   1.3426 B( 48-C , 49-O ) :   1.1129 B( 48-C , 51-C ) :   1.3328
B( 49-O , 50-C ) :   0.9448 B( 50-C , 94-H ) :   0.9772 B( 50-C , 95-H ) :   0.9713
B( 50-C , 96-H ) :   0.9708 B( 51-C , 52-C ) :   1.2639 B( 51-C , 97-H ) :   1.0025
B( 52-C , 53-C ) :   1.2950 B( 52-C , 57-C ) :   1.1075 B( 53-C , 54-C ) :   1.2707
B( 53-C , 55-O ) :   1.1777 B( 54-C , 98-H ) :   0.9668 B( 55-O , 56-C ) :   0.9261
B( 56-C , 99-H ) :   0.9739 B( 56-C ,100-H ) :   0.9692 B( 56-C ,101-H ) :   0.9712
B( 57-C , 58-C ) :   1.6435 B( 57-C ,102-H ) :   0.9337 B( 58-C , 59-C ) :   0.9414
B( 58-C , 73-C ) :   1.0441 B( 59-C , 60-O ) :   2.2547 B( 59-C , 61-C ) :   0.9209
B( 61-C , 62-C ) :   1.4729 B( 61-C , 72-C ) :   1.2190 B( 62-C , 63-C ) :   1.1903
B( 62-C ,103-H ) :   1.0167 B( 63-C , 64-C ) :   1.2607 B( 63-C , 68-C ) :   1.1923
B( 64-C , 65-C ) :   1.1888 B( 64-C , 71-C ) :   1.2099 B( 65-C , 66-C ) :   1.4394
B( 65-C , 68-C ) :   0.1094 B( 65-C ,104-H ) :   1.0076 B( 66-C , 67-C ) :   1.1938
B( 66-C , 70-F ) :   1.1330 B( 67-C , 68-C ) :   1.4415 B( 67-C , 69-F ) :   1.1313
B( 68-C ,105-H ) :   1.0073 B( 71-C , 72-C ) :   1.4561 B( 71-C ,106-H ) :   0.9943
B( 72-C , 73-C ) :   0.9955 B( 73-C , 74-C ) :   1.6447 B( 74-C , 75-C ) :   1.1691
B( 74-C , 77-C ) :   1.1421 B( 75-C , 76-N ) :   3.0023 B( 77-C , 78-N ) :   2.9762

-----------------------------------------------------------------------------
         ABSORPTION SPECTRUM VIA TRANSITION ELECTRIC DIPOLE MOMENTS
-----------------------------------------------------------------------------
State   Energy  Wavelength   fosc         T2         TX        TY        TZ
        (cm-1)    (nm)                  (au**2)     (au)      (au)      (au)
-----------------------------------------------------------------------------
   0   15270.3    654.9   1.011269962  21.80198  -3.47435  -0.34967  -3.09978
   1   18049.1    554.0   0.126271380   2.30317   0.52072   1.30119  -0.58217
   2   20583.2    485.8   0.220206668   3.52204   1.20099   0.11215   1.43774
   3   20881.8    478.9   0.247465942   3.90142   1.58165  -0.04090   1.18243
   4   22636.4    441.8   0.038930274   0.56618   0.72112  -0.19779   0.08394
   5   23826.4    419.7   0.179510199   2.48031  -0.88394   0.84935  -0.98872
   6   24567.4    407.0   0.011965523   0.16034  -0.29521  -0.21888   0.15902
   7   25160.2    397.5   0.004342212   0.05682  -0.12278  -0.09069  -0.18307
   8   25768.8    388.1   0.009235983   0.11800   0.25163   0.21776  -0.08518
   9   26277.6    380.6   0.012213804   0.15302   0.09324  -0.14670  -0.35043
  10   26581.8    376.2   0.011233210   0.13912   0.01452  -0.00453  -0.37268
  11   27050.5    369.7   0.027748385   0.33771  -0.31253   0.21281  -0.44130
  12   27229.3    367.3   0.035250772   0.42620   0.11277   0.44096  -0.46801
  13   27845.2    359.1   0.025487439   0.30134  -0.24701   0.18682   0.45323
  14   28280.7    353.6   0.037337866   0.43464  -0.43084   0.21116   0.45214
  15   28537.1    350.4   0.076467092   0.88215   0.02239   0.45044   0.82386
  16   29015.7    344.6   0.036867964   0.41830  -0.35611  -0.53642   0.06116
  17   29052.5    344.2   0.087200944   0.98813   0.41760   0.07791   0.89871
  18   29725.4    336.4   0.091455738   1.01288  -0.68091  -0.01573  -0.74094
  19   29767.2    335.9   0.027577181   0.30499  -0.31411   0.21284   0.40128
  20   30197.5    331.2   0.008359293   0.09113   0.29208   0.05954   0.04773
  21   30348.4    329.5   0.015456165   0.16766   0.24540   0.13318  -0.29951
  22   30567.1    327.1   0.102026614   1.09884  -0.49533   0.06373   0.92164
  23   31927.9    313.2   0.267748364   2.76078   0.85603  -0.57673   1.30206
  24   32081.9    311.7   0.167159169   1.71532   0.52600   0.52776   1.07709
  25   32973.7    303.3   0.032011744   0.31961   0.21945   0.28218  -0.43798
  26   33331.5    300.0   0.094642395   0.93477  -0.14777   0.06943  -0.95295
  27   33474.9    298.7   0.658561751   6.47669   1.34776   0.35764   2.12893
  28   33706.1    296.7   0.028902070   0.28229  -0.14883   0.28901   0.42025
  29   33842.8    295.5   0.285325688   2.77556   1.00083   0.34475   1.28648
  30   34296.6    291.6   0.113505312   1.08954   0.01031  -0.72627   0.74964
  31   34419.3    290.5   0.053504943   0.51176   0.57338  -0.32803  -0.27458
  32   34608.1    288.9   0.386346292   3.67515   1.33450  -0.49255  -1.28517
  33   34670.8    288.4   0.135956068   1.29095   0.96871  -0.37701  -0.45872
  34   34914.7    286.4   0.186575521   1.75923  -0.01360   0.13691   1.31920
  35   34962.3    286.0   0.084260524   0.79341   0.51786   0.07288  -0.72106
  36   35052.3    285.3   0.093561874   0.87873  -0.46847   0.18533   0.79052
  37   35294.7    283.3   0.158251948   1.47610   0.02488  -1.02154  -0.65721
  38   35613.8    280.8   0.110914008   1.02528  -0.32601  -0.67334   0.68236
  39   35715.1    280.0   0.112166937   1.03392  -0.21858   0.89908  -0.42166
  40   36088.0    277.1   0.161115038   1.46977  -0.12549   1.12228  -0.44104
  41   36474.4    274.2   0.012102196   0.10923  -0.04644   0.22317  -0.23931
  42   37242.3    268.5   0.034049573   0.30099  -0.18096   0.18998   0.48182
  43   37365.0    267.6   0.045826555   0.40376   0.26672   0.08562   0.57035
  44   37545.2    266.3   0.011494217   0.10079   0.20682  -0.19433   0.14230
  45   37776.5    264.7   0.019392050   0.16900   0.14815   0.22199   0.31268
  46   37995.6    263.2   0.058391621   0.50593   0.67923  -0.00371  -0.21112
  47   38195.9    261.8   0.225522416   1.94378   0.56520   0.39439   1.21193
  48   38414.6    260.3   0.073451028   0.62947  -0.79211   0.03463   0.02904
  49   38596.0    259.1   0.106545352   0.90880   0.61273  -0.65030  -0.33237
  50   38916.2    257.0   0.006699751   0.05668  -0.19233   0.04006  -0.13447
  51   39103.8    255.7   0.012695912   0.10689   0.22906  -0.16146  -0.16838
  52   39192.9    255.1   0.034822503   0.29250  -0.14489   0.43449   0.28762
  53   39637.4    252.3   0.005225100   0.04340  -0.11096   0.08220  -0.15598
  54   39701.5    251.9   0.050501333   0.41877  -0.21963  -0.09841  -0.60070
  55   39885.5    250.7   0.009682613   0.07992  -0.13118  -0.07759  -0.23810
  56   40084.7    249.5   0.012416981   0.10198   0.12376  -0.07611   0.28438
  57   40181.8    248.9   0.102411658   0.83907  -0.57543   0.07120  -0.70914

FINAL SINGLE POINT ENERGY     -4026.428099622482

DIPOLE MOMENT
-------------
                                X             Y             Z
Electronic contribution:     16.33341      -8.62185     -10.43252
Nuclear contribution   :    -15.80183       9.14336      11.14255
                        -----------------------------------------
Total Dipole Moment    :      0.53158       0.52151       0.71003
                        -----------------------------------------
Magnitude (a.u.)       :      1.02893
Magnitude (Debye)      :      2.61534

Rotational constants in cm-1:     0.001826     0.000223     0.000216
Rotational constants in MHz :    54.730705     6.673556     6.485505

                             ****ORCA TERMINATED NORMALLY****
TOTAL RUN TIME: 0 days 0 hours 11 minutes 26 seconds 390 msec
