                         Program Version 4.2.0 -  RELEASE  -
|  1> # ORCA input file
|  2> # SCF done       -176.975669411921          0.000890548794
|  3> ! CAM-B3LYP def2-SVP def2/J RIJCOSX Grid4 TightSCF
|  4> %maxcore 5000
|  5> %tddft
|  6>     Mode sTDDFT
|  7>     Ethresh 5.0
|  8>     maxcore 5000
|  9> end
| 10>
| 11> %pal
| 12>   nprocs 6
| 13>   end
| 14> * xyz 0 1
| 15>    C       -2.09113        -1.75782        -4.06061
| 16>    O       -2.08486        -2.95251        -4.28227
| 17>    C       -1.84765        -0.68627        -5.04689
| 18>    C       -1.93296         0.56429        -4.40994
| 19>    C       -1.74120         1.72036        -5.14834
| 20>    C       -1.46775         1.60622        -6.50704
| 21>    C       -1.38403         0.35842        -7.12892
| 22>    C       -1.57543        -0.80430        -6.39358
| 23>   Br       -1.00853         0.23322        -8.97634
| 24>   Br       -1.20821         3.18542        -7.51288
| 25>    C       -2.22955         0.35449        -2.99287
| 26>    C       -2.36160         1.35069        -2.06166
| 27>    C       -2.23707         2.72661        -2.35409
| 28>    N       -2.14845         3.85761        -2.52671
| 29>    C       -2.63192         1.16990        -0.68816
| 30>    N       -2.84494         1.11381         0.43900
| 31>    C       -2.33984        -1.07754        -2.78229
| 32>    C       -2.64169        -1.68990        -1.59281
| 33>    C       -2.77598        -3.04942        -1.27033
| 34>    C       -3.10707        -3.45528         0.02822
| 35>    C       -3.18693        -4.82768         0.14456
| 36>    C       -2.91587        -5.50541        -1.06286
| 37>    S       -2.56446        -4.41743        -2.35460
| 38>    C       -2.98828        -6.88819        -0.94981
| 39>    C       -3.31437        -7.29392         0.33587
| 40>    S       -3.54165        -5.93426         1.42715
| 41>    C       -3.46821        -8.61835         0.83903
| 42>    C       -3.27795        -9.80157         0.08168
| 43>    C       -3.43117       -11.11646         0.64984
| 44>    N       -3.22156       -12.19543        -0.13531
| 45>    C       -2.89504       -12.04221        -1.37500
| 46>    C       -2.74969       -10.74776        -1.93592
| 47>    N       -2.93580        -9.68961        -1.21992
| 48>    F       -2.41605       -10.57927        -3.21141
| 49>    F       -2.69725       -13.13828        -2.10078
| 50>    C       -3.79145       -11.32219         2.00482
| 51>    C       -3.98854       -10.14179         2.75252
| 52>    C       -3.82906        -8.82909         2.18749
| 53>    N       -4.06434        -7.87618         3.09106
| 54>    S       -4.44488        -8.54994         4.49296
| 55>    N       -4.33231       -10.08307         4.04031
| 56>    C       -3.95342       -12.59656         2.62202
| 57>    C       -3.79456       -13.85560         2.06199
| 58>    C       -4.03928       -14.86349         2.98362
| 59>    C       -4.38486       -14.40014         4.26594
| 60>    S       -4.41049       -12.67403         4.31624
| 61>    C       -4.60269       -15.41629         5.18726
| 62>    C       -4.46962       -16.67499         4.62132
| 63>    S       -4.01028       -16.58558         2.92355
| 64>    C       -4.56351       -17.89823         5.32249
| 65>    C       -4.69360       -19.16325         4.83597
| 66>    C       -4.27605       -20.32132         5.67099
| 67>    O       -4.04877       -20.32318         6.85673
| 68>    C       -4.13818       -21.44398         4.71495
| 69>    C       -4.57740       -21.03612         3.44118
| 70>    C       -5.08044       -19.66776         3.53523
| 71>    C       -5.99221       -19.09738         2.68869
| 72>    C       -6.68264       -17.90566         2.99852
| 73>    N       -7.29979       -16.97286         3.25391
| 74>    C       -6.41518       -19.69026         1.48136
| 75>    N       -6.77236       -20.13616         0.48679
| 76>    C       -4.50905       -21.91169         2.37196
| 77>    C       -4.00539       -23.18892         2.59230
| 78>    C       -3.58603       -23.59269         3.86227
| 79>    C       -3.65029       -22.71497         4.93728
| 80>   Br       -2.91823       -25.33907         4.13597
| 81>   Br       -3.89056       -24.38273         1.13215
| 82>    H       -1.79825         2.70184        -4.70673
| 83>    H       -1.51390        -1.77497        -6.86064
| 84>    H       -2.81326        -1.03969        -0.74345
| 85>    H       -3.27444        -2.75735         0.82850
| 86>    H       -2.81498        -7.57948        -1.75102
| 87>    H       -3.51962       -14.00801         1.03688
| 88>    H       -4.87423       -15.26473         6.21574
| 89>    H       -4.42254       -17.83009         6.39730
| 90>    H       -4.82140       -21.62757         1.37970
| 91>    H       -3.32681       -23.01813         5.92094
| 92> *
| 93>
| 94>                          ****END OF INPUT****

CARTESIAN COORDINATES (ANGSTROEM)
---------------------------------
  C     -2.091130   -1.757820   -4.060610
  O     -2.084860   -2.952510   -4.282270
  C     -1.847650   -0.686270   -5.046890
  C     -1.932960    0.564290   -4.409940
  C     -1.741200    1.720360   -5.148340
  C     -1.467750    1.606220   -6.507040
  C     -1.384030    0.358420   -7.128920
  C     -1.575430   -0.804300   -6.393580
  Br    -1.008530    0.233220   -8.976340
  Br    -1.208210    3.185420   -7.512880
  C     -2.229550    0.354490   -2.992870
  C     -2.361600    1.350690   -2.061660
  C     -2.237070    2.726610   -2.354090
  N     -2.148450    3.857610   -2.526710
  C     -2.631920    1.169900   -0.688160
  N     -2.844940    1.113810    0.439000
  C     -2.339840   -1.077540   -2.782290
  C     -2.641690   -1.689900   -1.592810
  C     -2.775980   -3.049420   -1.270330
  C     -3.107070   -3.455280    0.028220
  C     -3.186930   -4.827680    0.144560
  C     -2.915870   -5.505410   -1.062860
  S     -2.564460   -4.417430   -2.354600
  C     -2.988280   -6.888190   -0.949810
  C     -3.314370   -7.293920    0.335870
  S     -3.541650   -5.934260    1.427150
  C     -3.468210   -8.618350    0.839030
  C     -3.277950   -9.801570    0.081680
  C     -3.431170  -11.116460    0.649840
  N     -3.221560  -12.195430   -0.135310
  C     -2.895040  -12.042210   -1.375000
  C     -2.749690  -10.747760   -1.935920
  N     -2.935800   -9.689610   -1.219920
  F     -2.416050  -10.579270   -3.211410
  F     -2.697250  -13.138280   -2.100780
  C     -3.791450  -11.322190    2.004820
  C     -3.988540  -10.141790    2.752520
  C     -3.829060   -8.829090    2.187490
  N     -4.064340   -7.876180    3.091060
  S     -4.444880   -8.549940    4.492960
  N     -4.332310  -10.083070    4.040310
  C     -3.953420  -12.596560    2.622020
  C     -3.794560  -13.855600    2.061990
  C     -4.039280  -14.863490    2.983620
  C     -4.384860  -14.400140    4.265940
  S     -4.410490  -12.674030    4.316240
  C     -4.602690  -15.416290    5.187260
  C     -4.469620  -16.674990    4.621320
  S     -4.010280  -16.585580    2.923550
  C     -4.563510  -17.898230    5.322490
  C     -4.693600  -19.163250    4.835970
  C     -4.276050  -20.321320    5.670990
  O     -4.048770  -20.323180    6.856730
  C     -4.138180  -21.443980    4.714950
  C     -4.577400  -21.036120    3.441180
  C     -5.080440  -19.667760    3.535230
  C     -5.992210  -19.097380    2.688690
  C     -6.682640  -17.905660    2.998520
  N     -7.299790  -16.972860    3.253910
  C     -6.415180  -19.690260    1.481360
  N     -6.772360  -20.136160    0.486790
  C     -4.509050  -21.911690    2.371960
  C     -4.005390  -23.188920    2.592300
  C     -3.586030  -23.592690    3.862270
  C     -3.650290  -22.714970    4.937280
  Br    -2.918230  -25.339070    4.135970
  Br    -3.890560  -24.382730    1.132150
  H     -1.798250    2.701840   -4.706730
  H     -1.513900   -1.774970   -6.860640
  H     -2.813260   -1.039690   -0.743450
  H     -3.274440   -2.757350    0.828500
  H     -2.814980   -7.579480   -1.751020
  H     -3.519620  -14.008010    1.036880
  H     -4.874230  -15.264730    6.215740
  H     -4.422540  -17.830090    6.397300
  H     -4.821400  -21.627570    1.379700
  H     -3.326810  -23.018130    5.920940

 Total Charge           Charge          ....    0
 Multiplicity           Mult            ....    1
 Number of Electrons    NEL             ....  596
 Basis Dimension        Dim             .... 1080

ORBITAL ENERGIES
----------------

  NO   OCC          E(Eh)            E(eV)
   0   2.0000    -482.878026    -13139.7791
   1   2.0000    -482.877913    -13139.7760
   2   2.0000    -482.877154    -13139.7554
   3   2.0000    -482.875936    -13139.7222
   4   2.0000     -89.059332     -2423.4276
   5   2.0000     -88.972950     -2421.0770
   6   2.0000     -88.969390     -2420.9802
   7   2.0000     -88.966354     -2420.8976
   8   2.0000     -88.965669     -2420.8789
   9   2.0000     -62.555618     -1702.2249
  10   2.0000     -62.555504     -1702.2218
  11   2.0000     -62.554756     -1702.2014
  12   2.0000     -62.553564     -1702.1690
  13   2.0000     -56.389567     -1534.4381
  14   2.0000     -56.389454     -1534.4351
  15   2.0000     -56.388715     -1534.4150
  16   2.0000     -56.387524     -1534.3825
  17   2.0000     -56.386921     -1534.3661
  18   2.0000     -56.386815     -1534.3632
  19   2.0000     -56.386800     -1534.3628
  20   2.0000     -56.386712     -1534.3604
  21   2.0000     -56.386048     -1534.3424
  22   2.0000     -56.385957     -1534.3399
  23   2.0000     -56.384854     -1534.3099
  24   2.0000     -56.384759     -1534.3073
  25   2.0000     -24.828473      -675.6171
  26   2.0000     -24.828291      -675.6121
  27   2.0000     -19.228544      -523.2353
  28   2.0000     -19.223097      -523.0871
  29   2.0000     -14.467480      -393.6802
  30   2.0000     -14.467096      -393.6697
  31   2.0000     -14.466454      -393.6522
  32   2.0000     -14.466265      -393.6471
  33   2.0000     -14.423859      -392.4931
  34   2.0000     -14.421233      -392.4217
  35   2.0000     -14.419152      -392.3651
  36   2.0000     -14.417336      -392.3157
  37   2.0000     -10.445089      -284.2253
  38   2.0000     -10.444786      -284.2171
  39   2.0000     -10.377322      -282.3813
  40   2.0000     -10.375064      -282.3198
  41   2.0000     -10.362317      -281.9730
  42   2.0000     -10.362002      -281.9644
  43   2.0000     -10.355539      -281.7885
  44   2.0000     -10.354806      -281.7686
  45   2.0000     -10.354535      -281.7612
  46   2.0000     -10.354327      -281.7556
  47   2.0000     -10.353735      -281.7395
  48   2.0000     -10.353468      -281.7322
  49   2.0000     -10.351266      -281.6723
  50   2.0000     -10.349476      -281.6236
  51   2.0000     -10.348705      -281.6026
  52   2.0000     -10.348525      -281.5977
  53   2.0000     -10.331761      -281.1415
  54   2.0000     -10.330942      -281.1192
  55   2.0000     -10.330765      -281.1144
  56   2.0000     -10.330385      -281.1041
  57   2.0000     -10.328638      -281.0565
  58   2.0000     -10.327607      -281.0285
  59   2.0000     -10.326597      -281.0010
  60   2.0000     -10.326441      -280.9967
  61   2.0000     -10.323748      -280.9235
  62   2.0000     -10.322977      -280.9025
  63   2.0000     -10.321907      -280.8734
  64   2.0000     -10.320134      -280.8251
  65   2.0000     -10.319188      -280.7994
  66   2.0000     -10.318847      -280.7901
  67   2.0000     -10.317284      -280.7476
  68   2.0000     -10.313450      -280.6432
  69   2.0000     -10.313234      -280.6374
  70   2.0000     -10.312844      -280.6268
  71   2.0000     -10.312049      -280.6051
  72   2.0000     -10.311122      -280.5799
  73   2.0000     -10.309924      -280.5473
  74   2.0000     -10.308226      -280.5011
  75   2.0000     -10.307087      -280.4701
  76   2.0000     -10.306656      -280.4584
  77   2.0000     -10.305675      -280.4317
  78   2.0000     -10.304578      -280.4018
  79   2.0000     -10.303701      -280.3779
  80   2.0000     -10.303265      -280.3661
  81   2.0000     -10.295127      -280.1446
  82   2.0000     -10.291851      -280.0555
  83   2.0000      -8.784929      -239.0501
  84   2.0000      -8.784807      -239.0468
  85   2.0000      -8.784066      -239.0266
  86   2.0000      -8.782900      -238.9948
  87   2.0000      -8.150126      -221.7762
  88   2.0000      -8.067843      -219.5372
  89   2.0000      -8.063427      -219.4170
  90   2.0000      -8.059876      -219.3204
  91   2.0000      -8.059793      -219.3181
  92   2.0000      -6.621050      -180.1679
  93   2.0000      -6.620928      -180.1646
  94   2.0000      -6.620208      -180.1450
  95   2.0000      -6.619070      -180.1140
  96   2.0000      -6.607058      -179.7872
  97   2.0000      -6.606932      -179.7838
  98   2.0000      -6.606272      -179.7658
  99   2.0000      -6.606177      -179.7632
 100   2.0000      -6.606161      -179.7628
 101   2.0000      -6.605402      -179.7421
 102   2.0000      -6.604998      -179.7311
 103   2.0000      -6.604221      -179.7100
 104   2.0000      -6.121162      -166.5653
 105   2.0000      -6.113498      -166.3567
 106   2.0000      -6.112945      -166.3417
 107   2.0000      -6.037404      -164.2861
 108   2.0000      -6.033381      -164.1767
 109   2.0000      -6.033135      -164.1699
 110   2.0000      -6.029606      -164.0739
 111   2.0000      -6.029418      -164.0688
 112   2.0000      -6.029328      -164.0664
 113   2.0000      -6.028737      -164.0503
 114   2.0000      -6.025238      -163.9551
 115   2.0000      -6.024988      -163.9483
 116   2.0000      -6.024935      -163.9468
 117   2.0000      -6.021461      -163.8523
 118   2.0000      -6.021242      -163.8463
 119   2.0000      -2.736951       -74.4762
 120   2.0000      -2.736841       -74.4732
 121   2.0000      -2.736151       -74.4545
 122   2.0000      -2.734946       -74.4217
 123   2.0000      -2.733182       -74.3737
 124   2.0000      -2.733068       -74.3706
 125   2.0000      -2.732616       -74.3583
 126   2.0000      -2.732473       -74.3544
 127   2.0000      -2.732323       -74.3503
 128   2.0000      -2.731730       -74.3341
 129   2.0000      -2.731194       -74.3196
 130   2.0000      -2.730592       -74.3032
 131   2.0000      -2.721455       -74.0546
 132   2.0000      -2.721451       -74.0544
 133   2.0000      -2.721340       -74.0514
 134   2.0000      -2.721328       -74.0511
 135   2.0000      -2.720565       -74.0303
 136   2.0000      -2.720552       -74.0300
 137   2.0000      -2.719386       -73.9983
 138   2.0000      -2.719380       -73.9981
 139   2.0000      -1.356762       -36.9194
 140   2.0000      -1.343005       -36.5450
 141   2.0000      -1.156778       -31.4775
 142   2.0000      -1.144848       -31.1529
 143   2.0000      -1.139117       -30.9969
 144   2.0000      -1.127303       -30.6755
 145   2.0000      -1.052162       -28.6308
 146   2.0000      -1.029129       -28.0040
 147   2.0000      -1.027593       -27.9622
 148   2.0000      -1.023721       -27.8569
 149   2.0000      -1.020443       -27.7677
 150   2.0000      -1.011910       -27.5355
 151   2.0000      -1.010181       -27.4884
 152   2.0000      -1.009208       -27.4619
 153   2.0000      -0.999763       -27.2049
 154   2.0000      -0.997978       -27.1564
 155   2.0000      -0.991733       -26.9864
 156   2.0000      -0.980134       -26.6708
 157   2.0000      -0.979418       -26.6513
 158   2.0000      -0.962042       -26.1785
 159   2.0000      -0.953727       -25.9522
 160   2.0000      -0.922923       -25.1140
 161   2.0000      -0.922486       -25.1021
 162   2.0000      -0.915288       -24.9063
 163   2.0000      -0.914194       -24.8765
 164   2.0000      -0.909522       -24.7494
 165   2.0000      -0.904092       -24.6016
 166   2.0000      -0.900113       -24.4933
 167   2.0000      -0.892718       -24.2921
 168   2.0000      -0.875916       -23.8349
 169   2.0000      -0.872907       -23.7530
 170   2.0000      -0.866723       -23.5847
 171   2.0000      -0.859210       -23.3803
 172   2.0000      -0.854737       -23.2586
 173   2.0000      -0.854272       -23.2459
 174   2.0000      -0.832154       -22.6441
 175   2.0000      -0.820327       -22.3222
 176   2.0000      -0.816433       -22.2163
 177   2.0000      -0.812601       -22.1120
 178   2.0000      -0.807440       -21.9716
 179   2.0000      -0.788147       -21.4466
 180   2.0000      -0.782808       -21.3013
 181   2.0000      -0.772339       -21.0164
 182   2.0000      -0.770819       -20.9751
 183   2.0000      -0.760464       -20.6933
 184   2.0000      -0.759089       -20.6559
 185   2.0000      -0.737387       -20.0653
 186   2.0000      -0.722697       -19.6656
 187   2.0000      -0.709265       -19.3001
 188   2.0000      -0.700419       -19.0594
 189   2.0000      -0.698641       -19.0110
 190   2.0000      -0.695051       -18.9133
 191   2.0000      -0.691427       -18.8147
 192   2.0000      -0.687502       -18.7079
 193   2.0000      -0.685211       -18.6455
 194   2.0000      -0.677907       -18.4468
 195   2.0000      -0.670468       -18.2444
 196   2.0000      -0.661984       -18.0135
 197   2.0000      -0.659817       -17.9545
 198   2.0000      -0.654850       -17.8194
 199   2.0000      -0.646589       -17.5946
 200   2.0000      -0.637233       -17.3400
 201   2.0000      -0.632476       -17.2105
 202   2.0000      -0.631827       -17.1929
 203   2.0000      -0.625200       -17.0126
 204   2.0000      -0.621516       -16.9123
 205   2.0000      -0.620458       -16.8835
 206   2.0000      -0.611212       -16.6319
 207   2.0000      -0.604166       -16.4402
 208   2.0000      -0.591420       -16.0934
 209   2.0000      -0.589849       -16.0506
 210   2.0000      -0.587850       -15.9962
 211   2.0000      -0.583758       -15.8849
 212   2.0000      -0.583010       -15.8645
 213   2.0000      -0.581956       -15.8358
 214   2.0000      -0.578840       -15.7510
 215   2.0000      -0.568623       -15.4730
 216   2.0000      -0.562170       -15.2974
 217   2.0000      -0.555843       -15.1253
 218   2.0000      -0.553039       -15.0490
 219   2.0000      -0.549548       -14.9540
 220   2.0000      -0.549002       -14.9391
 221   2.0000      -0.545744       -14.8504
 222   2.0000      -0.544954       -14.8290
 223   2.0000      -0.539291       -14.6749
 224   2.0000      -0.535792       -14.5796
 225   2.0000      -0.534440       -14.5428
 226   2.0000      -0.533500       -14.5173
 227   2.0000      -0.529578       -14.4106
 228   2.0000      -0.528245       -14.3743
 229   2.0000      -0.525212       -14.2918
 230   2.0000      -0.522977       -14.2309
 231   2.0000      -0.515454       -14.0262
 232   2.0000      -0.512124       -13.9356
 233   2.0000      -0.509936       -13.8761
 234   2.0000      -0.504832       -13.7372
 235   2.0000      -0.504656       -13.7324
 236   2.0000      -0.500533       -13.6202
 237   2.0000      -0.499368       -13.5885
 238   2.0000      -0.495909       -13.4944
 239   2.0000      -0.494431       -13.4542
 240   2.0000      -0.492331       -13.3970
 241   2.0000      -0.491089       -13.3632
 242   2.0000      -0.489235       -13.3128
 243   2.0000      -0.481374       -13.0988
 244   2.0000      -0.474167       -12.9027
 245   2.0000      -0.473600       -12.8873
 246   2.0000      -0.465420       -12.6647
 247   2.0000      -0.465229       -12.6595
 248   2.0000      -0.463779       -12.6201
 249   2.0000      -0.463364       -12.6088
 250   2.0000      -0.460497       -12.5308
 251   2.0000      -0.457996       -12.4627
 252   2.0000      -0.455220       -12.3872
 253   2.0000      -0.454414       -12.3652
 254   2.0000      -0.452317       -12.3082
 255   2.0000      -0.447929       -12.1888
 256   2.0000      -0.446833       -12.1589
 257   2.0000      -0.445602       -12.1255
 258   2.0000      -0.437858       -11.9147
 259   2.0000      -0.436451       -11.8764
 260   2.0000      -0.435995       -11.8640
 261   2.0000      -0.434693       -11.8286
 262   2.0000      -0.433083       -11.7848
 263   2.0000      -0.431274       -11.7356
 264   2.0000      -0.429295       -11.6817
 265   2.0000      -0.425910       -11.5896
 266   2.0000      -0.423520       -11.5246
 267   2.0000      -0.421447       -11.4681
 268   2.0000      -0.417038       -11.3482
 269   2.0000      -0.411754       -11.2044
 270   2.0000      -0.410742       -11.1769
 271   2.0000      -0.401423       -10.9233
 272   2.0000      -0.400957       -10.9106
 273   2.0000      -0.398212       -10.8359
 274   2.0000      -0.393282       -10.7018
 275   2.0000      -0.391499       -10.6532
 276   2.0000      -0.390619       -10.6293
 277   2.0000      -0.387776       -10.5519
 278   2.0000      -0.381371       -10.3776
 279   2.0000      -0.375841       -10.2271
 280   2.0000      -0.373250       -10.1567
 281   2.0000      -0.371203       -10.1009
 282   2.0000      -0.364733        -9.9249
 283   2.0000      -0.357455        -9.7269
 284   2.0000      -0.354298        -9.6409
 285   2.0000      -0.349397        -9.5076
 286   2.0000      -0.349048        -9.4981
 287   2.0000      -0.343298        -9.3416
 288   2.0000      -0.340663        -9.2699
 289   2.0000      -0.338786        -9.2188
 290   2.0000      -0.335542        -9.1306
 291   2.0000      -0.320749        -8.7280
 292   2.0000      -0.313823        -8.5396
 293   2.0000      -0.312020        -8.4905
 294   2.0000      -0.305409        -8.3106
 295   2.0000      -0.303015        -8.2455
 296   2.0000      -0.285953        -7.7812
 297   2.0000      -0.251103        -6.8329
 298   0.0000      -0.134263        -3.6535
 299   0.0000      -0.094864        -2.5814
 300   0.0000      -0.090872        -2.4728
 301   0.0000      -0.070371        -1.9149
 302   0.0000      -0.067690        -1.8420

MULLIKEN ATOMIC CHARGES
-----------------------
   0 C :    0.163818
   1 O :   -0.165498
   2 C :   -0.013106
   3 C :    0.032680
   4 C :   -0.010342
   5 C :   -0.025544
   6 C :   -0.015116
   7 C :   -0.021540
   8 Br:    0.014611
   9 Br:    0.022142
  10 C :    0.321579
  11 C :   -0.346187
  12 C :   -0.188730
  13 N :    0.156326
  14 C :   -0.185913
  15 N :    0.147998
  16 C :   -0.094097
  17 C :   -0.016767
  18 C :   -0.059706
  19 C :   -0.059041
  20 C :    0.049131
  21 C :    0.020299
  22 S :    0.201832
  23 C :   -0.048141
  24 C :   -0.170430
  25 S :    0.162920
  26 C :    0.199209
  27 C :   -0.069651
  28 C :   -0.068678
  29 N :   -0.007120
  30 C :    0.149266
  31 C :    0.149411
  32 N :   -0.002782
  33 F :   -0.135166
  34 F :   -0.136143
  35 C :    0.197942
  36 C :   -0.018201
  37 C :   -0.013796
  38 N :   -0.323509
  39 S :    0.574136
  40 N :   -0.325662
  41 C :   -0.177362
  42 C :   -0.037441
  43 C :    0.014132
  44 C :    0.027920
  45 S :    0.170258
  46 C :    0.005513
  47 C :   -0.094390
  48 S :    0.157817
  49 C :    0.052260
  50 C :   -0.134038
  51 C :    0.142441
  52 O :   -0.134660
  53 C :    0.000491
  54 C :    0.024766
  55 C :    0.235739
  56 C :   -0.306428
  57 C :   -0.206985
  58 N :    0.176269
  59 C :   -0.178087
  60 N :    0.163919
  61 C :   -0.011481
  62 C :   -0.021661
  63 C :   -0.016028
  64 C :   -0.023079
  65 Br:    0.013650
  66 Br:    0.020588
  67 H :    0.007506
  68 H :    0.005668
  69 H :    0.008746
  70 H :    0.009425
  71 H :    0.006027
  72 H :    0.007699
  73 H :    0.000290
  74 H :    0.028744
  75 H :    0.011601
  76 H :    0.007738
Sum of atomic charges:   -0.0000000

LOEWDIN ATOMIC CHARGES
----------------------
   0 C :    0.083268
   1 O :   -0.154835
   2 C :   -0.041176
   3 C :   -0.011425
   4 C :   -0.006819
   5 C :   -0.119335
   6 C :   -0.122977
   7 C :    0.005906
   8 Br:    0.137941
   9 Br:    0.141528
  10 C :    0.075756
  11 C :   -0.137253
  12 C :   -0.019883
  13 N :   -0.046660
  14 C :   -0.020516
  15 N :   -0.050094
  16 C :   -0.112113
  17 C :    0.058331
  18 C :   -0.175780
  19 C :   -0.022925
  20 C :   -0.205843
  21 C :   -0.189164
  22 S :    0.487753
  23 C :   -0.051040
  24 C :   -0.142313
  25 S :    0.452316
  26 C :   -0.040909
  27 C :   -0.002767
  28 C :   -0.003950
  29 N :   -0.030008
  30 C :    0.061321
  31 C :    0.061677
  32 N :   -0.029240
  33 F :   -0.024213
  34 F :   -0.024884
  35 C :   -0.038380
  36 C :   -0.046713
  37 C :   -0.045730
  38 N :   -0.295338
  39 S :    0.691254
  40 N :   -0.296863
  41 C :   -0.146586
  42 C :   -0.047619
  43 C :   -0.179920
  44 C :   -0.201944
  45 S :    0.465011
  46 C :   -0.016970
  47 C :   -0.169639
  48 S :    0.450187
  49 C :    0.053322
  50 C :   -0.100152
  51 C :    0.083572
  52 O :   -0.135973
  53 C :   -0.044009
  54 C :   -0.008006
  55 C :    0.057549
  56 C :   -0.133117
  57 C :   -0.036044
  58 N :   -0.042045
  59 C :   -0.021568
  60 N :   -0.042583
  61 C :   -0.009743
  62 C :   -0.118099
  63 C :   -0.124525
  64 C :    0.007020
  65 Br:    0.137136
  66 Br:    0.141923
  67 H :    0.044709
  68 H :    0.046091
  69 H :    0.051055
  70 H :    0.041292
  71 H :    0.033090
  72 H :    0.033961
  73 H :    0.040322
  74 H :    0.052998
  75 H :    0.044787
  76 H :    0.046613

  Mayer bond orders larger than 0.100000
B(  0-C ,  1-O ) :   2.1560 B(  0-C ,  2-C ) :   0.9561 B(  0-C , 16-C ) :   0.9709
B(  2-C ,  3-C ) :   1.3311 B(  2-C ,  7-C ) :   1.3684 B(  3-C ,  4-C ) :   1.3675
B(  3-C , 10-C ) :   0.9857 B(  4-C ,  5-C ) :   1.3656 B(  4-C , 67-H ) :   0.9798
B(  5-C ,  6-C ) :   1.4246 B(  5-C ,  9-Br) :   1.0583 B(  6-C ,  7-C ) :   1.3480
B(  6-C ,  8-Br) :   1.0335 B(  7-C , 68-H ) :   1.0097 B( 10-C , 11-C ) :   1.6283
B( 10-C , 16-C ) :   1.0893 B( 11-C , 12-C ) :   1.1422 B( 11-C , 14-C ) :   1.1432
B( 12-C , 13-N ) :   2.9684 B( 14-C , 15-N ) :   2.9580 B( 16-C , 17-C ) :   1.4900
B( 17-C , 18-C ) :   1.2781 B( 17-C , 69-H ) :   0.9377 B( 18-C , 19-C ) :   1.3587
B( 18-C , 22-S ) :   1.0788 B( 19-C , 20-C ) :   1.3124 B( 19-C , 70-H ) :   1.0146
B( 20-C , 21-C ) :   1.3219 B( 20-C , 25-S ) :   1.0211 B( 21-C , 22-S ) :   1.0536
B( 21-C , 23-C ) :   1.2466 B( 23-C , 24-C ) :   1.4588 B( 23-C , 71-H ) :   0.9944
B( 24-C , 25-S ) :   1.1016 B( 24-C , 26-C ) :   1.1919 B( 26-C , 27-C ) :   1.2934
B( 26-C , 35-C ) :   0.1267 B( 26-C , 37-C ) :   1.1889 B( 27-C , 28-C ) :   1.1121
B( 27-C , 32-N ) :   1.4305 B( 28-C , 29-N ) :   1.4278 B( 28-C , 35-C ) :   1.2899
B( 29-N , 30-C ) :   1.6671 B( 30-C , 31-C ) :   1.1032 B( 30-C , 34-F ) :   1.1791
B( 31-C , 32-N ) :   1.6665 B( 31-C , 33-F ) :   1.1802 B( 35-C , 36-C ) :   1.1934
B( 35-C , 41-C ) :   1.1956 B( 36-C , 37-C ) :   1.1248 B( 36-C , 40-N ) :   1.4671
B( 37-C , 38-N ) :   1.4674 B( 38-N , 39-S ) :   1.2840 B( 38-N , 40-N ) :   0.1543
B( 39-S , 40-N ) :   1.2818 B( 41-C , 42-C ) :   1.4545 B( 41-C , 45-S ) :   1.1092
B( 42-C , 43-C ) :   1.2575 B( 42-C , 72-H ) :   0.9921 B( 43-C , 44-C ) :   1.3592
B( 43-C , 48-S ) :   1.0825 B( 44-C , 45-S ) :   1.0315 B( 44-C , 46-C ) :   1.2817
B( 46-C , 47-C ) :   1.4333 B( 46-C , 73-H ) :   1.0069 B( 47-C , 48-S ) :   1.0872
B( 47-C , 49-C ) :   1.1589 B( 49-C , 50-C ) :   1.6302 B( 49-C , 74-H ) :   0.9480
B( 50-C , 51-C ) :   0.9448 B( 50-C , 55-C ) :   1.0380 B( 51-C , 52-O ) :   2.2757
B( 51-C , 53-C ) :   0.9210 B( 53-C , 54-C ) :   1.3293 B( 53-C , 64-C ) :   1.3746
B( 54-C , 55-C ) :   1.0058 B( 54-C , 61-C ) :   1.3720 B( 55-C , 56-C ) :   1.6700
B( 56-C , 57-C ) :   1.1484 B( 56-C , 59-C ) :   1.1318 B( 57-C , 58-N ) :   3.0297
B( 59-C , 60-N ) :   2.9948 B( 61-C , 62-C ) :   1.3664 B( 61-C , 75-H ) :   0.9841
B( 62-C , 63-C ) :   1.4218 B( 62-C , 66-Br) :   1.0515 B( 63-C , 64-C ) :   1.3559
B( 63-C , 65-Br) :   1.0330 B( 64-C , 76-H ) :   1.0079

-----------------------------------------------------------------------------
         ABSORPTION SPECTRUM VIA TRANSITION ELECTRIC DIPOLE MOMENTS
-----------------------------------------------------------------------------
State   Energy  Wavelength   fosc         T2         TX        TY        TZ
        (cm-1)    (nm)                  (au**2)     (au)      (au)      (au)
-----------------------------------------------------------------------------
   0   10827.8    923.5   1.305900843  39.70491  -0.80125  -5.83252   2.24603
   1   18798.0    532.0   0.015325973   0.26841   0.12563   0.25235   0.43468
   2   20029.6    499.3   0.486690631   7.99939   0.65211   2.73125  -0.33826
   3   20571.7    486.1   0.074933687   1.19917  -0.08340  -1.03381   0.35137
   4   20916.8    478.1   0.456299248   7.18174   0.20992   2.49889  -0.94510
   5   21119.9    473.5   0.060089378   0.93666  -0.19608  -0.59529   0.73745
   6   25019.8    399.7   0.168090026   2.21174  -0.21873  -0.95309   1.12050
   7   26028.0    384.2   0.084625665   1.07038  -0.29939  -0.96518   0.22176
   8   26371.8    379.2   0.051487271   0.64274  -0.30427   0.50125  -0.54673
   9   27365.6    365.4   0.020835298   0.25065   0.16940  -0.45188  -0.13328
  10   27678.5    361.3   0.115623691   1.37524  -0.35503   1.07459  -0.30733
  11   27951.5    357.8   0.001217263   0.01434  -0.00084   0.11447   0.03510
  12   28080.8    356.1   0.069633688   0.81637  -0.21548   0.83764   0.26131
  13   28194.2    354.7   0.114740781   1.33978   0.00503  -1.01612   0.55431
  14   28844.2    346.7   0.096701333   1.10370   0.12166   0.53187  -0.89778
  15   29497.5    339.0   0.009624582   0.10742  -0.07583  -0.08067  -0.30848
  16   29676.1    337.0   0.086676544   0.96155   0.03877   0.62445   0.75506
  17   30034.0    333.0   0.015783637   0.17301   0.41368   0.04245   0.00860
  18   30194.3    331.2   0.118369345   1.29060   0.25759  -0.68929  -0.86552
  19   30327.5    329.7   0.127244101   1.38126   0.20806  -0.26410  -1.12615
  20   30988.4    322.7   0.001761268   0.01871   0.12578  -0.02403   0.04808
  21   31657.5    315.9   0.001100060   0.01144  -0.03046   0.07575  -0.06909
  22   31996.7    312.5   0.014538813   0.14959   0.09646  -0.37314   0.03244
  23   32549.1    307.2   0.102063012   1.03230   0.38170  -0.86420   0.37385
  24   32743.0    305.4   0.011135138   0.11196  -0.29550  -0.04900  -0.14911
  25   33339.3    299.9   0.028418581   0.28062   0.06977  -0.51449  -0.10515
  26   33441.1    299.0   0.216555030   2.13188  -0.47174   1.22772  -0.63408
  27   33893.3    295.0   0.110676348   1.07502  -0.36533  -0.54653   0.80178
  28   34235.7    292.1   0.096949286   0.93227   0.11111  -0.41975  -0.86240
  29   34426.9    290.5   0.085929556   0.82171  -0.05215  -0.63791  -0.64192
  30   34783.0    287.5   0.515620880   4.88022   0.60190  -0.86017  -1.94372
  31   35027.2    285.5   0.279621803   2.62810   0.48129  -1.15226   1.03381
  32   35312.2    283.2   0.090807542   0.84659   0.08833   0.28034  -0.87189
  33   35777.9    279.5   0.086086264   0.79213   0.54488  -0.68099   0.17743
  34   35810.5    279.2   0.075909926   0.69785   0.40427  -0.71046   0.17223
  35   36043.6    277.4   0.080159731   0.73216  -0.41896  -0.38247  -0.64058
  36   36087.6    277.1   0.078340316   0.71466   0.00610  -0.59082   0.60461
  37   36291.0    275.6   0.356517492   3.23413  -0.65389   1.44613   0.84574
  38   36583.8    273.3   0.197702378   1.77909   0.06591   0.12737  -1.32609
  39   36642.4    272.9   0.051816681   0.46554  -0.00028   0.58638   0.34887
  40   37091.7    269.6   0.039612544   0.35159   0.14790   0.53698   0.20338
  41   37249.3    268.5   0.000846357   0.00748   0.03804   0.07755  -0.00443
  42   37288.3    268.2   0.008453740   0.07464   0.00427  -0.03882   0.27039
  43   37402.9    267.4   0.004202888   0.03699  -0.04752   0.18233   0.03861
  44   37564.7    266.2   0.006035431   0.05289  -0.00931   0.21388  -0.08405
  45   37626.1    265.8   0.001438247   0.01258  -0.06195   0.08258  -0.04388
  46   37683.8    265.4   0.007197766   0.06288  -0.01468  -0.23331  -0.09072
  47   38151.1    262.1   0.043921484   0.37901  -0.15887   0.26808   0.53094
  48   38500.4    259.7   0.052729688   0.45088  -0.09813  -0.43081  -0.50563
  49   38898.9    257.1   0.174280164   1.47498   0.13767   1.20620  -0.03319
  50   39004.4    256.4   0.054493284   0.45994   0.06319   0.06620   0.67199
  51   39282.7    254.6   0.278349884   2.33274   0.23511   0.06994  -1.50750
  52   40078.8    249.5   0.000055654   0.00046  -0.00873  -0.00515  -0.01882

FINAL SINGLE POINT ENERGY    -14830.009958181499

DIPOLE MOMENT
-------------
                                X             Y             Z
Electronic contribution:     39.03712     -48.23640    -109.56489
Nuclear contribution   :    -37.96867      47.23051     110.29122
                        -----------------------------------------
Total Dipole Moment    :      1.06845      -1.00590       0.72632
                        -----------------------------------------
Magnitude (a.u.)       :      1.63736
Magnitude (Debye)      :      4.16184

Rotational constants in cm-1:     0.001861     0.000134     0.000126
Rotational constants in MHz :    55.801442     4.002908     3.775093

                             ****ORCA TERMINATED NORMALLY****
TOTAL RUN TIME: 0 days 0 hours 8 minutes 9 seconds 779 msec
