                         Program Version 4.2.0 -  RELEASE  -
|  1> # ORCA input file
|  2> # SCF done       -215.119094383458          0.000561782839
|  3> ! CAM-B3LYP def2-SVP def2/J RIJCOSX Grid4 TightSCF
|  4> %maxcore 5000
|  5> %tddft
|  6>     Mode sTDDFT
|  7>     Ethresh 5.0
|  8>     maxcore 5000
|  9> end
| 10>
| 11> %pal
| 12>   nprocs 6
| 13>   end
| 14> * xyz 0 1
| 15>    C       -3.21097         0.73825         4.48442
| 16>    C       -3.34600         2.10778         4.64634
| 17>    C       -4.63223         2.64542         4.69205
| 18>    C       -4.79640         4.04273         4.86750
| 19>    N       -4.91774         5.17223         5.00702
| 20>    C       -5.77118         1.82437         4.57117
| 21>    C       -7.06278         2.40392         4.61789
| 22>    N       -8.11275         2.85935         4.64698
| 23>    C       -5.63086         0.44581         4.40694
| 24>    C       -4.35590        -0.07757         4.37149
| 25>    C       -3.94345        -1.49062         4.22813
| 26>    O       -4.60324        -2.43278         3.86732
| 27>    C       -2.46878        -1.47533         4.50304
| 28>    C       -2.01478        -0.09507         4.42467
| 29>    C       -0.72460         0.32410         4.27841
| 30>    C       -0.33090         1.67854         4.20071
| 31>    N        0.03289         2.76348         4.13385
| 32>    C        0.34966        -0.57909         4.12014
| 33>    N        1.22311        -1.30571         3.96136
| 34>    C       -1.78999        -2.55931         4.92168
| 35>    C       -2.41755        -3.81882         5.23512
| 36>    C       -3.48925        -4.01795         6.08578
| 37>    N       -4.21943        -3.07181         6.83006
| 38>    O       -4.96376        -3.49751         7.68952
| 39>    O       -4.06795        -1.87665         6.59822
| 40>    C       -3.70880        -5.43669         6.25968
| 41>    C       -2.83527        -6.10127         5.47528
| 42>    C       -2.00161        -5.14402         4.77563
| 43>    C       -1.02385        -5.42911         3.84566
| 44>    C        0.07368        -4.60022         3.45331
| 45>    C        1.04354        -5.39062         2.92076
| 46>    C        0.58150        -6.74828         2.86399
| 47>    N        1.40504        -7.75312         2.33982
| 48>    O        2.40711        -7.40630         1.74923
| 49>    O        1.10415        -8.93406         2.51981
| 50>    C       -0.74189        -6.78935         3.31992
| 51>    C       -1.73794        -7.76489         3.12324
| 52>    N       -1.47842        -9.09612         2.93449
| 53>    C       -2.64742        -9.73485         2.70010
| 54>    C       -3.21325       -10.96924         2.46955
| 55>    C       -4.60681       -10.74292         2.32941
| 56>    N       -4.87047        -9.39801         2.46651
| 57>    C       -3.70044        -8.75399         2.71688
| 58>    C       -3.14026        -7.52733         2.98731
| 59>    C       -5.57239       -11.73264         2.09120
| 60>    C       -6.91208       -11.48076         1.92499
| 61>    C       -7.92552       -12.43100         1.74444
| 62>    C       -9.28445       -12.22379         2.00993
| 63>    N       -9.93477       -11.01873         2.33520
| 64>    O       -9.27514        -9.98902         2.38114
| 65>    O      -11.12950       -11.07124         2.55240
| 66>    C       -9.96597       -13.47912         1.98450
| 67>    C       -9.06533       -14.46971         1.71667
| 68>    C       -7.79163       -13.88002         1.46162
| 69>    C       -6.72506       -14.51895         0.86720
| 70>    C       -5.72636       -13.93867         0.00673
| 71>    C       -4.96470       -14.93236        -0.50647
| 72>    C       -5.42151       -16.19161         0.03195
| 73>    N       -4.72123       -17.38781        -0.21590
| 74>    O       -3.72289       -17.31692        -0.90559
| 75>    O       -5.13959       -18.42899         0.27377
| 76>    C       -6.51483       -15.97106         0.85574
| 77>    C       -7.20648       -16.86202         1.73127
| 78>    C       -7.59265       -18.14178         1.52328
| 79>    C       -7.91968       -19.01806         2.68569
| 80>    O       -8.17125       -18.66364         3.81014
| 81>    C       -7.80169       -20.39441         2.15642
| 82>    C       -7.84160       -21.58678         2.84885
| 83>    C       -7.65749       -22.76973         2.13154
| 84>    C       -7.43095       -22.72999         0.74140
| 85>    C       -7.40154       -21.51935         0.04749
| 86>    C       -7.59363       -20.34984         0.76201
| 87>    C       -7.62128       -18.95818         0.32296
| 88>    C       -7.86037       -18.51344        -0.94623
| 89>    C       -8.07665       -17.15163        -1.24594
| 90>    N       -8.28754       -16.05321        -1.50226
| 91>    C       -7.98186       -19.36392        -2.06697
| 92>    N       -8.08726       -20.02125        -3.00011
| 93>    C       -7.22726       -23.94383         0.03782
| 94>    N       -7.06376       -24.92030        -0.53631
| 95>    C       -7.69131       -24.01491         2.80569
| 96>    N       -7.72334       -25.01111         3.36902
| 97>    H       -2.49413         2.76183         4.74979
| 98>    H       -6.49612        -0.19354         4.32167
| 99>    H       -0.73284        -2.49073         5.14198
|100>    H       -4.44608        -5.83993         6.92631
|101>    H       -2.71998        -7.16446         5.41768
|102>    H        0.16934        -3.54763         3.62080
|103>    H        2.01895        -5.08658         2.59029
|104>    H       -0.52440        -9.45871         2.89527
|105>    H       -2.73267       -11.92312         2.39079
|106>    H       -5.78742        -8.98279         2.44689
|107>    H       -3.61564        -6.56934         3.03494
|108>    H       -5.20612       -12.74850         2.08074
|109>    H       -7.26891       -10.46405         2.02685
|110>    H      -11.02150       -13.58563         2.15189
|111>    H       -9.29703       -15.50625         1.57009
|112>    H       -5.68707       -12.90107        -0.26038
|113>    H       -4.15348       -14.85323        -1.20440
|114>    H       -7.40395       -16.47705         2.72873
|115>    H       -8.00551       -21.60473         3.91571
|116>    H       -7.21345       -21.51873        -1.01464
|117> *
|118>
|119>                          ****END OF INPUT****

CARTESIAN COORDINATES (ANGSTROEM)
---------------------------------
  C     -3.210970    0.738250    4.484420
  C     -3.346000    2.107780    4.646340
  C     -4.632230    2.645420    4.692050
  C     -4.796400    4.042730    4.867500
  N     -4.917740    5.172230    5.007020
  C     -5.771180    1.824370    4.571170
  C     -7.062780    2.403920    4.617890
  N     -8.112750    2.859350    4.646980
  C     -5.630860    0.445810    4.406940
  C     -4.355900   -0.077570    4.371490
  C     -3.943450   -1.490620    4.228130
  O     -4.603240   -2.432780    3.867320
  C     -2.468780   -1.475330    4.503040
  C     -2.014780   -0.095070    4.424670
  C     -0.724600    0.324100    4.278410
  C     -0.330900    1.678540    4.200710
  N      0.032890    2.763480    4.133850
  C      0.349660   -0.579090    4.120140
  N      1.223110   -1.305710    3.961360
  C     -1.789990   -2.559310    4.921680
  C     -2.417550   -3.818820    5.235120
  C     -3.489250   -4.017950    6.085780
  N     -4.219430   -3.071810    6.830060
  O     -4.963760   -3.497510    7.689520
  O     -4.067950   -1.876650    6.598220
  C     -3.708800   -5.436690    6.259680
  C     -2.835270   -6.101270    5.475280
  C     -2.001610   -5.144020    4.775630
  C     -1.023850   -5.429110    3.845660
  C      0.073680   -4.600220    3.453310
  C      1.043540   -5.390620    2.920760
  C      0.581500   -6.748280    2.863990
  N      1.405040   -7.753120    2.339820
  O      2.407110   -7.406300    1.749230
  O      1.104150   -8.934060    2.519810
  C     -0.741890   -6.789350    3.319920
  C     -1.737940   -7.764890    3.123240
  N     -1.478420   -9.096120    2.934490
  C     -2.647420   -9.734850    2.700100
  C     -3.213250  -10.969240    2.469550
  C     -4.606810  -10.742920    2.329410
  N     -4.870470   -9.398010    2.466510
  C     -3.700440   -8.753990    2.716880
  C     -3.140260   -7.527330    2.987310
  C     -5.572390  -11.732640    2.091200
  C     -6.912080  -11.480760    1.924990
  C     -7.925520  -12.431000    1.744440
  C     -9.284450  -12.223790    2.009930
  N     -9.934770  -11.018730    2.335200
  O     -9.275140   -9.989020    2.381140
  O    -11.129500  -11.071240    2.552400
  C     -9.965970  -13.479120    1.984500
  C     -9.065330  -14.469710    1.716670
  C     -7.791630  -13.880020    1.461620
  C     -6.725060  -14.518950    0.867200
  C     -5.726360  -13.938670    0.006730
  C     -4.964700  -14.932360   -0.506470
  C     -5.421510  -16.191610    0.031950
  N     -4.721230  -17.387810   -0.215900
  O     -3.722890  -17.316920   -0.905590
  O     -5.139590  -18.428990    0.273770
  C     -6.514830  -15.971060    0.855740
  C     -7.206480  -16.862020    1.731270
  C     -7.592650  -18.141780    1.523280
  C     -7.919680  -19.018060    2.685690
  O     -8.171250  -18.663640    3.810140
  C     -7.801690  -20.394410    2.156420
  C     -7.841600  -21.586780    2.848850
  C     -7.657490  -22.769730    2.131540
  C     -7.430950  -22.729990    0.741400
  C     -7.401540  -21.519350    0.047490
  C     -7.593630  -20.349840    0.762010
  C     -7.621280  -18.958180    0.322960
  C     -7.860370  -18.513440   -0.946230
  C     -8.076650  -17.151630   -1.245940
  N     -8.287540  -16.053210   -1.502260
  C     -7.981860  -19.363920   -2.066970
  N     -8.087260  -20.021250   -3.000110
  C     -7.227260  -23.943830    0.037820
  N     -7.063760  -24.920300   -0.536310
  C     -7.691310  -24.014910    2.805690
  N     -7.723340  -25.011110    3.369020
  H     -2.494130    2.761830    4.749790
  H     -6.496120   -0.193540    4.321670
  H     -0.732840   -2.490730    5.141980
  H     -4.446080   -5.839930    6.926310
  H     -2.719980   -7.164460    5.417680
  H      0.169340   -3.547630    3.620800
  H      2.018950   -5.086580    2.590290
  H     -0.524400   -9.458710    2.895270
  H     -2.732670  -11.923120    2.390790
  H     -5.787420   -8.982790    2.446890
  H     -3.615640   -6.569340    3.034940
  H     -5.206120  -12.748500    2.080740
  H     -7.268910  -10.464050    2.026850
  H    -11.021500  -13.585630    2.151890
  H     -9.297030  -15.506250    1.570090
  H     -5.687070  -12.901070   -0.260380
  H     -4.153480  -14.853230   -1.204400
  H     -7.403950  -16.477050    2.728730
  H     -8.005510  -21.604730    3.915710
  H     -7.213450  -21.518730   -1.014640

 Total Charge           Charge          ....    0
 Multiplicity           Mult            ....    1
 Number of Electrons    NEL             ....  546
 Basis Dimension        Dim             .... 1248

ORBITAL ENERGIES
----------------

  NO   OCC          E(Eh)            E(eV)
   0   2.0000     -19.268647      -524.3265
   1   2.0000     -19.268099      -524.3116
   2   2.0000     -19.267348      -524.2912
   3   2.0000     -19.265929      -524.2526
   4   2.0000     -19.261361      -524.1283
   5   2.0000     -19.261251      -524.1253
   6   2.0000     -19.253398      -523.9116
   7   2.0000     -19.251985      -523.8731
   8   2.0000     -19.251664      -523.8644
   9   2.0000     -19.248123      -523.7681
  10   2.0000     -14.675652      -399.3448
  11   2.0000     -14.674416      -399.3112
  12   2.0000     -14.670621      -399.2079
  13   2.0000     -14.662868      -398.9969
  14   2.0000     -14.506506      -394.7421
  15   2.0000     -14.492716      -394.3669
  16   2.0000     -14.451476      -393.2446
  17   2.0000     -14.445948      -393.0942
  18   2.0000     -14.445373      -393.0786
  19   2.0000     -14.441621      -392.9765
  20   2.0000     -14.435787      -392.8177
  21   2.0000     -14.435055      -392.7978
  22   2.0000     -14.434799      -392.7909
  23   2.0000     -14.434026      -392.7698
  24   2.0000     -10.404333      -283.1163
  25   2.0000     -10.401977      -283.0522
  26   2.0000     -10.381408      -282.4925
  27   2.0000     -10.376666      -282.3634
  28   2.0000     -10.375967      -282.3444
  29   2.0000     -10.373072      -282.2656
  30   2.0000     -10.369366      -282.1648
  31   2.0000     -10.368931      -282.1530
  32   2.0000     -10.368815      -282.1498
  33   2.0000     -10.367960      -282.1265
  34   2.0000     -10.367780      -282.1216
  35   2.0000     -10.365041      -282.0471
  36   2.0000     -10.362780      -281.9856
  37   2.0000     -10.356997      -281.8282
  38   2.0000     -10.355350      -281.7834
  39   2.0000     -10.355204      -281.7794
  40   2.0000     -10.355030      -281.7747
  41   2.0000     -10.353392      -281.7301
  42   2.0000     -10.351333      -281.6741
  43   2.0000     -10.350751      -281.6582
  44   2.0000     -10.350271      -281.6452
  45   2.0000     -10.349761      -281.6313
  46   2.0000     -10.348335      -281.5925
  47   2.0000     -10.348000      -281.5834
  48   2.0000     -10.347273      -281.5636
  49   2.0000     -10.347133      -281.5598
  50   2.0000     -10.346571      -281.5445
  51   2.0000     -10.346474      -281.5419
  52   2.0000     -10.346429      -281.5406
  53   2.0000     -10.345815      -281.5239
  54   2.0000     -10.344928      -281.4998
  55   2.0000     -10.344547      -281.4894
  56   2.0000     -10.344484      -281.4877
  57   2.0000     -10.343407      -281.4584
  58   2.0000     -10.342898      -281.4446
  59   2.0000     -10.342469      -281.4329
  60   2.0000     -10.342168      -281.4247
  61   2.0000     -10.341958      -281.4190
  62   2.0000     -10.338750      -281.3317
  63   2.0000     -10.336639      -281.2742
  64   2.0000     -10.335951      -281.2555
  65   2.0000     -10.334997      -281.2296
  66   2.0000     -10.332600      -281.1643
  67   2.0000     -10.331911      -281.1456
  68   2.0000     -10.331394      -281.1315
  69   2.0000     -10.330894      -281.1179
  70   2.0000     -10.330023      -281.0942
  71   2.0000     -10.326594      -281.0009
  72   2.0000     -10.325686      -280.9762
  73   2.0000     -10.321710      -280.8680
  74   2.0000     -10.321089      -280.8511
  75   2.0000     -10.319776      -280.8154
  76   2.0000     -10.316371      -280.7227
  77   2.0000     -10.312819      -280.6261
  78   2.0000     -10.308197      -280.5003
  79   2.0000     -10.306219      -280.4465
  80   2.0000     -10.306063      -280.4422
  81   2.0000     -10.301132      -280.3081
  82   2.0000      -1.346489       -36.6398
  83   2.0000      -1.345542       -36.6141
  84   2.0000      -1.339408       -36.4471
  85   2.0000      -1.332502       -36.2592
  86   2.0000      -1.169656       -31.8280
  87   2.0000      -1.167397       -31.7665
  88   2.0000      -1.163748       -31.6672
  89   2.0000      -1.159290       -31.5459
  90   2.0000      -1.157266       -31.4908
  91   2.0000      -1.149972       -31.2923
  92   2.0000      -1.140108       -31.0239
  93   2.0000      -1.102897       -30.0113
  94   2.0000      -1.055975       -28.7345
  95   2.0000      -1.054079       -28.6829
  96   2.0000      -1.042993       -28.3813
  97   2.0000      -1.041732       -28.3470
  98   2.0000      -1.038194       -28.2507
  99   2.0000      -1.037131       -28.2218
 100   2.0000      -1.026836       -27.9416
 101   2.0000      -1.022982       -27.8368
 102   2.0000      -1.022431       -27.8218
 103   2.0000      -1.021146       -27.7868
 104   2.0000      -1.018489       -27.7145
 105   2.0000      -1.017902       -27.6985
 106   2.0000      -1.014391       -27.6030
 107   2.0000      -1.013686       -27.5838
 108   2.0000      -0.990075       -26.9413
 109   2.0000      -0.988520       -26.8990
 110   2.0000      -0.950727       -25.8706
 111   2.0000      -0.941524       -25.6202
 112   2.0000      -0.938177       -25.5291
 113   2.0000      -0.935917       -25.4676
 114   2.0000      -0.934896       -25.4398
 115   2.0000      -0.929914       -25.3042
 116   2.0000      -0.928623       -25.2691
 117   2.0000      -0.926118       -25.2009
 118   2.0000      -0.914582       -24.8870
 119   2.0000      -0.913167       -24.8485
 120   2.0000      -0.910304       -24.7706
 121   2.0000      -0.904591       -24.6152
 122   2.0000      -0.903270       -24.5792
 123   2.0000      -0.888891       -24.1880
 124   2.0000      -0.870827       -23.6964
 125   2.0000      -0.868170       -23.6241
 126   2.0000      -0.858644       -23.3649
 127   2.0000      -0.839524       -22.8446
 128   2.0000      -0.833458       -22.6795
 129   2.0000      -0.821405       -22.3516
 130   2.0000      -0.820551       -22.3283
 131   2.0000      -0.807424       -21.9711
 132   2.0000      -0.804751       -21.8984
 133   2.0000      -0.791328       -21.5331
 134   2.0000      -0.764562       -20.8048
 135   2.0000      -0.764357       -20.7992
 136   2.0000      -0.755327       -20.5535
 137   2.0000      -0.752475       -20.4759
 138   2.0000      -0.750980       -20.4352
 139   2.0000      -0.740888       -20.1606
 140   2.0000      -0.739733       -20.1292
 141   2.0000      -0.738954       -20.1080
 142   2.0000      -0.737523       -20.0690
 143   2.0000      -0.724503       -19.7147
 144   2.0000      -0.721895       -19.6438
 145   2.0000      -0.710241       -19.3266
 146   2.0000      -0.701408       -19.0863
 147   2.0000      -0.701386       -19.0857
 148   2.0000      -0.695291       -18.9198
 149   2.0000      -0.692815       -18.8525
 150   2.0000      -0.687490       -18.7076
 151   2.0000      -0.677384       -18.4326
 152   2.0000      -0.674522       -18.3547
 153   2.0000      -0.672493       -18.2995
 154   2.0000      -0.669443       -18.2165
 155   2.0000      -0.663152       -18.0453
 156   2.0000      -0.662533       -18.0284
 157   2.0000      -0.662085       -18.0162
 158   2.0000      -0.660161       -17.9639
 159   2.0000      -0.657055       -17.8794
 160   2.0000      -0.656800       -17.8724
 161   2.0000      -0.651823       -17.7370
 162   2.0000      -0.648104       -17.6358
 163   2.0000      -0.646294       -17.5866
 164   2.0000      -0.643954       -17.5229
 165   2.0000      -0.641232       -17.4488
 166   2.0000      -0.632957       -17.2236
 167   2.0000      -0.629187       -17.1210
 168   2.0000      -0.623284       -16.9604
 169   2.0000      -0.617369       -16.7995
 170   2.0000      -0.613722       -16.7002
 171   2.0000      -0.612760       -16.6741
 172   2.0000      -0.611290       -16.6341
 173   2.0000      -0.610641       -16.6164
 174   2.0000      -0.603383       -16.4189
 175   2.0000      -0.598299       -16.2806
 176   2.0000      -0.596753       -16.2385
 177   2.0000      -0.592473       -16.1220
 178   2.0000      -0.586052       -15.9473
 179   2.0000      -0.581997       -15.8370
 180   2.0000      -0.578234       -15.7346
 181   2.0000      -0.577548       -15.7159
 182   2.0000      -0.574693       -15.6382
 183   2.0000      -0.570745       -15.5308
 184   2.0000      -0.569561       -15.4985
 185   2.0000      -0.569248       -15.4900
 186   2.0000      -0.567109       -15.4318
 187   2.0000      -0.563158       -15.3243
 188   2.0000      -0.561435       -15.2774
 189   2.0000      -0.557510       -15.1706
 190   2.0000      -0.554589       -15.0911
 191   2.0000      -0.552381       -15.0310
 192   2.0000      -0.548923       -14.9369
 193   2.0000      -0.547802       -14.9064
 194   2.0000      -0.543643       -14.7933
 195   2.0000      -0.538787       -14.6612
 196   2.0000      -0.535521       -14.5723
 197   2.0000      -0.534741       -14.5510
 198   2.0000      -0.532531       -14.4909
 199   2.0000      -0.528954       -14.3936
 200   2.0000      -0.527172       -14.3451
 201   2.0000      -0.524988       -14.2856
 202   2.0000      -0.523524       -14.2458
 203   2.0000      -0.521445       -14.1892
 204   2.0000      -0.520295       -14.1580
 205   2.0000      -0.517826       -14.0908
 206   2.0000      -0.513192       -13.9647
 207   2.0000      -0.508711       -13.8427
 208   2.0000      -0.508008       -13.8236
 209   2.0000      -0.506386       -13.7795
 210   2.0000      -0.503753       -13.7078
 211   2.0000      -0.500958       -13.6318
 212   2.0000      -0.498278       -13.5588
 213   2.0000      -0.496943       -13.5225
 214   2.0000      -0.492087       -13.3904
 215   2.0000      -0.487841       -13.2748
 216   2.0000      -0.483288       -13.1509
 217   2.0000      -0.479735       -13.0542
 218   2.0000      -0.477826       -13.0023
 219   2.0000      -0.475165       -12.9299
 220   2.0000      -0.472475       -12.8567
 221   2.0000      -0.470899       -12.8138
 222   2.0000      -0.469161       -12.7665
 223   2.0000      -0.468086       -12.7373
 224   2.0000      -0.466645       -12.6981
 225   2.0000      -0.462907       -12.5963
 226   2.0000      -0.461128       -12.5479
 227   2.0000      -0.460629       -12.5344
 228   2.0000      -0.460103       -12.5200
 229   2.0000      -0.458645       -12.4804
 230   2.0000      -0.458355       -12.4725
 231   2.0000      -0.458148       -12.4668
 232   2.0000      -0.457696       -12.4545
 233   2.0000      -0.454666       -12.3721
 234   2.0000      -0.451895       -12.2967
 235   2.0000      -0.446000       -12.1363
 236   2.0000      -0.442764       -12.0482
 237   2.0000      -0.441486       -12.0134
 238   2.0000      -0.439442       -11.9578
 239   2.0000      -0.436408       -11.8753
 240   2.0000      -0.434905       -11.8344
 241   2.0000      -0.434241       -11.8163
 242   2.0000      -0.433581       -11.7983
 243   2.0000      -0.432705       -11.7745
 244   2.0000      -0.414453       -11.2778
 245   2.0000      -0.413951       -11.2642
 246   2.0000      -0.411816       -11.2061
 247   2.0000      -0.409118       -11.1327
 248   2.0000      -0.404754       -11.0139
 249   2.0000      -0.404638       -11.0108
 250   2.0000      -0.402993       -10.9660
 251   2.0000      -0.399137       -10.8611
 252   2.0000      -0.394014       -10.7217
 253   2.0000      -0.392937       -10.6924
 254   2.0000      -0.390959       -10.6385
 255   2.0000      -0.389670       -10.6035
 256   2.0000      -0.385977       -10.5030
 257   2.0000      -0.382666       -10.4129
 258   2.0000      -0.380177       -10.3452
 259   2.0000      -0.376238       -10.2380
 260   2.0000      -0.376079       -10.2336
 261   2.0000      -0.368866       -10.0374
 262   2.0000      -0.368394       -10.0245
 263   2.0000      -0.366865        -9.9829
 264   2.0000      -0.363031        -9.8786
 265   2.0000      -0.355191        -9.6652
 266   2.0000      -0.347228        -9.4486
 267   2.0000      -0.343521        -9.3477
 268   2.0000      -0.337409        -9.1814
 269   2.0000      -0.326896        -8.8953
 270   2.0000      -0.322319        -8.7707
 271   2.0000      -0.313263        -8.5243
 272   2.0000      -0.266942        -7.2639
 273   0.0000      -0.168470        -4.5843
 274   0.0000      -0.145571        -3.9612
 275   0.0000      -0.119574        -3.2538
 276   0.0000      -0.114657        -3.1200
 277   0.0000      -0.102468        -2.7883

MULLIKEN ATOMIC CHARGES
-----------------------
   0 C :    0.051001
   1 C :   -0.037961
   2 C :   -0.056597
   3 C :   -0.175462
   4 N :    0.205040
   5 C :   -0.066487
   6 C :   -0.174265
   7 N :    0.202687
   8 C :   -0.021864
   9 C :    0.030777
  10 C :    0.134953
  11 O :   -0.128102
  12 C :   -0.024735
  13 C :    0.278822
  14 C :   -0.310229
  15 C :   -0.186516
  16 N :    0.181025
  17 C :   -0.150727
  18 N :    0.142853
  19 C :   -0.070128
  20 C :    0.030813
  21 C :    0.089427
  22 N :    0.283183
  23 O :   -0.217775
  24 O :   -0.266968
  25 C :    0.001326
  26 C :    0.008699
  27 C :    0.026725
  28 C :    0.040340
  29 C :   -0.003473
  30 C :    0.042075
  31 C :    0.039392
  32 N :    0.296019
  33 O :   -0.229039
  34 O :   -0.309803
  35 C :    0.063447
  36 C :   -0.022184
  37 N :   -0.007345
  38 C :    0.153091
  39 C :   -0.148838
  40 C :    0.081768
  41 N :   -0.028840
  42 C :    0.147255
  43 C :   -0.157398
  44 C :    0.030439
  45 C :   -0.045563
  46 C :    0.040717
  47 C :    0.077001
  48 N :    0.274691
  49 O :   -0.268133
  50 O :   -0.239010
  51 C :    0.043181
  52 C :   -0.006737
  53 C :    0.032043
  54 C :    0.042049
  55 C :    0.007866
  56 C :    0.013103
  57 C :    0.098344
  58 N :    0.268058
  59 O :   -0.222531
  60 O :   -0.257849
  61 C :    0.019179
  62 C :   -0.046382
  63 C :   -0.094099
  64 C :    0.140320
  65 O :   -0.115039
  66 C :    0.011504
  67 C :   -0.032161
  68 C :   -0.066063
  69 C :   -0.062403
  70 C :   -0.025640
  71 C :    0.034628
  72 C :    0.323043
  73 C :   -0.329858
  74 C :   -0.192436
  75 N :    0.180755
  76 C :   -0.183092
  77 N :    0.185442
  78 C :   -0.174026
  79 N :    0.207058
  80 C :   -0.174110
  81 N :    0.199890
  82 H :    0.025600
  83 H :    0.019586
  84 H :    0.054823
  85 H :    0.003801
  86 H :    0.013624
  87 H :   -0.032191
  88 H :    0.020060
  89 H :    0.154191
  90 H :   -0.006574
  91 H :    0.148957
  92 H :    0.012911
  93 H :    0.020995
  94 H :    0.000230
  95 H :    0.018263
  96 H :    0.004726
  97 H :    0.011077
  98 H :    0.009628
  99 H :    0.041013
 100 H :    0.021053
 101 H :    0.028066
Sum of atomic charges:   -0.0000000

LOEWDIN ATOMIC CHARGES
----------------------
   0 C :    0.004154
   1 C :    0.037482
   2 C :   -0.020929
   3 C :   -0.031934
   4 N :   -0.006699
   5 C :   -0.022332
   6 C :   -0.032064
   7 N :   -0.007994
   8 C :    0.054936
   9 C :   -0.019262
  10 C :    0.080871
  11 O :   -0.128022
  12 C :   -0.052096
  13 C :    0.074940
  14 C :   -0.116117
  15 C :   -0.024629
  16 N :   -0.022697
  17 C :   -0.008280
  18 N :   -0.039189
  19 C :    0.049279
  20 C :   -0.003689
  21 C :   -0.017529
  22 N :    0.292893
  23 O :   -0.180844
  24 O :   -0.210883
  25 C :   -0.014023
  26 C :   -0.024987
  27 C :    0.015852
  28 C :    0.057308
  29 C :   -0.053501
  30 C :    0.047166
  31 C :   -0.075832
  32 N :    0.293529
  33 O :   -0.191477
  34 O :   -0.239998
  35 C :    0.012635
  36 C :    0.021168
  37 N :    0.086679
  38 C :    0.011032
  39 C :   -0.057374
  40 C :    0.022941
  41 N :    0.075265
  42 C :    0.000920
  43 C :   -0.048879
  44 C :    0.008840
  45 C :   -0.023542
  46 C :    0.021578
  47 C :   -0.063303
  48 N :    0.286173
  49 O :   -0.233063
  50 O :   -0.204245
  51 C :    0.051629
  52 C :   -0.048874
  53 C :    0.057975
  54 C :    0.023516
  55 C :   -0.021259
  56 C :   -0.000619
  57 C :   -0.021199
  58 N :    0.284333
  59 O :   -0.188316
  60 O :   -0.210848
  61 C :   -0.010835
  62 C :    0.053018
  63 C :   -0.064707
  64 C :    0.086963
  65 O :   -0.118675
  66 C :   -0.030404
  67 C :    0.051261
  68 C :   -0.026293
  69 C :   -0.018802
  70 C :    0.040434
  71 C :    0.011799
  72 C :    0.072393
  73 C :   -0.117712
  74 C :   -0.017083
  75 N :   -0.035253
  76 C :   -0.023841
  77 N :   -0.024468
  78 C :   -0.031516
  79 N :   -0.005994
  80 C :   -0.032451
  81 N :   -0.009948
  82 H :    0.053560
  83 H :    0.055840
  84 H :    0.048146
  85 H :    0.037885
  86 H :    0.033312
  87 H :    0.027681
  88 H :    0.045388
  89 H :    0.075008
  90 H :    0.037310
  91 H :    0.101416
  92 H :    0.040080
  93 H :    0.043471
  94 H :    0.029505
  95 H :    0.044763
  96 H :    0.032751
  97 H :    0.034880
  98 H :    0.040655
  99 H :    0.053291
 100 H :    0.055645
 101 H :    0.054960

  Mayer bond orders larger than 0.100000
B(  0-C ,  1-C ) :   1.3510 B(  0-C ,  9-C ) :   1.3354 B(  0-C , 13-C ) :   0.9827
B(  1-C ,  2-C ) :   1.4046 B(  1-C , 82-H ) :   0.9880 B(  2-C ,  3-C ) :   1.0850
B(  2-C ,  5-C ) :   1.3929 B(  3-C ,  4-N ) :   3.0445 B(  5-C ,  6-C ) :   1.0874
B(  5-C ,  8-C ) :   1.3754 B(  6-C ,  7-N ) :   3.0437 B(  8-C ,  9-C ) :   1.3691
B(  8-C , 83-H ) :   1.0137 B(  9-C , 10-C ) :   0.9080 B( 10-C , 11-O ) :   2.2712
B( 10-C , 12-C ) :   0.8867 B( 12-C , 13-C ) :   1.0299 B( 12-C , 19-C ) :   1.7700
B( 13-C , 14-C ) :   1.6944 B( 14-C , 15-C ) :   1.1237 B( 14-C , 17-C ) :   1.1549
B( 15-C , 16-N ) :   2.9817 B( 17-C , 18-N ) :   2.9145 B( 19-C , 20-C ) :   1.0253
B( 19-C , 84-H ) :   0.9292 B( 20-C , 21-C ) :   1.5763 B( 20-C , 27-C ) :   1.0960
B( 21-C , 22-N ) :   0.9413 B( 21-C , 25-C ) :   1.1279 B( 22-N , 23-O ) :   1.5631
B( 22-N , 24-O ) :   1.4623 B( 23-O , 24-O ) :   0.2522 B( 25-C , 26-C ) :   1.6044
B( 25-C , 85-H ) :   1.0149 B( 26-C , 27-C ) :   1.0978 B( 26-C , 86-H ) :   0.9876
B( 27-C , 28-C ) :   1.4922 B( 28-C , 29-C ) :   1.1326 B( 28-C , 35-C ) :   1.0206
B( 29-C , 30-C ) :   1.5495 B( 29-C , 87-H ) :   1.0018 B( 30-C , 31-C ) :   1.1433
B( 30-C , 88-H ) :   1.0094 B( 31-C , 32-N ) :   0.9869 B( 31-C , 35-C ) :   1.4417
B( 32-N , 33-O ) :   1.5622 B( 32-N , 34-O ) :   1.3954 B( 33-O , 34-O ) :   0.2345
B( 34-O , 89-H ) :   0.1204 B( 35-C , 36-C ) :   1.1649 B( 36-C , 37-N ) :   1.2610
B( 36-C , 43-C ) :   1.2681 B( 37-N , 38-C ) :   1.1914 B( 37-N , 89-H ) :   0.8709
B( 38-C , 39-C ) :   1.2925 B( 38-C , 42-C ) :   1.2184 B( 39-C , 40-C ) :   1.2792
B( 39-C , 90-H ) :   1.0446 B( 40-C , 41-N ) :   1.2016 B( 40-C , 44-C ) :   1.2325
B( 41-N , 42-C ) :   1.1635 B( 41-N , 91-H ) :   0.9252 B( 42-C , 43-C ) :   1.3412
B( 43-C , 92-H ) :   1.0192 B( 44-C , 45-C ) :   1.4385 B( 44-C , 93-H ) :   0.9531
B( 45-C , 46-C ) :   1.2947 B( 45-C , 94-H ) :   0.9411 B( 46-C , 47-C ) :   1.4458
B( 46-C , 53-C ) :   0.9742 B( 47-C , 48-N ) :   0.9612 B( 47-C , 51-C ) :   1.1546
B( 48-N , 49-O ) :   1.4785 B( 48-N , 50-O ) :   1.5441 B( 49-O , 50-O ) :   0.2512
B( 51-C , 52-C ) :   1.5119 B( 51-C , 95-H ) :   1.0098 B( 52-C , 53-C ) :   1.1853
B( 52-C , 96-H ) :   0.9967 B( 53-C , 54-C ) :   1.4709 B( 54-C , 55-C ) :   1.1189
B( 54-C , 61-C ) :   1.0737 B( 55-C , 56-C ) :   1.5805 B( 55-C , 97-H ) :   0.9991
B( 56-C , 57-C ) :   1.1436 B( 56-C , 98-H ) :   1.0092 B( 57-C , 58-N ) :   0.9422
B( 57-C , 61-C ) :   1.5274 B( 58-N , 59-O ) :   1.5514 B( 58-N , 60-O ) :   1.4775
B( 59-O , 60-O ) :   0.2633 B( 61-C , 62-C ) :   1.0269 B( 62-C , 63-C ) :   1.7532
B( 62-C , 99-H ) :   0.9281 B( 63-C , 64-C ) :   0.9353 B( 63-C , 72-C ) :   1.0010
B( 64-C , 65-O ) :   2.2963 B( 64-C , 66-C ) :   0.8987 B( 66-C , 67-C ) :   1.3630
B( 66-C , 71-C ) :   1.3327 B( 67-C , 68-C ) :   1.3729 B( 67-C ,100-H ) :   1.0132
B( 68-C , 69-C ) :   1.3960 B( 68-C , 80-C ) :   1.0884 B( 69-C , 70-C ) :   1.3925
B( 69-C , 78-C ) :   1.0857 B( 70-C , 71-C ) :   1.3649 B( 70-C ,101-H ) :   0.9903
B( 71-C , 72-C ) :   0.9826 B( 72-C , 73-C ) :   1.6968 B( 73-C , 74-C ) :   1.1712
B( 73-C , 76-C ) :   1.1263 B( 74-C , 75-N ) :   2.9907 B( 76-C , 77-N ) :   2.9944
B( 78-C , 79-N ) :   3.0436 B( 80-C , 81-N ) :   3.0443

-----------------------------------------------------------------------------
         ABSORPTION SPECTRUM VIA TRANSITION ELECTRIC DIPOLE MOMENTS
-----------------------------------------------------------------------------
State   Energy  Wavelength   fosc         T2         TX        TY        TZ
        (cm-1)    (nm)                  (au**2)     (au)      (au)      (au)
-----------------------------------------------------------------------------
   0    6496.1   1539.4   0.503555077  25.51941   2.45676   4.19859   1.36219
   1   10952.0    913.1   0.017681923   0.53151   0.25766   0.57307   0.36975
   2   15360.2    651.0   0.013071044   0.28015  -0.01495  -0.51723  -0.11136
   3   16056.9    622.8   0.014709753   0.30159   0.06118  -0.39800   0.37342
   4   17580.3    568.8   0.024909496   0.46646  -0.58783  -0.30316  -0.17031
   5   19485.1    513.2   0.153037038   2.58565   1.58757  -0.25408  -0.02655
   6   19842.9    504.0   0.051432282   0.85331  -0.87481  -0.02691  -0.29546
   7   20495.6    487.9   0.047537659   0.76358  -0.86405  -0.11833   0.05470
   8   21672.0    461.4   0.335669262   5.09904  -1.63194  -1.53936  -0.25731
   9   21815.8    458.4   0.023641820   0.35677   0.37665   0.28311  -0.36709
  10   23290.2    429.4   0.095853588   1.35491   1.06471   0.43333   0.18310
  11   23415.1    427.1   0.094238146   1.32497  -0.54909  -1.01165   0.00622
  12   23844.6    419.4   0.015557398   0.21479   0.32947   0.32541   0.01885
  13   24600.7    406.5   0.117695939   1.57503   0.48898   1.14373   0.16678
  14   24737.0    404.3   0.066480490   0.88475   0.68609   0.43356  -0.47547
  15   24813.1    403.0   0.010099622   0.13400   0.17791   0.24275   0.20837
  16   25333.7    394.7   0.075091229   0.97581  -0.04414   0.96027   0.22747
  17   25403.2    393.7   0.115458411   1.49628   0.41258  -1.14808  -0.08934
  18   25921.5    385.8   0.011712462   0.14875   0.08135   0.35052   0.13882
  19   26180.1    382.0   0.010557100   0.13275  -0.04674  -0.35593  -0.06230
  20   26353.9    379.4   0.024244225   0.30286   0.42143  -0.35384  -0.00720
  21   26978.8    370.7   0.110002167   1.34231   1.10946  -0.26106  -0.20799
  22   27063.8    369.5   0.031102864   0.37834  -0.10742  -0.60196   0.06666
  23   27709.0    360.9   0.018778755   0.22311  -0.44158   0.00692   0.16754
  24   27899.1    358.4   0.031705808   0.37413   0.49083  -0.32075  -0.17418
  25   28113.5    355.7   0.025318260   0.29648  -0.52041   0.15705  -0.03151
  26   28551.9    350.2   0.058250079   0.67164   0.66057  -0.43712  -0.21025
  27   28673.7    348.8   0.285094620   3.27326  -1.45985   0.61861   0.87145
  28   29109.6    343.5   0.106492352   1.20436   0.96693  -0.51862   0.02101
  29   29457.5    339.5   0.029969406   0.33493  -0.55693  -0.13491   0.08103
  30   29967.4    333.7   0.182772418   2.00788   0.86052  -1.08720  -0.29219
  31   30120.2    332.0   0.098587309   1.07755   0.62709  -0.77806  -0.28095
  32   30510.7    327.8   0.057704140   0.62263   0.29352  -0.72667   0.09181
  33   30847.6    324.2   0.166390496   1.77576  -0.69159   0.62993   0.94902
  34   31201.1    320.5   0.152073043   1.60457  -1.22627   0.02764   0.31634
  35   31322.6    319.3   0.131519484   1.38232   1.04809   0.26233  -0.46369
  36   31385.1    318.6   0.006723448   0.07053  -0.17251   0.15699  -0.12696
  37   31521.2    317.2   0.035372788   0.36944  -0.48787  -0.21703   0.29037
  38   31698.6    315.5   0.242038396   2.51374   1.48887   0.27548  -0.47024
  39   31754.5    314.9   0.080333917   0.83285   0.21535   0.68545  -0.56270
  40   31832.6    314.1   0.006206531   0.06419   0.24970   0.02627  -0.03384
  41   32088.4    311.6   0.144293930   1.48039   0.18577  -0.66687   1.00058
  42   32193.0    310.6   0.009101222   0.09307  -0.13478   0.14164  -0.23418
  43   33021.8    302.8   0.022238443   0.22171  -0.33621   0.31552   0.09547
  44   33047.0    302.6   0.005167973   0.05148   0.02823   0.04178  -0.22122
  45   33152.7    301.6   0.070913578   0.70418   0.43679   0.57995  -0.42078
  46   33478.6    298.7   0.069072139   0.67922   0.63415  -0.43849  -0.29121
  47   33762.0    296.2   0.032182978   0.31381  -0.46280   0.27087  -0.16204
  48   33913.1    294.9   0.159495192   1.54830  -1.03271   0.37537   0.58388
  49   34055.5    293.6   0.016397036   0.15851  -0.26487   0.13849   0.26301
  50   34103.2    293.2   0.046872364   0.45248   0.46572  -0.20086   0.44186
  51   34276.3    291.7   0.035747289   0.34334   0.23374  -0.51904  -0.13893
  52   34347.2    291.1   0.008921832   0.08551   0.08860   0.21442   0.17802
  53   34416.1    290.6   0.102174192   0.97736   0.96279  -0.22103  -0.03934
  54   34512.6    289.7   0.101389640   0.96715   0.48497  -0.84630   0.12540
  55   34518.0    289.7   0.136212694   1.29912  -0.12161  -0.71968   0.87544
  56   34728.7    287.9   0.027664739   0.26225   0.08926   0.10299   0.49363
  57   34831.1    287.1   0.249450822   2.35773  -0.00430  -1.09953   1.07179
  58   35230.3    283.8   0.064584589   0.60352  -0.66921   0.35304   0.17616
  59   35293.3    283.3   0.118695973   1.10718  -1.05185  -0.00929   0.02654
  60   35428.7    282.3   0.032487113   0.30188   0.51286   0.09181  -0.17443
  61   35599.2    280.9   0.104442614   0.96586  -0.86195   0.40232  -0.24708
  62   35682.1    280.3   0.047581917   0.43900  -0.45884  -0.46191  -0.12292
  63   35795.2    279.4   0.022869510   0.21033  -0.26504   0.34129   0.15366
  64   35913.2    278.4   0.022222802   0.20371  -0.31729   0.23847   0.21489
  65   36260.2    275.8   0.087271963   0.79236   0.71145  -0.49959  -0.19133
  66   36532.6    273.7   0.114910596   1.03551  -0.85298   0.51926   0.19569
  67   36616.7    273.1   0.043098371   0.38749  -0.13890  -0.51783  -0.31630
  68   36780.7    271.9   0.286411164   2.56357  -0.12190   1.50416   0.53498
  69   37174.3    269.0   0.085636484   0.75839  -0.66620  -0.56083   0.00654
  70   37408.8    267.3   0.091688237   0.80689  -0.19058  -0.52238   0.70547
  71   37487.7    266.8   0.081063152   0.71189   0.78441  -0.04619   0.30733
  72   37661.1    265.5   0.096461386   0.84321  -0.80350  -0.42492  -0.13053
  73   37698.0    265.3   0.016334221   0.14264   0.00281  -0.36876  -0.08157
  74   37945.3    263.5   0.084863516   0.73627  -0.48851   0.54697   0.44548
  75   38027.6    263.0   0.056901865   0.49261   0.56273  -0.40038  -0.12509
  76   38087.6    262.6   0.018223645   0.15752   0.21496   0.09670  -0.31931
  77   38312.4    261.0   0.064613363   0.55521   0.71767  -0.11537  -0.16385
  78   38538.7    259.5   0.006263180   0.05350   0.18607  -0.12765  -0.05084
  79   38651.3    258.7   0.019286644   0.16427   0.33969   0.07362  -0.20849
  80   38836.7    257.5   0.006989219   0.05925   0.09296  -0.17929  -0.13587
  81   39194.5    255.1   0.085606369   0.71905   0.76461   0.36655  -0.00756
  82   39334.1    254.2   0.057207304   0.47880  -0.26588   0.63869  -0.01379
  83   39449.7    253.5   0.007851969   0.06553   0.05406  -0.24093  -0.06750
  84   39484.0    253.3   0.295615194   2.46480   0.83414  -1.23079  -0.50415
  85   39598.2    252.5   0.031436542   0.26136  -0.15286  -0.48703   0.02824
  86   39740.2    251.6   0.069626770   0.57679   0.42570  -0.59856  -0.19312
  87   39851.5    250.9   0.044558840   0.36810   0.07764  -0.49259  -0.34558
  88   39934.9    250.4   0.163316506   1.34633   1.05876   0.03421  -0.47349
  89   40189.5    248.8   0.027650975   0.22650  -0.27336   0.18321   0.34382
  90   40310.9    248.1   0.009167874   0.07487  -0.19519  -0.10758   0.15875

FINAL SINGLE POINT ENERGY     -3735.627536285246

DIPOLE MOMENT
-------------
                                X             Y             Z
Electronic contribution:     -3.10033       1.96016      -0.99447
Nuclear contribution   :      4.09244      -2.00985       1.88774
                        -----------------------------------------
Total Dipole Moment    :      0.99211      -0.04970       0.89327
                        -----------------------------------------
Magnitude (a.u.)       :      1.33592
Magnitude (Debye)      :      3.39564

Rotational constants in cm-1:     0.001759     0.000209     0.000196
Rotational constants in MHz :    52.723734     6.274270     5.886051

                             ****ORCA TERMINATED NORMALLY****
TOTAL RUN TIME: 0 days 0 hours 14 minutes 43 seconds 542 msec
