                         Program Version 4.2.0 -  RELEASE  -
|  1> # ORCA input file
|  2> # SCF done       -200.918830144398          0.000211946536
|  3> ! CAM-B3LYP def2-SVP def2/J RIJCOSX Grid4 TightSCF
|  4> %maxcore 5000
|  5> %tddft
|  6>     Mode sTDDFT
|  7>     Ethresh 5.0
|  8>     maxcore 5000
|  9> end
| 10>
| 11> %pal
| 12>   nprocs 6
| 13>   end
| 14> * xyz 0 1
| 15>    C        0.66983        -6.49175         3.78868
| 16>    C        1.91844        -6.33765         4.36742
| 17>    C        2.44596        -7.40029         5.10381
| 18>    C        3.72314        -7.26597         5.70240
| 19>    N        4.75681        -7.15176         6.18121
| 20>    C        1.73394        -8.60487         5.25962
| 21>    C        2.29057        -9.66368         6.01586
| 22>    N        2.72182       -10.53434         6.62225
| 23>    C        0.47978        -8.75850         4.66577
| 24>    C       -0.03194        -7.70223         3.94357
| 25>    C       -1.32575        -7.62653         3.22577
| 26>    O       -2.12205        -8.52893         3.09144
| 27>    C       -1.35030        -6.27455         2.61732
| 28>    C       -0.14052        -5.57753         2.98553
| 29>    C        0.16034        -4.26859         2.71236
| 30>    C        1.34649        -3.62509         3.12245
| 31>    N        2.29736        -3.05687         3.42265
| 32>    C       -0.68651        -3.38803         2.00603
| 33>    N       -1.33080        -2.61744         1.45024
| 34>    C       -2.28795        -5.87176         1.70858
| 35>    C       -3.52705        -6.52143         1.49933
| 36>    S       -4.06299        -6.75519        -0.14701
| 37>    C       -5.41483        -7.71690         0.36589
| 38>    C       -5.47385        -7.77285         1.75687
| 39>    C       -4.43149        -7.08036         2.39073
| 40>    C       -4.51926        -6.85756         3.87176
| 41>    F       -3.34091        -6.46018         4.46189
| 42>    C       -5.05596        -8.12097         4.53569
| 43>    C       -6.46529        -8.36871         4.01653
| 44>    C       -6.48117        -8.60109         2.50523
| 45>    F       -7.76466        -8.33750         2.04417
| 46>    C       -6.29523        -8.31882        -0.56434
| 47>    C       -6.14752        -8.22091        -1.91078
| 48>    C       -7.01999        -8.77615        -2.87405
| 49>    N       -6.74631        -8.65606        -4.22287
| 50>    C       -7.74391        -9.25208        -4.92263
| 51>    C       -8.19644        -9.54667        -6.20160
| 52>    C       -9.41292       -10.22583        -6.03570
| 53>    N       -9.69285       -10.33657        -4.68788
| 54>    C       -8.68451        -9.76100        -3.98477
| 55>    C       -8.22936        -9.46810        -2.70589
| 56>    C      -10.31277       -10.73737        -7.00281
| 57>    C      -10.05142       -10.75914        -8.33510
| 58>    C      -10.87391       -11.19142        -9.40566
| 59>    S      -10.18363       -11.01248       -10.99161
| 60>    C      -11.64157       -11.54757       -11.76986
| 61>    C      -12.60793       -11.86196       -10.81642
| 62>    C      -12.17393       -11.69734        -9.49481
| 63>    C      -13.04924       -12.04608        -8.32447
| 64>    F      -12.35128       -12.83276        -7.41818
| 65>    C      -14.29188       -12.82998        -8.74035
| 66>    C      -14.92818       -12.21769        -9.97628
| 67>    C      -13.97697       -12.37698       -11.15552
| 68>    F      -14.50394       -11.69752       -12.24268
| 69>    C      -11.73778       -11.67198       -13.16930
| 70>    C      -10.68253       -11.56290       -14.02759
| 71>    C      -10.75227       -11.66973       -15.42810
| 72>    C      -11.74541       -12.12720       -16.25865
| 73>    C      -11.69487       -11.70225       -17.68037
| 74>    O      -10.77173       -11.17080       -18.25287
| 75>    C      -13.03168       -12.02290       -18.23477
| 76>    C      -13.54804       -11.71583       -19.47476
| 77>    C      -14.86719       -12.08475       -19.74729
| 78>    C      -15.63300       -12.74525       -18.76816
| 79>    C      -15.09357       -13.06329       -17.51939
| 80>    C      -13.78333       -12.70383       -17.25873
| 81>    C      -12.94285       -12.90835       -16.07390
| 82>    C      -13.19062       -13.86370       -15.11958
| 83>    C      -12.28705       -14.22963       -14.10416
| 84>    N      -11.59639       -14.57729       -13.25514
| 85>    C      -14.36315       -14.64442       -15.06237
| 86>    N      -15.29937       -15.29790       -14.94305
| 87>    C      -16.97766       -13.08952       -19.05169
| 88>    N      -18.06680       -13.36711       -19.26995
| 89>    C      -15.43813       -11.78446       -21.00709
| 90>    N      -15.88176       -11.53118       -22.03209
| 91>    H        2.49396        -5.43131         4.26539
| 92>    H       -0.07554        -9.67798         4.77231
| 93>    H       -2.05262        -5.06420         1.02607
| 94>    H       -5.20946        -6.01551         4.04880
| 95>    H       -5.06807        -7.98530         5.61771
| 96>    H       -4.39263        -8.95346         4.29452
| 97>    H       -7.09121        -7.49745         4.22650
| 98>    H       -6.91133        -9.22836         4.51747
| 99>    H       -6.30560        -9.66214         2.27035
|100>    H       -7.12852        -8.86933        -0.15760
|101>    H       -5.29689        -7.67030        -2.29597
|102>    H       -5.93315        -8.20055        -4.60027
|103>    H       -7.73375        -9.30265        -7.13569
|104>    H      -10.49327       -10.81609        -4.31252
|105>    H       -8.69298        -9.69878        -1.76882
|106>    H      -11.23405       -11.13371        -6.60977
|107>    H       -9.09082       -10.38119        -8.65923
|108>    H      -13.32236       -11.13290        -7.77263
|109>    H      -14.99898       -12.85035        -7.91055
|110>    H      -13.98720       -13.85784        -8.95115
|111>    H      -15.12010       -11.15314        -9.82207
|112>    H      -15.87523       -12.70635       -10.20585
|113>    H      -13.91146       -13.42962       -11.47104
|114>    H      -12.72859       -11.82667       -13.56695
|115>    H       -9.71264       -11.31963       -13.61215
|116>    H       -9.90758       -11.25338       -15.97042
|117>    H      -12.95111       -11.20178       -20.21264
|118>    H      -15.71145       -13.56381       -16.79075
|119> *
|120>
|121>                          ****END OF INPUT****

CARTESIAN COORDINATES (ANGSTROEM)
---------------------------------
  C      0.669830   -6.491750    3.788680
  C      1.918440   -6.337650    4.367420
  C      2.445960   -7.400290    5.103810
  C      3.723140   -7.265970    5.702400
  N      4.756810   -7.151760    6.181210
  C      1.733940   -8.604870    5.259620
  C      2.290570   -9.663680    6.015860
  N      2.721820  -10.534340    6.622250
  C      0.479780   -8.758500    4.665770
  C     -0.031940   -7.702230    3.943570
  C     -1.325750   -7.626530    3.225770
  O     -2.122050   -8.528930    3.091440
  C     -1.350300   -6.274550    2.617320
  C     -0.140520   -5.577530    2.985530
  C      0.160340   -4.268590    2.712360
  C      1.346490   -3.625090    3.122450
  N      2.297360   -3.056870    3.422650
  C     -0.686510   -3.388030    2.006030
  N     -1.330800   -2.617440    1.450240
  C     -2.287950   -5.871760    1.708580
  C     -3.527050   -6.521430    1.499330
  S     -4.062990   -6.755190   -0.147010
  C     -5.414830   -7.716900    0.365890
  C     -5.473850   -7.772850    1.756870
  C     -4.431490   -7.080360    2.390730
  C     -4.519260   -6.857560    3.871760
  F     -3.340910   -6.460180    4.461890
  C     -5.055960   -8.120970    4.535690
  C     -6.465290   -8.368710    4.016530
  C     -6.481170   -8.601090    2.505230
  F     -7.764660   -8.337500    2.044170
  C     -6.295230   -8.318820   -0.564340
  C     -6.147520   -8.220910   -1.910780
  C     -7.019990   -8.776150   -2.874050
  N     -6.746310   -8.656060   -4.222870
  C     -7.743910   -9.252080   -4.922630
  C     -8.196440   -9.546670   -6.201600
  C     -9.412920  -10.225830   -6.035700
  N     -9.692850  -10.336570   -4.687880
  C     -8.684510   -9.761000   -3.984770
  C     -8.229360   -9.468100   -2.705890
  C    -10.312770  -10.737370   -7.002810
  C    -10.051420  -10.759140   -8.335100
  C    -10.873910  -11.191420   -9.405660
  S    -10.183630  -11.012480  -10.991610
  C    -11.641570  -11.547570  -11.769860
  C    -12.607930  -11.861960  -10.816420
  C    -12.173930  -11.697340   -9.494810
  C    -13.049240  -12.046080   -8.324470
  F    -12.351280  -12.832760   -7.418180
  C    -14.291880  -12.829980   -8.740350
  C    -14.928180  -12.217690   -9.976280
  C    -13.976970  -12.376980  -11.155520
  F    -14.503940  -11.697520  -12.242680
  C    -11.737780  -11.671980  -13.169300
  C    -10.682530  -11.562900  -14.027590
  C    -10.752270  -11.669730  -15.428100
  C    -11.745410  -12.127200  -16.258650
  C    -11.694870  -11.702250  -17.680370
  O    -10.771730  -11.170800  -18.252870
  C    -13.031680  -12.022900  -18.234770
  C    -13.548040  -11.715830  -19.474760
  C    -14.867190  -12.084750  -19.747290
  C    -15.633000  -12.745250  -18.768160
  C    -15.093570  -13.063290  -17.519390
  C    -13.783330  -12.703830  -17.258730
  C    -12.942850  -12.908350  -16.073900
  C    -13.190620  -13.863700  -15.119580
  C    -12.287050  -14.229630  -14.104160
  N    -11.596390  -14.577290  -13.255140
  C    -14.363150  -14.644420  -15.062370
  N    -15.299370  -15.297900  -14.943050
  C    -16.977660  -13.089520  -19.051690
  N    -18.066800  -13.367110  -19.269950
  C    -15.438130  -11.784460  -21.007090
  N    -15.881760  -11.531180  -22.032090
  H      2.493960   -5.431310    4.265390
  H     -0.075540   -9.677980    4.772310
  H     -2.052620   -5.064200    1.026070
  H     -5.209460   -6.015510    4.048800
  H     -5.068070   -7.985300    5.617710
  H     -4.392630   -8.953460    4.294520
  H     -7.091210   -7.497450    4.226500
  H     -6.911330   -9.228360    4.517470
  H     -6.305600   -9.662140    2.270350
  H     -7.128520   -8.869330   -0.157600
  H     -5.296890   -7.670300   -2.295970
  H     -5.933150   -8.200550   -4.600270
  H     -7.733750   -9.302650   -7.135690
  H    -10.493270  -10.816090   -4.312520
  H     -8.692980   -9.698780   -1.768820
  H    -11.234050  -11.133710   -6.609770
  H     -9.090820  -10.381190   -8.659230
  H    -13.322360  -11.132900   -7.772630
  H    -14.998980  -12.850350   -7.910550
  H    -13.987200  -13.857840   -8.951150
  H    -15.120100  -11.153140   -9.822070
  H    -15.875230  -12.706350  -10.205850
  H    -13.911460  -13.429620  -11.471040
  H    -12.728590  -11.826670  -13.566950
  H     -9.712640  -11.319630  -13.612150
  H     -9.907580  -11.253380  -15.970420
  H    -12.951110  -11.201780  -20.212640
  H    -15.711450  -13.563810  -16.790750

 Total Charge           Charge          ....    0
 Multiplicity           Mult            ....    1
 Number of Electrons    NEL             ....  530
 Basis Dimension        Dim             .... 1212

ORBITAL ENERGIES
----------------

  NO   OCC          E(Eh)            E(eV)
   0   2.0000     -88.978093     -2421.2170
   1   2.0000     -88.977978     -2421.2139
   2   2.0000     -24.773728      -674.1274
   3   2.0000     -24.772593      -674.0965
   4   2.0000     -24.770341      -674.0352
   5   2.0000     -24.764336      -673.8718
   6   2.0000     -19.232992      -523.3563
   7   2.0000     -19.228231      -523.2268
   8   2.0000     -14.478192      -393.9716
   9   2.0000     -14.477541      -393.9539
  10   2.0000     -14.431298      -392.6956
  11   2.0000     -14.428841      -392.6287
  12   2.0000     -14.428448      -392.6180
  13   2.0000     -14.428189      -392.6110
  14   2.0000     -14.427582      -392.5945
  15   2.0000     -14.426485      -392.5646
  16   2.0000     -14.424836      -392.5197
  17   2.0000     -14.424300      -392.5052
  18   2.0000     -10.385962      -282.6164
  19   2.0000     -10.379259      -282.4340
  20   2.0000     -10.372671      -282.2547
  21   2.0000     -10.371725      -282.2290
  22   2.0000     -10.371198      -282.2147
  23   2.0000     -10.368377      -282.1379
  24   2.0000     -10.359459      -281.8952
  25   2.0000     -10.358488      -281.8688
  26   2.0000     -10.357961      -281.8544
  27   2.0000     -10.356973      -281.8276
  28   2.0000     -10.356400      -281.8120
  29   2.0000     -10.355874      -281.7977
  30   2.0000     -10.355606      -281.7904
  31   2.0000     -10.354620      -281.7635
  32   2.0000     -10.337504      -281.2978
  33   2.0000     -10.336607      -281.2734
  34   2.0000     -10.334813      -281.2246
  35   2.0000     -10.334393      -281.2131
  36   2.0000     -10.334375      -281.2126
  37   2.0000     -10.332540      -281.1627
  38   2.0000     -10.331890      -281.1450
  39   2.0000     -10.331707      -281.1400
  40   2.0000     -10.330739      -281.1137
  41   2.0000     -10.330207      -281.0992
  42   2.0000     -10.330046      -281.0948
  43   2.0000     -10.329417      -281.0777
  44   2.0000     -10.329256      -281.0733
  45   2.0000     -10.326910      -281.0095
  46   2.0000     -10.326353      -280.9943
  47   2.0000     -10.325142      -280.9614
  48   2.0000     -10.324898      -280.9548
  49   2.0000     -10.324825      -280.9528
  50   2.0000     -10.322868      -280.8995
  51   2.0000     -10.322640      -280.8933
  52   2.0000     -10.322617      -280.8927
  53   2.0000     -10.321621      -280.8656
  54   2.0000     -10.321223      -280.8548
  55   2.0000     -10.320860      -280.8449
  56   2.0000     -10.319498      -280.8078
  57   2.0000     -10.315323      -280.6942
  58   2.0000     -10.314950      -280.6841
  59   2.0000     -10.314455      -280.6706
  60   2.0000     -10.312122      -280.6071
  61   2.0000     -10.310147      -280.5534
  62   2.0000     -10.309919      -280.5472
  63   2.0000     -10.306534      -280.4550
  64   2.0000     -10.304176      -280.3909
  65   2.0000     -10.304041      -280.3872
  66   2.0000     -10.301438      -280.3164
  67   2.0000     -10.300294      -280.2852
  68   2.0000     -10.297936      -280.2211
  69   2.0000     -10.296682      -280.1870
  70   2.0000     -10.294503      -280.1277
  71   2.0000     -10.293792      -280.1083
  72   2.0000     -10.291757      -280.0530
  73   2.0000     -10.288801      -279.9725
  74   2.0000     -10.285456      -279.8815
  75   2.0000     -10.284807      -279.8638
  76   2.0000      -8.073934      -219.7029
  77   2.0000      -8.073821      -219.6998
  78   2.0000      -6.043042      -164.4395
  79   2.0000      -6.042987      -164.4380
  80   2.0000      -6.039130      -164.3331
  81   2.0000      -6.039113      -164.3326
  82   2.0000      -6.036144      -164.2518
  83   2.0000      -6.035750      -164.2411
  84   2.0000      -1.286725       -35.0136
  85   2.0000      -1.283128       -34.9157
  86   2.0000      -1.281018       -34.8583
  87   2.0000      -1.274822       -34.6897
  88   2.0000      -1.148450       -31.2509
  89   2.0000      -1.143692       -31.1215
  90   2.0000      -1.110278       -30.2122
  91   2.0000      -1.073905       -29.2224
  92   2.0000      -1.040559       -28.3150
  93   2.0000      -1.038515       -28.2594
  94   2.0000      -1.026183       -27.9238
  95   2.0000      -1.025756       -27.9122
  96   2.0000      -1.016824       -27.6692
  97   2.0000      -1.016605       -27.6632
  98   2.0000      -1.009362       -27.4661
  99   2.0000      -1.008351       -27.4386
 100   2.0000      -1.006810       -27.3967
 101   2.0000      -1.006486       -27.3879
 102   2.0000      -1.006458       -27.3871
 103   2.0000      -1.003944       -27.3187
 104   2.0000      -0.977182       -26.5905
 105   2.0000      -0.974758       -26.5245
 106   2.0000      -0.945084       -25.7170
 107   2.0000      -0.942549       -25.6481
 108   2.0000      -0.938535       -25.5388
 109   2.0000      -0.932445       -25.3731
 110   2.0000      -0.923551       -25.1311
 111   2.0000      -0.921902       -25.0862
 112   2.0000      -0.918060       -24.9817
 113   2.0000      -0.907318       -24.6894
 114   2.0000      -0.902111       -24.5477
 115   2.0000      -0.900025       -24.4909
 116   2.0000      -0.893303       -24.3080
 117   2.0000      -0.884477       -24.0678
 118   2.0000      -0.878480       -23.9047
 119   2.0000      -0.866734       -23.5850
 120   2.0000      -0.859731       -23.3945
 121   2.0000      -0.854773       -23.2596
 122   2.0000      -0.853645       -23.2289
 123   2.0000      -0.836706       -22.7679
 124   2.0000      -0.833591       -22.6832
 125   2.0000      -0.820572       -22.3289
 126   2.0000      -0.807278       -21.9672
 127   2.0000      -0.805618       -21.9220
 128   2.0000      -0.801247       -21.8030
 129   2.0000      -0.778729       -21.1903
 130   2.0000      -0.765126       -20.8201
 131   2.0000      -0.751569       -20.4512
 132   2.0000      -0.749239       -20.3878
 133   2.0000      -0.742313       -20.1994
 134   2.0000      -0.741545       -20.1785
 135   2.0000      -0.739447       -20.1214
 136   2.0000      -0.735407       -20.0114
 137   2.0000      -0.720174       -19.5969
 138   2.0000      -0.712871       -19.3982
 139   2.0000      -0.711757       -19.3679
 140   2.0000      -0.707631       -19.2556
 141   2.0000      -0.707300       -19.2466
 142   2.0000      -0.700211       -19.0537
 143   2.0000      -0.690214       -18.7817
 144   2.0000      -0.685537       -18.6544
 145   2.0000      -0.682411       -18.5693
 146   2.0000      -0.676851       -18.4180
 147   2.0000      -0.667326       -18.1589
 148   2.0000      -0.661796       -18.0084
 149   2.0000      -0.659187       -17.9374
 150   2.0000      -0.655097       -17.8261
 151   2.0000      -0.651921       -17.7397
 152   2.0000      -0.649592       -17.6763
 153   2.0000      -0.645121       -17.5546
 154   2.0000      -0.636041       -17.3076
 155   2.0000      -0.630397       -17.1540
 156   2.0000      -0.620368       -16.8811
 157   2.0000      -0.618371       -16.8267
 158   2.0000      -0.615999       -16.7622
 159   2.0000      -0.608576       -16.5602
 160   2.0000      -0.605881       -16.4869
 161   2.0000      -0.602104       -16.3841
 162   2.0000      -0.600465       -16.3395
 163   2.0000      -0.598549       -16.2874
 164   2.0000      -0.597243       -16.2518
 165   2.0000      -0.594696       -16.1825
 166   2.0000      -0.588759       -16.0209
 167   2.0000      -0.585502       -15.9323
 168   2.0000      -0.578883       -15.7522
 169   2.0000      -0.573561       -15.6074
 170   2.0000      -0.570004       -15.5106
 171   2.0000      -0.566936       -15.4271
 172   2.0000      -0.565222       -15.3805
 173   2.0000      -0.563311       -15.3285
 174   2.0000      -0.561768       -15.2865
 175   2.0000      -0.556918       -15.1545
 176   2.0000      -0.554956       -15.1011
 177   2.0000      -0.554672       -15.0934
 178   2.0000      -0.554051       -15.0765
 179   2.0000      -0.551541       -15.0082
 180   2.0000      -0.548804       -14.9337
 181   2.0000      -0.544099       -14.8057
 182   2.0000      -0.543246       -14.7825
 183   2.0000      -0.538706       -14.6589
 184   2.0000      -0.535345       -14.5675
 185   2.0000      -0.533079       -14.5058
 186   2.0000      -0.531497       -14.4628
 187   2.0000      -0.526948       -14.3390
 188   2.0000      -0.525838       -14.3088
 189   2.0000      -0.522201       -14.2098
 190   2.0000      -0.519706       -14.1419
 191   2.0000      -0.515691       -14.0327
 192   2.0000      -0.515244       -14.0205
 193   2.0000      -0.513462       -13.9720
 194   2.0000      -0.508748       -13.8437
 195   2.0000      -0.507412       -13.8074
 196   2.0000      -0.506718       -13.7885
 197   2.0000      -0.506023       -13.7696
 198   2.0000      -0.503516       -13.7014
 199   2.0000      -0.499437       -13.5904
 200   2.0000      -0.495631       -13.4868
 201   2.0000      -0.495134       -13.4733
 202   2.0000      -0.494142       -13.4463
 203   2.0000      -0.490421       -13.3450
 204   2.0000      -0.488875       -13.3030
 205   2.0000      -0.487899       -13.2764
 206   2.0000      -0.478540       -13.0217
 207   2.0000      -0.477696       -12.9988
 208   2.0000      -0.473290       -12.8789
 209   2.0000      -0.469389       -12.7727
 210   2.0000      -0.464915       -12.6510
 211   2.0000      -0.463695       -12.6178
 212   2.0000      -0.462606       -12.5881
 213   2.0000      -0.461003       -12.5445
 214   2.0000      -0.460707       -12.5365
 215   2.0000      -0.460086       -12.5196
 216   2.0000      -0.459432       -12.5018
 217   2.0000      -0.456937       -12.4339
 218   2.0000      -0.455688       -12.3999
 219   2.0000      -0.453880       -12.3507
 220   2.0000      -0.453341       -12.3360
 221   2.0000      -0.453127       -12.3302
 222   2.0000      -0.450996       -12.2722
 223   2.0000      -0.450740       -12.2653
 224   2.0000      -0.450300       -12.2533
 225   2.0000      -0.450053       -12.2466
 226   2.0000      -0.448855       -12.2140
 227   2.0000      -0.447678       -12.1819
 228   2.0000      -0.442354       -12.0371
 229   2.0000      -0.441785       -12.0216
 230   2.0000      -0.439496       -11.9593
 231   2.0000      -0.437809       -11.9134
 232   2.0000      -0.435099       -11.8397
 233   2.0000      -0.434705       -11.8289
 234   2.0000      -0.433956       -11.8085
 235   2.0000      -0.430224       -11.7070
 236   2.0000      -0.429211       -11.6794
 237   2.0000      -0.427177       -11.6241
 238   2.0000      -0.424686       -11.5563
 239   2.0000      -0.423823       -11.5328
 240   2.0000      -0.423164       -11.5149
 241   2.0000      -0.421879       -11.4799
 242   2.0000      -0.420140       -11.4326
 243   2.0000      -0.418802       -11.3962
 244   2.0000      -0.416627       -11.3370
 245   2.0000      -0.412903       -11.2357
 246   2.0000      -0.412064       -11.2128
 247   2.0000      -0.411396       -11.1947
 248   2.0000      -0.406007       -11.0480
 249   2.0000      -0.391517       -10.6537
 250   2.0000      -0.377480       -10.2718
 251   2.0000      -0.368415       -10.0251
 252   2.0000      -0.364434        -9.9168
 253   2.0000      -0.361022        -9.8239
 254   2.0000      -0.359224        -9.7750
 255   2.0000      -0.352255        -9.5854
 256   2.0000      -0.345056        -9.3895
 257   2.0000      -0.341859        -9.3025
 258   2.0000      -0.335838        -9.1386
 259   2.0000      -0.334061        -9.0903
 260   2.0000      -0.326789        -8.8924
 261   2.0000      -0.310485        -8.4487
 262   2.0000      -0.299633        -8.1534
 263   2.0000      -0.276931        -7.5357
 264   2.0000      -0.233771        -6.3612
 265   0.0000      -0.115270        -3.1367
 266   0.0000      -0.107899        -2.9361
 267   0.0000      -0.094320        -2.5666
 268   0.0000      -0.090392        -2.4597
 269   0.0000      -0.064672        -1.7598

MULLIKEN ATOMIC CHARGES
-----------------------
   0 C :    0.052318
   1 C :   -0.046333
   2 C :   -0.063146
   3 C :   -0.172275
   4 N :    0.202953
   5 C :   -0.068339
   6 C :   -0.174957
   7 N :    0.195543
   8 C :   -0.036496
   9 C :   -0.005803
  10 C :    0.161376
  11 O :   -0.145953
  12 C :   -0.082898
  13 C :    0.297564
  14 C :   -0.330319
  15 C :   -0.186621
  16 N :    0.165773
  17 C :   -0.205382
  18 N :    0.170624
  19 C :    0.007482
  20 C :   -0.166881
  21 S :    0.127149
  22 C :   -0.058455
  23 C :   -0.106792
  24 C :    0.039218
  25 C :    0.282881
  26 F :   -0.234467
  27 C :    0.005083
  28 C :    0.011799
  29 C :    0.299248
  30 F :   -0.256723
  31 C :   -0.027536
  32 C :    0.016097
  33 C :    0.103235
  34 N :   -0.032388
  35 C :    0.117859
  36 C :   -0.167733
  37 C :    0.089056
  38 N :   -0.031804
  39 C :    0.119258
  40 C :   -0.165829
  41 C :    0.021023
  42 C :    0.026532
  43 C :   -0.083819
  44 S :    0.138930
  45 C :   -0.117391
  46 C :   -0.039398
  47 C :   -0.079358
  48 C :    0.294344
  49 F :   -0.254029
  50 C :    0.010755
  51 C :    0.013393
  52 C :    0.287713
  53 F :   -0.249022
  54 C :    0.034124
  55 C :   -0.004746
  56 C :    0.053237
  57 C :   -0.141733
  58 C :    0.136432
  59 O :   -0.135162
  60 C :    0.018419
  61 C :   -0.040001
  62 C :   -0.070029
  63 C :   -0.064891
  64 C :   -0.042048
  65 C :    0.027104
  66 C :    0.284032
  67 C :   -0.336511
  68 C :   -0.211904
  69 N :    0.176345
  70 C :   -0.179628
  71 N :    0.165345
  72 C :   -0.171776
  73 N :    0.198584
  74 C :   -0.172861
  75 N :    0.194837
  76 H :    0.020493
  77 H :    0.011424
  78 H :    0.035508
  79 H :    0.031302
  80 H :    0.022427
  81 H :    0.035970
  82 H :    0.021542
  83 H :    0.019698
  84 H :    0.020164
  85 H :    0.002958
  86 H :   -0.017616
  87 H :    0.124681
  88 H :   -0.027717
  89 H :    0.127715
  90 H :   -0.024912
  91 H :   -0.019073
  92 H :   -0.019787
  93 H :    0.011590
  94 H :    0.022218
  95 H :    0.031388
  96 H :    0.022780
  97 H :    0.027196
  98 H :    0.035244
  99 H :    0.032926
 100 H :    0.000890
 101 H :    0.028563
 102 H :    0.015800
 103 H :    0.022401
Sum of atomic charges:   -0.0000000

LOEWDIN ATOMIC CHARGES
----------------------
   0 C :    0.004910
   1 C :    0.033025
   2 C :   -0.024896
   3 C :   -0.031360
   4 N :   -0.012727
   5 C :   -0.030409
   6 C :   -0.031735
   7 N :   -0.016803
   8 C :    0.046612
   9 C :   -0.025766
  10 C :    0.083196
  11 O :   -0.137111
  12 C :   -0.096512
  13 C :    0.067369
  14 C :   -0.127286
  15 C :   -0.022481
  16 N :   -0.039488
  17 C :   -0.022671
  18 N :   -0.041062
  19 C :    0.052399
  20 C :   -0.185506
  21 S :    0.447061
  22 C :   -0.125982
  23 C :   -0.089142
  24 C :   -0.022694
  25 C :    0.112426
  26 F :   -0.107649
  27 C :   -0.035747
  28 C :   -0.036959
  29 C :    0.116924
  30 F :   -0.134490
  31 C :   -0.053632
  32 C :   -0.013377
  33 C :   -0.002602
  34 N :    0.072744
  35 C :   -0.013008
  36 C :   -0.084907
  37 C :   -0.000051
  38 N :    0.073458
  39 C :   -0.013847
  40 C :   -0.079921
  41 C :   -0.006762
  42 C :   -0.060072
  43 C :   -0.125497
  44 S :    0.465912
  45 C :   -0.179285
  46 C :   -0.040274
  47 C :   -0.089856
  48 C :    0.113125
  49 F :   -0.128097
  50 C :   -0.035230
  51 C :   -0.035114
  52 C :    0.115863
  53 F :   -0.125720
  54 C :    0.042623
  55 C :   -0.067393
  56 C :    0.077083
  57 C :   -0.113268
  58 C :    0.081279
  59 O :   -0.135529
  60 C :   -0.029096
  61 C :    0.046952
  62 C :   -0.031284
  63 C :   -0.025456
  64 C :    0.030015
  65 C :    0.005883
  66 C :    0.062343
  67 C :   -0.140610
  68 C :   -0.016285
  69 N :   -0.037835
  70 C :   -0.024969
  71 N :   -0.045717
  72 C :   -0.030865
  73 N :   -0.015076
  74 C :   -0.031758
  75 N :   -0.017280
  76 H :    0.052258
  77 H :    0.052115
  78 H :    0.045071
  79 H :    0.033142
  80 H :    0.034135
  81 H :    0.033498
  82 H :    0.032491
  83 H :    0.034600
  84 H :    0.025461
  85 H :    0.033731
  86 H :    0.022220
  87 H :    0.091573
  88 H :    0.025714
  89 H :    0.092538
  90 H :    0.028049
  91 H :    0.026328
  92 H :    0.027355
  93 H :    0.018960
  94 H :    0.034721
  95 H :    0.035773
  96 H :    0.030897
  97 H :    0.037098
  98 H :    0.030609
  99 H :    0.037068
 100 H :    0.026847
 101 H :    0.049154
 102 H :    0.053701
 103 H :    0.051843

  Mayer bond orders larger than 0.100000
B(  0-C ,  1-C ) :   1.3581 B(  0-C ,  9-C ) :   1.3342 B(  0-C , 13-C ) :   0.9577
B(  1-C ,  2-C ) :   1.3897 B(  1-C , 76-H ) :   0.9861 B(  2-C ,  3-C ) :   1.0865
B(  2-C ,  5-C ) :   1.4049 B(  3-C ,  4-N ) :   3.0433 B(  5-C ,  6-C ) :   1.0846
B(  5-C ,  8-C ) :   1.3611 B(  6-C ,  7-N ) :   3.0457 B(  8-C ,  9-C ) :   1.3683
B(  8-C , 77-H ) :   1.0147 B(  9-C , 10-C ) :   0.9226 B( 10-C , 11-O ) :   2.2022
B( 10-C , 12-C ) :   0.9514 B( 12-C , 13-C ) :   1.0951 B( 12-C , 19-C ) :   1.5871
B( 13-C , 14-C ) :   1.6523 B( 14-C , 15-C ) :   1.1434 B( 14-C , 17-C ) :   1.1435
B( 15-C , 16-N ) :   2.9630 B( 17-C , 18-N ) :   2.9935 B( 19-C , 20-C ) :   1.1715
B( 19-C , 78-H ) :   0.9356 B( 20-C , 21-S ) :   1.0833 B( 20-C , 24-C ) :   1.4712
B( 21-S , 22-C ) :   1.1428 B( 22-C , 23-C ) :   1.4509 B( 22-C , 31-C ) :   1.1874
B( 23-C , 24-C ) :   1.3328 B( 23-C , 29-C ) :   0.9956 B( 24-C , 25-C ) :   0.9728
B( 25-C , 26-F ) :   1.0079 B( 25-C , 27-C ) :   1.0486 B( 25-C , 79-H ) :   0.9318
B( 27-C , 28-C ) :   1.0526 B( 27-C , 80-H ) :   0.9257 B( 27-C , 81-H ) :   0.9426
B( 28-C , 29-C ) :   1.0712 B( 28-C , 82-H ) :   0.9292 B( 28-C , 83-H ) :   0.9247
B( 29-C , 30-F ) :   0.9959 B( 29-C , 84-H ) :   0.9284 B( 31-C , 32-C ) :   1.6121
B( 31-C , 85-H ) :   0.9662 B( 32-C , 33-C ) :   1.1391 B( 32-C , 86-H ) :   0.9602
B( 33-C , 34-N ) :   1.1662 B( 33-C , 40-C ) :   1.3860 B( 34-N , 35-C ) :   1.1728
B( 34-N , 87-H ) :   0.9361 B( 35-C , 36-C ) :   1.2740 B( 35-C , 39-C ) :   1.2898
B( 36-C , 37-C ) :   1.3827 B( 36-C , 88-H ) :   1.0306 B( 37-C , 38-N ) :   1.1719
B( 37-C , 41-C ) :   1.1361 B( 38-N , 39-C ) :   1.1709 B( 38-N , 89-H ) :   0.9339
B( 39-C , 40-C ) :   1.2733 B( 40-C , 90-H ) :   1.0331 B( 41-C , 42-C ) :   1.6486
B( 41-C , 91-H ) :   0.9492 B( 42-C , 43-C ) :   1.1653 B( 42-C , 92-H ) :   0.9450
B( 43-C , 44-S ) :   1.1674 B( 43-C , 47-C ) :   1.4304 B( 44-S , 45-C ) :   1.0910
B( 45-C , 46-C ) :   1.4437 B( 45-C , 54-C ) :   1.2569 B( 46-C , 47-C ) :   1.3821
B( 46-C , 52-C ) :   0.9743 B( 47-C , 48-C ) :   0.9820 B( 48-C , 49-F ) :   1.0011
B( 48-C , 50-C ) :   1.0770 B( 48-C , 93-H ) :   0.9190 B( 50-C , 51-C ) :   1.0407
B( 50-C , 94-H ) :   0.9255 B( 50-C , 95-H ) :   0.9356 B( 51-C , 52-C ) :   1.0703
B( 51-C , 96-H ) :   0.9417 B( 51-C , 97-H ) :   0.9260 B( 52-C , 53-F ) :   0.9948
B( 52-C , 98-H ) :   0.9214 B( 54-C , 55-C ) :   1.5092 B( 54-C , 99-H ) :   0.9405
B( 55-C , 56-C ) :   1.2551 B( 55-C ,100-H ) :   0.9614 B( 56-C , 57-C ) :   1.5544
B( 56-C ,101-H ) :   0.9310 B( 57-C , 58-C ) :   0.9697 B( 57-C , 66-C ) :   1.0729
B( 58-C , 59-O ) :   2.2626 B( 58-C , 60-C ) :   0.8957 B( 60-C , 61-C ) :   1.3739
B( 60-C , 65-C ) :   1.3357 B( 61-C , 62-C ) :   1.3617 B( 61-C ,102-H ) :   1.0142
B( 62-C , 63-C ) :   1.4076 B( 62-C , 74-C ) :   1.0857 B( 63-C , 64-C ) :   1.3837
B( 63-C , 72-C ) :   1.0869 B( 64-C , 65-C ) :   1.3681 B( 64-C ,103-H ) :   0.9886
B( 65-C , 66-C ) :   0.9704 B( 66-C , 67-C ) :   1.6218 B( 67-C , 68-C ) :   1.1886
B( 67-C , 70-C ) :   1.1301 B( 68-C , 69-N ) :   2.9586 B( 70-C , 71-N ) :   2.9812
B( 72-C , 73-N ) :   3.0446 B( 74-C , 75-N ) :   3.0455

-----------------------------------------------------------------------------
         ABSORPTION SPECTRUM VIA TRANSITION ELECTRIC DIPOLE MOMENTS
-----------------------------------------------------------------------------
State   Energy  Wavelength   fosc         T2         TX        TY        TZ
        (cm-1)    (nm)                  (au**2)     (au)      (au)      (au)
-----------------------------------------------------------------------------
   0   12583.2    794.7   2.360677129  61.76198  -4.00553  -2.34484  -6.34188
   1   15640.4    639.4   0.115316147   2.42727  -1.44658  -0.31452   0.48555
   2   18637.6    536.6   0.105231084   1.85879  -0.73798   0.18958  -1.13059
   3   20056.8    498.6   0.178006247   2.92179   0.06462  -0.01465  -1.70804
   4   22223.8    450.0   0.081232385   1.20334   0.22007  -0.25870  -1.04306
   5   23803.0    420.1   0.054356090   0.75178  -0.68773  -0.38853   0.35756
   6   24556.3    407.2   0.341531896   4.57872   1.16922   1.03605   1.46228
   7   26401.0    378.8   0.019395850   0.24186  -0.10067   0.41190  -0.24913
   8   27282.5    366.5   0.082646314   0.99727  -0.00295  -0.01569   0.99851
   9   28984.0    345.0   0.006520174   0.07406  -0.09881  -0.00566  -0.25350
  10   29253.8    341.8   0.029576171   0.33284   0.29197   0.08435  -0.49039
  11   29404.4    340.1   0.050571296   0.56620  -0.24961  -0.06364  -0.70699
  12   29528.6    338.7   0.085753421   0.95606  -0.19245   0.31817  -0.90432
  13   30124.3    332.0   0.105713590   1.15529  -0.32152  -0.72508   0.72538
  14   30772.3    325.0   0.074230994   0.79415   0.54682   0.28778   0.64212
  15   31046.8    322.1   0.018497137   0.19614   0.17384  -0.28123   0.29466
  16   31275.8    319.7   0.014017328   0.14755  -0.18052   0.10770  -0.32150
  17   32163.7    310.9   0.042870306   0.43880  -0.41941   0.44397  -0.25648
  18   32272.0    309.9   0.129520176   1.32126   0.63593  -0.33436   0.89725
  19   32509.5    307.6   0.025109714   0.25428  -0.20231  -0.31914   0.33391
  20   32962.4    303.4   0.009972747   0.09960  -0.03435  -0.25717   0.17969
  21   33138.5    301.8   0.098097533   0.97454  -0.10478  -0.85433   0.48340
  22   33582.9    297.8   0.024370631   0.23890   0.47858   0.01625  -0.09799
  23   34274.5    291.8   0.017067934   0.16394   0.40180   0.02300   0.04432
  24   34427.6    290.5   0.467610331   4.47149   0.69203  -1.57948   1.22386
  25   35048.4    285.3   0.090894335   0.85378  -0.15745  -0.09553   0.90546
  26   35458.8    282.0   0.089182631   0.82800   0.25943  -0.14269   0.86043
  27   35903.2    278.5   0.146372115   1.34215  -0.41129   0.98566  -0.44885
  28   36300.2    275.5   0.039783641   0.36080  -0.27814  -0.45783   0.27172
  29   36418.3    274.6   0.010387303   0.09390   0.25142  -0.13972  -0.10567
  30   36735.8    272.2   0.014162076   0.12692   0.23901   0.10976   0.24029
  31   37124.2    269.4   0.047278075   0.41926   0.21754  -0.15571   0.58965
  32   37210.0    268.7   0.120753897   1.06836   0.05130  -0.47966   0.91414
  33   37568.7    266.2   0.020223546   0.17722  -0.18120  -0.08279  -0.37085
  34   37764.7    264.8   0.019636233   0.17118   0.05387   0.27923  -0.30051
  35   38145.9    262.2   0.503169727   4.34253  -0.32423   1.37403  -1.53279
  36   38540.7    259.5   0.117748244   1.00580   0.97365  -0.20449  -0.12647
  37   38762.5    258.0   0.099856028   0.84808  -0.41764  -0.80828   0.14265
  38   38874.4    257.2   0.149474172   1.26584  -0.30923  -1.06659  -0.18058

FINAL SINGLE POINT ENERGY     -4116.201810289084

DIPOLE MOMENT
-------------
                                X             Y             Z
Electronic contribution:     22.95094       7.62379      -9.09647
Nuclear contribution   :    -24.81491      -7.48085      11.05769
                        -----------------------------------------
Total Dipole Moment    :     -1.86397       0.14294       1.96122
                        -----------------------------------------
Magnitude (a.u.)       :      2.70947
Magnitude (Debye)      :      6.88692

Rotational constants in cm-1:     0.002365     0.000142     0.000139
Rotational constants in MHz :    70.891105     4.250048     4.152838

                             ****ORCA TERMINATED NORMALLY****
TOTAL RUN TIME: 0 days 0 hours 11 minutes 15 seconds 412 msec
