                         Program Version 4.2.0 -  RELEASE  -
|  1> # ORCA input file
|  2> # SCF done       -199.479392598714          0.000734960573
|  3> ! CAM-B3LYP def2-SVP def2/J RIJCOSX Grid4 TightSCF
|  4> %maxcore 5000
|  5> %tddft
|  6>     Mode sTDDFT
|  7>     Ethresh 5.0
|  8>     maxcore 5000
|  9> end
| 10>
| 11> %pal
| 12>   nprocs 6
| 13>   end
| 14> * xyz 0 1
| 15>    C       -9.16549         1.67682        -3.42723
| 16>    C       -9.29008         1.79188        -4.78344
| 17>    F       -9.54749         2.98385        -5.33711
| 18>    C       -9.15039         0.66267        -5.61512
| 19>    F       -9.27718         0.80516        -6.94103
| 20>    C       -8.88876        -0.56702        -5.07857
| 21>    C       -8.75604        -0.71803        -3.68474
| 22>    C       -8.89584         0.42308        -2.84279
| 23>    C       -8.76732         0.29633        -1.44033
| 24>    C       -8.50941        -0.93404        -0.89601
| 25>    C       -8.37492        -2.06785        -1.74547
| 26>    C       -8.49032        -1.97743        -3.10241
| 27>    C       -8.11674        -3.26001        -0.91963
| 28>    O       -7.93789        -4.39459        -1.32494
| 29>    C       -8.12271        -2.80154         0.47455
| 30>    C       -8.33657        -1.36643         0.48966
| 31>    C       -8.36390        -0.53810         1.58163
| 32>    C       -8.18946        -0.93379         2.92442
| 33>    N       -8.05620        -1.17195         4.04023
| 34>    C       -8.56589         0.85681         1.51006
| 35>    N       -8.72296         1.99379         1.52544
| 36>    C       -7.98250        -3.60530         1.57650
| 37>    C       -7.79386        -4.99244         1.67562
| 38>    C       -7.72359        -5.62669         2.91889
| 39>    C       -7.55224        -6.99160         2.80465
| 40>    C       -7.47575        -7.43004         1.46738
| 41>    S       -7.63181        -6.13439         0.34516
| 42>    C       -7.31199        -8.81580         1.39359
| 43>    C       -7.27319        -9.42576         2.65553
| 44>    S       -7.42388        -8.28854         3.96446
| 45>    C       -7.12887       -10.81095         2.60840
| 46>    C       -7.04673       -11.27722         1.31338
| 47>    S       -7.14979        -9.98007         0.13417
| 48>    C       -6.90140       -12.63571         0.88235
| 49>    C       -6.69010       -12.97107        -0.44496
| 50>    C       -6.55088       -14.29015        -0.86478
| 51>    F       -6.33507       -14.47470        -2.18201
| 52>    C       -6.62588       -15.40269        -0.03348
| 53>    C       -6.84746       -15.08760         1.33751
| 54>    C       -6.97261       -13.72573         1.79329
| 55>    N       -7.16405       -13.66221         3.10905
| 56>    S       -7.18349       -15.14759         3.71531
| 57>    N       -6.95149       -15.95172         2.34531
| 58>    C       -6.49124       -16.75555        -0.48956
| 59>    C       -6.69644       -17.89629         0.26046
| 60>    C       -6.46922       -19.05410        -0.47824
| 61>    C       -6.07819       -18.81058        -1.80328
| 62>    S       -6.01436       -17.12380        -2.13877
| 63>    C       -5.84510       -19.99404        -2.50665
| 64>    C       -6.06265       -21.13515        -1.71642
| 65>    S       -6.56289       -20.74811        -0.09433
| 66>    C       -5.80766       -22.32885        -2.37861
| 67>    C       -5.42242       -22.12945        -3.69443
| 68>    S       -5.33574       -20.41565        -4.09333
| 69>    C       -5.01528       -23.15320        -4.57799
| 70>    C       -4.78537       -23.11572        -5.91932
| 71>    C       -3.89615       -24.13940        -6.53297
| 72>    O       -3.53535       -25.18048        -6.03545
| 73>    C       -3.50346       -23.57066        -7.83950
| 74>    C       -2.59446       -24.04225        -8.74182
| 75>    C       -2.34890       -23.30154        -9.91989
| 76>    C       -3.05056       -22.08024       -10.13857
| 77>    C       -2.78957       -21.34095       -11.30969
| 78>    C       -1.87826       -21.79404       -12.22172
| 79>    C       -1.18801       -23.00374       -12.00642
| 80>    C       -1.41783       -23.74301       -10.88024
| 81>    F       -0.29988       -23.42345       -12.91786
| 82>    F       -1.63082       -21.08908       -13.33368
| 83>    C       -3.99645       -21.62300        -9.19222
| 84>    C       -4.22246       -22.36118        -8.06224
| 85>    C       -5.14479       -22.16367        -6.94722
| 86>    C       -6.30195       -21.43209        -6.99470
| 87>    C       -7.31060       -21.53416        -6.01384
| 88>    N       -8.17144       -21.64732        -5.26322
| 89>    C       -6.65262       -20.59731        -8.07429
| 90>    N       -6.96713       -19.89639        -8.92679
| 91>    H       -9.27485         2.55146        -2.80518
| 92>    H       -8.78506        -1.42171        -5.72853
| 93>    H       -8.88033         1.17959        -0.83317
| 94>    H       -8.38320        -2.85480        -3.72191
| 95>    H       -8.03715        -3.12044         2.54367
| 96>    H       -7.80141        -5.09324         3.84893
| 97>    H       -7.08640       -11.45804         3.46358
| 98>    H       -6.62279       -12.19800        -1.19540
| 99>    H       -6.99405       -17.87073         1.29090
|100>    H       -5.91478       -23.30453        -1.94158
|101>    H       -4.75298       -24.09178        -4.09770
|102>    H       -2.06768       -24.96645        -8.55915
|103>    H       -3.31208       -20.41501       -11.49235
|104>    H       -0.88122       -24.66660       -10.72946
|105>    H       -4.51103       -20.69334        -9.37713
|106> *
|107>
|108>                          ****END OF INPUT****

CARTESIAN COORDINATES (ANGSTROEM)
---------------------------------
  C     -9.165490    1.676820   -3.427230
  C     -9.290080    1.791880   -4.783440
  F     -9.547490    2.983850   -5.337110
  C     -9.150390    0.662670   -5.615120
  F     -9.277180    0.805160   -6.941030
  C     -8.888760   -0.567020   -5.078570
  C     -8.756040   -0.718030   -3.684740
  C     -8.895840    0.423080   -2.842790
  C     -8.767320    0.296330   -1.440330
  C     -8.509410   -0.934040   -0.896010
  C     -8.374920   -2.067850   -1.745470
  C     -8.490320   -1.977430   -3.102410
  C     -8.116740   -3.260010   -0.919630
  O     -7.937890   -4.394590   -1.324940
  C     -8.122710   -2.801540    0.474550
  C     -8.336570   -1.366430    0.489660
  C     -8.363900   -0.538100    1.581630
  C     -8.189460   -0.933790    2.924420
  N     -8.056200   -1.171950    4.040230
  C     -8.565890    0.856810    1.510060
  N     -8.722960    1.993790    1.525440
  C     -7.982500   -3.605300    1.576500
  C     -7.793860   -4.992440    1.675620
  C     -7.723590   -5.626690    2.918890
  C     -7.552240   -6.991600    2.804650
  C     -7.475750   -7.430040    1.467380
  S     -7.631810   -6.134390    0.345160
  C     -7.311990   -8.815800    1.393590
  C     -7.273190   -9.425760    2.655530
  S     -7.423880   -8.288540    3.964460
  C     -7.128870  -10.810950    2.608400
  C     -7.046730  -11.277220    1.313380
  S     -7.149790   -9.980070    0.134170
  C     -6.901400  -12.635710    0.882350
  C     -6.690100  -12.971070   -0.444960
  C     -6.550880  -14.290150   -0.864780
  F     -6.335070  -14.474700   -2.182010
  C     -6.625880  -15.402690   -0.033480
  C     -6.847460  -15.087600    1.337510
  C     -6.972610  -13.725730    1.793290
  N     -7.164050  -13.662210    3.109050
  S     -7.183490  -15.147590    3.715310
  N     -6.951490  -15.951720    2.345310
  C     -6.491240  -16.755550   -0.489560
  C     -6.696440  -17.896290    0.260460
  C     -6.469220  -19.054100   -0.478240
  C     -6.078190  -18.810580   -1.803280
  S     -6.014360  -17.123800   -2.138770
  C     -5.845100  -19.994040   -2.506650
  C     -6.062650  -21.135150   -1.716420
  S     -6.562890  -20.748110   -0.094330
  C     -5.807660  -22.328850   -2.378610
  C     -5.422420  -22.129450   -3.694430
  S     -5.335740  -20.415650   -4.093330
  C     -5.015280  -23.153200   -4.577990
  C     -4.785370  -23.115720   -5.919320
  C     -3.896150  -24.139400   -6.532970
  O     -3.535350  -25.180480   -6.035450
  C     -3.503460  -23.570660   -7.839500
  C     -2.594460  -24.042250   -8.741820
  C     -2.348900  -23.301540   -9.919890
  C     -3.050560  -22.080240  -10.138570
  C     -2.789570  -21.340950  -11.309690
  C     -1.878260  -21.794040  -12.221720
  C     -1.188010  -23.003740  -12.006420
  C     -1.417830  -23.743010  -10.880240
  F     -0.299880  -23.423450  -12.917860
  F     -1.630820  -21.089080  -13.333680
  C     -3.996450  -21.623000   -9.192220
  C     -4.222460  -22.361180   -8.062240
  C     -5.144790  -22.163670   -6.947220
  C     -6.301950  -21.432090   -6.994700
  C     -7.310600  -21.534160   -6.013840
  N     -8.171440  -21.647320   -5.263220
  C     -6.652620  -20.597310   -8.074290
  N     -6.967130  -19.896390   -8.926790
  H     -9.274850    2.551460   -2.805180
  H     -8.785060   -1.421710   -5.728530
  H     -8.880330    1.179590   -0.833170
  H     -8.383200   -2.854800   -3.721910
  H     -8.037150   -3.120440    2.543670
  H     -7.801410   -5.093240    3.848930
  H     -7.086400  -11.458040    3.463580
  H     -6.622790  -12.198000   -1.195400
  H     -6.994050  -17.870730    1.290900
  H     -5.914780  -23.304530   -1.941580
  H     -4.752980  -24.091780   -4.097700
  H     -2.067680  -24.966450   -8.559150
  H     -3.312080  -20.415010  -11.492350
  H     -0.881220  -24.666600  -10.729460
  H     -4.511030  -20.693340   -9.377130

 Total Charge           Charge          ....    0
 Multiplicity           Mult            ....    1
 Number of Electrons    NEL             ....  566
 Basis Dimension        Dim             .... 1167

ORBITAL ENERGIES
----------------

  NO   OCC          E(Eh)            E(eV)
   0   2.0000     -89.043229     -2422.9894
   1   2.0000     -88.977786     -2421.2086
   2   2.0000     -88.974556     -2421.1208
   3   2.0000     -88.973519     -2421.0925
   4   2.0000     -88.971730     -2421.0439
   5   2.0000     -88.970916     -2421.0217
   6   2.0000     -88.968502     -2420.9560
   7   2.0000     -24.810403      -675.1254
   8   2.0000     -24.799673      -674.8334
   9   2.0000     -24.798578      -674.8036
  10   2.0000     -24.797128      -674.7642
  11   2.0000     -24.796416      -674.7448
  12   2.0000     -19.225287      -523.1466
  13   2.0000     -19.213724      -522.8320
  14   2.0000     -14.459346      -393.4588
  15   2.0000     -14.456645      -393.3853
  16   2.0000     -14.420320      -392.3969
  17   2.0000     -14.416377      -392.2896
  18   2.0000     -14.415294      -392.2601
  19   2.0000     -14.410890      -392.1402
  20   2.0000     -10.389174      -282.7038
  21   2.0000     -10.382855      -282.5319
  22   2.0000     -10.382035      -282.5095
  23   2.0000     -10.379893      -282.4512
  24   2.0000     -10.379522      -282.4411
  25   2.0000     -10.373521      -282.2779
  26   2.0000     -10.365770      -282.0669
  27   2.0000     -10.348362      -281.5932
  28   2.0000     -10.346010      -281.5292
  29   2.0000     -10.344711      -281.4939
  30   2.0000     -10.343791      -281.4689
  31   2.0000     -10.342521      -281.4343
  32   2.0000     -10.340855      -281.3890
  33   2.0000     -10.328777      -281.0603
  34   2.0000     -10.328171      -281.0438
  35   2.0000     -10.327838      -281.0348
  36   2.0000     -10.325910      -280.9823
  37   2.0000     -10.325697      -280.9765
  38   2.0000     -10.324803      -280.9522
  39   2.0000     -10.323312      -280.9116
  40   2.0000     -10.322943      -280.9016
  41   2.0000     -10.322268      -280.8832
  42   2.0000     -10.322241      -280.8825
  43   2.0000     -10.321802      -280.8705
  44   2.0000     -10.321704      -280.8679
  45   2.0000     -10.320999      -280.8486
  46   2.0000     -10.319676      -280.8126
  47   2.0000     -10.317895      -280.7642
  48   2.0000     -10.317710      -280.7592
  49   2.0000     -10.315718      -280.7049
  50   2.0000     -10.315452      -280.6977
  51   2.0000     -10.314773      -280.6792
  52   2.0000     -10.312946      -280.6295
  53   2.0000     -10.312065      -280.6056
  54   2.0000     -10.311773      -280.5976
  55   2.0000     -10.311724      -280.5963
  56   2.0000     -10.309658      -280.5401
  57   2.0000     -10.309265      -280.5294
  58   2.0000     -10.309090      -280.5246
  59   2.0000     -10.308791      -280.5165
  60   2.0000     -10.307801      -280.4895
  61   2.0000     -10.306644      -280.4580
  62   2.0000     -10.304709      -280.4054
  63   2.0000     -10.303826      -280.3814
  64   2.0000     -10.302624      -280.3487
  65   2.0000     -10.301702      -280.3236
  66   2.0000     -10.301322      -280.3132
  67   2.0000     -10.300862      -280.3007
  68   2.0000     -10.300827      -280.2997
  69   2.0000     -10.299797      -280.2717
  70   2.0000     -10.299042      -280.2512
  71   2.0000     -10.296274      -280.1759
  72   2.0000     -10.295733      -280.1611
  73   2.0000     -10.295368      -280.1512
  74   2.0000     -10.292534      -280.0741
  75   2.0000     -10.288824      -279.9731
  76   2.0000      -8.135024      -221.3653
  77   2.0000      -8.072714      -219.6697
  78   2.0000      -8.069214      -219.5745
  79   2.0000      -8.066869      -219.5107
  80   2.0000      -8.066380      -219.4973
  81   2.0000      -8.065556      -219.4749
  82   2.0000      -8.063735      -219.4254
  83   2.0000      -6.106331      -166.1617
  84   2.0000      -6.098402      -165.9459
  85   2.0000      -6.097353      -165.9174
  86   2.0000      -6.042247      -164.4179
  87   2.0000      -6.038823      -164.3247
  88   2.0000      -6.038189      -164.3075
  89   2.0000      -6.036653      -164.2657
  90   2.0000      -6.036137      -164.2516
  91   2.0000      -6.035251      -164.2275
  92   2.0000      -6.034691      -164.2123
  93   2.0000      -6.034356      -164.2032
  94   2.0000      -6.033504      -164.1800
  95   2.0000      -6.032788      -164.1605
  96   2.0000      -6.031516      -164.1259
  97   2.0000      -6.030862      -164.1081
  98   2.0000      -6.030744      -164.1049
  99   2.0000      -6.029617      -164.0742
 100   2.0000      -6.028049      -164.0316
 101   2.0000      -6.027749      -164.0234
 102   2.0000      -6.027097      -164.0056
 103   2.0000      -6.024648      -163.9390
 104   2.0000      -1.325174       -36.0598
 105   2.0000      -1.322125       -35.9768
 106   2.0000      -1.319642       -35.9093
 107   2.0000      -1.307242       -35.5719
 108   2.0000      -1.304787       -35.5051
 109   2.0000      -1.145266       -31.1643
 110   2.0000      -1.141092       -31.0507
 111   2.0000      -1.129444       -30.7337
 112   2.0000      -1.034110       -28.1396
 113   2.0000      -1.031571       -28.0705
 114   2.0000      -1.022486       -27.8233
 115   2.0000      -1.018395       -27.7119
 116   2.0000      -1.006924       -27.3998
 117   2.0000      -1.005014       -27.3478
 118   2.0000      -1.002167       -27.2704
 119   2.0000      -1.001037       -27.2396
 120   2.0000      -0.996933       -27.1279
 121   2.0000      -0.992610       -27.0103
 122   2.0000      -0.988783       -26.9062
 123   2.0000      -0.983871       -26.7725
 124   2.0000      -0.980643       -26.6847
 125   2.0000      -0.977871       -26.6092
 126   2.0000      -0.946189       -25.7471
 127   2.0000      -0.939629       -25.5686
 128   2.0000      -0.931177       -25.3386
 129   2.0000      -0.927538       -25.2396
 130   2.0000      -0.906493       -24.6669
 131   2.0000      -0.902622       -24.5616
 132   2.0000      -0.896808       -24.4034
 133   2.0000      -0.894535       -24.3415
 134   2.0000      -0.891647       -24.2629
 135   2.0000      -0.886997       -24.1364
 136   2.0000      -0.881851       -23.9964
 137   2.0000      -0.879810       -23.9408
 138   2.0000      -0.867682       -23.6108
 139   2.0000      -0.857353       -23.3298
 140   2.0000      -0.849293       -23.1104
 141   2.0000      -0.845600       -23.0099
 142   2.0000      -0.842287       -22.9198
 143   2.0000      -0.839196       -22.8357
 144   2.0000      -0.827298       -22.5119
 145   2.0000      -0.816370       -22.2146
 146   2.0000      -0.807011       -21.9599
 147   2.0000      -0.798917       -21.7396
 148   2.0000      -0.791284       -21.5319
 149   2.0000      -0.773844       -21.0574
 150   2.0000      -0.770832       -20.9754
 151   2.0000      -0.765146       -20.8207
 152   2.0000      -0.762466       -20.7478
 153   2.0000      -0.745471       -20.2853
 154   2.0000      -0.740275       -20.1439
 155   2.0000      -0.730860       -19.8877
 156   2.0000      -0.727663       -19.8007
 157   2.0000      -0.719601       -19.5813
 158   2.0000      -0.716286       -19.4911
 159   2.0000      -0.713552       -19.4167
 160   2.0000      -0.699287       -19.0286
 161   2.0000      -0.689272       -18.7560
 162   2.0000      -0.683008       -18.5856
 163   2.0000      -0.679224       -18.4826
 164   2.0000      -0.672207       -18.2917
 165   2.0000      -0.667619       -18.1668
 166   2.0000      -0.663618       -18.0580
 167   2.0000      -0.660714       -17.9790
 168   2.0000      -0.655161       -17.8278
 169   2.0000      -0.652993       -17.7689
 170   2.0000      -0.649074       -17.6622
 171   2.0000      -0.647393       -17.6165
 172   2.0000      -0.644012       -17.5245
 173   2.0000      -0.640914       -17.4402
 174   2.0000      -0.638331       -17.3699
 175   2.0000      -0.633751       -17.2452
 176   2.0000      -0.631454       -17.1827
 177   2.0000      -0.624520       -16.9940
 178   2.0000      -0.616577       -16.7779
 179   2.0000      -0.614855       -16.7311
 180   2.0000      -0.612348       -16.6628
 181   2.0000      -0.602422       -16.3927
 182   2.0000      -0.593807       -16.1583
 183   2.0000      -0.587095       -15.9757
 184   2.0000      -0.587042       -15.9742
 185   2.0000      -0.586631       -15.9630
 186   2.0000      -0.585257       -15.9257
 187   2.0000      -0.584105       -15.8943
 188   2.0000      -0.581114       -15.8129
 189   2.0000      -0.576803       -15.6956
 190   2.0000      -0.574473       -15.6322
 191   2.0000      -0.569930       -15.5086
 192   2.0000      -0.564286       -15.3550
 193   2.0000      -0.561844       -15.2886
 194   2.0000      -0.555636       -15.1196
 195   2.0000      -0.553645       -15.0654
 196   2.0000      -0.552369       -15.0307
 197   2.0000      -0.550277       -14.9738
 198   2.0000      -0.548186       -14.9169
 199   2.0000      -0.545820       -14.8525
 200   2.0000      -0.544766       -14.8238
 201   2.0000      -0.539718       -14.6865
 202   2.0000      -0.538903       -14.6643
 203   2.0000      -0.535516       -14.5721
 204   2.0000      -0.534888       -14.5550
 205   2.0000      -0.531425       -14.4608
 206   2.0000      -0.530928       -14.4473
 207   2.0000      -0.529887       -14.4190
 208   2.0000      -0.529295       -14.4028
 209   2.0000      -0.527707       -14.3596
 210   2.0000      -0.523957       -14.2576
 211   2.0000      -0.521591       -14.1932
 212   2.0000      -0.517232       -14.0746
 213   2.0000      -0.516324       -14.0499
 214   2.0000      -0.512539       -13.9469
 215   2.0000      -0.506165       -13.7735
 216   2.0000      -0.503055       -13.6888
 217   2.0000      -0.501188       -13.6380
 218   2.0000      -0.499827       -13.6010
 219   2.0000      -0.498806       -13.5732
 220   2.0000      -0.496827       -13.5194
 221   2.0000      -0.494671       -13.4607
 222   2.0000      -0.489157       -13.3106
 223   2.0000      -0.487974       -13.2784
 224   2.0000      -0.486745       -13.2450
 225   2.0000      -0.485742       -13.2177
 226   2.0000      -0.484819       -13.1926
 227   2.0000      -0.482648       -13.1335
 228   2.0000      -0.478774       -13.0281
 229   2.0000      -0.473865       -12.8945
 230   2.0000      -0.471796       -12.8382
 231   2.0000      -0.470912       -12.8142
 232   2.0000      -0.466145       -12.6845
 233   2.0000      -0.464322       -12.6348
 234   2.0000      -0.461860       -12.5679
 235   2.0000      -0.458968       -12.4892
 236   2.0000      -0.457698       -12.4546
 237   2.0000      -0.453714       -12.3462
 238   2.0000      -0.452643       -12.3171
 239   2.0000      -0.450013       -12.2455
 240   2.0000      -0.448679       -12.2092
 241   2.0000      -0.445884       -12.1331
 242   2.0000      -0.445572       -12.1246
 243   2.0000      -0.443957       -12.0807
 244   2.0000      -0.440502       -11.9867
 245   2.0000      -0.434742       -11.8299
 246   2.0000      -0.433146       -11.7865
 247   2.0000      -0.430572       -11.7165
 248   2.0000      -0.430057       -11.7024
 249   2.0000      -0.428849       -11.6696
 250   2.0000      -0.426099       -11.5947
 251   2.0000      -0.423506       -11.5242
 252   2.0000      -0.422853       -11.5064
 253   2.0000      -0.418971       -11.4008
 254   2.0000      -0.418180       -11.3793
 255   2.0000      -0.416374       -11.3301
 256   2.0000      -0.414188       -11.2706
 257   2.0000      -0.411952       -11.2098
 258   2.0000      -0.408170       -11.1069
 259   2.0000      -0.404624       -11.0104
 260   2.0000      -0.401176       -10.9166
 261   2.0000      -0.393484       -10.7072
 262   2.0000      -0.390326       -10.6213
 263   2.0000      -0.385814       -10.4985
 264   2.0000      -0.384385       -10.4596
 265   2.0000      -0.378663       -10.3040
 266   2.0000      -0.372350       -10.1322
 267   2.0000      -0.357597        -9.7307
 268   2.0000      -0.350324        -9.5328
 269   2.0000      -0.346076        -9.4172
 270   2.0000      -0.342355        -9.3160
 271   2.0000      -0.340265        -9.2591
 272   2.0000      -0.339238        -9.2311
 273   2.0000      -0.332746        -9.0545
 274   2.0000      -0.320429        -8.7193
 275   2.0000      -0.316227        -8.6050
 276   2.0000      -0.311276        -8.4703
 277   2.0000      -0.302330        -8.2268
 278   2.0000      -0.298945        -8.1347
 279   2.0000      -0.296253        -8.0615
 280   2.0000      -0.292634        -7.9630
 281   2.0000      -0.273553        -7.4438
 282   2.0000      -0.250040        -6.8039
 283   0.0000      -0.109484        -2.9792
 284   0.0000      -0.096017        -2.6128
 285   0.0000      -0.081442        -2.2162
 286   0.0000      -0.063429        -1.7260
 287   0.0000      -0.055952        -1.5225

MULLIKEN ATOMIC CHARGES
-----------------------
   0 C :   -0.108997
   1 C :    0.241664
   2 F :   -0.170472
   3 C :    0.239784
   4 F :   -0.171728
   5 C :   -0.105751
   6 C :    0.117018
   7 C :    0.113205
   8 C :   -0.083892
   9 C :    0.046978
  10 C :   -0.004054
  11 C :   -0.081616
  12 C :    0.168242
  13 O :   -0.178132
  14 C :   -0.097417
  15 C :    0.333682
  16 C :   -0.355002
  17 C :   -0.188233
  18 N :    0.144079
  19 C :   -0.184539
  20 N :    0.147187
  21 C :   -0.021816
  22 C :   -0.054402
  23 C :   -0.051167
  24 C :    0.004329
  25 C :   -0.055257
  26 S :    0.213541
  27 C :   -0.070796
  28 C :   -0.008762
  29 S :    0.169671
  30 C :   -0.042042
  31 C :   -0.112893
  32 S :    0.143228
  33 C :    0.169101
  34 C :   -0.130508
  35 C :    0.187615
  36 F :   -0.182911
  37 C :    0.110833
  38 C :   -0.013616
  39 C :    0.017076
  40 N :   -0.287204
  41 S :    0.531796
  42 N :   -0.294430
  43 C :   -0.125453
  44 C :   -0.045306
  45 C :   -0.012394
  46 C :   -0.068044
  47 S :    0.174939
  48 C :   -0.068814
  49 C :   -0.012294
  50 S :    0.168897
  51 C :   -0.002482
  52 C :   -0.079155
  53 S :    0.172763
  54 C :    0.045290
  55 C :   -0.139496
  56 C :    0.142879
  57 O :   -0.142792
  58 C :    0.010076
  59 C :   -0.083766
  60 C :    0.112606
  61 C :    0.111798
  62 C :   -0.106637
  63 C :    0.241262
  64 C :    0.237673
  65 C :   -0.103496
  66 F :   -0.172945
  67 F :   -0.171619
  68 C :   -0.080725
  69 C :    0.042825
  70 C :    0.243975
  71 C :   -0.314613
  72 C :   -0.210786
  73 N :    0.175239
  74 C :   -0.173353
  75 N :    0.149915
  76 H :    0.008971
  77 H :   -0.000603
  78 H :   -0.006781
  79 H :   -0.010419
  80 H :    0.010546
  81 H :    0.011314
  82 H :    0.003728
  83 H :    0.007855
  84 H :    0.000366
  85 H :    0.001001
  86 H :    0.025041
  87 H :   -0.009785
  88 H :    0.004248
  89 H :   -0.000877
  90 H :   -0.003963
Sum of atomic charges:   -0.0000000

LOEWDIN ATOMIC CHARGES
----------------------
   0 C :   -0.029016
   1 C :    0.066595
   2 F :   -0.048421
   3 C :    0.067713
   4 F :   -0.049011
   5 C :   -0.033250
   6 C :   -0.009020
   7 C :   -0.006661
   8 C :    0.018125
   9 C :   -0.022182
  10 C :   -0.051838
  11 C :    0.029658
  12 C :    0.084486
  13 O :   -0.166644
  14 C :   -0.112400
  15 C :    0.077362
  16 C :   -0.143749
  17 C :   -0.020853
  18 N :   -0.055048
  19 C :   -0.017667
  20 N :   -0.055138
  21 C :    0.059235
  22 C :   -0.177977
  23 C :   -0.020790
  24 C :   -0.195508
  25 C :   -0.201842
  26 S :    0.497713
  27 C :   -0.216896
  28 C :   -0.178544
  29 S :    0.410349
  30 C :   -0.049674
  31 C :   -0.151476
  32 S :    0.435864
  33 C :   -0.029584
  34 C :   -0.039861
  35 C :    0.091200
  36 F :   -0.056496
  37 C :   -0.073886
  38 C :   -0.030674
  39 C :   -0.041267
  40 N :   -0.274650
  41 S :    0.653612
  42 N :   -0.279261
  43 C :   -0.153679
  44 C :   -0.055490
  45 C :   -0.180149
  46 C :   -0.222419
  47 S :    0.446605
  48 C :   -0.189597
  49 C :   -0.195029
  50 S :    0.414544
  51 C :   -0.015600
  52 C :   -0.175046
  53 S :    0.461619
  54 C :    0.053676
  55 C :   -0.104426
  56 C :    0.082851
  57 O :   -0.145113
  58 C :   -0.053181
  59 C :    0.029524
  60 C :   -0.009967
  61 C :   -0.005830
  62 C :   -0.030681
  63 C :    0.066433
  64 C :    0.066028
  65 C :   -0.032917
  66 F :   -0.050263
  67 F :   -0.049442
  68 C :    0.012709
  69 C :   -0.018524
  70 C :    0.060305
  71 C :   -0.141830
  72 C :   -0.038289
  73 N :   -0.046297
  74 C :   -0.019048
  75 N :   -0.052464
  76 H :    0.048091
  77 H :    0.044717
  78 H :    0.040089
  79 H :    0.040156
  80 H :    0.051488
  81 H :    0.043087
  82 H :    0.034998
  83 H :    0.038281
  84 H :    0.032835
  85 H :    0.041286
  86 H :    0.052214
  87 H :    0.040350
  88 H :    0.046758
  89 H :    0.044600
  90 H :    0.039408

  Mayer bond orders larger than 0.100000
B(  0-C ,  1-C ) :   1.4396 B(  0-C ,  5-C ) :   0.1082 B(  0-C ,  7-C ) :   1.1894
B(  0-C , 76-H ) :   1.0072 B(  1-C ,  2-F ) :   1.1357 B(  1-C ,  3-C ) :   1.1915
B(  3-C ,  4-F ) :   1.1334 B(  3-C ,  5-C ) :   1.4415 B(  5-C ,  6-C ) :   1.1930
B(  5-C , 77-H ) :   1.0075 B(  6-C ,  7-C ) :   1.2567 B(  6-C , 11-C ) :   1.1860
B(  7-C ,  8-C ) :   1.2142 B(  8-C ,  9-C ) :   1.4538 B(  8-C , 78-H ) :   0.9897
B(  9-C , 10-C ) :   1.2211 B(  9-C , 15-C ) :   0.9816 B( 10-C , 11-C ) :   1.4708
B( 10-C , 12-C ) :   0.9561 B( 11-C , 79-H ) :   1.0172 B( 12-C , 13-O ) :   2.1334
B( 12-C , 14-C ) :   0.9794 B( 14-C , 15-C ) :   1.0841 B( 14-C , 21-C ) :   1.4817
B( 15-C , 16-C ) :   1.6189 B( 16-C , 17-C ) :   1.1442 B( 16-C , 19-C ) :   1.1492
B( 17-C , 18-N ) :   2.9566 B( 19-C , 20-N ) :   2.9591 B( 21-C , 22-C ) :   1.2770
B( 21-C , 80-H ) :   0.9395 B( 22-C , 23-C ) :   1.3649 B( 22-C , 26-S ) :   1.0696
B( 23-C , 24-C ) :   1.3307 B( 23-C , 81-H ) :   1.0127 B( 24-C , 25-C ) :   1.3766
B( 24-C , 29-S ) :   1.0353 B( 25-C , 26-S ) :   1.0616 B( 25-C , 27-C ) :   1.3176
B( 27-C , 28-C ) :   1.4442 B( 27-C , 32-S ) :   1.0721 B( 28-C , 29-S ) :   1.0529
B( 28-C , 30-C ) :   1.2401 B( 30-C , 31-C ) :   1.5282 B( 30-C , 82-H ) :   0.9877
B( 31-C , 32-S ) :   1.0904 B( 31-C , 33-C ) :   1.1367 B( 33-C , 34-C ) :   1.3969
B( 33-C , 37-C ) :   0.1103 B( 33-C , 39-C ) :   1.1837 B( 34-C , 35-C ) :   1.2484
B( 34-C , 83-H ) :   0.9916 B( 35-C , 36-F ) :   1.0933 B( 35-C , 37-C ) :   1.3738
B( 37-C , 38-C ) :   1.1757 B( 37-C , 43-C ) :   1.1326 B( 38-C , 39-C ) :   1.1512
B( 38-C , 42-N ) :   1.5321 B( 39-C , 40-N ) :   1.5321 B( 40-N , 41-S ) :   1.2661
B( 40-N , 42-N ) :   0.1434 B( 41-S , 42-N ) :   1.2564 B( 43-C , 44-C ) :   1.5236
B( 43-C , 47-S ) :   1.0928 B( 44-C , 45-C ) :   1.2512 B( 44-C , 84-H ) :   0.9852
B( 45-C , 46-C ) :   1.4374 B( 45-C , 50-S ) :   1.0576 B( 46-C , 47-S ) :   1.0527
B( 46-C , 48-C ) :   1.3262 B( 48-C , 49-C ) :   1.4167 B( 48-C , 53-S ) :   1.1016
B( 49-C , 50-S ) :   1.0404 B( 49-C , 51-C ) :   1.3000 B( 51-C , 52-C ) :   1.4296
B( 51-C , 85-H ) :   1.0067 B( 52-C , 53-S ) :   1.0745 B( 52-C , 54-C ) :   1.1772
B( 54-C , 55-C ) :   1.6126 B( 54-C , 86-H ) :   0.9448 B( 55-C , 56-C ) :   0.9464
B( 55-C , 70-C ) :   1.0406 B( 56-C , 57-O ) :   2.2691 B( 56-C , 58-C ) :   0.9172
B( 58-C , 59-C ) :   1.4784 B( 58-C , 69-C ) :   1.2222 B( 59-C , 60-C ) :   1.1927
B( 59-C , 87-H ) :   1.0162 B( 60-C , 61-C ) :   1.2587 B( 60-C , 65-C ) :   1.1933
B( 61-C , 62-C ) :   1.1895 B( 61-C , 68-C ) :   1.2126 B( 62-C , 63-C ) :   1.4420
B( 62-C , 65-C ) :   0.1089 B( 62-C , 88-H ) :   1.0070 B( 63-C , 64-C ) :   1.1927
B( 63-C , 67-F ) :   1.1339 B( 64-C , 65-C ) :   1.4425 B( 64-C , 66-F ) :   1.1323
B( 65-C , 89-H ) :   1.0071 B( 68-C , 69-C ) :   1.4602 B( 68-C , 90-H ) :   0.9951
B( 69-C , 70-C ) :   0.9977 B( 70-C , 71-C ) :   1.6592 B( 71-C , 72-C ) :   1.1466
B( 71-C , 74-C ) :   1.1364 B( 72-C , 73-N ) :   3.0304 B( 74-C , 75-N ) :   2.9888

-----------------------------------------------------------------------------
         ABSORPTION SPECTRUM VIA TRANSITION ELECTRIC DIPOLE MOMENTS
-----------------------------------------------------------------------------
State   Energy  Wavelength   fosc         T2         TX        TY        TZ
        (cm-1)    (nm)                  (au**2)     (au)      (au)      (au)
-----------------------------------------------------------------------------
   0   16085.4    621.7   2.209377344  45.21813  -0.99191   6.26561   2.23079
   1   19794.0    505.2   0.734056600  12.20875   0.12978  -2.04331   2.83139
   2   22133.7    451.8   0.104677865   1.55696   0.19584  -1.21124   0.22692
   3   23874.8    418.9   0.007247869   0.09994   0.10920  -0.28260   0.09031
   4   24949.8    400.8   0.060689797   0.80080   0.29240   0.33136  -0.77814
   5   25250.3    396.0   0.061729934   0.80483   0.08475  -0.13821  -0.88235
   6   26905.2    371.7   0.015943253   0.19508   0.06077   0.00647  -0.43743
   7   27009.6    370.2   0.019856996   0.24203  -0.44550  -0.19631  -0.07091
   8   27623.3    362.0   0.128775625   1.53474  -0.30220   1.00801  -0.65370
   9   28020.7    356.9   0.058128319   0.68294   0.29361  -0.30467  -0.70987
  10   28527.5    350.5   0.230744992   2.66283  -0.66598   0.63862   1.34591
  11   28547.5    350.3   0.006122135   0.07060  -0.08596   0.22325   0.11564
  12   28676.8    348.7   0.016917530   0.19421   0.20997  -0.23708   0.30647
  13   29071.2    344.0   0.200215751   2.26731  -0.82929   1.24602   0.16439
  14   29492.9    339.1   0.085512822   0.95453  -0.03577   0.29970  -0.92921
  15   29945.4    333.9   0.012531941   0.13777   0.15212   0.32339  -0.10024
  16   30107.8    332.1   0.070382789   0.76960  -0.56668   0.15861   0.65063
  17   30328.7    329.7   0.121220300   1.31582   0.25417   0.04014  -1.11786
  18   31377.6    318.7   0.055449549   0.58177  -0.31730   0.66087   0.21058
  19   32650.0    306.3   0.415409082   4.18860   0.27255  -2.00508  -0.30657
  20   33468.6    298.8   0.039542995   0.38896   0.00118  -0.01014  -0.62359
  21   33668.9    297.0   0.721261426   7.05244   0.67770  -0.32156  -2.54750
  22   33851.2    295.4   0.309156748   3.00663  -1.44526   0.45981  -0.84049
  23   34210.0    292.3   0.041124167   0.39575   0.16285   0.13111  -0.59333
  24   34715.8    288.1   0.176297526   1.67184   0.13686   0.29975  -1.25030
  25   34959.8    286.0   0.270706204   2.54921   1.09874   0.16898  -1.14605
  26   35137.9    284.6   0.088485307   0.82903   0.41384  -0.45381  -0.67218
  27   35206.3    284.0   0.068200745   0.63774  -0.08341  -0.49451   0.62149
  28   35306.3    283.2   0.008028709   0.07486  -0.06377   0.24203   0.11055
  29   35906.0    278.5   0.008736885   0.08011  -0.03790   0.01682  -0.27998
  30   35952.3    278.1   0.151578711   1.38799   0.16731  -0.10752  -1.16122
  31   36033.3    277.5   0.010304608   0.09415  -0.00315  -0.10190   0.28940
  32   36325.1    275.3   0.017966613   0.16283   0.05253   0.39553   0.06023
  33   36654.6    272.8   0.068281862   0.61327  -0.14886  -0.23804   0.73106
  34   36814.1    271.6   0.024755204   0.22137  -0.00007  -0.06014   0.46665
  35   37048.6    269.9   0.005249355   0.04665   0.01867  -0.04116  -0.21119
  36   37365.4    267.6   0.007303711   0.06435   0.08686   0.00600   0.23826
  37   37704.5    265.2   0.044743670   0.39067   0.50938  -0.10290  -0.34730
  38   38017.8    263.0   0.029324208   0.25393  -0.11633  -0.05368   0.48736
  39   38205.4    261.7   0.035892087   0.30928  -0.43826   0.05000   0.33868
  40   38387.8    260.5   0.028481685   0.24426  -0.43530   0.18217  -0.14692
  41   38553.2    259.4   0.149027991   1.27257  -0.02517   0.94671   0.61292
  42   38780.4    257.9   0.135431178   1.14969   0.56162  -0.82864  -0.38422
  43   39385.8    253.9   0.004801235   0.04013  -0.00596  -0.19967  -0.01513
  44   39713.7    251.8   0.008437680   0.06995  -0.21453  -0.15223  -0.02731
  45   39912.8    250.5   0.043604253   0.35966   0.19561  -0.37461  -0.42551
  46   40116.2    249.3   0.259273179   2.12771  -0.23397   0.99324  -1.04233

FINAL SINGLE POINT ENERGY     -5903.757585982321

DIPOLE MOMENT
-------------
                                X             Y             Z
Electronic contribution:      2.20479       4.03963     -13.83171
Nuclear contribution   :     -1.14985      -5.34344      15.20417
                        -----------------------------------------
Total Dipole Moment    :      1.05493      -1.30382       1.37246
                        -----------------------------------------
Magnitude (a.u.)       :      2.16713
Magnitude (Debye)      :      5.50842

Rotational constants in cm-1:     0.000914     0.000169     0.000145
Rotational constants in MHz :    27.409062     5.060817     4.355213

                             ****ORCA TERMINATED NORMALLY****
TOTAL RUN TIME: 0 days 0 hours 8 minutes 59 seconds 889 msec
