                         Program Version 4.2.0 -  RELEASE  -
|  1> # ORCA input file
|  2> # SCF done       -206.718549561010          0.000440073202
|  3> ! CAM-B3LYP def2-SVP def2/J RIJCOSX Grid4 TightSCF
|  4> %maxcore 5000
|  5> %tddft
|  6>     Mode sTDDFT
|  7>     Ethresh 5.0
|  8>     maxcore 5000
|  9> end
| 10>
| 11> %pal
| 12>   nprocs 6
| 13>   end
| 14> * xyz 0 1
| 15>    C       -3.00374         3.34710         2.20252
| 16>    C       -2.07774         3.82699         3.08553
| 17>    F       -1.77042         5.13063         3.09710
| 18>    C       -1.43500         2.96067         3.99279
| 19>    F       -0.53064         3.45900         4.84668
| 20>    C       -1.72743         1.62572         4.00438
| 21>    C       -2.67706         1.10067         3.10651
| 22>    C       -3.32830         1.97548         2.18913
| 23>    C       -4.28646         1.47204         1.27993
| 24>    C       -4.58287         0.13415         1.28701
| 25>    C       -3.92178        -0.73160         2.19964
| 26>    C       -2.99543        -0.27525         3.09240
| 27>    C       -4.39189        -2.11636         1.99861
| 28>    O       -4.04363        -3.07808         2.65151
| 29>    C       -5.33077        -2.05847         0.85441
| 30>    C       -5.50983        -0.66164         0.48795
| 31>    C       -6.42465        -0.14658        -0.39296
| 32>    C       -7.39815        -0.87877        -1.10634
| 33>    N       -8.23106        -1.38949        -1.71020
| 34>    C       -6.54888         1.22921        -0.68329
| 35>    N       -6.70076         2.33075        -0.96799
| 36>    C       -5.87116        -3.09632         0.14274
| 37>    C       -5.82412        -4.48982         0.33704
| 38>    C       -5.34420        -5.28332         1.36847
| 39>    C       -5.52966        -6.63447         1.11443
| 40>    C       -6.15630        -6.90646        -0.11753
| 41>    S       -6.53188        -5.46270        -0.96207
| 42>    C       -6.30340        -8.27552        -0.34017
| 43>    C       -5.79890        -9.04721         0.71590
| 44>    S       -5.13548        -8.08195         2.00260
| 45>    C       -5.91545       -10.42237         0.51343
| 46>    C       -6.50496       -10.72207        -0.69856
| 47>    S       -6.92653        -9.26959        -1.60081
| 48>    C       -6.75348       -12.00002        -1.28552
| 49>    C       -7.05610       -12.13541        -2.60246
| 50>    C       -7.24192       -13.39279        -3.22769
| 51>    C       -7.32359       -14.55052        -2.52502
| 52>    C       -7.30310       -14.49235        -1.01110
| 53>    C       -6.56365       -13.25615        -0.44700
| 54>    N       -6.93144       -12.98659         0.92438
| 55>    C       -8.08884       -13.28963         1.31266
| 56>    C       -9.04683       -14.01757         0.45946
| 57>    N       -8.68788       -14.59162        -0.59928
| 58>    F      -10.31432       -14.07811         0.84523
| 59>    F       -8.44772       -13.00902         2.55871
| 60>    C       -7.55569       -15.81345        -3.14414
| 61>    C       -7.89033       -17.01374        -2.54964
| 62>    C       -8.05528       -18.03535        -3.48489
| 63>    C       -7.83485       -17.62875        -4.80769
| 64>    S       -7.43380       -15.95684        -4.89204
| 65>    C       -8.00753       -18.66961        -5.72075
| 66>    C       -8.36139       -19.87471        -5.08900
| 67>    S       -8.48336       -19.71819        -3.35865
| 68>    C       -8.52659       -20.93797        -5.96639
| 69>    C       -8.30606       -20.56615        -7.28418
| 70>    S       -7.90754       -18.85723        -7.42254
| 71>    C       -8.42939       -21.30722        -8.47698
| 72>    C       -8.50515       -22.65343        -8.68334
| 73>    C       -9.07743       -23.13337        -9.97257
| 74>    O       -9.28862       -22.46978       -10.96068
| 75>    C       -9.37603       -24.56296        -9.75691
| 76>    C      -10.01905       -25.43815       -10.58331
| 77>    C      -10.22661       -26.76633       -10.14830
| 78>    C       -9.76458       -27.15980        -8.85879
| 79>    C       -9.98319       -28.48363        -8.42778
| 80>    C      -10.62718       -29.37495        -9.23942
| 81>    C      -11.08193       -28.98505       -10.51517
| 82>    C      -10.88614       -27.70821       -10.96159
| 83>    F      -11.71122       -29.87954       -11.28877
| 84>    F      -10.83369       -30.63253        -8.82778
| 85>    C       -9.09307       -26.23267        -8.02852
| 86>    C       -8.89617       -24.95339        -8.47438
| 87>    C       -8.22121       -23.80855        -7.86399
| 88>    C       -7.29264       -23.89000        -6.85766
| 89>    C       -6.46528       -22.81662        -6.47427
| 90>    N       -5.75527       -21.97278        -6.15542
| 91>    C       -7.00138       -25.07606        -6.15371
| 92>    N       -6.74448       -26.01174        -5.54051
| 93>    H       -3.48746         4.02401         1.51569
| 94>    H       -1.22671         0.97572         4.70472
| 95>    H       -4.75682         2.15998         0.59652
| 96>    H       -2.51124        -0.95605         3.77593
| 97>    H       -6.41663        -2.82031        -0.75258
| 98>    H       -4.87838        -4.87964         2.24828
| 99>    H       -5.58253       -11.16715         1.20999
|100>    H       -7.13637       -11.25112        -3.21751
|101>    H       -7.33436       -13.41379        -4.30355
|102>    H       -6.80710       -15.39321        -0.62476
|103>    H       -5.48463       -13.46548        -0.42841
|104>    H       -8.04567       -17.13695        -1.49500
|105>    H       -8.83996       -21.92100        -5.66672
|106>    H       -8.56016       -20.71423        -9.37825
|107>    H      -10.36634       -25.12127       -11.55484
|108>    H       -9.63841       -28.80010        -7.45579
|109>    H      -11.24018       -27.42483       -11.94037
|110>    H       -8.76004       -26.55613        -7.05517
|111> *
|112>
|113>                          ****END OF INPUT****

CARTESIAN COORDINATES (ANGSTROEM)
---------------------------------
  C     -3.003740    3.347100    2.202520
  C     -2.077740    3.826990    3.085530
  F     -1.770420    5.130630    3.097100
  C     -1.435000    2.960670    3.992790
  F     -0.530640    3.459000    4.846680
  C     -1.727430    1.625720    4.004380
  C     -2.677060    1.100670    3.106510
  C     -3.328300    1.975480    2.189130
  C     -4.286460    1.472040    1.279930
  C     -4.582870    0.134150    1.287010
  C     -3.921780   -0.731600    2.199640
  C     -2.995430   -0.275250    3.092400
  C     -4.391890   -2.116360    1.998610
  O     -4.043630   -3.078080    2.651510
  C     -5.330770   -2.058470    0.854410
  C     -5.509830   -0.661640    0.487950
  C     -6.424650   -0.146580   -0.392960
  C     -7.398150   -0.878770   -1.106340
  N     -8.231060   -1.389490   -1.710200
  C     -6.548880    1.229210   -0.683290
  N     -6.700760    2.330750   -0.967990
  C     -5.871160   -3.096320    0.142740
  C     -5.824120   -4.489820    0.337040
  C     -5.344200   -5.283320    1.368470
  C     -5.529660   -6.634470    1.114430
  C     -6.156300   -6.906460   -0.117530
  S     -6.531880   -5.462700   -0.962070
  C     -6.303400   -8.275520   -0.340170
  C     -5.798900   -9.047210    0.715900
  S     -5.135480   -8.081950    2.002600
  C     -5.915450  -10.422370    0.513430
  C     -6.504960  -10.722070   -0.698560
  S     -6.926530   -9.269590   -1.600810
  C     -6.753480  -12.000020   -1.285520
  C     -7.056100  -12.135410   -2.602460
  C     -7.241920  -13.392790   -3.227690
  C     -7.323590  -14.550520   -2.525020
  C     -7.303100  -14.492350   -1.011100
  C     -6.563650  -13.256150   -0.447000
  N     -6.931440  -12.986590    0.924380
  C     -8.088840  -13.289630    1.312660
  C     -9.046830  -14.017570    0.459460
  N     -8.687880  -14.591620   -0.599280
  F    -10.314320  -14.078110    0.845230
  F     -8.447720  -13.009020    2.558710
  C     -7.555690  -15.813450   -3.144140
  C     -7.890330  -17.013740   -2.549640
  C     -8.055280  -18.035350   -3.484890
  C     -7.834850  -17.628750   -4.807690
  S     -7.433800  -15.956840   -4.892040
  C     -8.007530  -18.669610   -5.720750
  C     -8.361390  -19.874710   -5.089000
  S     -8.483360  -19.718190   -3.358650
  C     -8.526590  -20.937970   -5.966390
  C     -8.306060  -20.566150   -7.284180
  S     -7.907540  -18.857230   -7.422540
  C     -8.429390  -21.307220   -8.476980
  C     -8.505150  -22.653430   -8.683340
  C     -9.077430  -23.133370   -9.972570
  O     -9.288620  -22.469780  -10.960680
  C     -9.376030  -24.562960   -9.756910
  C    -10.019050  -25.438150  -10.583310
  C    -10.226610  -26.766330  -10.148300
  C     -9.764580  -27.159800   -8.858790
  C     -9.983190  -28.483630   -8.427780
  C    -10.627180  -29.374950   -9.239420
  C    -11.081930  -28.985050  -10.515170
  C    -10.886140  -27.708210  -10.961590
  F    -11.711220  -29.879540  -11.288770
  F    -10.833690  -30.632530   -8.827780
  C     -9.093070  -26.232670   -8.028520
  C     -8.896170  -24.953390   -8.474380
  C     -8.221210  -23.808550   -7.863990
  C     -7.292640  -23.890000   -6.857660
  C     -6.465280  -22.816620   -6.474270
  N     -5.755270  -21.972780   -6.155420
  C     -7.001380  -25.076060   -6.153710
  N     -6.744480  -26.011740   -5.540510
  H     -3.487460    4.024010    1.515690
  H     -1.226710    0.975720    4.704720
  H     -4.756820    2.159980    0.596520
  H     -2.511240   -0.956050    3.775930
  H     -6.416630   -2.820310   -0.752580
  H     -4.878380   -4.879640    2.248280
  H     -5.582530  -11.167150    1.209990
  H     -7.136370  -11.251120   -3.217510
  H     -7.334360  -13.413790   -4.303550
  H     -6.807100  -15.393210   -0.624760
  H     -5.484630  -13.465480   -0.428410
  H     -8.045670  -17.136950   -1.495000
  H     -8.839960  -21.921000   -5.666720
  H     -8.560160  -20.714230   -9.378250
  H    -10.366340  -25.121270  -11.554840
  H     -9.638410  -28.800100   -7.455790
  H    -11.240180  -27.424830  -11.940370
  H     -8.760040  -26.556130   -7.055170

 Total Charge           Charge          ....    0
 Multiplicity           Mult            ....    1
 Number of Electrons    NEL             ....  574
 Basis Dimension        Dim             .... 1206

ORBITAL ENERGIES
----------------

  NO   OCC          E(Eh)            E(eV)
   0   2.0000     -88.977898     -2421.2117
   1   2.0000     -88.975987     -2421.1597
   2   2.0000     -88.975394     -2421.1436
   3   2.0000     -88.974562     -2421.1209
   4   2.0000     -88.972737     -2421.0713
   5   2.0000     -88.971352     -2421.0336
   6   2.0000     -24.819264      -675.3665
   7   2.0000     -24.817238      -675.3114
   8   2.0000     -24.799054      -674.8166
   9   2.0000     -24.798432      -674.7997
  10   2.0000     -24.798403      -674.7989
  11   2.0000     -24.797212      -674.7664
  12   2.0000     -19.221354      -523.0396
  13   2.0000     -19.216643      -522.9114
  14   2.0000     -14.446916      -393.1206
  15   2.0000     -14.446303      -393.1039
  16   2.0000     -14.418901      -392.3582
  17   2.0000     -14.418276      -392.3412
  18   2.0000     -14.416716      -392.2988
  19   2.0000     -14.414482      -392.2380
  20   2.0000     -10.434258      -283.9306
  21   2.0000     -10.431909      -283.8667
  22   2.0000     -10.382174      -282.5133
  23   2.0000     -10.381678      -282.4998
  24   2.0000     -10.381410      -282.4925
  25   2.0000     -10.380575      -282.4698
  26   2.0000     -10.372474      -282.2494
  27   2.0000     -10.368040      -282.1287
  28   2.0000     -10.348727      -281.6032
  29   2.0000     -10.347167      -281.5607
  30   2.0000     -10.345965      -281.5280
  31   2.0000     -10.345254      -281.5087
  32   2.0000     -10.342343      -281.4295
  33   2.0000     -10.341726      -281.4127
  34   2.0000     -10.330017      -281.0940
  35   2.0000     -10.328966      -281.0655
  36   2.0000     -10.327048      -281.0133
  37   2.0000     -10.326536      -280.9993
  38   2.0000     -10.326163      -280.9892
  39   2.0000     -10.325514      -280.9715
  40   2.0000     -10.324384      -280.9408
  41   2.0000     -10.323075      -280.9052
  42   2.0000     -10.321960      -280.8748
  43   2.0000     -10.321752      -280.8691
  44   2.0000     -10.321711      -280.8680
  45   2.0000     -10.321194      -280.8540
  46   2.0000     -10.320387      -280.8320
  47   2.0000     -10.319638      -280.8116
  48   2.0000     -10.319403      -280.8052
  49   2.0000     -10.319020      -280.7948
  50   2.0000     -10.317766      -280.7607
  51   2.0000     -10.317740      -280.7600
  52   2.0000     -10.314965      -280.6845
  53   2.0000     -10.312580      -280.6196
  54   2.0000     -10.311690      -280.5954
  55   2.0000     -10.311246      -280.5833
  56   2.0000     -10.310925      -280.5745
  57   2.0000     -10.310363      -280.5592
  58   2.0000     -10.310027      -280.5501
  59   2.0000     -10.309518      -280.5362
  60   2.0000     -10.306886      -280.4646
  61   2.0000     -10.303877      -280.3828
  62   2.0000     -10.303728      -280.3787
  63   2.0000     -10.302295      -280.3397
  64   2.0000     -10.302070      -280.3336
  65   2.0000     -10.301952      -280.3304
  66   2.0000     -10.301449      -280.3167
  67   2.0000     -10.301299      -280.3126
  68   2.0000     -10.301069      -280.3063
  69   2.0000     -10.300430      -280.2889
  70   2.0000     -10.300230      -280.2835
  71   2.0000     -10.300212      -280.2830
  72   2.0000     -10.299765      -280.2709
  73   2.0000     -10.299128      -280.2535
  74   2.0000     -10.298739      -280.2429
  75   2.0000     -10.295906      -280.1659
  76   2.0000     -10.294836      -280.1367
  77   2.0000     -10.292975      -280.0861
  78   2.0000      -8.073200      -219.6829
  79   2.0000      -8.071348      -219.6325
  80   2.0000      -8.070530      -219.6103
  81   2.0000      -8.069767      -219.5895
  82   2.0000      -8.067906      -219.5389
  83   2.0000      -8.066640      -219.5044
  84   2.0000      -6.042668      -164.4293
  85   2.0000      -6.040798      -164.3785
  86   2.0000      -6.040117      -164.3599
  87   2.0000      -6.039410      -164.3407
  88   2.0000      -6.038649      -164.3200
  89   2.0000      -6.037641      -164.2926
  90   2.0000      -6.036764      -164.2687
  91   2.0000      -6.036375      -164.2581
  92   2.0000      -6.036057      -164.2495
  93   2.0000      -6.035272      -164.2281
  94   2.0000      -6.034822      -164.2159
  95   2.0000      -6.033824      -164.1887
  96   2.0000      -6.032969      -164.1654
  97   2.0000      -6.032501      -164.1527
  98   2.0000      -6.032000      -164.1391
  99   2.0000      -6.031171      -164.1165
 100   2.0000      -6.028813      -164.0523
 101   2.0000      -6.027552      -164.0180
 102   2.0000      -1.348609       -36.6975
 103   2.0000      -1.334084       -36.3023
 104   2.0000      -1.321767       -35.9671
 105   2.0000      -1.320740       -35.9392
 106   2.0000      -1.306900       -35.5625
 107   2.0000      -1.305865       -35.5344
 108   2.0000      -1.136374       -30.9223
 109   2.0000      -1.132594       -30.8194
 110   2.0000      -1.099934       -29.9307
 111   2.0000      -1.036502       -28.2047
 112   2.0000      -1.034917       -28.1615
 113   2.0000      -1.030675       -28.0461
 114   2.0000      -1.022183       -27.8150
 115   2.0000      -1.020231       -27.7619
 116   2.0000      -1.005798       -27.3692
 117   2.0000      -1.004566       -27.3356
 118   2.0000      -1.000145       -27.2153
 119   2.0000      -0.996757       -27.1231
 120   2.0000      -0.994807       -27.0701
 121   2.0000      -0.994049       -27.0494
 122   2.0000      -0.982717       -26.7411
 123   2.0000      -0.981441       -26.7064
 124   2.0000      -0.969066       -26.3696
 125   2.0000      -0.948397       -25.8072
 126   2.0000      -0.938354       -25.5339
 127   2.0000      -0.931465       -25.3465
 128   2.0000      -0.929404       -25.2904
 129   2.0000      -0.905949       -24.6521
 130   2.0000      -0.903629       -24.5890
 131   2.0000      -0.897484       -24.4218
 132   2.0000      -0.894288       -24.3348
 133   2.0000      -0.892726       -24.2923
 134   2.0000      -0.886002       -24.1093
 135   2.0000      -0.883769       -24.0486
 136   2.0000      -0.878318       -23.9002
 137   2.0000      -0.867398       -23.6031
 138   2.0000      -0.856950       -23.3188
 139   2.0000      -0.851784       -23.1782
 140   2.0000      -0.848422       -23.0867
 141   2.0000      -0.841858       -22.9081
 142   2.0000      -0.840406       -22.8686
 143   2.0000      -0.823569       -22.4105
 144   2.0000      -0.819215       -22.2920
 145   2.0000      -0.806863       -21.9559
 146   2.0000      -0.802209       -21.8292
 147   2.0000      -0.792172       -21.5561
 148   2.0000      -0.787369       -21.4254
 149   2.0000      -0.778449       -21.1827
 150   2.0000      -0.770064       -20.9545
 151   2.0000      -0.768083       -20.9006
 152   2.0000      -0.765996       -20.8438
 153   2.0000      -0.751533       -20.4503
 154   2.0000      -0.740458       -20.1489
 155   2.0000      -0.730598       -19.8806
 156   2.0000      -0.720275       -19.5997
 157   2.0000      -0.718848       -19.5609
 158   2.0000      -0.712453       -19.3868
 159   2.0000      -0.706710       -19.2305
 160   2.0000      -0.691908       -18.8278
 161   2.0000      -0.689047       -18.7499
 162   2.0000      -0.685584       -18.6557
 163   2.0000      -0.683600       -18.6017
 164   2.0000      -0.676048       -18.3962
 165   2.0000      -0.671011       -18.2591
 166   2.0000      -0.669317       -18.2130
 167   2.0000      -0.666138       -18.1265
 168   2.0000      -0.659954       -17.9583
 169   2.0000      -0.657305       -17.8862
 170   2.0000      -0.654657       -17.8141
 171   2.0000      -0.652311       -17.7503
 172   2.0000      -0.646017       -17.5790
 173   2.0000      -0.643740       -17.5171
 174   2.0000      -0.642987       -17.4966
 175   2.0000      -0.642068       -17.4716
 176   2.0000      -0.638871       -17.3846
 177   2.0000      -0.629024       -17.1166
 178   2.0000      -0.619627       -16.8609
 179   2.0000      -0.618004       -16.8167
 180   2.0000      -0.614479       -16.7208
 181   2.0000      -0.608912       -16.5693
 182   2.0000      -0.606274       -16.4976
 183   2.0000      -0.600040       -16.3279
 184   2.0000      -0.594523       -16.1778
 185   2.0000      -0.591610       -16.0985
 186   2.0000      -0.586746       -15.9662
 187   2.0000      -0.586209       -15.9516
 188   2.0000      -0.585269       -15.9260
 189   2.0000      -0.584512       -15.9054
 190   2.0000      -0.579020       -15.7559
 191   2.0000      -0.578330       -15.7372
 192   2.0000      -0.575040       -15.6476
 193   2.0000      -0.566855       -15.4249
 194   2.0000      -0.561389       -15.2762
 195   2.0000      -0.559323       -15.2199
 196   2.0000      -0.556645       -15.1471
 197   2.0000      -0.555544       -15.1171
 198   2.0000      -0.553694       -15.0668
 199   2.0000      -0.553091       -15.0504
 200   2.0000      -0.548727       -14.9316
 201   2.0000      -0.547895       -14.9090
 202   2.0000      -0.546906       -14.8821
 203   2.0000      -0.543346       -14.7852
 204   2.0000      -0.540736       -14.7142
 205   2.0000      -0.538265       -14.6469
 206   2.0000      -0.534562       -14.5462
 207   2.0000      -0.533614       -14.5204
 208   2.0000      -0.531974       -14.4758
 209   2.0000      -0.531635       -14.4665
 210   2.0000      -0.529590       -14.4109
 211   2.0000      -0.527806       -14.3623
 212   2.0000      -0.526389       -14.3238
 213   2.0000      -0.523829       -14.2541
 214   2.0000      -0.523264       -14.2387
 215   2.0000      -0.517812       -14.0904
 216   2.0000      -0.516244       -14.0477
 217   2.0000      -0.514158       -13.9909
 218   2.0000      -0.512199       -13.9377
 219   2.0000      -0.507637       -13.8135
 220   2.0000      -0.506353       -13.7786
 221   2.0000      -0.503185       -13.6924
 222   2.0000      -0.498798       -13.5730
 223   2.0000      -0.496808       -13.5188
 224   2.0000      -0.495151       -13.4737
 225   2.0000      -0.491915       -13.3857
 226   2.0000      -0.491031       -13.3616
 227   2.0000      -0.489013       -13.3067
 228   2.0000      -0.486995       -13.2518
 229   2.0000      -0.483196       -13.1484
 230   2.0000      -0.481434       -13.1005
 231   2.0000      -0.479151       -13.0384
 232   2.0000      -0.473176       -12.8758
 233   2.0000      -0.471265       -12.8238
 234   2.0000      -0.469412       -12.7734
 235   2.0000      -0.467878       -12.7316
 236   2.0000      -0.465225       -12.6594
 237   2.0000      -0.463966       -12.6252
 238   2.0000      -0.462295       -12.5797
 239   2.0000      -0.457615       -12.4523
 240   2.0000      -0.453435       -12.3386
 241   2.0000      -0.453249       -12.3335
 242   2.0000      -0.448932       -12.2161
 243   2.0000      -0.448785       -12.2121
 244   2.0000      -0.446861       -12.1597
 245   2.0000      -0.446298       -12.1444
 246   2.0000      -0.444933       -12.1073
 247   2.0000      -0.443734       -12.0746
 248   2.0000      -0.437968       -11.9177
 249   2.0000      -0.435163       -11.8414
 250   2.0000      -0.432463       -11.7679
 251   2.0000      -0.431123       -11.7314
 252   2.0000      -0.431046       -11.7293
 253   2.0000      -0.430523       -11.7151
 254   2.0000      -0.428780       -11.6677
 255   2.0000      -0.426803       -11.6139
 256   2.0000      -0.423851       -11.5336
 257   2.0000      -0.423219       -11.5164
 258   2.0000      -0.422945       -11.5089
 259   2.0000      -0.422336       -11.4923
 260   2.0000      -0.415806       -11.3147
 261   2.0000      -0.411077       -11.1860
 262   2.0000      -0.409611       -11.1461
 263   2.0000      -0.407607       -11.0916
 264   2.0000      -0.400713       -10.9039
 265   2.0000      -0.400319       -10.8932
 266   2.0000      -0.388761       -10.5787
 267   2.0000      -0.387737       -10.5509
 268   2.0000      -0.381839       -10.3904
 269   2.0000      -0.375305       -10.2126
 270   2.0000      -0.369573       -10.0566
 271   2.0000      -0.362152        -9.8546
 272   2.0000      -0.357636        -9.7318
 273   2.0000      -0.347379        -9.4527
 274   2.0000      -0.346763        -9.4359
 275   2.0000      -0.342894        -9.3306
 276   2.0000      -0.339906        -9.2493
 277   2.0000      -0.333437        -9.0733
 278   2.0000      -0.318735        -8.6732
 279   2.0000      -0.318028        -8.6540
 280   2.0000      -0.310146        -8.4395
 281   2.0000      -0.303082        -8.2473
 282   2.0000      -0.299799        -8.1579
 283   2.0000      -0.297269        -8.0891
 284   2.0000      -0.295482        -8.0405
 285   2.0000      -0.274035        -7.4569
 286   2.0000      -0.247285        -6.7290
 287   0.0000      -0.106315        -2.8930
 288   0.0000      -0.096982        -2.6390
 289   0.0000      -0.070614        -1.9215
 290   0.0000      -0.060977        -1.6593
 291   0.0000      -0.056617        -1.5406

MULLIKEN ATOMIC CHARGES
-----------------------
   0 C :   -0.106924
   1 C :    0.240032
   2 F :   -0.171591
   3 C :    0.238169
   4 F :   -0.172278
   5 C :   -0.106145
   6 C :    0.118377
   7 C :    0.114427
   8 C :   -0.083305
   9 C :    0.046776
  10 C :    0.000834
  11 C :   -0.084530
  12 C :    0.158868
  13 O :   -0.160429
  14 C :   -0.093454
  15 C :    0.312967
  16 C :   -0.354730
  17 C :   -0.200322
  18 N :    0.159437
  19 C :   -0.183287
  20 N :    0.145859
  21 C :    0.043568
  22 C :   -0.112666
  23 C :   -0.003951
  24 C :   -0.039396
  25 C :   -0.056187
  26 S :    0.167261
  27 C :   -0.075355
  28 C :   -0.014429
  29 S :    0.176596
  30 C :   -0.037654
  31 C :   -0.068374
  32 S :    0.140562
  33 C :    0.027766
  34 C :   -0.038447
  35 C :   -0.059545
  36 C :    0.074763
  37 C :    0.063467
  38 C :    0.124663
  39 N :   -0.106021
  40 C :    0.122812
  41 C :    0.121323
  42 N :   -0.081896
  43 F :   -0.137326
  44 F :   -0.137305
  45 C :   -0.060161
  46 C :   -0.042653
  47 C :   -0.014195
  48 C :   -0.070525
  49 S :    0.143313
  50 C :   -0.056075
  51 C :   -0.043578
  52 S :    0.175686
  53 C :    0.017252
  54 C :   -0.114434
  55 S :    0.174623
  56 C :    0.090312
  57 C :   -0.148222
  58 C :    0.137222
  59 O :   -0.142612
  60 C :    0.018384
  61 C :   -0.084273
  62 C :    0.114282
  63 C :    0.113315
  64 C :   -0.107352
  65 C :    0.241486
  66 C :    0.237325
  67 C :   -0.102479
  68 F :   -0.171946
  69 F :   -0.170997
  70 C :   -0.083507
  71 C :    0.033380
  72 C :    0.273895
  73 C :   -0.338356
  74 C :   -0.209445
  75 N :    0.173873
  76 C :   -0.171269
  77 N :    0.150465
  78 H :    0.007373
  79 H :   -0.000201
  80 H :   -0.005649
  81 H :   -0.011234
  82 H :    0.013502
  83 H :    0.020915
  84 H :    0.010192
  85 H :   -0.001013
  86 H :   -0.000037
  87 H :    0.034081
  88 H :    0.042166
  89 H :   -0.005754
  90 H :    0.005589
  91 H :    0.024508
  92 H :   -0.009410
  93 H :    0.005514
  94 H :   -0.001120
  95 H :   -0.005136
Sum of atomic charges:   -0.0000000

LOEWDIN ATOMIC CHARGES
----------------------
   0 C :   -0.029145
   1 C :    0.066204
   2 F :   -0.049155
   3 C :    0.067319
   4 F :   -0.049718
   5 C :   -0.033853
   6 C :   -0.008801
   7 C :   -0.006652
   8 C :    0.017199
   9 C :   -0.022945
  10 C :   -0.051394
  11 C :    0.028318
  12 C :    0.087679
  13 O :   -0.145936
  14 C :   -0.101359
  15 C :    0.076569
  16 C :   -0.143286
  17 C :   -0.026027
  18 N :   -0.051226
  19 C :   -0.017252
  20 N :   -0.055795
  21 C :    0.048615
  22 C :   -0.173834
  23 C :   -0.011534
  24 C :   -0.194778
  25 C :   -0.195165
  26 S :    0.446670
  27 C :   -0.220476
  28 C :   -0.178812
  29 S :    0.419769
  30 C :   -0.059080
  31 C :   -0.149122
  32 S :    0.431868
  33 C :   -0.041577
  34 C :   -0.031987
  35 C :   -0.027055
  36 C :   -0.033129
  37 C :    0.023624
  38 C :    0.026077
  39 N :   -0.068132
  40 C :    0.056229
  41 C :    0.046693
  42 N :   -0.067333
  43 F :   -0.026763
  44 F :   -0.026346
  45 C :   -0.142285
  46 C :   -0.060791
  47 C :   -0.177900
  48 C :   -0.218337
  49 S :    0.435036
  50 C :   -0.194839
  51 C :   -0.187916
  52 S :    0.418855
  53 C :   -0.016715
  54 C :   -0.177068
  55 S :    0.452505
  56 C :    0.049097
  57 C :   -0.100122
  58 C :    0.082432
  59 O :   -0.143689
  60 C :   -0.053605
  61 C :    0.030472
  62 C :   -0.009663
  63 C :   -0.006024
  64 C :   -0.030407
  65 C :    0.066711
  66 C :    0.066712
  67 C :   -0.032631
  68 F :   -0.049312
  69 F :   -0.048789
  70 C :    0.012927
  71 C :   -0.020366
  72 C :    0.065485
  73 C :   -0.144344
  74 C :   -0.020510
  75 N :   -0.040204
  76 C :   -0.020611
  77 N :   -0.053325
  78 H :    0.047754
  79 H :    0.044613
  80 H :    0.039928
  81 H :    0.039493
  82 H :    0.043666
  83 H :    0.039336
  84 H :    0.036278
  85 H :    0.026227
  86 H :    0.027378
  87 H :    0.039421
  88 H :    0.048294
  89 H :    0.034587
  90 H :    0.039124
  91 H :    0.046379
  92 H :    0.040630
  93 H :    0.047013
  94 H :    0.044762
  95 H :    0.039173

  Mayer bond orders larger than 0.100000
B(  0-C ,  1-C ) :   1.4415 B(  0-C ,  5-C ) :   0.1085 B(  0-C ,  7-C ) :   1.1889
B(  0-C , 78-H ) :   1.0066 B(  1-C ,  2-F ) :   1.1342 B(  1-C ,  3-C ) :   1.1923
B(  3-C ,  4-F ) :   1.1333 B(  3-C ,  5-C ) :   1.4436 B(  5-C ,  6-C ) :   1.1920
B(  5-C , 79-H ) :   1.0069 B(  6-C ,  7-C ) :   1.2561 B(  6-C , 11-C ) :   1.1882
B(  7-C ,  8-C ) :   1.2169 B(  8-C ,  9-C ) :   1.4521 B(  8-C , 80-H ) :   0.9895
B(  9-C , 10-C ) :   1.2244 B(  9-C , 15-C ) :   0.9807 B( 10-C , 11-C ) :   1.4718
B( 10-C , 12-C ) :   0.9495 B( 11-C , 81-H ) :   1.0161 B( 12-C , 13-O ) :   2.1658
B( 12-C , 14-C ) :   0.9472 B( 14-C , 15-C ) :   1.0850 B( 14-C , 21-C ) :   1.5713
B( 15-C , 16-C ) :   1.6229 B( 16-C , 17-C ) :   1.1390 B( 16-C , 19-C ) :   1.1485
B( 17-C , 18-N ) :   2.9836 B( 19-C , 20-N ) :   2.9630 B( 21-C , 22-C ) :   1.2401
B( 21-C , 82-H ) :   0.9128 B( 22-C , 23-C ) :   1.4391 B( 22-C , 26-S ) :   1.0619
B( 23-C , 24-C ) :   1.2995 B( 23-C , 83-H ) :   0.9774 B( 24-C , 25-C ) :   1.3990
B( 24-C , 29-S ) :   1.0452 B( 25-C , 26-S ) :   1.1068 B( 25-C , 27-C ) :   1.3158
B( 27-C , 28-C ) :   1.4480 B( 27-C , 32-S ) :   1.0683 B( 28-C , 29-S ) :   1.0590
B( 28-C , 30-C ) :   1.2500 B( 30-C , 31-C ) :   1.5131 B( 30-C , 84-H ) :   0.9875
B( 31-C , 32-S ) :   1.0916 B( 31-C , 33-C ) :   1.1484 B( 33-C , 34-C ) :   1.6729
B( 33-C , 38-C ) :   0.9514 B( 34-C , 35-C ) :   1.1346 B( 34-C , 85-H ) :   0.9724
B( 35-C , 36-C ) :   1.6639 B( 35-C , 86-H ) :   0.9738 B( 36-C , 37-C ) :   0.9931
B( 36-C , 45-C ) :   1.1509 B( 37-C , 38-C ) :   0.9853 B( 37-C , 42-N ) :   1.0256
B( 37-C , 87-H ) :   0.8915 B( 38-C , 39-N ) :   1.0100 B( 38-C , 88-H ) :   0.8759
B( 39-N , 40-C ) :   1.9286 B( 40-C , 41-C ) :   0.9320 B( 40-C , 44-F ) :   1.1725
B( 41-C , 42-N ) :   1.9501 B( 41-C , 43-F ) :   1.1721 B( 45-C , 46-C ) :   1.5184
B( 45-C , 49-S ) :   1.0952 B( 46-C , 47-C ) :   1.2561 B( 46-C , 89-H ) :   0.9888
B( 47-C , 48-C ) :   1.4528 B( 47-C , 52-S ) :   1.0586 B( 48-C , 49-S ) :   1.0697
B( 48-C , 50-C ) :   1.3163 B( 50-C , 51-C ) :   1.4209 B( 50-C , 55-S ) :   1.1001
B( 51-C , 52-S ) :   1.0444 B( 51-C , 53-C ) :   1.3474 B( 53-C , 54-C ) :   1.4341
B( 53-C , 90-H ) :   0.9872 B( 54-C , 55-S ) :   1.0749 B( 54-C , 56-C ) :   1.1646
B( 56-C , 57-C ) :   1.6388 B( 56-C , 91-H ) :   0.9237 B( 57-C , 58-C ) :   0.9481
B( 57-C , 72-C ) :   1.0511 B( 58-C , 59-O ) :   2.2654 B( 58-C , 60-C ) :   0.9169
B( 60-C , 61-C ) :   1.4768 B( 60-C , 71-C ) :   1.2242 B( 61-C , 62-C ) :   1.1914
B( 61-C , 92-H ) :   1.0161 B( 62-C , 63-C ) :   1.2597 B( 62-C , 67-C ) :   1.1929
B( 63-C , 64-C ) :   1.1905 B( 63-C , 70-C ) :   1.2117 B( 64-C , 65-C ) :   1.4408
B( 64-C , 67-C ) :   0.1087 B( 64-C , 93-H ) :   1.0067 B( 65-C , 66-C ) :   1.1935
B( 65-C , 69-F ) :   1.1344 B( 66-C , 67-C ) :   1.4434 B( 66-C , 68-F ) :   1.1329
B( 67-C , 94-H ) :   1.0065 B( 70-C , 71-C ) :   1.4595 B( 70-C , 95-H ) :   0.9935
B( 71-C , 72-C ) :   0.9920 B( 72-C , 73-C ) :   1.6377 B( 73-C , 74-C ) :   1.1663
B( 73-C , 76-C ) :   1.1280 B( 74-C , 75-N ) :   3.0016 B( 76-C , 77-N ) :   2.9841

-----------------------------------------------------------------------------
         ABSORPTION SPECTRUM VIA TRANSITION ELECTRIC DIPOLE MOMENTS
-----------------------------------------------------------------------------
State   Energy  Wavelength   fosc         T2         TX        TY        TZ
        (cm-1)    (nm)                  (au**2)     (au)      (au)      (au)
-----------------------------------------------------------------------------
   0   16662.1    600.2   3.095279628  61.15688   0.89015   7.26764   2.74699
   1   19707.3    507.4   0.155330549   2.59481   0.43131   1.43283  -0.59646
   2   23939.1    417.7   0.009466028   0.13018  -0.31788   0.16357  -0.04875
   3   24814.1    403.0   0.031323960   0.41558  -0.13975  -0.01444  -0.62916
   4   24980.1    400.3   0.157944493   2.08155  -0.62872  -0.33490  -1.25463
   5   25936.8    385.6   0.117502026   1.49144  -0.14096  -1.19035   0.23374
   6   26394.4    378.9   0.133428116   1.66422   0.35015   0.41716   1.16944
   7   27007.3    370.3   0.002091826   0.02550   0.15624   0.03115  -0.01081
   8   27367.0    365.4   0.068998058   0.83001   0.78566   0.42757   0.17300
   9   28296.9    353.4   0.038159208   0.44395   0.32495  -0.57758   0.06898
  10   28474.0    351.2   0.317028883   3.66544   0.46360   1.78424   0.51672
  11   28816.2    347.0   0.068321123   0.78054  -0.53762  -0.39821  -0.57700
  12   29276.2    341.6   0.044071832   0.49559   0.36045   0.22540   0.56112
  13   29438.5    339.7   0.168768581   1.88734   0.61853   0.94654   0.78028
  14   29904.0    334.4   0.089270906   0.98278  -0.67757  -0.35099  -0.63284
  15   30339.8    329.6   0.063140343   0.68513  -0.48777  -0.54899  -0.38186
  16   31781.9    314.6   0.047744548   0.49456   0.33260   0.57096  -0.24072
  17   32023.8    312.3   0.006678207   0.06865  -0.13620   0.04434  -0.21940
  18   32600.6    306.7   0.003360467   0.03394  -0.01284   0.04110   0.17911
  19   32873.4    304.2   0.015807137   0.15830  -0.20106   0.12147  -0.32112
  20   33553.7    298.0   0.015029834   0.14746  -0.05103  -0.35546  -0.13605
  21   33984.0    294.3   0.115560713   1.11947   0.50549   0.44809   0.81435
  22   34060.2    293.6   0.302095498   2.91993  -1.12883  -0.92169  -0.89228
  23   34268.0    291.8   0.733194908   7.04380   1.72229   1.27198   1.56830
  24   34815.4    287.2   0.221920975   2.09847  -0.86761  -0.75258  -0.88281
  25   34904.0    286.5   0.040516466   0.38215   0.43389   0.14055   0.41729
  26   35171.4    284.3   0.312925602   2.92905   0.66553   1.46481   0.58347
  27   35913.2    278.4   0.019411668   0.17794   0.36466  -0.05306   0.20531
  28   36426.4    274.5   0.009424588   0.08518  -0.28292   0.05369  -0.04742
  29   36444.8    274.4   0.036005511   0.32524  -0.42688   0.37305  -0.06206
  30   36686.4    272.6   0.011744289   0.10539   0.01389  -0.06081   0.31859
  31   36854.1    271.3   0.010996170   0.09823  -0.12798   0.28603   0.00593
  32   37031.8    270.0   0.016354747   0.14539   0.16201  -0.22383   0.26277
  33   37279.9    268.2   0.033313925   0.29419  -0.18836   0.20595  -0.46508
  34   37655.5    265.6   0.033000806   0.28852  -0.31461  -0.41873  -0.11918
  35   37812.6    264.5   0.012987359   0.11307  -0.33349   0.04170  -0.01098
  36   37851.0    264.2   0.010982226   0.09552  -0.12526  -0.17315  -0.22327
  37   38091.8    262.5   0.007472745   0.06458   0.02955  -0.17519   0.18171
  38   38474.3    259.9   0.007129861   0.06101  -0.09908   0.03598  -0.22338
  39   38616.9    259.0   0.010733621   0.09150   0.11155  -0.00284   0.28117
  40   38975.1    256.6   0.069483243   0.58691  -0.38756   0.39118  -0.53261
  41   39000.9    256.4   0.133085947   1.12340   0.63226  -0.37079   0.76561
  42   39130.8    255.6   0.007283829   0.06128  -0.22308   0.07544  -0.07631
  43   39302.9    254.4   0.014095997   0.11807   0.00940  -0.20383  -0.27647
  44   39452.6    253.5   0.114197527   0.95292   0.40334  -0.36518   0.81049
  45   39953.8    250.3   0.006254969   0.05154   0.19803  -0.03303   0.10598

FINAL SINGLE POINT ENERGY     -5683.306833484025

DIPOLE MOMENT
-------------
                                X             Y             Z
Electronic contribution:     -5.20591      -0.39783       8.81028
Nuclear contribution   :      5.57557      -0.89533      -8.13035
                        -----------------------------------------
Total Dipole Moment    :      0.36967      -1.29315       0.67993
                        -----------------------------------------
Magnitude (a.u.)       :      1.50705
Magnitude (Debye)      :      3.83062

Rotational constants in cm-1:     0.002814     0.000116     0.000115
Rotational constants in MHz :    84.375885     3.489592     3.433080

                             ****ORCA TERMINATED NORMALLY****
TOTAL RUN TIME: 0 days 0 hours 21 minutes 7 seconds 865 msec
