                         Program Version 4.2.0 -  RELEASE  -
|  1> # ORCA input file
|  2> # SCF done       -203.237090038933          0.000510690328
|  3> ! CAM-B3LYP def2-SVP def2/J RIJCOSX Grid4 TightSCF
|  4> %maxcore 5000
|  5> %tddft
|  6>     Mode sTDDFT
|  7>     Ethresh 5.0
|  8>     maxcore 5000
|  9> end
| 10>
| 11> %pal
| 12>   nprocs 6
| 13>   end
| 14> * xyz 0 1
| 15>    C       -8.60877         1.09968        -4.98730
| 16>    C       -8.79085         1.19309        -6.33868
| 17>    F       -8.98571         2.38885        -6.91083
| 18>    C       -8.77663         0.03815        -7.14581
| 19>    F       -8.95865         0.15956        -8.46799
| 20>    C       -8.57990        -1.19515        -6.59020
| 21>    C       -8.38928        -1.32399        -5.20090
| 22>    C       -8.40394        -0.15710        -4.38346
| 23>    C       -8.21634        -0.26134        -2.98564
| 24>    C       -8.02069        -1.49460        -2.42248
| 25>    C       -8.00743        -2.65338        -3.24790
| 26>    C       -8.18470        -2.58589        -4.59913
| 27>    C       -7.78429        -3.84266        -2.40553
| 28>    O       -7.70871        -4.99460        -2.79187
| 29>    C       -7.67706        -3.35187        -1.02683
| 30>    C       -7.80876        -1.90856        -1.03614
| 31>    C       -7.74509        -1.05628         0.03745
| 32>    C       -7.53585        -1.43029         1.38074
| 33>    N       -7.37164        -1.64583         2.49745
| 34>    C       -7.87833         0.34499        -0.05738
| 35>    N       -7.97810         1.48879        -0.06229
| 36>    C       -7.50113        -4.13227         0.08911
| 37>    C       -7.36980        -5.52067         0.22577
| 38>    C       -7.22525        -6.10841         1.48964
| 39>    C       -7.11653        -7.48226         1.41226
| 40>    C       -7.16639        -7.96914         0.07487
| 41>    S       -7.36317        -6.70853        -1.07843
| 42>    C       -7.04501        -9.35472         0.16140
| 43>    C       -6.93058        -9.67277         1.54154
| 44>    N       -6.98275        -8.52773         2.28930
| 45>    C       -6.85543        -8.42582         3.71660
| 46>    C       -6.81321       -11.03760         1.78573
| 47>    C       -6.83206       -11.75284         0.60051
| 48>    S       -6.99270       -10.76210        -0.83204
| 49>    C       -6.74333       -13.16349         0.45074
| 50>    N       -6.72052       -13.67044        -0.77081
| 51>    N       -6.64154       -14.94239        -1.02185
| 52>    C       -6.60982       -15.87445        -0.08400
| 53>    C       -6.64519       -15.46935         1.28748
| 54>    C       -6.69458       -14.05840         1.56580
| 55>    N       -6.70348       -13.91523         2.87353
| 56>    O       -6.66295       -15.14893         3.38042
| 57>    N       -6.62769       -16.09797         2.44304
| 58>    C       -6.53417       -17.23737        -0.48023
| 59>    C       -6.56076       -18.34689         0.34479
| 60>    C       -6.46753       -19.52081        -0.39837
| 61>    C       -6.36026       -19.29253        -1.79734
| 62>    S       -6.39192       -17.61330        -2.18419
| 63>    C       -6.25923       -20.54650        -2.39151
| 64>    C       -6.32534       -21.50289        -1.34597
| 65>    N       -6.44309       -20.86385        -0.14186
| 66>    C       -6.52806       -21.49947         1.14372
| 67>    C       -6.26531       -22.81863        -1.79246
| 68>    C       -6.08700       -22.88836        -3.16433
| 69>    S       -6.06945       -21.29626        -3.92655
| 70>    C       -6.00526       -24.07853        -3.92378
| 71>    C       -5.44685       -24.26796        -5.15120
| 72>    C       -5.85282       -25.43118        -5.98359
| 73>    O       -6.49559       -26.39129        -5.62573
| 74>    C       -5.35175       -25.12670        -7.34061
| 75>    C       -5.54743       -25.81592        -8.50247
| 76>    C       -4.97702       -25.32338        -9.69792
| 77>    C       -4.21919       -24.11658        -9.66700
| 78>    C       -3.65571       -23.63037       -10.86387
| 79>    C       -3.83178       -24.31221       -12.03504
| 80>    C       -4.58017       -25.50605       -12.06432
| 81>    C       -5.14186       -26.00184       -10.92127
| 82>    F       -4.73727       -26.15348       -13.22718
| 83>    F       -3.29216       -23.85057       -13.17099
| 84>    C       -4.02972       -23.42605        -8.44802
| 85>    C       -4.58138       -23.92903        -7.30074
| 86>    C       -4.51011       -23.47314        -5.91551
| 87>    C       -3.53004       -22.66714        -5.39742
| 88>    C       -3.31338       -22.51193        -4.01258
| 89>    N       -3.07439       -22.41647        -2.89371
| 90>    C       -2.56931       -21.99973        -6.18284
| 91>    N       -1.77466       -21.42978        -6.78379
| 92>    H       -8.62252         1.99389        -4.38388
| 93>    H       -8.57168        -2.06982        -7.22154
| 94>    H       -8.23485         0.64149        -2.39734
| 95>    H       -8.16984        -3.48255        -5.19981
| 96>    H       -7.46098        -3.61214         1.03856
| 97>    H       -7.20535        -5.52503         2.39261
| 98>    H       -7.12440        -9.37775         4.17025
| 99>    H       -7.52492        -7.65088         4.09002
|100>    H       -5.83040        -8.17343         4.00328
|101>    H       -6.71700       -11.51375         2.74414
|102>    H       -6.64495       -18.26709         1.41298
|103>    H       -7.51215       -21.95321         1.29022
|104>    H       -6.36138       -20.75700         1.92082
|105>    H       -5.76638       -22.27620         1.22348
|106>    H       -6.30078       -23.69338        -1.16933
|107>    H       -6.51481       -24.94234        -3.50654
|108>    H       -6.12685       -26.72657        -8.51006
|109>    H       -3.07684       -22.72006       -10.85801
|110>    H       -5.71177       -26.91694       -10.96060
|111>    H       -3.45877       -22.51113        -8.45138
|112> *
|113>
|114>                          ****END OF INPUT****

CARTESIAN COORDINATES (ANGSTROEM)
---------------------------------
  C     -8.608770    1.099680   -4.987300
  C     -8.790850    1.193090   -6.338680
  F     -8.985710    2.388850   -6.910830
  C     -8.776630    0.038150   -7.145810
  F     -8.958650    0.159560   -8.467990
  C     -8.579900   -1.195150   -6.590200
  C     -8.389280   -1.323990   -5.200900
  C     -8.403940   -0.157100   -4.383460
  C     -8.216340   -0.261340   -2.985640
  C     -8.020690   -1.494600   -2.422480
  C     -8.007430   -2.653380   -3.247900
  C     -8.184700   -2.585890   -4.599130
  C     -7.784290   -3.842660   -2.405530
  O     -7.708710   -4.994600   -2.791870
  C     -7.677060   -3.351870   -1.026830
  C     -7.808760   -1.908560   -1.036140
  C     -7.745090   -1.056280    0.037450
  C     -7.535850   -1.430290    1.380740
  N     -7.371640   -1.645830    2.497450
  C     -7.878330    0.344990   -0.057380
  N     -7.978100    1.488790   -0.062290
  C     -7.501130   -4.132270    0.089110
  C     -7.369800   -5.520670    0.225770
  C     -7.225250   -6.108410    1.489640
  C     -7.116530   -7.482260    1.412260
  C     -7.166390   -7.969140    0.074870
  S     -7.363170   -6.708530   -1.078430
  C     -7.045010   -9.354720    0.161400
  C     -6.930580   -9.672770    1.541540
  N     -6.982750   -8.527730    2.289300
  C     -6.855430   -8.425820    3.716600
  C     -6.813210  -11.037600    1.785730
  C     -6.832060  -11.752840    0.600510
  S     -6.992700  -10.762100   -0.832040
  C     -6.743330  -13.163490    0.450740
  N     -6.720520  -13.670440   -0.770810
  N     -6.641540  -14.942390   -1.021850
  C     -6.609820  -15.874450   -0.084000
  C     -6.645190  -15.469350    1.287480
  C     -6.694580  -14.058400    1.565800
  N     -6.703480  -13.915230    2.873530
  O     -6.662950  -15.148930    3.380420
  N     -6.627690  -16.097970    2.443040
  C     -6.534170  -17.237370   -0.480230
  C     -6.560760  -18.346890    0.344790
  C     -6.467530  -19.520810   -0.398370
  C     -6.360260  -19.292530   -1.797340
  S     -6.391920  -17.613300   -2.184190
  C     -6.259230  -20.546500   -2.391510
  C     -6.325340  -21.502890   -1.345970
  N     -6.443090  -20.863850   -0.141860
  C     -6.528060  -21.499470    1.143720
  C     -6.265310  -22.818630   -1.792460
  C     -6.087000  -22.888360   -3.164330
  S     -6.069450  -21.296260   -3.926550
  C     -6.005260  -24.078530   -3.923780
  C     -5.446850  -24.267960   -5.151200
  C     -5.852820  -25.431180   -5.983590
  O     -6.495590  -26.391290   -5.625730
  C     -5.351750  -25.126700   -7.340610
  C     -5.547430  -25.815920   -8.502470
  C     -4.977020  -25.323380   -9.697920
  C     -4.219190  -24.116580   -9.667000
  C     -3.655710  -23.630370  -10.863870
  C     -3.831780  -24.312210  -12.035040
  C     -4.580170  -25.506050  -12.064320
  C     -5.141860  -26.001840  -10.921270
  F     -4.737270  -26.153480  -13.227180
  F     -3.292160  -23.850570  -13.170990
  C     -4.029720  -23.426050   -8.448020
  C     -4.581380  -23.929030   -7.300740
  C     -4.510110  -23.473140   -5.915510
  C     -3.530040  -22.667140   -5.397420
  C     -3.313380  -22.511930   -4.012580
  N     -3.074390  -22.416470   -2.893710
  C     -2.569310  -21.999730   -6.182840
  N     -1.774660  -21.429780   -6.783790
  H     -8.622520    1.993890   -4.383880
  H     -8.571680   -2.069820   -7.221540
  H     -8.234850    0.641490   -2.397340
  H     -8.169840   -3.482550   -5.199810
  H     -7.460980   -3.612140    1.038560
  H     -7.205350   -5.525030    2.392610
  H     -7.124400   -9.377750    4.170250
  H     -7.524920   -7.650880    4.090020
  H     -5.830400   -8.173430    4.003280
  H     -6.717000  -11.513750    2.744140
  H     -6.644950  -18.267090    1.412980
  H     -7.512150  -21.953210    1.290220
  H     -6.361380  -20.757000    1.920820
  H     -5.766380  -22.276200    1.223480
  H     -6.300780  -23.693380   -1.169330
  H     -6.514810  -24.942340   -3.506540
  H     -6.126850  -26.726570   -8.510060
  H     -3.076840  -22.720060  -10.858010
  H     -5.711770  -26.916940  -10.960600
  H     -3.458770  -22.511130   -8.451380

 Total Charge           Charge          ....    0
 Multiplicity           Mult            ....    1
 Number of Electrons    NEL             ....  550
 Basis Dimension        Dim             .... 1194

ORBITAL ENERGIES
----------------

  NO   OCC          E(Eh)            E(eV)
   0   2.0000     -88.970691     -2421.0156
   1   2.0000     -88.967522     -2420.9294
   2   2.0000     -88.967287     -2420.9230
   3   2.0000     -88.964187     -2420.8386
   4   2.0000     -24.796878      -674.7574
   5   2.0000     -24.796146      -674.7374
   6   2.0000     -24.795849      -674.7293
   7   2.0000     -24.794858      -674.7024
   8   2.0000     -19.385063      -527.4944
   9   2.0000     -19.218100      -522.9511
  10   2.0000     -19.214409      -522.8507
  11   2.0000     -14.513527      -394.9331
  12   2.0000     -14.513225      -394.9249
  13   2.0000     -14.482160      -394.0796
  14   2.0000     -14.479206      -393.9992
  15   2.0000     -14.456597      -393.3840
  16   2.0000     -14.455846      -393.3636
  17   2.0000     -14.415970      -392.2785
  18   2.0000     -14.414667      -392.2430
  19   2.0000     -14.411756      -392.1638
  20   2.0000     -14.411442      -392.1553
  21   2.0000     -10.379805      -282.4488
  22   2.0000     -10.379410      -282.4381
  23   2.0000     -10.378738      -282.4198
  24   2.0000     -10.377916      -282.3974
  25   2.0000     -10.366654      -282.0910
  26   2.0000     -10.366224      -282.0793
  27   2.0000     -10.355208      -281.7795
  28   2.0000     -10.354991      -281.7736
  29   2.0000     -10.354713      -281.7661
  30   2.0000     -10.354405      -281.7577
  31   2.0000     -10.341859      -281.4163
  32   2.0000     -10.340460      -281.3782
  33   2.0000     -10.339432      -281.3503
  34   2.0000     -10.337815      -281.3063
  35   2.0000     -10.332978      -281.1746
  36   2.0000     -10.331676      -281.1392
  37   2.0000     -10.327811      -281.0340
  38   2.0000     -10.326976      -281.0113
  39   2.0000     -10.325206      -280.9631
  40   2.0000     -10.322730      -280.8958
  41   2.0000     -10.322345      -280.8853
  42   2.0000     -10.321838      -280.8715
  43   2.0000     -10.321603      -280.8651
  44   2.0000     -10.321460      -280.8612
  45   2.0000     -10.320445      -280.8336
  46   2.0000     -10.319451      -280.8065
  47   2.0000     -10.318907      -280.7917
  48   2.0000     -10.317155      -280.7441
  49   2.0000     -10.315147      -280.6894
  50   2.0000     -10.314280      -280.6658
  51   2.0000     -10.313924      -280.6561
  52   2.0000     -10.309775      -280.5432
  53   2.0000     -10.309198      -280.5275
  54   2.0000     -10.308828      -280.5175
  55   2.0000     -10.307603      -280.4841
  56   2.0000     -10.307502      -280.4814
  57   2.0000     -10.307155      -280.4720
  58   2.0000     -10.306964      -280.4668
  59   2.0000     -10.306436      -280.4524
  60   2.0000     -10.306353      -280.4501
  61   2.0000     -10.304097      -280.3887
  62   2.0000     -10.303569      -280.3744
  63   2.0000     -10.301433      -280.3162
  64   2.0000     -10.300596      -280.2935
  65   2.0000     -10.300270      -280.2846
  66   2.0000     -10.299775      -280.2711
  67   2.0000     -10.299566      -280.2654
  68   2.0000     -10.299415      -280.2613
  69   2.0000     -10.299062      -280.2517
  70   2.0000     -10.298827      -280.2453
  71   2.0000     -10.298493      -280.2362
  72   2.0000     -10.297699      -280.2146
  73   2.0000     -10.296707      -280.1876
  74   2.0000     -10.293965      -280.1130
  75   2.0000     -10.292616      -280.0763
  76   2.0000     -10.290015      -280.0055
  77   2.0000      -8.065078      -219.4619
  78   2.0000      -8.061561      -219.3662
  79   2.0000      -8.061464      -219.3636
  80   2.0000      -8.056815      -219.2371
  81   2.0000      -6.034819      -164.2158
  82   2.0000      -6.031261      -164.1190
  83   2.0000      -6.031234      -164.1182
  84   2.0000      -6.030694      -164.1035
  85   2.0000      -6.027029      -164.0038
  86   2.0000      -6.026968      -164.0021
  87   2.0000      -6.026657      -163.9937
  88   2.0000      -6.026385      -163.9863
  89   2.0000      -6.023070      -163.8961
  90   2.0000      -6.022824      -163.8894
  91   2.0000      -6.022052      -163.8684
  92   2.0000      -6.018336      -163.7673
  93   2.0000      -1.336821       -36.3768
  94   2.0000      -1.319340       -35.9011
  95   2.0000      -1.318160       -35.8689
  96   2.0000      -1.304496       -35.4971
  97   2.0000      -1.303305       -35.4647
  98   2.0000      -1.138917       -30.9915
  99   2.0000      -1.134072       -30.8597
 100   2.0000      -1.129691       -30.7404
 101   2.0000      -1.110029       -30.2054
 102   2.0000      -1.107461       -30.1355
 103   2.0000      -1.043131       -28.3850
 104   2.0000      -1.019111       -27.7314
 105   2.0000      -1.017627       -27.6910
 106   2.0000      -1.003612       -27.3097
 107   2.0000      -1.002297       -27.2739
 108   2.0000      -1.002209       -27.2715
 109   2.0000      -0.998667       -27.1751
 110   2.0000      -0.995343       -27.0846
 111   2.0000      -0.992402       -27.0046
 112   2.0000      -0.987883       -26.8817
 113   2.0000      -0.987370       -26.8677
 114   2.0000      -0.985817       -26.8254
 115   2.0000      -0.978864       -26.6362
 116   2.0000      -0.977609       -26.6021
 117   2.0000      -0.950531       -25.8653
 118   2.0000      -0.931159       -25.3381
 119   2.0000      -0.929475       -25.2923
 120   2.0000      -0.912707       -24.8360
 121   2.0000      -0.908143       -24.7118
 122   2.0000      -0.897305       -24.4169
 123   2.0000      -0.893834       -24.3225
 124   2.0000      -0.890118       -24.2214
 125   2.0000      -0.888208       -24.1694
 126   2.0000      -0.875407       -23.8210
 127   2.0000      -0.867737       -23.6123
 128   2.0000      -0.856099       -23.2956
 129   2.0000      -0.852808       -23.2061
 130   2.0000      -0.852272       -23.1915
 131   2.0000      -0.851134       -23.1605
 132   2.0000      -0.846504       -23.0346
 133   2.0000      -0.839084       -22.8326
 134   2.0000      -0.837661       -22.7939
 135   2.0000      -0.819506       -22.2999
 136   2.0000      -0.815396       -22.1881
 137   2.0000      -0.797198       -21.6929
 138   2.0000      -0.791634       -21.5414
 139   2.0000      -0.783957       -21.3326
 140   2.0000      -0.777378       -21.1535
 141   2.0000      -0.772491       -21.0205
 142   2.0000      -0.765565       -20.8321
 143   2.0000      -0.764012       -20.7898
 144   2.0000      -0.750356       -20.4182
 145   2.0000      -0.740783       -20.1577
 146   2.0000      -0.731607       -19.9080
 147   2.0000      -0.720816       -19.6144
 148   2.0000      -0.716141       -19.4872
 149   2.0000      -0.714217       -19.4348
 150   2.0000      -0.707899       -19.2629
 151   2.0000      -0.695092       -18.9144
 152   2.0000      -0.685869       -18.6634
 153   2.0000      -0.682516       -18.5722
 154   2.0000      -0.679128       -18.4800
 155   2.0000      -0.672912       -18.3109
 156   2.0000      -0.667768       -18.1709
 157   2.0000      -0.665567       -18.1110
 158   2.0000      -0.661782       -18.0080
 159   2.0000      -0.658868       -17.9287
 160   2.0000      -0.654722       -17.8159
 161   2.0000      -0.652775       -17.7629
 162   2.0000      -0.650291       -17.6953
 163   2.0000      -0.643597       -17.5132
 164   2.0000      -0.640856       -17.4386
 165   2.0000      -0.639788       -17.4095
 166   2.0000      -0.637326       -17.3425
 167   2.0000      -0.635668       -17.2974
 168   2.0000      -0.628045       -17.0900
 169   2.0000      -0.620155       -16.8753
 170   2.0000      -0.614456       -16.7202
 171   2.0000      -0.611264       -16.6333
 172   2.0000      -0.601271       -16.3614
 173   2.0000      -0.599208       -16.3053
 174   2.0000      -0.593823       -16.1588
 175   2.0000      -0.593171       -16.1410
 176   2.0000      -0.586423       -15.9574
 177   2.0000      -0.583918       -15.8892
 178   2.0000      -0.582740       -15.8572
 179   2.0000      -0.580051       -15.7840
 180   2.0000      -0.578486       -15.7414
 181   2.0000      -0.578193       -15.7334
 182   2.0000      -0.575483       -15.6597
 183   2.0000      -0.574470       -15.6321
 184   2.0000      -0.564024       -15.3479
 185   2.0000      -0.560357       -15.2481
 186   2.0000      -0.554523       -15.0893
 187   2.0000      -0.552878       -15.0446
 188   2.0000      -0.551178       -14.9983
 189   2.0000      -0.547912       -14.9094
 190   2.0000      -0.547087       -14.8870
 191   2.0000      -0.545626       -14.8472
 192   2.0000      -0.544407       -14.8141
 193   2.0000      -0.544159       -14.8073
 194   2.0000      -0.543646       -14.7933
 195   2.0000      -0.538345       -14.6491
 196   2.0000      -0.537476       -14.6255
 197   2.0000      -0.533961       -14.5298
 198   2.0000      -0.529779       -14.4160
 199   2.0000      -0.529643       -14.4123
 200   2.0000      -0.525668       -14.3041
 201   2.0000      -0.521784       -14.1985
 202   2.0000      -0.519680       -14.1412
 203   2.0000      -0.515373       -14.0240
 204   2.0000      -0.514810       -14.0087
 205   2.0000      -0.512792       -13.9538
 206   2.0000      -0.512633       -13.9495
 207   2.0000      -0.510857       -13.9011
 208   2.0000      -0.505385       -13.7522
 209   2.0000      -0.502574       -13.6757
 210   2.0000      -0.501898       -13.6573
 211   2.0000      -0.500249       -13.6125
 212   2.0000      -0.497491       -13.5374
 213   2.0000      -0.496038       -13.4979
 214   2.0000      -0.494914       -13.4673
 215   2.0000      -0.489892       -13.3306
 216   2.0000      -0.489406       -13.3174
 217   2.0000      -0.486235       -13.2311
 218   2.0000      -0.484758       -13.1909
 219   2.0000      -0.482056       -13.1174
 220   2.0000      -0.481190       -13.0938
 221   2.0000      -0.473434       -12.8828
 222   2.0000      -0.470188       -12.7945
 223   2.0000      -0.469768       -12.7830
 224   2.0000      -0.467258       -12.7147
 225   2.0000      -0.463682       -12.6174
 226   2.0000      -0.461497       -12.5580
 227   2.0000      -0.461023       -12.5451
 228   2.0000      -0.455377       -12.3914
 229   2.0000      -0.449019       -12.2184
 230   2.0000      -0.448181       -12.1956
 231   2.0000      -0.445321       -12.1178
 232   2.0000      -0.444589       -12.0979
 233   2.0000      -0.442746       -12.0477
 234   2.0000      -0.441554       -12.0153
 235   2.0000      -0.439766       -11.9667
 236   2.0000      -0.438830       -11.9412
 237   2.0000      -0.436724       -11.8839
 238   2.0000      -0.430630       -11.7180
 239   2.0000      -0.429669       -11.6919
 240   2.0000      -0.428389       -11.6571
 241   2.0000      -0.426665       -11.6101
 242   2.0000      -0.426394       -11.6028
 243   2.0000      -0.425614       -11.5815
 244   2.0000      -0.424369       -11.5477
 245   2.0000      -0.423197       -11.5158
 246   2.0000      -0.422883       -11.5072
 247   2.0000      -0.421130       -11.4595
 248   2.0000      -0.417701       -11.3662
 249   2.0000      -0.412435       -11.2229
 250   2.0000      -0.408908       -11.1269
 251   2.0000      -0.406364       -11.0577
 252   2.0000      -0.403026       -10.9669
 253   2.0000      -0.399730       -10.8772
 254   2.0000      -0.396146       -10.7797
 255   2.0000      -0.387395       -10.5415
 256   2.0000      -0.385193       -10.4816
 257   2.0000      -0.380584       -10.3562
 258   2.0000      -0.370730       -10.0881
 259   2.0000      -0.358300        -9.7498
 260   2.0000      -0.341772        -9.3001
 261   2.0000      -0.340419        -9.2633
 262   2.0000      -0.339476        -9.2376
 263   2.0000      -0.333686        -9.0801
 264   2.0000      -0.331943        -9.0326
 265   2.0000      -0.318436        -8.6651
 266   2.0000      -0.318091        -8.6557
 267   2.0000      -0.315444        -8.5837
 268   2.0000      -0.313771        -8.5381
 269   2.0000      -0.299664        -8.1543
 270   2.0000      -0.297721        -8.1014
 271   2.0000      -0.285653        -7.7730
 272   2.0000      -0.283365        -7.7108
 273   2.0000      -0.267783        -7.2868
 274   2.0000      -0.245417        -6.6781
 275   0.0000      -0.115260        -3.1364
 276   0.0000      -0.093665        -2.5487
 277   0.0000      -0.082592        -2.2474
 278   0.0000      -0.057997        -1.5782
 279   0.0000      -0.056282        -1.5315

MULLIKEN ATOMIC CHARGES
-----------------------
   0 C :   -0.109647
   1 C :    0.240797
   2 F :   -0.172029
   3 C :    0.239169
   4 F :   -0.173016
   5 C :   -0.106139
   6 C :    0.117233
   7 C :    0.113106
   8 C :   -0.085288
   9 C :    0.047547
  10 C :   -0.003871
  11 C :   -0.083563
  12 C :    0.163370
  13 O :   -0.175518
  14 C :   -0.096165
  15 C :    0.335685
  16 C :   -0.360703
  17 C :   -0.184808
  18 N :    0.137377
  19 C :   -0.185535
  20 N :    0.142837
  21 C :   -0.027943
  22 C :   -0.051675
  23 C :   -0.125061
  24 C :    0.207088
  25 C :   -0.099027
  26 S :    0.208612
  27 C :   -0.111311
  28 C :    0.169351
  29 N :   -0.163845
  30 C :    0.123588
  31 C :   -0.111390
  32 C :   -0.123219
  33 S :    0.213432
  34 C :    0.010897
  35 N :   -0.047863
  36 N :   -0.047621
  37 C :    0.010381
  38 C :   -0.030393
  39 C :   -0.029365
  40 N :    0.069207
  41 O :   -0.083666
  42 N :    0.066961
  43 C :   -0.121921
  44 C :   -0.107692
  45 C :    0.162513
  46 C :   -0.103391
  47 S :    0.209646
  48 C :   -0.115569
  49 C :    0.181701
  50 N :   -0.165116
  51 C :    0.124042
  52 C :   -0.039540
  53 C :   -0.102176
  54 S :    0.169536
  55 C :    0.045159
  56 C :   -0.141464
  57 C :    0.142048
  58 O :   -0.144409
  59 C :    0.012599
  60 C :   -0.082467
  61 C :    0.111261
  62 C :    0.110092
  63 C :   -0.106571
  64 C :    0.241190
  65 C :    0.238642
  66 C :   -0.102784
  67 F :   -0.172838
  68 F :   -0.171460
  69 C :   -0.080474
  70 C :    0.038671
  71 C :    0.253750
  72 C :   -0.320393
  73 C :   -0.198724
  74 N :    0.164370
  75 C :   -0.176003
  76 N :    0.153948
  77 H :    0.007837
  78 H :   -0.001192
  79 H :   -0.007809
  80 H :   -0.010729
  81 H :    0.005907
  82 H :   -0.000888
  83 H :    0.044064
  84 H :    0.044729
  85 H :    0.047157
  86 H :   -0.005610
  87 H :   -0.004979
  88 H :    0.043966
  89 H :    0.045973
  90 H :    0.049477
  91 H :   -0.011505
  92 H :    0.027627
  93 H :   -0.009934
  94 H :    0.005823
  95 H :   -0.001152
  96 H :   -0.002911
Sum of atomic charges:    0.0000000

LOEWDIN ATOMIC CHARGES
----------------------
   0 C :   -0.029429
   1 C :    0.065573
   2 F :   -0.049857
   3 C :    0.066968
   4 F :   -0.050337
   5 C :   -0.033585
   6 C :   -0.009138
   7 C :   -0.007371
   8 C :    0.016972
   9 C :   -0.022097
  10 C :   -0.050648
  11 C :    0.028135
  12 C :    0.082332
  13 O :   -0.165230
  14 C :   -0.115860
  15 C :    0.078131
  16 C :   -0.148772
  17 C :   -0.020063
  18 N :   -0.061439
  19 C :   -0.017629
  20 N :   -0.059386
  21 C :    0.055460
  22 C :   -0.173558
  23 C :   -0.034783
  24 C :   -0.016776
  25 C :   -0.203890
  26 S :    0.490285
  27 C :   -0.218478
  28 C :   -0.001162
  29 N :    0.023719
  30 C :    0.041269
  31 C :   -0.059269
  32 C :   -0.168193
  33 S :    0.469312
  34 C :   -0.027798
  35 N :   -0.054586
  36 N :   -0.057374
  37 C :   -0.025184
  38 C :   -0.056724
  39 C :   -0.056701
  40 N :   -0.008475
  41 O :    0.082719
  42 N :   -0.008446
  43 C :   -0.171642
  44 C :   -0.054810
  45 C :   -0.006065
  46 C :   -0.212250
  47 S :    0.464817
  48 C :   -0.198933
  49 C :   -0.010419
  50 N :    0.031902
  51 C :    0.041764
  52 C :   -0.026363
  53 C :   -0.170035
  54 S :    0.448785
  55 C :    0.052029
  56 C :   -0.102517
  57 C :    0.082283
  58 O :   -0.145724
  59 C :   -0.053618
  60 C :    0.029571
  61 C :   -0.009951
  62 C :   -0.005706
  63 C :   -0.030414
  64 C :    0.066727
  65 C :    0.066351
  66 C :   -0.033085
  67 F :   -0.050391
  68 F :   -0.049274
  69 C :    0.013269
  70 C :   -0.019035
  71 C :    0.059977
  72 C :   -0.139780
  73 C :   -0.030799
  74 N :   -0.052747
  75 C :   -0.019318
  76 N :   -0.052354
  77 H :    0.047611
  78 H :    0.044469
  79 H :    0.039670
  80 H :    0.039955
  81 H :    0.049851
  82 H :    0.038985
  83 H :    0.037443
  84 H :    0.035560
  85 H :    0.031352
  86 H :    0.033395
  87 H :    0.033581
  88 H :    0.030921
  89 H :    0.038981
  90 H :    0.036590
  91 H :    0.037836
  92 H :    0.051125
  93 H :    0.040255
  94 H :    0.047223
  95 H :    0.044540
  96 H :    0.039772

  Mayer bond orders larger than 0.100000
B(  0-C ,  1-C ) :   1.4385 B(  0-C ,  5-C ) :   0.1084 B(  0-C ,  7-C ) :   1.1896
B(  0-C , 77-H ) :   1.0076 B(  1-C ,  2-F ) :   1.1345 B(  1-C ,  3-C ) :   1.1925
B(  3-C ,  4-F ) :   1.1318 B(  3-C ,  5-C ) :   1.4412 B(  5-C ,  6-C ) :   1.1928
B(  5-C , 78-H ) :   1.0079 B(  6-C ,  7-C ) :   1.2584 B(  6-C , 11-C ) :   1.1837
B(  7-C ,  8-C ) :   1.2123 B(  8-C ,  9-C ) :   1.4549 B(  8-C , 79-H ) :   0.9900
B(  9-C , 10-C ) :   1.2223 B(  9-C , 15-C ) :   0.9786 B( 10-C , 11-C ) :   1.4729
B( 10-C , 12-C ) :   0.9531 B( 11-C , 80-H ) :   1.0175 B( 12-C , 13-O ) :   2.1420
B( 12-C , 14-C ) :   0.9786 B( 14-C , 15-C ) :   1.0962 B( 14-C , 21-C ) :   1.4591
B( 15-C , 16-C ) :   1.6065 B( 16-C , 17-C ) :   1.1460 B( 16-C , 19-C ) :   1.1514
B( 17-C , 18-N ) :   2.9536 B( 19-C , 20-N ) :   2.9577 B( 21-C , 22-C ) :   1.2979
B( 21-C , 81-H ) :   0.9375 B( 22-C , 23-C ) :   1.3140 B( 22-C , 26-S ) :   1.0740
B( 23-C , 24-C ) :   1.2677 B( 23-C , 82-H ) :   1.0326 B( 24-C , 25-C ) :   1.3147
B( 24-C , 29-N ) :   1.1347 B( 25-C , 26-S ) :   1.0201 B( 25-C , 27-C ) :   1.4142
B( 27-C , 28-C ) :   1.3686 B( 27-C , 33-S ) :   1.0227 B( 28-C , 29-N ) :   1.1530
B( 28-C , 31-C ) :   1.2198 B( 29-N , 30-C ) :   0.9645 B( 30-C , 83-H ) :   0.9727
B( 30-C , 84-H ) :   0.9710 B( 30-C , 85-H ) :   0.9736 B( 31-C , 32-C ) :   1.4801
B( 31-C , 86-H ) :   0.9956 B( 32-C , 33-S ) :   1.0890 B( 32-C , 34-C ) :   1.1968
B( 34-C , 35-N ) :   1.7283 B( 34-C , 37-C ) :   0.1073 B( 34-C , 39-C ) :   1.0712
B( 35-N , 36-N ) :   1.2093 B( 36-N , 37-C ) :   1.7282 B( 37-C , 38-C ) :   1.0707
B( 37-C , 43-C ) :   1.2005 B( 38-C , 39-C ) :   1.1657 B( 38-C , 42-N ) :   1.6259
B( 39-C , 40-N ) :   1.6275 B( 40-N , 41-O ) :   1.0643 B( 40-N , 42-N ) :   0.1780
B( 41-O , 42-N ) :   1.0665 B( 43-C , 44-C ) :   1.4871 B( 43-C , 47-S ) :   1.0799
B( 44-C , 45-C ) :   1.2176 B( 44-C , 87-H ) :   0.9940 B( 45-C , 46-C ) :   1.3675
B( 45-C , 50-N ) :   1.1550 B( 46-C , 47-S ) :   1.0238 B( 46-C , 48-C ) :   1.4298
B( 48-C , 49-C ) :   1.3494 B( 48-C , 54-S ) :   1.0489 B( 49-C , 50-N ) :   1.1472
B( 49-C , 52-C ) :   1.2481 B( 50-N , 51-C ) :   0.9641 B( 51-C , 88-H ) :   0.9730
B( 51-C , 89-H ) :   0.9731 B( 51-C , 90-H ) :   0.9708 B( 52-C , 53-C ) :   1.3990
B( 52-C , 91-H ) :   1.0187 B( 53-C , 54-S ) :   1.0918 B( 53-C , 55-C ) :   1.1472
B( 55-C , 56-C ) :   1.6235 B( 55-C , 92-H ) :   0.9479 B( 56-C , 57-C ) :   0.9452
B( 56-C , 71-C ) :   1.0440 B( 57-C , 58-O ) :   2.2733 B( 57-C , 59-C ) :   0.9161
B( 59-C , 60-C ) :   1.4767 B( 59-C , 70-C ) :   1.2222 B( 60-C , 61-C ) :   1.1927
B( 60-C , 93-H ) :   1.0156 B( 61-C , 62-C ) :   1.2582 B( 61-C , 66-C ) :   1.1944
B( 62-C , 63-C ) :   1.1891 B( 62-C , 69-C ) :   1.2144 B( 63-C , 64-C ) :   1.4421
B( 63-C , 66-C ) :   0.1091 B( 63-C , 94-H ) :   1.0066 B( 64-C , 65-C ) :   1.1923
B( 64-C , 68-F ) :   1.1343 B( 65-C , 66-C ) :   1.4428 B( 65-C , 67-F ) :   1.1318
B( 66-C , 95-H ) :   1.0064 B( 69-C , 70-C ) :   1.4578 B( 69-C , 96-H ) :   0.9938
B( 70-C , 71-C ) :   0.9991 B( 71-C , 72-C ) :   1.6557 B( 72-C , 73-C ) :   1.1534
B( 72-C , 75-C ) :   1.1395 B( 73-C , 74-N ) :   3.0154 B( 75-C , 76-N ) :   2.9871

-----------------------------------------------------------------------------
         ABSORPTION SPECTRUM VIA TRANSITION ELECTRIC DIPOLE MOMENTS
-----------------------------------------------------------------------------
State   Energy  Wavelength   fosc         T2         TX        TY        TZ
        (cm-1)    (nm)                  (au**2)     (au)      (au)      (au)
-----------------------------------------------------------------------------
   0   13598.3    735.4   2.222484014  53.80576   1.01561  -7.11136  -1.48420
   1   18764.9    532.9   0.518213374   9.09153   0.64829   1.38415  -2.59911
   2   19955.7    501.1   0.000350975   0.00579   0.01357  -0.01177   0.07394
   3   21021.6    475.7   0.125729274   1.96901   0.57267  -1.28018   0.04668
   4   21358.3    468.2   0.086937170   1.34003   0.02874   0.87152  -0.76135
   5   21526.1    464.6   0.109031316   1.66749   0.28095  -0.60975   1.10307
   6   22079.8    452.9   0.089998219   1.34188   0.23824  -0.96426  -0.59609
   7   25149.4    397.6   0.012894728   0.16880   0.11390   0.15414   0.36341
   8   26123.2    382.8   0.029771684   0.37519   0.06601  -0.59675  -0.12135
   9   26356.3    379.4   0.030566188   0.38180  -0.08767  -0.06182  -0.60851
  10   26572.4    376.3   0.011005068   0.13634  -0.17614   0.28843  -0.14876
  11   27666.4    361.4   0.185304836   2.20501  -0.15212  -1.41932   0.40913
  12   27906.2    358.3   0.321717867   3.79534   0.45403   0.60767   1.79442
  13   28216.6    354.4   0.001023474   0.01194   0.08775  -0.02725  -0.05915
  14   28442.6    351.6   0.035655104   0.41269  -0.32467   0.40778   0.37550
  15   28747.2    347.9   0.065155763   0.74616   0.15540   0.72728   0.43941
  16   29467.6    339.4   0.007844269   0.08764  -0.06176  -0.21513  -0.19375
  17   29720.8    336.5   0.087109656   0.96490   0.07653   0.02953  -0.97886
  18   29868.3    334.8   0.035766059   0.39422   0.07132   0.19957   0.59102
  19   30815.4    324.5   0.025246943   0.26972   0.30296  -0.41690  -0.06431
  20   32791.4    305.0   0.401613168   4.03202   0.14544  -1.92278   0.56016
  21   33001.2    303.0   0.005270992   0.05258   0.09824   0.19461   0.07113
  22   33098.8    302.1   0.378443400   3.76413  -0.18138  -0.57679  -1.84351
  23   33301.0    300.3   0.305193563   3.01713  -0.38956  -0.79062  -1.49676
  24   33485.2    298.6   0.225706493   2.21904   0.44641   0.89316   1.10545
  25   33662.3    297.1   0.094165511   0.92092   0.25212  -0.33516   0.86315
  26   33741.1    296.4   0.153446627   1.49718   0.07253   0.17071   1.20945
  27   34026.3    293.9   0.007997220   0.07737   0.20176   0.01354  -0.19101
  28   34179.9    292.6   0.028549578   0.27498   0.12596  -0.28475   0.42194
  29   34256.7    291.9   0.054703857   0.52571   0.07986   0.46071   0.55415
  30   34317.9    291.4   0.004018684   0.03855   0.17917  -0.08025   0.00323
  31   34403.8    290.7   0.017828920   0.17061  -0.13211   0.09641   0.37929
  32   34627.4    288.8   0.004138926   0.03935  -0.04294   0.06214   0.18342
  33   34841.1    287.0   0.006644088   0.06278   0.07651  -0.02429   0.23735
  34   35104.0    284.9   0.132243997   1.24021  -0.05044   0.42642  -1.02754
  35   35429.0    282.3   0.285369734   2.65170   0.02219  -0.01813  -1.62815
  36   36465.2    274.2   0.030503482   0.27539  -0.03963  -0.02653  -0.52260
  37   36619.1    273.1   0.000446532   0.00401   0.02798   0.04482   0.03497
  38   36722.6    272.3   0.071994189   0.64542  -0.10489  -0.22619  -0.76371
  39   37078.0    269.7   0.048512360   0.43074  -0.38182  -0.52865   0.07403
  40   37217.0    268.7   0.013282557   0.11749  -0.22408  -0.25476  -0.04877
  41   37341.5    267.8   0.009202531   0.08113   0.22738   0.16720   0.03842
  42   37632.7    265.7   0.103358133   0.90418   0.43556   0.59211   0.60322
  43   37708.2    265.2   0.285021679   2.48839   0.17624   0.44821   1.50214
  44   37941.1    263.6   0.031606213   0.27424  -0.23989   0.01710  -0.46519
  45   38175.8    261.9   0.044443454   0.38326   0.06588   0.45129   0.41864
  46   38450.1    260.1   0.044376851   0.37996   0.09466   0.56741   0.22145
  47   39022.5    256.3   0.000897536   0.00757   0.02738   0.04785  -0.06733
  48   39442.2    253.5   0.028870371   0.24097  -0.23140  -0.28464   0.32620
  49   39958.5    250.3   0.183424048   1.51120   0.20189   0.93470  -0.77252
  50   40136.3    249.2   0.015176152   0.12448   0.10006  -0.33037  -0.07295

FINAL SINGLE POINT ENERGY     -4906.568519896327

DIPOLE MOMENT
-------------
                                X             Y             Z
Electronic contribution:      1.78551      12.44252     -47.22585
Nuclear contribution   :     -3.21048     -15.13768      49.34754
                        -----------------------------------------
Total Dipole Moment    :     -1.42496      -2.69517       2.12169
                        -----------------------------------------
Magnitude (a.u.)       :      3.71430
Magnitude (Debye)      :      9.44100

Rotational constants in cm-1:     0.000996     0.000167     0.000145
Rotational constants in MHz :    29.846379     5.010024     4.346927

                             ****ORCA TERMINATED NORMALLY****
TOTAL RUN TIME: 0 days 0 hours 10 minutes 6 seconds 371 msec
