                         Program Version 4.2.0 -  RELEASE  -
|  1> # ORCA input file
|  2> # SCF done       -203.674371254827          0.000411591988
|  3> ! CAM-B3LYP def2-SVP def2/J RIJCOSX Grid4 TightSCF
|  4> %maxcore 5000
|  5> %tddft
|  6>     Mode sTDDFT
|  7>     Ethresh 5.0
|  8>     maxcore 5000
|  9> end
| 10>
| 11> %pal
| 12>   nprocs 6
| 13>   end
| 14> * xyz 0 1
| 15>    C        0.53698         5.16641         5.72021
| 16>    C        1.31027         6.22183         5.31041
| 17>    C        1.92654         7.12837         6.19462
| 18>    N        2.44177         7.89291         6.87870
| 19>    C        1.65653         6.43632         3.96078
| 20>    N        1.99948         6.59957         2.87712
| 21>    C        0.39135         4.70472         7.09575
| 22>    C        0.00612         3.33177         7.07011
| 23>    C       -0.16715         2.61635         8.21940
| 24>    C        0.02664         3.25554         9.46521
| 25>    C        0.39462         4.63176         9.49626
| 26>    C        0.57766         5.34622         8.28952
| 27>    C        0.57514         5.25801        10.74601
| 28>    C        0.40418         4.56013        11.91057
| 29>    C        0.04387         3.20484        11.87920
| 30>    C       -0.14019         2.56660        10.68269
| 31>    C       -0.16698         2.89922         5.67050
| 32>    O       -0.43184         1.79310         5.25567
| 33>    C       -0.01281         4.13980         4.86234
| 34>    C       -0.45932         4.17351         3.57673
| 35>    C       -0.82047         5.29170         2.79158
| 36>    C       -0.95122         5.29339         1.41075
| 37>    C       -1.37465         6.52700         0.93289
| 38>    C       -1.62359         7.47728         1.95854
| 39>    S       -1.29243         6.82976         3.51637
| 40>    C       -2.05669         8.64138         1.33688
| 41>    C       -2.05294         8.37350        -0.05841
| 42>    N       -1.64831         7.08520        -0.28678
| 43>    C       -1.45805         6.45538        -1.56337
| 44>    C       -2.45612         9.45672        -0.82673
| 45>    C       -2.77149        10.55703        -0.03881
| 46>    S       -2.57204        10.25326         1.68022
| 47>    C       -3.19826        11.82940        -0.50455
| 48>    C       -3.47541        12.89073         0.38572
| 49>    C       -3.86393        14.19576        -0.06132
| 50>    N       -4.10332        15.15843         0.85075
| 51>    C       -3.98333        14.89643         2.11118
| 52>    C       -3.60178        13.60270         2.55393
| 53>    N       -3.36245        12.65514         1.70727
| 54>    F       -3.48663        13.32840         3.84917
| 55>    F       -4.23367        15.87085         2.97925
| 56>    C       -4.00879        14.52321        -1.42749
| 57>    C       -3.76509        13.45701        -2.32806
| 58>    C       -3.36591        12.13989        -1.87682
| 59>    N       -3.18771        11.30592        -2.90194
| 60>    S       -3.48491        12.07788        -4.27728
| 61>    N       -3.85554        13.51098        -3.65734
| 62>    C       -4.35776        15.83509        -1.84866
| 63>    C       -4.54744        16.25497        -3.15957
| 64>    C       -4.85086        17.60775        -3.22562
| 65>    C       -4.88962        18.24016        -1.95417
| 66>    S       -4.56460        17.12548        -0.67489
| 67>    C       -5.18409        19.57746        -2.18988
| 68>    C       -5.32140        19.72697        -3.60073
| 69>    N       -5.12549        18.51669        -4.21142
| 70>    C       -5.14903        18.25884        -5.62416
| 71>    C       -5.60965        21.01974        -4.00483
| 72>    C       -5.70316        21.88803        -2.92294
| 73>    S       -5.41484        21.06960        -1.37489
| 74>    C       -5.94410        23.26944        -2.84808
| 75>    C       -6.29504        24.18738        -3.80663
| 76>    C       -6.46037        25.60341        -3.52219
| 77>    C       -6.02195        26.28110        -2.41281
| 78>    C       -6.20470        27.66553        -2.21427
| 79>    N       -6.32394        28.78455        -1.98508
| 80>    C       -5.28794        25.73417        -1.33918
| 81>    N       -4.66538        25.38632        -0.43841
| 82>    C       -7.10694        26.22186        -4.67406
| 83>    C       -7.23740        25.23790        -5.69263
| 84>    C       -6.69679        23.95436        -5.21198
| 85>    O       -6.62828        22.93266        -5.86954
| 86>    C       -7.79751        25.52083        -6.90460
| 87>    C       -8.26999        26.82847        -7.15586
| 88>    C       -8.15187        27.81781        -6.13800
| 89>    C       -7.56209        27.49448        -4.89387
| 90>    C       -8.63103        29.11794        -6.39663
| 91>    C       -9.19867        29.42831        -7.60245
| 92>    C       -9.31391        28.45335        -8.60431
| 93>    C       -8.85913        27.18119        -8.38574
| 94>    H       -0.45008         1.57482         8.18091
| 95>    H        0.84856         6.38963         8.33753
| 96>    H        0.85568         6.30088        10.76483
| 97>    H        0.54616         5.04883        12.86289
| 98>    H       -0.08765         2.66916        12.80752
| 99>    H       -0.41820         1.52311        10.65236
|100>    H       -0.64116         3.20317         3.12366
|101>    H       -0.70544         4.43845         0.80770
|102>    H       -1.96231         7.04202        -2.32819
|103>    H       -1.88007         5.44940        -1.54834
|104>    H       -0.39480         6.38696        -1.80966
|105>    H       -2.52476         9.48779        -1.89739
|106>    H       -4.45484        15.58518        -3.99297
|107>    H       -5.70824        19.04892        -6.12170
|108>    H       -5.63352        17.30084        -5.81449
|109>    H       -4.13560        18.22850        -6.03464
|110>    H       -5.75436        21.35092        -5.01611
|111>    H       -5.84888        23.65634        -1.83988
|112>    H       -7.88062        24.75579        -7.66246
|113>    H       -7.49259        28.26540        -4.14329
|114>    H       -8.53873        29.86553        -5.62242
|115>    H       -9.56200        30.42749        -7.79096
|116>    H       -9.76491        28.71512        -9.54993
|117>    H       -8.94532        26.42599        -9.15354
|118> *
|119>
|120>                          ****END OF INPUT****

CARTESIAN COORDINATES (ANGSTROEM)
---------------------------------
  C      0.536980    5.166410    5.720210
  C      1.310270    6.221830    5.310410
  C      1.926540    7.128370    6.194620
  N      2.441770    7.892910    6.878700
  C      1.656530    6.436320    3.960780
  N      1.999480    6.599570    2.877120
  C      0.391350    4.704720    7.095750
  C      0.006120    3.331770    7.070110
  C     -0.167150    2.616350    8.219400
  C      0.026640    3.255540    9.465210
  C      0.394620    4.631760    9.496260
  C      0.577660    5.346220    8.289520
  C      0.575140    5.258010   10.746010
  C      0.404180    4.560130   11.910570
  C      0.043870    3.204840   11.879200
  C     -0.140190    2.566600   10.682690
  C     -0.166980    2.899220    5.670500
  O     -0.431840    1.793100    5.255670
  C     -0.012810    4.139800    4.862340
  C     -0.459320    4.173510    3.576730
  C     -0.820470    5.291700    2.791580
  C     -0.951220    5.293390    1.410750
  C     -1.374650    6.527000    0.932890
  C     -1.623590    7.477280    1.958540
  S     -1.292430    6.829760    3.516370
  C     -2.056690    8.641380    1.336880
  C     -2.052940    8.373500   -0.058410
  N     -1.648310    7.085200   -0.286780
  C     -1.458050    6.455380   -1.563370
  C     -2.456120    9.456720   -0.826730
  C     -2.771490   10.557030   -0.038810
  S     -2.572040   10.253260    1.680220
  C     -3.198260   11.829400   -0.504550
  C     -3.475410   12.890730    0.385720
  C     -3.863930   14.195760   -0.061320
  N     -4.103320   15.158430    0.850750
  C     -3.983330   14.896430    2.111180
  C     -3.601780   13.602700    2.553930
  N     -3.362450   12.655140    1.707270
  F     -3.486630   13.328400    3.849170
  F     -4.233670   15.870850    2.979250
  C     -4.008790   14.523210   -1.427490
  C     -3.765090   13.457010   -2.328060
  C     -3.365910   12.139890   -1.876820
  N     -3.187710   11.305920   -2.901940
  S     -3.484910   12.077880   -4.277280
  N     -3.855540   13.510980   -3.657340
  C     -4.357760   15.835090   -1.848660
  C     -4.547440   16.254970   -3.159570
  C     -4.850860   17.607750   -3.225620
  C     -4.889620   18.240160   -1.954170
  S     -4.564600   17.125480   -0.674890
  C     -5.184090   19.577460   -2.189880
  C     -5.321400   19.726970   -3.600730
  N     -5.125490   18.516690   -4.211420
  C     -5.149030   18.258840   -5.624160
  C     -5.609650   21.019740   -4.004830
  C     -5.703160   21.888030   -2.922940
  S     -5.414840   21.069600   -1.374890
  C     -5.944100   23.269440   -2.848080
  C     -6.295040   24.187380   -3.806630
  C     -6.460370   25.603410   -3.522190
  C     -6.021950   26.281100   -2.412810
  C     -6.204700   27.665530   -2.214270
  N     -6.323940   28.784550   -1.985080
  C     -5.287940   25.734170   -1.339180
  N     -4.665380   25.386320   -0.438410
  C     -7.106940   26.221860   -4.674060
  C     -7.237400   25.237900   -5.692630
  C     -6.696790   23.954360   -5.211980
  O     -6.628280   22.932660   -5.869540
  C     -7.797510   25.520830   -6.904600
  C     -8.269990   26.828470   -7.155860
  C     -8.151870   27.817810   -6.138000
  C     -7.562090   27.494480   -4.893870
  C     -8.631030   29.117940   -6.396630
  C     -9.198670   29.428310   -7.602450
  C     -9.313910   28.453350   -8.604310
  C     -8.859130   27.181190   -8.385740
  H     -0.450080    1.574820    8.180910
  H      0.848560    6.389630    8.337530
  H      0.855680    6.300880   10.764830
  H      0.546160    5.048830   12.862890
  H     -0.087650    2.669160   12.807520
  H     -0.418200    1.523110   10.652360
  H     -0.641160    3.203170    3.123660
  H     -0.705440    4.438450    0.807700
  H     -1.962310    7.042020   -2.328190
  H     -1.880070    5.449400   -1.548340
  H     -0.394800    6.386960   -1.809660
  H     -2.524760    9.487790   -1.897390
  H     -4.454840   15.585180   -3.992970
  H     -5.708240   19.048920   -6.121700
  H     -5.633520   17.300840   -5.814490
  H     -4.135600   18.228500   -6.034640
  H     -5.754360   21.350920   -5.016110
  H     -5.848880   23.656340   -1.839880
  H     -7.880620   24.755790   -7.662460
  H     -7.492590   28.265400   -4.143290
  H     -8.538730   29.865530   -5.622420
  H     -9.562000   30.427490   -7.790960
  H     -9.764910   28.715120   -9.549930
  H     -8.945320   26.425990   -9.153540

 Total Charge           Charge          ....    0
 Multiplicity           Mult            ....    1
 Number of Electrons    NEL             ....  568
 Basis Dimension        Dim             .... 1246

ORBITAL ENERGIES
----------------

  NO   OCC          E(Eh)            E(eV)
   0   2.0000     -89.046772     -2423.0859
   1   2.0000     -88.962021     -2420.7797
   2   2.0000     -88.959353     -2420.7071
   3   2.0000     -88.955999     -2420.6158
   4   2.0000     -88.955599     -2420.6049
   5   2.0000     -24.819069      -675.3612
   6   2.0000     -24.818580      -675.3479
   7   2.0000     -19.209285      -522.7112
   8   2.0000     -19.204719      -522.5870
   9   2.0000     -14.473169      -393.8350
  10   2.0000     -14.470851      -393.7719
  11   2.0000     -14.460024      -393.4773
  12   2.0000     -14.459718      -393.4689
  13   2.0000     -14.457485      -393.4082
  14   2.0000     -14.456809      -393.3898
  15   2.0000     -14.406063      -392.0089
  16   2.0000     -14.404239      -391.9593
  17   2.0000     -14.402921      -391.9234
  18   2.0000     -14.402643      -391.9158
  19   2.0000     -10.436194      -283.9833
  20   2.0000     -10.435519      -283.9649
  21   2.0000     -10.360533      -281.9244
  22   2.0000     -10.356730      -281.8210
  23   2.0000     -10.347857      -281.5795
  24   2.0000     -10.347391      -281.5668
  25   2.0000     -10.345809      -281.5238
  26   2.0000     -10.345583      -281.5176
  27   2.0000     -10.332135      -281.1517
  28   2.0000     -10.330923      -281.1187
  29   2.0000     -10.329256      -281.0733
  30   2.0000     -10.328147      -281.0432
  31   2.0000     -10.326957      -281.0108
  32   2.0000     -10.323474      -280.9160
  33   2.0000     -10.318423      -280.7786
  34   2.0000     -10.317074      -280.7419
  35   2.0000     -10.316725      -280.7324
  36   2.0000     -10.316145      -280.7166
  37   2.0000     -10.315581      -280.7012
  38   2.0000     -10.315484      -280.6986
  39   2.0000     -10.315427      -280.6970
  40   2.0000     -10.315050      -280.6868
  41   2.0000     -10.313478      -280.6440
  42   2.0000     -10.313180      -280.6359
  43   2.0000     -10.312693      -280.6226
  44   2.0000     -10.309408      -280.5333
  45   2.0000     -10.308880      -280.5189
  46   2.0000     -10.307621      -280.4846
  47   2.0000     -10.307298      -280.4758
  48   2.0000     -10.306441      -280.4525
  49   2.0000     -10.305676      -280.4317
  50   2.0000     -10.305580      -280.4291
  51   2.0000     -10.298457      -280.2353
  52   2.0000     -10.295339      -280.1504
  53   2.0000     -10.293866      -280.1103
  54   2.0000     -10.293209      -280.0925
  55   2.0000     -10.293201      -280.0922
  56   2.0000     -10.290875      -280.0289
  57   2.0000     -10.290525      -280.0194
  58   2.0000     -10.290155      -280.0094
  59   2.0000     -10.289702      -279.9970
  60   2.0000     -10.289582      -279.9938
  61   2.0000     -10.288837      -279.9735
  62   2.0000     -10.288534      -279.9653
  63   2.0000     -10.287682      -279.9421
  64   2.0000     -10.287578      -279.9392
  65   2.0000     -10.286772      -279.9173
  66   2.0000     -10.286023      -279.8969
  67   2.0000     -10.283598      -279.8309
  68   2.0000     -10.282329      -279.7964
  69   2.0000     -10.281662      -279.7782
  70   2.0000     -10.280363      -279.7429
  71   2.0000     -10.280325      -279.7419
  72   2.0000     -10.279893      -279.7301
  73   2.0000     -10.279858      -279.7291
  74   2.0000     -10.279833      -279.7285
  75   2.0000     -10.279635      -279.7231
  76   2.0000     -10.279320      -279.7145
  77   2.0000     -10.279008      -279.7060
  78   2.0000     -10.278743      -279.6988
  79   2.0000      -8.138151      -221.4503
  80   2.0000      -8.056333      -219.2240
  81   2.0000      -8.054233      -219.1668
  82   2.0000      -8.049131      -219.0280
  83   2.0000      -8.048687      -219.0159
  84   2.0000      -6.109348      -166.2438
  85   2.0000      -6.101461      -166.0292
  86   2.0000      -6.100803      -166.0113
  87   2.0000      -6.026056      -163.9773
  88   2.0000      -6.023794      -163.9158
  89   2.0000      -6.021927      -163.8650
  90   2.0000      -6.019788      -163.8067
  91   2.0000      -6.019059      -163.7869
  92   2.0000      -6.018605      -163.7746
  93   2.0000      -6.017713      -163.7503
  94   2.0000      -6.015716      -163.6960
  95   2.0000      -6.014468      -163.6620
  96   2.0000      -6.014044      -163.6504
  97   2.0000      -6.010509      -163.5543
  98   2.0000      -6.010066      -163.5422
  99   2.0000      -1.347460       -36.6663
 100   2.0000      -1.333363       -36.2827
 101   2.0000      -1.144564       -31.1452
 102   2.0000      -1.123126       -30.5618
 103   2.0000      -1.120033       -30.4776
 104   2.0000      -1.119607       -30.4660
 105   2.0000      -1.100702       -29.9516
 106   2.0000      -1.099154       -29.9095
 107   2.0000      -1.046375       -28.4733
 108   2.0000      -1.009295       -27.4643
 109   2.0000      -1.007439       -27.4138
 110   2.0000      -1.001429       -27.2503
 111   2.0000      -0.990262       -26.9464
 112   2.0000      -0.989319       -26.9207
 113   2.0000      -0.989157       -26.9163
 114   2.0000      -0.986237       -26.8369
 115   2.0000      -0.982546       -26.7364
 116   2.0000      -0.979864       -26.6635
 117   2.0000      -0.979400       -26.6508
 118   2.0000      -0.974056       -26.5054
 119   2.0000      -0.962951       -26.2032
 120   2.0000      -0.962263       -26.1845
 121   2.0000      -0.959836       -26.1185
 122   2.0000      -0.917901       -24.9773
 123   2.0000      -0.916893       -24.9499
 124   2.0000      -0.907980       -24.7074
 125   2.0000      -0.900848       -24.5133
 126   2.0000      -0.891715       -24.2648
 127   2.0000      -0.889956       -24.2169
 128   2.0000      -0.883762       -24.0484
 129   2.0000      -0.876330       -23.8462
 130   2.0000      -0.873665       -23.7736
 131   2.0000      -0.872431       -23.7400
 132   2.0000      -0.860581       -23.4176
 133   2.0000      -0.854312       -23.2470
 134   2.0000      -0.846089       -23.0233
 135   2.0000      -0.842443       -22.9240
 136   2.0000      -0.838997       -22.8303
 137   2.0000      -0.837755       -22.7965
 138   2.0000      -0.821192       -22.3458
 139   2.0000      -0.820856       -22.3366
 140   2.0000      -0.820286       -22.3211
 141   2.0000      -0.808678       -22.0052
 142   2.0000      -0.805120       -21.9084
 143   2.0000      -0.794330       -21.6148
 144   2.0000      -0.778127       -21.1739
 145   2.0000      -0.772998       -21.0344
 146   2.0000      -0.767643       -20.8886
 147   2.0000      -0.756594       -20.5880
 148   2.0000      -0.752866       -20.4865
 149   2.0000      -0.752493       -20.4764
 150   2.0000      -0.749873       -20.4051
 151   2.0000      -0.732467       -19.9314
 152   2.0000      -0.715989       -19.4831
 153   2.0000      -0.708133       -19.2693
 154   2.0000      -0.698424       -19.0051
 155   2.0000      -0.696463       -18.9517
 156   2.0000      -0.695177       -18.9167
 157   2.0000      -0.692793       -18.8519
 158   2.0000      -0.690231       -18.7821
 159   2.0000      -0.680280       -18.5114
 160   2.0000      -0.673696       -18.3322
 161   2.0000      -0.670640       -18.2490
 162   2.0000      -0.668458       -18.1897
 163   2.0000      -0.667073       -18.1520
 164   2.0000      -0.657030       -17.8787
 165   2.0000      -0.654080       -17.7984
 166   2.0000      -0.648686       -17.6516
 167   2.0000      -0.647125       -17.6092
 168   2.0000      -0.641452       -17.4548
 169   2.0000      -0.637435       -17.3455
 170   2.0000      -0.632358       -17.2073
 171   2.0000      -0.626861       -17.0577
 172   2.0000      -0.623619       -16.9695
 173   2.0000      -0.622743       -16.9457
 174   2.0000      -0.620194       -16.8763
 175   2.0000      -0.608634       -16.5618
 176   2.0000      -0.601511       -16.3679
 177   2.0000      -0.599969       -16.3260
 178   2.0000      -0.598561       -16.2877
 179   2.0000      -0.598233       -16.2787
 180   2.0000      -0.592787       -16.1305
 181   2.0000      -0.588950       -16.0261
 182   2.0000      -0.583691       -15.8830
 183   2.0000      -0.574722       -15.6390
 184   2.0000      -0.574316       -15.6279
 185   2.0000      -0.572671       -15.5832
 186   2.0000      -0.570790       -15.5320
 187   2.0000      -0.568638       -15.4734
 188   2.0000      -0.568463       -15.4687
 189   2.0000      -0.562517       -15.3069
 190   2.0000      -0.559339       -15.2204
 191   2.0000      -0.547788       -14.9061
 192   2.0000      -0.546858       -14.8808
 193   2.0000      -0.539602       -14.6833
 194   2.0000      -0.539323       -14.6757
 195   2.0000      -0.537369       -14.6226
 196   2.0000      -0.536112       -14.5883
 197   2.0000      -0.532529       -14.4908
 198   2.0000      -0.529565       -14.4102
 199   2.0000      -0.527538       -14.3550
 200   2.0000      -0.526375       -14.3234
 201   2.0000      -0.525680       -14.3045
 202   2.0000      -0.524298       -14.2669
 203   2.0000      -0.519012       -14.1230
 204   2.0000      -0.515921       -14.0389
 205   2.0000      -0.514220       -13.9926
 206   2.0000      -0.512934       -13.9577
 207   2.0000      -0.512731       -13.9521
 208   2.0000      -0.510534       -13.8923
 209   2.0000      -0.508208       -13.8290
 210   2.0000      -0.507589       -13.8122
 211   2.0000      -0.505988       -13.7686
 212   2.0000      -0.504475       -13.7275
 213   2.0000      -0.503262       -13.6945
 214   2.0000      -0.499755       -13.5990
 215   2.0000      -0.496794       -13.5185
 216   2.0000      -0.492352       -13.3976
 217   2.0000      -0.491374       -13.3710
 218   2.0000      -0.488875       -13.3030
 219   2.0000      -0.487587       -13.2679
 220   2.0000      -0.487003       -13.2520
 221   2.0000      -0.484117       -13.1735
 222   2.0000      -0.483279       -13.1507
 223   2.0000      -0.481918       -13.1136
 224   2.0000      -0.479540       -13.0489
 225   2.0000      -0.477480       -12.9929
 226   2.0000      -0.476018       -12.9531
 227   2.0000      -0.471449       -12.8288
 228   2.0000      -0.466689       -12.6992
 229   2.0000      -0.461718       -12.5640
 230   2.0000      -0.457954       -12.4616
 231   2.0000      -0.456658       -12.4263
 232   2.0000      -0.454759       -12.3746
 233   2.0000      -0.450786       -12.2665
 234   2.0000      -0.448712       -12.2101
 235   2.0000      -0.442657       -12.0453
 236   2.0000      -0.440711       -11.9923
 237   2.0000      -0.437957       -11.9174
 238   2.0000      -0.437583       -11.9072
 239   2.0000      -0.435255       -11.8439
 240   2.0000      -0.434892       -11.8340
 241   2.0000      -0.432545       -11.7701
 242   2.0000      -0.431412       -11.7393
 243   2.0000      -0.427933       -11.6447
 244   2.0000      -0.426136       -11.5957
 245   2.0000      -0.425366       -11.5748
 246   2.0000      -0.424332       -11.5467
 247   2.0000      -0.423748       -11.5308
 248   2.0000      -0.421914       -11.4809
 249   2.0000      -0.421702       -11.4751
 250   2.0000      -0.416802       -11.3417
 251   2.0000      -0.415677       -11.3111
 252   2.0000      -0.413704       -11.2575
 253   2.0000      -0.410942       -11.1823
 254   2.0000      -0.409126       -11.1329
 255   2.0000      -0.408454       -11.1146
 256   2.0000      -0.407532       -11.0895
 257   2.0000      -0.398237       -10.8366
 258   2.0000      -0.396941       -10.8013
 259   2.0000      -0.393036       -10.6950
 260   2.0000      -0.389373       -10.5954
 261   2.0000      -0.382868       -10.4184
 262   2.0000      -0.377225       -10.2648
 263   2.0000      -0.374449       -10.1893
 264   2.0000      -0.372594       -10.1388
 265   2.0000      -0.365720        -9.9518
 266   2.0000      -0.361640        -9.8407
 267   2.0000      -0.356338        -9.6964
 268   2.0000      -0.347336        -9.4515
 269   2.0000      -0.342911        -9.3311
 270   2.0000      -0.333521        -9.0756
 271   2.0000      -0.331623        -9.0239
 272   2.0000      -0.330319        -8.9884
 273   2.0000      -0.328443        -8.9374
 274   2.0000      -0.322749        -8.7824
 275   2.0000      -0.309910        -8.4331
 276   2.0000      -0.307810        -8.3759
 277   2.0000      -0.297349        -8.0913
 278   2.0000      -0.287682        -7.8282
 279   2.0000      -0.285146        -7.7592
 280   2.0000      -0.277194        -7.5428
 281   2.0000      -0.275783        -7.5045
 282   2.0000      -0.258065        -7.0223
 283   2.0000      -0.226733        -6.1697
 284   0.0000      -0.121582        -3.3084
 285   0.0000      -0.083619        -2.2754
 286   0.0000      -0.079981        -2.1764
 287   0.0000      -0.049689        -1.3521
 288   0.0000      -0.047057        -1.2805

MULLIKEN ATOMIC CHARGES
-----------------------
   0 C :    0.245262
   1 C :   -0.316820
   2 C :   -0.177876
   3 N :    0.148552
   4 C :   -0.202065
   5 N :    0.161633
   6 C :    0.037371
   7 C :    0.009766
   8 C :   -0.082371
   9 C :    0.091972
  10 C :    0.093288
  11 C :   -0.077661
  12 C :   -0.016836
  13 C :    0.034774
  14 C :    0.034052
  15 C :   -0.014710
  16 C :    0.139482
  17 O :   -0.148687
  18 C :   -0.136183
  19 C :    0.040858
  20 C :   -0.094434
  21 C :   -0.045705
  22 C :    0.176021
  23 C :   -0.108872
  24 S :    0.164054
  25 C :   -0.086142
  26 C :    0.195674
  27 N :   -0.166227
  28 C :    0.128255
  29 C :   -0.122528
  30 C :   -0.173426
  31 S :    0.166538
  32 C :    0.184180
  33 C :   -0.064622
  34 C :   -0.056616
  35 N :   -0.038387
  36 C :    0.150601
  37 C :    0.149929
  38 N :   -0.037658
  39 F :   -0.135141
  40 F :   -0.133518
  41 C :    0.180175
  42 C :   -0.016942
  43 C :   -0.008392
  44 N :   -0.296766
  45 S :    0.538751
  46 N :   -0.294331
  47 C :   -0.169248
  48 C :   -0.119033
  49 C :    0.197917
  50 C :   -0.091483
  51 S :    0.166209
  52 C :   -0.103834
  53 C :    0.151273
  54 N :   -0.167319
  55 C :    0.126343
  56 C :   -0.058690
  57 C :   -0.115357
  58 S :    0.157993
  59 C :    0.039783
  60 C :   -0.099855
  61 C :    0.310240
  62 C :   -0.362245
  63 C :   -0.182389
  64 N :    0.139038
  65 C :   -0.201272
  66 N :    0.153692
  67 C :    0.049885
  68 C :    0.007598
  69 C :    0.157337
  70 O :   -0.174557
  71 C :   -0.093401
  72 C :    0.102752
  73 C :    0.099749
  74 C :   -0.090137
  75 C :   -0.023719
  76 C :    0.036440
  77 C :    0.036266
  78 C :   -0.020564
  79 H :   -0.014456
  80 H :   -0.007223
  81 H :   -0.011914
  82 H :   -0.007313
  83 H :   -0.007941
  84 H :   -0.019394
  85 H :    0.022624
  86 H :   -0.013885
  87 H :    0.041067
  88 H :    0.037928
  89 H :    0.048963
  90 H :   -0.011930
  91 H :   -0.013641
  92 H :    0.051401
  93 H :    0.038971
  94 H :    0.042391
  95 H :    0.006798
  96 H :    0.012951
  97 H :   -0.018623
  98 H :   -0.007923
  99 H :   -0.009341
 100 H :   -0.007820
 101 H :   -0.008924
 102 H :   -0.020449
Sum of atomic charges:   -0.0000000

LOEWDIN ATOMIC CHARGES
----------------------
   0 C :    0.060259
   1 C :   -0.144291
   2 C :   -0.019179
   3 N :   -0.056936
   4 C :   -0.032141
   5 N :   -0.055744
   6 C :   -0.021090
   7 C :   -0.056000
   8 C :    0.029914
   9 C :   -0.010203
  10 C :   -0.005924
  11 C :    0.013959
  12 C :   -0.007195
  13 C :   -0.014879
  14 C :   -0.015604
  15 C :   -0.010178
  16 C :    0.082160
  17 O :   -0.150780
  18 C :   -0.103673
  19 C :    0.048109
  20 C :   -0.170003
  21 C :   -0.029697
  22 C :   -0.012202
  23 C :   -0.196659
  24 S :    0.447627
  25 C :   -0.221164
  26 C :   -0.005966
  27 N :    0.027622
  28 C :    0.041042
  29 C :   -0.060564
  30 C :   -0.153491
  31 S :    0.452698
  32 C :   -0.041960
  33 C :   -0.016374
  34 C :   -0.013616
  35 N :   -0.051357
  36 C :    0.064892
  37 C :    0.063487
  38 N :   -0.049820
  39 F :   -0.023887
  40 F :   -0.023062
  41 C :   -0.048254
  42 C :   -0.035718
  43 C :   -0.036681
  44 N :   -0.279810
  45 S :    0.660521
  46 N :   -0.280221
  47 C :   -0.148977
  48 C :   -0.065026
  49 C :   -0.002693
  50 C :   -0.226500
  51 S :    0.453622
  52 C :   -0.197933
  53 C :   -0.015451
  54 N :    0.025789
  55 C :    0.041281
  56 C :   -0.026200
  57 C :   -0.170999
  58 S :    0.433066
  59 C :    0.046287
  60 C :   -0.107812
  61 C :    0.076763
  62 C :   -0.149807
  63 C :   -0.016793
  64 N :   -0.063080
  65 C :   -0.026945
  66 N :   -0.056600
  67 C :   -0.024613
  68 C :   -0.052965
  69 C :    0.087721
  70 O :   -0.158934
  71 C :    0.026500
  72 C :   -0.009642
  73 C :   -0.007152
  74 C :    0.016852
  75 C :   -0.006132
  76 C :   -0.016135
  77 C :   -0.015346
  78 C :   -0.011846
  79 H :    0.038225
  80 H :    0.038249
  81 H :    0.033777
  82 H :    0.032123
  83 H :    0.031633
  84 H :    0.031007
  85 H :    0.049605
  86 H :    0.036618
  87 H :    0.037024
  88 H :    0.032137
  89 H :    0.032598
  90 H :    0.027338
  91 H :    0.027933
  92 H :    0.040262
  93 H :    0.033364
  94 H :    0.029869
  95 H :    0.033625
  96 H :    0.043523
  97 H :    0.036213
  98 H :    0.038620
  99 H :    0.034387
 100 H :    0.031983
 101 H :    0.031287
 102 H :    0.030328

  Mayer bond orders larger than 0.100000
B(  0-C ,  1-C ) :   1.6516 B(  0-C ,  6-C ) :   0.9988 B(  0-C , 18-C ) :   1.0454
B(  1-C ,  2-C ) :   1.1398 B(  1-C ,  4-C ) :   1.1515 B(  2-C ,  3-N ) :   2.9895
B(  4-C ,  5-N ) :   3.0208 B(  6-C ,  7-C ) :   1.2136 B(  6-C , 11-C ) :   1.4639
B(  7-C ,  8-C ) :   1.4789 B(  7-C , 16-C ) :   0.9203 B(  8-C ,  9-C ) :   1.1839
B(  8-C , 79-H ) :   1.0146 B(  9-C , 10-C ) :   1.2567 B(  9-C , 15-C ) :   1.2468
B( 10-C , 11-C ) :   1.2013 B( 10-C , 12-C ) :   1.2428 B( 11-C , 80-H ) :   0.9939
B( 12-C , 13-C ) :   1.4887 B( 12-C , 81-H ) :   0.9969 B( 13-C , 14-C ) :   1.2595
B( 13-C , 82-H ) :   0.9894 B( 14-C , 15-C ) :   1.4887 B( 14-C , 83-H ) :   0.9894
B( 15-C , 84-H ) :   0.9966 B( 16-C , 17-O ) :   2.2689 B( 16-C , 18-C ) :   0.9439
B( 18-C , 19-C ) :   1.6119 B( 19-C , 20-C ) :   1.1648 B( 19-C , 85-H ) :   0.9477
B( 20-C , 21-C ) :   1.3875 B( 20-C , 24-S ) :   1.0884 B( 21-C , 22-C ) :   1.2559
B( 21-C , 86-H ) :   1.0185 B( 22-C , 23-C ) :   1.3357 B( 22-C , 27-N ) :   1.1431
B( 23-C , 24-S ) :   1.0491 B( 23-C , 25-C ) :   1.4316 B( 25-C , 26-C ) :   1.3477
B( 25-C , 31-S ) :   0.9873 B( 26-C , 27-N ) :   1.1482 B( 26-C , 29-C ) :   1.2122
B( 27-N , 28-C ) :   0.9675 B( 28-C , 87-H ) :   0.9732 B( 28-C , 88-H ) :   0.9710
B( 28-C , 89-H ) :   0.9726 B( 29-C , 30-C ) :   1.4276 B( 29-C , 90-H ) :   0.9980
B( 30-C , 31-S ) :   1.0863 B( 30-C , 32-C ) :   1.2164 B( 32-C , 33-C ) :   1.2854
B( 32-C , 41-C ) :   0.1245 B( 32-C , 43-C ) :   1.1868 B( 33-C , 34-C ) :   1.1192
B( 33-C , 38-N ) :   1.3882 B( 34-C , 35-N ) :   1.3832 B( 34-C , 41-C ) :   1.2915
B( 35-N , 36-C ) :   1.6576 B( 36-C , 37-C ) :   1.1074 B( 36-C , 40-F ) :   1.1880
B( 37-C , 38-N ) :   1.6537 B( 37-C , 39-F ) :   1.1856 B( 41-C , 42-C ) :   1.1899
B( 41-C , 47-C ) :   1.2066 B( 42-C , 43-C ) :   1.1009 B( 42-C , 46-N ) :   1.5146
B( 43-C , 44-N ) :   1.5118 B( 44-N , 45-S ) :   1.2709 B( 44-N , 46-N ) :   0.1507
B( 45-S , 46-N ) :   1.2697 B( 47-C , 48-C ) :   1.4296 B( 47-C , 51-S ) :   1.0923
B( 48-C , 49-C ) :   1.2086 B( 48-C , 91-H ) :   1.0016 B( 49-C , 50-C ) :   1.3510
B( 49-C , 54-N ) :   1.1543 B( 50-C , 51-S ) :   0.9860 B( 50-C , 52-C ) :   1.4198
B( 52-C , 53-C ) :   1.3175 B( 52-C , 58-S ) :   1.0614 B( 53-C , 54-N ) :   1.1362
B( 53-C , 56-C ) :   1.2654 B( 54-N , 55-C ) :   0.9659 B( 55-C , 92-H ) :   0.9720
B( 55-C , 93-H ) :   0.9709 B( 55-C , 94-H ) :   0.9734 B( 56-C , 57-C ) :   1.3825
B( 56-C , 95-H ) :   0.9849 B( 57-C , 58-S ) :   1.0615 B( 57-C , 59-C ) :   1.2680
B( 59-C , 60-C ) :   1.5339 B( 59-C , 96-H ) :   0.9169 B( 60-C , 61-C ) :   1.0939
B( 60-C , 69-C ) :   0.9551 B( 61-C , 62-C ) :   1.6081 B( 61-C , 67-C ) :   0.9785
B( 62-C , 63-C ) :   1.1530 B( 62-C , 65-C ) :   1.1385 B( 63-C , 64-N ) :   2.9626
B( 65-C , 66-N ) :   2.9876 B( 67-C , 68-C ) :   1.2181 B( 67-C , 74-C ) :   1.4548
B( 68-C , 69-C ) :   0.9555 B( 68-C , 71-C ) :   1.4726 B( 69-C , 70-O ) :   2.1402
B( 70-O , 95-H ) :   0.1006 B( 71-C , 72-C ) :   1.1735 B( 71-C , 97-H ) :   1.0161
B( 72-C , 73-C ) :   1.2600 B( 72-C , 78-C ) :   1.2454 B( 73-C , 74-C ) :   1.2008
B( 73-C , 75-C ) :   1.2411 B( 74-C , 98-H ) :   0.9900 B( 75-C , 76-C ) :   1.4886
B( 75-C , 99-H ) :   0.9973 B( 76-C , 77-C ) :   1.2621 B( 76-C ,100-H ) :   0.9878
B( 77-C , 78-C ) :   1.4877 B( 77-C ,101-H ) :   0.9880 B( 78-C ,102-H ) :   0.9972

-----------------------------------------------------------------------------
         ABSORPTION SPECTRUM VIA TRANSITION ELECTRIC DIPOLE MOMENTS
-----------------------------------------------------------------------------
State   Energy  Wavelength   fosc         T2         TX        TY        TZ
        (cm-1)    (nm)                  (au**2)     (au)      (au)      (au)
-----------------------------------------------------------------------------
   0    8600.2   1162.8   1.213195460  46.44064  -1.96188   5.98846  -2.59423
   1   16384.3    610.3   0.062545671   1.25674   0.49791   0.55543   0.83685
   2   17860.4    559.9   0.645020141  11.88934   1.30811  -2.49655   1.98631
   3   18122.5    551.8   0.102772391   1.86696  -0.54481   0.56005  -1.12093
   4   18336.2    545.4   0.036229890   0.65048  -0.02596   0.37824   0.71186
   5   19079.7    524.1   0.762786749  13.16156  -0.59300   3.55765  -0.39118
   6   23950.0    417.5   0.010818738   0.14871  -0.32100   0.17180   0.12710
   7   24476.8    408.6   0.076583640   1.03005  -0.21001   0.74527  -0.65614
   8   25256.2    395.9   0.002190689   0.02856  -0.00374   0.14140  -0.09245
   9   25379.2    394.0   0.006322219   0.08201  -0.10364   0.07737   0.25551
  10   25461.7    392.7   0.009541489   0.12337   0.26539  -0.19574   0.12092
  11   25873.1    386.5   0.047682017   0.60671  -0.08905   0.59501  -0.49472
  12   26425.9    378.4   0.358705436   4.46873  -0.21541   1.80569  -1.07787
  13   26512.1    377.2   0.139600773   1.73348  -0.61564   0.16669  -1.15182
  14   27433.5    364.5   0.083457843   1.00152   0.32767   0.03801   0.94483
  15   27586.0    362.5   0.058341825   0.69625   0.01390  -0.71119  -0.43620
  16   28188.4    354.8   0.068056072   0.79483  -0.03997   0.74567  -0.48703
  17   28939.1    345.6   0.053650194   0.61033  -0.13608   0.41911  -0.64510
  18   29314.4    341.1   0.019891837   0.22339  -0.10961   0.21462   0.40659
  19   29428.4    339.8   0.008007052   0.08957   0.02391  -0.29602  -0.03708
  20   29479.0    339.2   0.005052817   0.05643  -0.02983  -0.11344   0.20657
  21   29967.8    333.7   0.107014068   1.17561  -0.11199   0.23968   1.05148
  22   30198.4    331.1   0.008148302   0.08883  -0.12198  -0.26001  -0.07967
  23   30485.8    328.0   0.018957401   0.20472   0.06301  -0.44661   0.03581
  24   30761.0    325.1   0.192913099   2.06461   0.00756   0.85193  -1.15705
  25   31103.1    321.5   0.355183918   3.75945   0.74043  -1.69312   0.58699
  26   31387.1    318.6   0.072830685   0.76390  -0.07275  -0.56878  -0.65963
  27   31811.9    314.3   0.052084113   0.53900   0.54672   0.11664   0.47592
  28   32438.8    308.3   0.280363412   2.84533   0.21587  -0.58245   1.56827
  29   33102.5    302.1   0.001121345   0.01115  -0.09655   0.03074   0.02975
  30   33221.9    301.0   0.039099154   0.38745   0.60454  -0.14821   0.00336
  31   33381.3    299.6   0.053644116   0.52905  -0.38967   0.18265   0.58638
  32   33781.5    296.0   0.121679312   1.18581  -0.27285  -1.04918   0.10287
  33   34182.8    292.5   0.066658484   0.64198   0.07763   0.53458  -0.59176
  34   34320.4    291.4   0.008266145   0.07929  -0.08853  -0.02102   0.26648
  35   34452.9    290.3   0.007568868   0.07232   0.23146  -0.11888   0.06795
  36   34489.6    289.9   0.028495330   0.27200  -0.29599   0.12674  -0.41027
  37   34593.0    289.1   0.262789664   2.50089  -0.29886   0.19316  -1.54087
  38   34672.9    288.4   0.021580829   0.20491   0.06566   0.01393   0.44766
  39   34780.8    287.5   0.030321896   0.28701  -0.06764   0.24482  -0.47170
  40   35140.7    284.6   0.141698218   1.32748  -0.14922  -0.07757   1.13982
  41   35162.2    284.4   0.003657206   0.03424  -0.07014   0.08051  -0.15113
  42   35317.2    283.1   0.012337745   0.11501  -0.20319   0.17184  -0.21022
  43   35643.8    280.6   0.006055723   0.05593  -0.06714  -0.13335   0.18342
  44   35731.7    279.9   0.575098835   5.29863   0.39656   0.47830  -2.21644
  45   35981.6    277.9   0.035051632   0.32070  -0.29926   0.39942   0.26760
  46   36110.3    276.9   0.434672564   3.96284   0.25211   1.04393   1.67615
  47   36279.7    275.6   0.200496316   1.81936   0.83639   0.00040   1.05821
  48   36757.1    272.1   0.293526893   2.62895   0.35104  -0.48944   1.50538
  49   37127.9    269.3   0.020295407   0.17996   0.18265  -0.25031  -0.28973
  50   37237.6    268.5   0.060115652   0.53147  -0.04197   0.43801  -0.58125
  51   37464.9    266.9   0.005112298   0.04492  -0.00948   0.05173  -0.20532
  52   37483.7    266.8   0.020438821   0.17951   0.06287   0.37743   0.18194
  53   37621.2    265.8   0.024875490   0.21768  -0.21411   0.01943   0.41407
  54   38164.1    262.0   0.004672761   0.04031   0.03565  -0.06485  -0.18663
  55   39028.9    256.2   0.020923280   0.17649   0.12411   0.36334  -0.17049
  56   39408.8    253.8   0.111681843   0.93296   0.10817   0.76704   0.57699
  57   39458.5    253.4   0.047885803   0.39952  -0.11303   0.31837   0.53421
  58   39734.6    251.7   0.014398811   0.11930   0.25307   0.09354  -0.21565
  59   39895.7    250.7   0.010756267   0.08876  -0.01515   0.28946   0.06886
  60   40275.2    248.3   0.043548470   0.35597  -0.07571   0.57240   0.15029

FINAL SINGLE POINT ENERGY     -5184.776004980655

DIPOLE MOMENT
-------------
                                X             Y             Z
Electronic contribution:      5.12985      -2.42568      19.86988
Nuclear contribution   :     -7.30886      -0.73142     -23.44295
                        -----------------------------------------
Total Dipole Moment    :     -2.17901      -3.15710      -3.57307
                        -----------------------------------------
Magnitude (a.u.)       :      5.24235
Magnitude (Debye)      :     13.32500

Rotational constants in cm-1:     0.002130     0.000160     0.000151
Rotational constants in MHz :    63.845628     4.796834     4.518570

                             ****ORCA TERMINATED NORMALLY****
TOTAL RUN TIME: 0 days 0 hours 24 minutes 50 seconds 129 msec
