                         Program Version 4.2.0 -  RELEASE  -
|  1> # ORCA input file
|  2> # SCF done       -208.733130339953          0.000576779066
|  3> ! CAM-B3LYP def2-SVP def2/J RIJCOSX Grid4 TightSCF
|  4> %maxcore 5000
|  5> %tddft
|  6>     Mode sTDDFT
|  7>     Ethresh 5.0
|  8>     maxcore 5000
|  9> end
| 10>
| 11> %pal
| 12>   nprocs 6
| 13>   end
| 14> * xyz 0 1
| 15>    C       -1.42513        -0.34467        -1.69267
| 16>    C       -0.23030        -0.01537        -2.28609
| 17>    C        0.86790        -0.89121        -2.38080
| 18>    N        1.80427        -1.55152        -2.46175
| 19>    C        0.01087         1.20992        -2.93568
| 20>    N        0.25040         2.18188        -3.49878
| 21>    C       -1.79716        -1.68653        -1.24952
| 22>    C       -3.21645        -1.74664        -1.13640
| 23>    C       -3.85957        -2.89038        -0.76352
| 24>    C       -3.09781        -4.04441        -0.46894
| 25>    C       -1.67805        -3.98766        -0.56783
| 26>    C       -1.03941        -2.78972        -0.96612
| 27>    C       -0.93009        -5.14298        -0.26458
| 28>    C       -1.55249        -6.30041         0.11718
| 29>    C       -2.95052        -6.35518         0.21472
| 30>    C       -3.70663        -5.25126        -0.07318
| 31>    C       -3.78314        -0.42239        -1.45313
| 32>    O       -4.95060        -0.10622        -1.51295
| 33>    C       -2.60919         0.47478        -1.62735
| 34>    C       -2.81631         1.82685        -1.60479
| 35>    C       -1.91843         2.87196        -1.32898
| 36>    C       -0.65787         2.84377        -0.73390
| 37>    C       -0.09280         4.09278        -0.54713
| 38>    C       -0.94307         5.11439        -1.01649
| 39>    S       -2.41951         4.52137        -1.64546
| 40>    C       -0.46041         6.43016        -0.86859
| 41>    C        0.81716         6.54252        -0.28467
| 42>   Si        1.50859         4.83928         0.08226
| 43>    C        1.80321         4.54499         1.90831
| 44>    C        2.96591         4.36977        -0.99211
| 45>    C        1.17644         7.87267        -0.13448
| 46>    C        0.21368         8.77361        -0.58429
| 47>    S       -1.17621         7.94827        -1.23949
| 48>    C        0.26319        10.18941        -0.50204
| 49>    C       -0.77585        11.00479        -1.00974
| 50>    C       -0.80095        12.43587        -0.87093
| 51>    N       -1.84482        13.11745        -1.38639
| 52>    C       -2.79470        12.48184        -1.99103
| 53>    C       -2.77204        11.07311        -2.12699
| 54>    N       -1.78927        10.38448        -1.64511
| 55>    F       -3.74928        10.41915        -2.74959
| 56>    F       -3.80026        13.20712        -2.48433
| 57>    C        0.22778        13.13492        -0.19304
| 58>    C        1.28998        12.32403         0.27349
| 59>    C        1.32238        10.88958         0.12359
| 60>    N        2.42952        10.36943         0.65520
| 61>    S        3.33158        11.54689         1.27138
| 62>    N        2.37092        12.77820         0.90501
| 63>    C        0.22484        14.53313         0.06131
| 64>    C       -0.70239        15.49387        -0.33530
| 65>    C       -0.43244        16.76777         0.13895
| 66>    C        0.73700        16.78106         0.92450
| 67>    S        1.48794        15.24096         1.04309
| 68>    C        1.08028        18.02250         1.49619
| 69>    C        0.19839        19.08788         1.19335
| 70>   Si       -1.18229        18.48491         0.07543
| 71>    C       -1.13481        19.25092        -1.63194
| 72>    C       -2.87339        18.57848         0.87235
| 73>    C        0.60587        20.24195         1.82644
| 74>    C        1.76510        20.10044         2.60663
| 75>    S        2.37371        18.45869         2.53042
| 76>    C        2.29475        21.16565         3.34344
| 77>    C        3.39000        21.22321         4.17215
| 78>    C        3.82816        22.38654         4.91537
| 79>    C        3.23805        23.62625         4.95177
| 80>    C        3.72565        24.71093         5.70918
| 81>    N        4.06361        25.63613         6.30014
| 82>    C        2.07226        24.01027         4.25955
| 83>    N        1.12910        24.40731         3.73589
| 84>    C        5.03125        22.01061         5.65428
| 85>    C        5.32492        20.64556         5.37528
| 86>    C        4.31261        20.11604         4.44823
| 87>    O        4.26498        18.98094         4.00437
| 88>    C        6.39677        20.00662         5.92639
| 89>    C        7.24504        20.71910         6.80406
| 90>    C        6.95984        22.08471         7.09006
| 91>    C        5.84056        22.71908         6.50131
| 92>    C        7.81099        22.78593         7.96758
| 93>    C        8.89257        22.16956         8.53630
| 94>    C        9.17264        20.82484         8.25334
| 95>    C        8.36608        20.11496         7.40536
| 96>    H       -4.93671        -2.91599        -0.69125
| 97>    H        0.03782        -2.77275        -1.02473
| 98>    H        0.14626        -5.09684        -0.34375
| 99>    H       -0.97024        -7.18053         0.34598
|100>    H       -3.42563        -7.27599         0.51864
|101>    H       -4.78385        -5.28731        -0.00046
|102>    H       -3.85415         2.11902        -1.73777
|103>    H       -0.19670         1.93069        -0.40142
|104>    H        0.93992         4.80957         2.51614
|105>    H        2.64282         5.13184         2.27491
|106>    H        2.03330         3.50187         2.11581
|107>    H        2.73545         4.46397        -2.05182
|108>    H        3.26918         3.33760        -0.82687
|109>    H        3.83614         4.99243        -0.79409
|110>    H        2.10124         8.20969         0.29554
|111>    H       -1.54613        15.24339        -0.94879
|112>    H       -0.14495        19.19664        -2.08141
|113>    H       -1.41783        20.30140        -1.60897
|114>    H       -1.82229        18.75309        -2.31276
|115>    H       -2.88395        18.14368         1.87015
|116>    H       -3.62099        18.04849         0.28560
|117>    H       -3.21717        19.60641         0.96829
|118>    H        0.09304        21.18548         1.75375
|119>    H        1.72404        22.07960         3.23063
|120>    H        6.59526        18.97023         5.69653
|121>    H        5.65492        23.75410         6.73956
|122>    H        7.59129        23.82148         8.18250
|123>    H        9.53830        22.71567         9.20763
|124>    H       10.03013        20.35382         8.71044
|125>    H        8.57637        19.07875         7.18355
|126> *
|127>
|128>                          ****END OF INPUT****

CARTESIAN COORDINATES (ANGSTROEM)
---------------------------------
  C     -1.425130   -0.344670   -1.692670
  C     -0.230300   -0.015370   -2.286090
  C      0.867900   -0.891210   -2.380800
  N      1.804270   -1.551520   -2.461750
  C      0.010870    1.209920   -2.935680
  N      0.250400    2.181880   -3.498780
  C     -1.797160   -1.686530   -1.249520
  C     -3.216450   -1.746640   -1.136400
  C     -3.859570   -2.890380   -0.763520
  C     -3.097810   -4.044410   -0.468940
  C     -1.678050   -3.987660   -0.567830
  C     -1.039410   -2.789720   -0.966120
  C     -0.930090   -5.142980   -0.264580
  C     -1.552490   -6.300410    0.117180
  C     -2.950520   -6.355180    0.214720
  C     -3.706630   -5.251260   -0.073180
  C     -3.783140   -0.422390   -1.453130
  O     -4.950600   -0.106220   -1.512950
  C     -2.609190    0.474780   -1.627350
  C     -2.816310    1.826850   -1.604790
  C     -1.918430    2.871960   -1.328980
  C     -0.657870    2.843770   -0.733900
  C     -0.092800    4.092780   -0.547130
  C     -0.943070    5.114390   -1.016490
  S     -2.419510    4.521370   -1.645460
  C     -0.460410    6.430160   -0.868590
  C      0.817160    6.542520   -0.284670
  Si     1.508590    4.839280    0.082260
  C      1.803210    4.544990    1.908310
  C      2.965910    4.369770   -0.992110
  C      1.176440    7.872670   -0.134480
  C      0.213680    8.773610   -0.584290
  S     -1.176210    7.948270   -1.239490
  C      0.263190   10.189410   -0.502040
  C     -0.775850   11.004790   -1.009740
  C     -0.800950   12.435870   -0.870930
  N     -1.844820   13.117450   -1.386390
  C     -2.794700   12.481840   -1.991030
  C     -2.772040   11.073110   -2.126990
  N     -1.789270   10.384480   -1.645110
  F     -3.749280   10.419150   -2.749590
  F     -3.800260   13.207120   -2.484330
  C      0.227780   13.134920   -0.193040
  C      1.289980   12.324030    0.273490
  C      1.322380   10.889580    0.123590
  N      2.429520   10.369430    0.655200
  S      3.331580   11.546890    1.271380
  N      2.370920   12.778200    0.905010
  C      0.224840   14.533130    0.061310
  C     -0.702390   15.493870   -0.335300
  C     -0.432440   16.767770    0.138950
  C      0.737000   16.781060    0.924500
  S      1.487940   15.240960    1.043090
  C      1.080280   18.022500    1.496190
  C      0.198390   19.087880    1.193350
  Si    -1.182290   18.484910    0.075430
  C     -1.134810   19.250920   -1.631940
  C     -2.873390   18.578480    0.872350
  C      0.605870   20.241950    1.826440
  C      1.765100   20.100440    2.606630
  S      2.373710   18.458690    2.530420
  C      2.294750   21.165650    3.343440
  C      3.390000   21.223210    4.172150
  C      3.828160   22.386540    4.915370
  C      3.238050   23.626250    4.951770
  C      3.725650   24.710930    5.709180
  N      4.063610   25.636130    6.300140
  C      2.072260   24.010270    4.259550
  N      1.129100   24.407310    3.735890
  C      5.031250   22.010610    5.654280
  C      5.324920   20.645560    5.375280
  C      4.312610   20.116040    4.448230
  O      4.264980   18.980940    4.004370
  C      6.396770   20.006620    5.926390
  C      7.245040   20.719100    6.804060
  C      6.959840   22.084710    7.090060
  C      5.840560   22.719080    6.501310
  C      7.810990   22.785930    7.967580
  C      8.892570   22.169560    8.536300
  C      9.172640   20.824840    8.253340
  C      8.366080   20.114960    7.405360
  H     -4.936710   -2.915990   -0.691250
  H      0.037820   -2.772750   -1.024730
  H      0.146260   -5.096840   -0.343750
  H     -0.970240   -7.180530    0.345980
  H     -3.425630   -7.275990    0.518640
  H     -4.783850   -5.287310   -0.000460
  H     -3.854150    2.119020   -1.737770
  H     -0.196700    1.930690   -0.401420
  H      0.939920    4.809570    2.516140
  H      2.642820    5.131840    2.274910
  H      2.033300    3.501870    2.115810
  H      2.735450    4.463970   -2.051820
  H      3.269180    3.337600   -0.826870
  H      3.836140    4.992430   -0.794090
  H      2.101240    8.209690    0.295540
  H     -1.546130   15.243390   -0.948790
  H     -0.144950   19.196640   -2.081410
  H     -1.417830   20.301400   -1.608970
  H     -1.822290   18.753090   -2.312760
  H     -2.883950   18.143680    1.870150
  H     -3.620990   18.048490    0.285600
  H     -3.217170   19.606410    0.968290
  H      0.093040   21.185480    1.753750
  H      1.724040   22.079600    3.230630
  H      6.595260   18.970230    5.696530
  H      5.654920   23.754100    6.739560
  H      7.591290   23.821480    8.182500
  H      9.538300   22.715670    9.207630
  H     10.030130   20.353820    8.710440
  H      8.576370   19.078750    7.183550

 Total Charge           Charge          ....    0
 Multiplicity           Mult            ....    1
 Number of Electrons    NEL             ....  600
 Basis Dimension        Dim             .... 1312

ORBITAL ENERGIES
----------------

  NO   OCC          E(Eh)            E(eV)
   0   2.0000     -89.045952     -2423.0635
   1   2.0000     -88.970175     -2421.0015
   2   2.0000     -88.963913     -2420.8312
   3   2.0000     -88.963728     -2420.8261
   4   2.0000     -88.962394     -2420.7898
   5   2.0000     -66.198497     -1801.3527
   6   2.0000     -66.198065     -1801.3409
   7   2.0000     -24.820198      -675.3919
   8   2.0000     -24.818357      -675.3418
   9   2.0000     -19.210838      -522.7535
  10   2.0000     -19.204163      -522.5718
  11   2.0000     -14.460997      -393.5037
  12   2.0000     -14.457976      -393.4215
  13   2.0000     -14.455490      -393.3539
  14   2.0000     -14.455249      -393.3473
  15   2.0000     -14.408312      -392.0701
  16   2.0000     -14.408222      -392.0676
  17   2.0000     -14.408135      -392.0653
  18   2.0000     -14.404036      -391.9538
  19   2.0000     -10.436289      -283.9859
  20   2.0000     -10.434227      -283.9298
  21   2.0000     -10.359331      -281.8917
  22   2.0000     -10.355741      -281.7940
  23   2.0000     -10.349656      -281.6285
  24   2.0000     -10.347855      -281.5794
  25   2.0000     -10.343816      -281.4695
  26   2.0000     -10.342152      -281.4243
  27   2.0000     -10.333611      -281.1919
  28   2.0000     -10.332566      -281.1634
  29   2.0000     -10.331395      -281.1316
  30   2.0000     -10.329307      -281.0747
  31   2.0000     -10.321991      -280.8757
  32   2.0000     -10.317921      -280.7649
  33   2.0000     -10.317141      -280.7437
  34   2.0000     -10.314080      -280.6604
  35   2.0000     -10.313897      -280.6554
  36   2.0000     -10.313409      -280.6421
  37   2.0000     -10.313023      -280.6316
  38   2.0000     -10.311925      -280.6018
  39   2.0000     -10.311886      -280.6007
  40   2.0000     -10.311780      -280.5978
  41   2.0000     -10.309828      -280.5447
  42   2.0000     -10.309610      -280.5387
  43   2.0000     -10.308032      -280.4958
  44   2.0000     -10.307816      -280.4899
  45   2.0000     -10.306908      -280.4652
  46   2.0000     -10.306027      -280.4412
  47   2.0000     -10.296295      -280.1764
  48   2.0000     -10.294527      -280.1283
  49   2.0000     -10.293139      -280.0906
  50   2.0000     -10.291761      -280.0531
  51   2.0000     -10.291368      -280.0424
  52   2.0000     -10.291198      -280.0377
  53   2.0000     -10.291112      -280.0354
  54   2.0000     -10.290683      -280.0237
  55   2.0000     -10.290150      -280.0092
  56   2.0000     -10.290005      -280.0053
  57   2.0000     -10.289675      -279.9963
  58   2.0000     -10.288881      -279.9747
  59   2.0000     -10.286343      -279.9056
  60   2.0000     -10.285627      -279.8861
  61   2.0000     -10.281806      -279.7822
  62   2.0000     -10.281426      -279.7718
  63   2.0000     -10.281228      -279.7664
  64   2.0000     -10.280992      -279.7600
  65   2.0000     -10.280884      -279.7571
  66   2.0000     -10.280781      -279.7543
  67   2.0000     -10.280706      -279.7522
  68   2.0000     -10.280303      -279.7413
  69   2.0000     -10.280233      -279.7394
  70   2.0000     -10.279696      -279.7247
  71   2.0000     -10.278152      -279.6827
  72   2.0000     -10.276387      -279.6347
  73   2.0000     -10.263322      -279.2792
  74   2.0000     -10.260841      -279.2117
  75   2.0000     -10.260619      -279.2056
  76   2.0000     -10.260408      -279.1999
  77   2.0000     -10.253957      -279.0243
  78   2.0000     -10.252430      -278.9828
  79   2.0000     -10.252211      -278.9769
  80   2.0000     -10.248891      -278.8865
  81   2.0000      -8.137150      -221.4231
  82   2.0000      -8.065646      -219.4774
  83   2.0000      -8.057504      -219.2558
  84   2.0000      -8.057327      -219.2510
  85   2.0000      -8.056588      -219.2309
  86   2.0000      -6.108297      -166.2152
  87   2.0000      -6.100501      -166.0031
  88   2.0000      -6.099807      -165.9842
  89   2.0000      -6.034675      -164.2118
  90   2.0000      -6.030767      -164.1055
  91   2.0000      -6.028049      -164.0316
  92   2.0000      -6.026878      -163.9997
  93   2.0000      -6.026618      -163.9926
  94   2.0000      -6.025892      -163.9729
  95   2.0000      -6.022397      -163.8778
  96   2.0000      -6.022135      -163.8706
  97   2.0000      -6.021509      -163.8536
  98   2.0000      -6.019827      -163.8078
  99   2.0000      -6.019714      -163.8047
 100   2.0000      -6.018889      -163.7823
 101   2.0000      -5.364793      -145.9834
 102   2.0000      -5.364561      -145.9771
 103   2.0000      -3.728344      -101.4534
 104   2.0000      -3.728048      -101.4453
 105   2.0000      -3.726911      -101.4144
 106   2.0000      -3.726620      -101.4065
 107   2.0000      -3.725720      -101.3820
 108   2.0000      -3.725550      -101.3774
 109   2.0000      -1.346748       -36.6469
 110   2.0000      -1.332664       -36.2636
 111   2.0000      -1.143820       -31.1249
 112   2.0000      -1.125968       -30.6391
 113   2.0000      -1.119282       -30.4572
 114   2.0000      -1.118857       -30.4457
 115   2.0000      -1.044262       -28.4158
 116   2.0000      -1.011826       -27.5332
 117   2.0000      -1.009418       -27.4676
 118   2.0000      -1.005973       -27.3739
 119   2.0000      -1.003964       -27.3192
 120   2.0000      -0.996444       -27.1146
 121   2.0000      -0.991236       -26.9729
 122   2.0000      -0.991100       -26.9692
 123   2.0000      -0.987970       -26.8840
 124   2.0000      -0.985262       -26.8103
 125   2.0000      -0.984399       -26.7869
 126   2.0000      -0.974333       -26.5129
 127   2.0000      -0.965294       -26.2670
 128   2.0000      -0.963732       -26.2245
 129   2.0000      -0.961026       -26.1509
 130   2.0000      -0.918948       -25.0058
 131   2.0000      -0.917796       -24.9745
 132   2.0000      -0.907393       -24.6914
 133   2.0000      -0.900052       -24.4917
 134   2.0000      -0.891711       -24.2647
 135   2.0000      -0.889266       -24.1982
 136   2.0000      -0.880747       -23.9663
 137   2.0000      -0.875627       -23.8270
 138   2.0000      -0.874260       -23.7898
 139   2.0000      -0.871787       -23.7225
 140   2.0000      -0.854144       -23.2425
 141   2.0000      -0.848444       -23.0873
 142   2.0000      -0.845856       -23.0169
 143   2.0000      -0.840828       -22.8801
 144   2.0000      -0.828990       -22.5580
 145   2.0000      -0.826189       -22.4817
 146   2.0000      -0.822159       -22.3721
 147   2.0000      -0.821507       -22.3543
 148   2.0000      -0.819403       -22.2971
 149   2.0000      -0.808336       -21.9959
 150   2.0000      -0.801476       -21.8093
 151   2.0000      -0.796101       -21.6630
 152   2.0000      -0.794776       -21.6270
 153   2.0000      -0.780084       -21.2272
 154   2.0000      -0.774257       -21.0686
 155   2.0000      -0.771157       -20.9843
 156   2.0000      -0.769861       -20.9490
 157   2.0000      -0.755802       -20.5664
 158   2.0000      -0.754545       -20.5322
 159   2.0000      -0.750214       -20.4144
 160   2.0000      -0.748541       -20.3688
 161   2.0000      -0.729092       -19.8396
 162   2.0000      -0.714009       -19.4292
 163   2.0000      -0.702933       -19.1278
 164   2.0000      -0.698257       -19.0005
 165   2.0000      -0.696187       -18.9442
 166   2.0000      -0.693932       -18.8828
 167   2.0000      -0.690135       -18.7795
 168   2.0000      -0.686185       -18.6721
 169   2.0000      -0.683978       -18.6120
 170   2.0000      -0.676702       -18.4140
 171   2.0000      -0.674460       -18.3530
 172   2.0000      -0.669066       -18.2062
 173   2.0000      -0.667183       -18.1550
 174   2.0000      -0.661175       -17.9915
 175   2.0000      -0.656918       -17.8756
 176   2.0000      -0.645540       -17.5660
 177   2.0000      -0.639932       -17.4134
 178   2.0000      -0.631689       -17.1891
 179   2.0000      -0.628467       -17.1014
 180   2.0000      -0.624882       -17.0039
 181   2.0000      -0.622637       -16.9428
 182   2.0000      -0.620300       -16.8792
 183   2.0000      -0.616594       -16.7784
 184   2.0000      -0.614342       -16.7171
 185   2.0000      -0.609750       -16.5921
 186   2.0000      -0.606750       -16.5105
 187   2.0000      -0.600934       -16.3522
 188   2.0000      -0.599801       -16.3214
 189   2.0000      -0.597881       -16.2692
 190   2.0000      -0.586924       -15.9710
 191   2.0000      -0.582924       -15.8622
 192   2.0000      -0.577362       -15.7108
 193   2.0000      -0.574400       -15.6302
 194   2.0000      -0.571739       -15.5578
 195   2.0000      -0.569660       -15.5012
 196   2.0000      -0.555859       -15.1257
 197   2.0000      -0.554542       -15.0899
 198   2.0000      -0.551166       -14.9980
 199   2.0000      -0.541599       -14.7377
 200   2.0000      -0.541010       -14.7216
 201   2.0000      -0.540549       -14.7091
 202   2.0000      -0.539951       -14.6928
 203   2.0000      -0.538751       -14.6602
 204   2.0000      -0.532658       -14.4944
 205   2.0000      -0.531022       -14.4499
 206   2.0000      -0.528087       -14.3700
 207   2.0000      -0.527933       -14.3658
 208   2.0000      -0.525333       -14.2950
 209   2.0000      -0.523752       -14.2520
 210   2.0000      -0.521608       -14.1937
 211   2.0000      -0.519179       -14.1276
 212   2.0000      -0.517456       -14.0807
 213   2.0000      -0.515425       -14.0254
 214   2.0000      -0.511060       -13.9067
 215   2.0000      -0.510566       -13.8932
 216   2.0000      -0.510259       -13.8849
 217   2.0000      -0.508339       -13.8326
 218   2.0000      -0.505980       -13.7684
 219   2.0000      -0.505035       -13.7427
 220   2.0000      -0.502061       -13.6618
 221   2.0000      -0.498849       -13.5744
 222   2.0000      -0.494397       -13.4532
 223   2.0000      -0.492691       -13.4068
 224   2.0000      -0.492027       -13.3887
 225   2.0000      -0.490553       -13.3486
 226   2.0000      -0.489465       -13.3190
 227   2.0000      -0.488900       -13.3037
 228   2.0000      -0.486443       -13.2368
 229   2.0000      -0.486099       -13.2274
 230   2.0000      -0.486019       -13.2252
 231   2.0000      -0.482832       -13.1385
 232   2.0000      -0.481443       -13.1007
 233   2.0000      -0.478005       -13.0072
 234   2.0000      -0.475534       -12.9399
 235   2.0000      -0.473823       -12.8934
 236   2.0000      -0.472765       -12.8646
 237   2.0000      -0.471566       -12.8320
 238   2.0000      -0.470565       -12.8047
 239   2.0000      -0.468382       -12.7453
 240   2.0000      -0.465307       -12.6616
 241   2.0000      -0.464605       -12.6425
 242   2.0000      -0.460851       -12.5404
 243   2.0000      -0.458432       -12.4746
 244   2.0000      -0.457925       -12.4608
 245   2.0000      -0.454705       -12.3731
 246   2.0000      -0.447754       -12.1840
 247   2.0000      -0.444344       -12.0912
 248   2.0000      -0.443277       -12.0622
 249   2.0000      -0.441507       -12.0140
 250   2.0000      -0.438671       -11.9369
 251   2.0000      -0.438120       -11.9218
 252   2.0000      -0.438016       -11.9190
 253   2.0000      -0.433600       -11.7989
 254   2.0000      -0.433080       -11.7847
 255   2.0000      -0.432823       -11.7777
 256   2.0000      -0.429597       -11.6899
 257   2.0000      -0.427253       -11.6261
 258   2.0000      -0.426338       -11.6012
 259   2.0000      -0.424686       -11.5563
 260   2.0000      -0.423613       -11.5271
 261   2.0000      -0.421880       -11.4799
 262   2.0000      -0.419725       -11.4213
 263   2.0000      -0.418131       -11.3779
 264   2.0000      -0.413293       -11.2463
 265   2.0000      -0.411097       -11.1865
 266   2.0000      -0.409584       -11.1453
 267   2.0000      -0.406292       -11.0558
 268   2.0000      -0.403880       -10.9901
 269   2.0000      -0.403789       -10.9877
 270   2.0000      -0.399301       -10.8655
 271   2.0000      -0.396932       -10.8011
 272   2.0000      -0.396285       -10.7835
 273   2.0000      -0.394547       -10.7362
 274   2.0000      -0.393495       -10.7075
 275   2.0000      -0.387965       -10.5571
 276   2.0000      -0.384802       -10.4710
 277   2.0000      -0.381245       -10.3742
 278   2.0000      -0.376985       -10.2583
 279   2.0000      -0.374368       -10.1871
 280   2.0000      -0.366725        -9.9791
 281   2.0000      -0.362366        -9.8605
 282   2.0000      -0.361837        -9.8461
 283   2.0000      -0.358968        -9.7680
 284   2.0000      -0.347189        -9.4475
 285   2.0000      -0.343692        -9.3523
 286   2.0000      -0.331184        -9.0120
 287   2.0000      -0.329707        -8.9718
 288   2.0000      -0.328675        -8.9437
 289   2.0000      -0.325967        -8.8700
 290   2.0000      -0.325354        -8.8533
 291   2.0000      -0.324755        -8.8370
 292   2.0000      -0.322601        -8.7784
 293   2.0000      -0.310695        -8.4544
 294   2.0000      -0.309347        -8.4178
 295   2.0000      -0.295030        -8.0282
 296   2.0000      -0.289073        -7.8661
 297   2.0000      -0.284746        -7.7483
 298   2.0000      -0.259466        -7.0604
 299   2.0000      -0.228114        -6.2073
 300   0.0000      -0.121729        -3.3124
 301   0.0000      -0.085758        -2.3336
 302   0.0000      -0.081572        -2.2197
 303   0.0000      -0.051145        -1.3917
 304   0.0000      -0.050192        -1.3658

MULLIKEN ATOMIC CHARGES
-----------------------
   0 C :    0.273925
   1 C :   -0.354219
   2 C :   -0.172623
   3 N :    0.143883
   4 C :   -0.211108
   5 N :    0.169589
   6 C :    0.035586
   7 C :    0.018409
   8 C :   -0.088597
   9 C :    0.097175
  10 C :    0.098238
  11 C :   -0.090361
  12 C :   -0.022987
  13 C :    0.036212
  14 C :    0.035859
  15 C :   -0.019828
  16 C :    0.134626
  17 O :   -0.150961
  18 C :   -0.148847
  19 C :    0.092394
  20 C :   -0.107104
  21 C :    0.016097
  22 C :   -0.129521
  23 C :   -0.074493
  24 S :    0.179724
  25 C :   -0.054151
  26 C :   -0.097665
  27 Si:    0.523568
  28 C :   -0.197703
  29 C :   -0.198404
  30 C :   -0.038149
  31 C :   -0.182205
  32 S :    0.175742
  33 C :    0.191145
  34 C :   -0.062239
  35 C :   -0.075480
  36 N :    0.004586
  37 C :    0.138911
  38 C :    0.152581
  39 N :   -0.043038
  40 F :   -0.136763
  41 F :   -0.145676
  42 C :    0.211333
  43 C :   -0.029006
  44 C :   -0.004593
  45 N :   -0.292685
  46 S :    0.551021
  47 N :   -0.326150
  48 C :   -0.183286
  49 C :   -0.041799
  50 C :   -0.095706
  51 C :   -0.062433
  52 S :    0.180701
  53 C :   -0.064200
  54 C :   -0.095029
  55 Si:    0.527583
  56 C :   -0.199434
  57 C :   -0.201135
  58 C :   -0.033968
  59 C :   -0.059980
  60 S :    0.211732
  61 C :   -0.016724
  62 C :   -0.107398
  63 C :    0.338700
  64 C :   -0.364754
  65 C :   -0.185831
  66 N :    0.140011
  67 C :   -0.189569
  68 N :    0.135929
  69 C :    0.043001
  70 C :   -0.000947
  71 C :    0.165583
  72 O :   -0.187052
  73 C :   -0.085181
  74 C :    0.098098
  75 C :    0.095488
  76 C :   -0.084211
  77 C :   -0.019245
  78 C :    0.033551
  79 C :    0.035011
  80 C :   -0.018057
  81 H :   -0.013439
  82 H :   -0.008129
  83 H :   -0.011612
  84 H :   -0.007466
  85 H :   -0.008306
  86 H :   -0.017872
  87 H :    0.019775
  88 H :   -0.001483
  89 H :    0.052522
  90 H :    0.044114
  91 H :    0.044591
  92 H :    0.068074
  93 H :    0.047240
  94 H :    0.042604
  95 H :   -0.007425
  96 H :   -0.003266
  97 H :    0.053869
  98 H :    0.045718
  99 H :    0.046020
 100 H :    0.053653
 101 H :    0.045783
 102 H :    0.046127
 103 H :    0.001796
 104 H :    0.005037
 105 H :   -0.017825
 106 H :   -0.010427
 107 H :   -0.009978
 108 H :   -0.006450
 109 H :   -0.008107
 110 H :   -0.020633
Sum of atomic charges:   -0.0000000

LOEWDIN ATOMIC CHARGES
----------------------
   0 C :    0.067230
   1 C :   -0.153122
   2 C :   -0.020509
   3 N :   -0.062808
   4 C :   -0.018589
   5 N :   -0.049949
   6 C :   -0.022288
   7 C :   -0.055112
   8 C :    0.029169
   9 C :   -0.010004
  10 C :   -0.006690
  11 C :    0.011969
  12 C :   -0.007955
  13 C :   -0.015522
  14 C :   -0.015387
  15 C :   -0.010466
  16 C :    0.081227
  17 O :   -0.151825
  18 C :   -0.106546
  19 C :    0.048614
  20 C :   -0.187292
  21 C :   -0.006009
  22 C :   -0.194900
  23 C :   -0.163933
  24 S :    0.467368
  25 C :   -0.196882
  26 C :   -0.192481
  27 Si:    0.666056
  28 C :   -0.243604
  29 C :   -0.240702
  30 C :   -0.035739
  31 C :   -0.167140
  32 S :    0.481049
  33 C :   -0.043064
  34 C :   -0.016265
  35 C :   -0.008449
  36 N :   -0.028442
  37 C :    0.058108
  38 C :    0.061495
  39 N :   -0.052847
  40 F :   -0.026620
  41 F :   -0.034081
  42 C :   -0.047302
  43 C :   -0.047152
  44 C :   -0.038508
  45 N :   -0.277608
  46 S :    0.671343
  47 N :   -0.298178
  48 C :   -0.162460
  49 C :   -0.039208
  50 C :   -0.191169
  51 C :   -0.199187
  52 S :    0.484430
  53 C :   -0.170931
  54 C :   -0.207423
  55 Si:    0.664781
  56 C :   -0.243072
  57 C :   -0.243259
  58 C :   -0.009899
  59 C :   -0.189919
  60 S :    0.513432
  61 C :    0.054395
  62 C :   -0.119697
  63 C :    0.078540
  64 C :   -0.152520
  65 C :   -0.017464
  66 N :   -0.063834
  67 C :   -0.020683
  68 N :   -0.064137
  69 C :   -0.024305
  70 C :   -0.053163
  71 C :    0.082306
  72 O :   -0.175842
  73 C :    0.027691
  74 C :   -0.009622
  75 C :   -0.007517
  76 C :    0.017783
  77 C :   -0.005799
  78 C :   -0.016256
  79 C :   -0.014916
  80 C :   -0.011536
  81 H :    0.038502
  82 H :    0.037620
  83 H :    0.033551
  84 H :    0.032036
  85 H :    0.031576
  86 H :    0.031328
  87 H :    0.044549
  88 H :    0.032987
  89 H :    0.041070
  90 H :    0.037415
  91 H :    0.037227
  92 H :    0.047828
  93 H :    0.039270
  94 H :    0.036624
  95 H :    0.026805
  96 H :    0.026773
  97 H :    0.041879
  98 H :    0.037920
  99 H :    0.037926
 100 H :    0.041786
 101 H :    0.038044
 102 H :    0.038022
 103 H :    0.035750
 104 H :    0.050146
 105 H :    0.037070
 106 H :    0.038536
 107 H :    0.034346
 108 H :    0.032249
 109 H :    0.031526
 110 H :    0.030445

  Mayer bond orders larger than 0.100000
B(  0-C ,  1-C ) :   1.6202 B(  0-C ,  6-C ) :   0.9944 B(  0-C , 18-C ) :   1.0653
B(  1-C ,  2-C ) :   1.1326 B(  1-C ,  4-C ) :   1.1733 B(  2-C ,  3-N ) :   2.9817
B(  4-C ,  5-N ) :   2.9972 B(  6-C ,  7-C ) :   1.2153 B(  6-C , 11-C ) :   1.4619
B(  7-C ,  8-C ) :   1.4798 B(  7-C , 16-C ) :   0.9176 B(  8-C ,  9-C ) :   1.1775
B(  8-C , 81-H ) :   1.0165 B(  9-C , 10-C ) :   1.2598 B(  9-C , 15-C ) :   1.2459
B( 10-C , 11-C ) :   1.1985 B( 10-C , 12-C ) :   1.2419 B( 11-C , 82-H ) :   0.9939
B( 12-C , 13-C ) :   1.4878 B( 12-C , 83-H ) :   0.9978 B( 13-C , 14-C ) :   1.2619
B( 13-C , 84-H ) :   0.9884 B( 14-C , 15-C ) :   1.4876 B( 14-C , 85-H ) :   0.9884
B( 15-C , 86-H ) :   0.9980 B( 16-C , 17-O ) :   2.2597 B( 16-C , 18-C ) :   0.9519
B( 18-C , 19-C ) :   1.6050 B( 19-C , 20-C ) :   1.1879 B( 19-C , 87-H ) :   0.9259
B( 20-C , 21-C ) :   1.3742 B( 20-C , 24-S ) :   1.0820 B( 21-C , 22-C ) :   1.3611
B( 21-C , 88-H ) :   0.9866 B( 22-C , 23-C ) :   1.4417 B( 22-C , 27-Si) :   0.8684
B( 23-C , 24-S ) :   1.1547 B( 23-C , 25-C ) :   1.1851 B( 25-C , 26-C ) :   1.4498
B( 25-C , 32-S ) :   1.0825 B( 26-C , 27-Si) :   0.8797 B( 26-C , 30-C ) :   1.2760
B( 27-Si, 28-C ) :   1.0553 B( 27-Si, 29-C ) :   1.0681 B( 28-C , 89-H ) :   0.9498
B( 28-C , 90-H ) :   0.9541 B( 28-C , 91-H ) :   0.9539 B( 29-C , 92-H ) :   0.9471
B( 29-C , 93-H ) :   0.9518 B( 29-C , 94-H ) :   0.9526 B( 30-C , 31-C ) :   1.4258
B( 30-C , 95-H ) :   0.9854 B( 31-C , 32-S ) :   1.1040 B( 31-C , 33-C ) :   1.1932
B( 33-C , 34-C ) :   1.2794 B( 33-C , 42-C ) :   0.1223 B( 33-C , 44-C ) :   1.1953
B( 34-C , 35-C ) :   1.1141 B( 34-C , 39-N ) :   1.3870 B( 35-C , 36-N ) :   1.4352
B( 35-C , 42-C ) :   1.2898 B( 36-N , 37-C ) :   1.6639 B( 37-C , 38-C ) :   1.1115
B( 37-C , 41-F ) :   1.1685 B( 38-C , 39-N ) :   1.6535 B( 38-C , 40-F ) :   1.1866
B( 42-C , 43-C ) :   1.1754 B( 42-C , 48-C ) :   1.1875 B( 43-C , 44-C ) :   1.1113
B( 43-C , 47-N ) :   1.4816 B( 44-C , 45-N ) :   1.5107 B( 45-N , 46-S ) :   1.2761
B( 45-N , 47-N ) :   0.1517 B( 46-S , 47-N ) :   1.2707 B( 48-C , 49-C ) :   1.4137
B( 48-C , 52-S ) :   1.1153 B( 49-C , 50-C ) :   1.2716 B( 49-C , 96-H ) :   0.9909
B( 50-C , 51-C ) :   1.4405 B( 50-C , 55-Si) :   0.8815 B( 51-C , 52-S ) :   1.0902
B( 51-C , 53-C ) :   1.1939 B( 53-C , 54-C ) :   1.3850 B( 53-C , 60-S ) :   1.1247
B( 54-C , 55-Si) :   0.8729 B( 54-C , 58-C ) :   1.3473 B( 55-Si, 56-C ) :   1.0578
B( 55-Si, 57-C ) :   1.0578 B( 56-C , 97-H ) :   0.9498 B( 56-C , 98-H ) :   0.9537
B( 56-C , 99-H ) :   0.9537 B( 57-C ,100-H ) :   0.9499 B( 57-C ,101-H ) :   0.9539
B( 57-C ,102-H ) :   0.9535 B( 58-C , 59-C ) :   1.3132 B( 58-C ,103-H ) :   1.0085
B( 59-C , 60-S ) :   1.0723 B( 59-C , 61-C ) :   1.3019 B( 61-C , 62-C ) :   1.4494
B( 61-C ,104-H ) :   0.9389 B( 62-C , 63-C ) :   1.0978 B( 62-C , 71-C ) :   0.9824
B( 63-C , 64-C ) :   1.5986 B( 63-C , 69-C ) :   0.9784 B( 64-C , 65-C ) :   1.1534
B( 64-C , 67-C ) :   1.1484 B( 65-C , 66-N ) :   2.9576 B( 67-C , 68-N ) :   2.9537
B( 69-C , 70-C ) :   1.2145 B( 69-C , 76-C ) :   1.4602 B( 70-C , 71-C ) :   0.9562
B( 70-C , 73-C ) :   1.4751 B( 71-C , 72-O ) :   2.1298 B( 73-C , 74-C ) :   1.1727
B( 73-C ,105-H ) :   1.0160 B( 74-C , 75-C ) :   1.2583 B( 74-C , 80-C ) :   1.2472
B( 75-C , 76-C ) :   1.1992 B( 75-C , 77-C ) :   1.2435 B( 76-C ,106-H ) :   0.9885
B( 77-C , 78-C ) :   1.4862 B( 77-C ,107-H ) :   0.9966 B( 78-C , 79-C ) :   1.2617
B( 78-C ,108-H ) :   0.9889 B( 79-C , 80-C ) :   1.4861 B( 79-C ,109-H ) :   0.9891
B( 80-C ,110-H ) :   0.9969

-----------------------------------------------------------------------------
         ABSORPTION SPECTRUM VIA TRANSITION ELECTRIC DIPOLE MOMENTS
-----------------------------------------------------------------------------
State   Energy  Wavelength   fosc         T2         TX        TY        TZ
        (cm-1)    (nm)                  (au**2)     (au)      (au)      (au)
-----------------------------------------------------------------------------
   0    8763.1   1141.1   1.210956774  45.49308   1.21782   6.45222   1.54237
   1   16706.0    598.6   0.091037776   1.79401   0.47619  -0.95591   0.80838
   2   17838.9    560.6   0.878937494  16.22059  -0.90864  -3.74479  -1.17112
   3   18681.4    535.3   0.573842709  10.11249  -1.53683  -2.11986  -1.80468
   4   23660.7    422.6   0.089072990   1.23935  -0.30374  -0.92872  -0.53345
   5   25122.2    398.1   0.082354442   1.07921  -0.68019  -0.78018   0.08875
   6   25220.8    396.5   0.009340640   0.12193   0.02837   0.33205   0.10421
   7   25388.5    393.9   0.023405665   0.30350   0.03198   0.53840  -0.11228
   8   26047.5    383.9   0.060778850   0.76818   0.06114  -0.61677   0.61970
   9   26250.2    380.9   0.089816179   1.12641  -0.76936  -0.72351  -0.10500
  10   26882.6    372.0   0.022304965   0.27315   0.41811  -0.01819   0.31306
  11   27028.9    370.0   0.013603376   0.16569   0.22130   0.29549   0.17147
  12   27144.8    368.4   0.162029454   1.96509   0.66800   1.19143   0.31520
  13   27309.8    366.2   0.093946293   1.13250   0.64522  -0.57559   0.62039
  14   27681.6    361.3   0.001021354   0.01215   0.10861   0.00974  -0.01598
  15   28368.3    352.5   0.055606727   0.64531  -0.57955  -0.55617  -0.01000
  16   28959.6    345.3   0.010812390   0.12291  -0.31005   0.02248   0.16210
  17   29441.9    339.7   0.087121202   0.97417  -0.07262   0.97991   0.09307
  18   29618.8    337.6   0.072895432   0.81023  -0.30993   0.84387   0.04530
  19   29740.9    336.2   0.018099014   0.20034  -0.31365  -0.30028  -0.10863
  20   30490.7    328.0   0.015041170   0.16240   0.35678   0.00434   0.18732
  21   30679.0    326.0   0.164541756   1.76568  -0.91852   0.62017  -0.73306
  22   30829.9    324.4   0.049018254   0.52343   0.60014   0.05780   0.39991
  23   30932.3    323.3   0.044833514   0.47716  -0.64138  -0.20584  -0.15305
  24   31105.9    321.5   0.056882394   0.60202  -0.22842   0.41130  -0.61699
  25   31436.4    318.1   0.118294945   1.23882   0.64957   0.87193  -0.23793
  26   31841.2    314.1   0.020452924   0.21147   0.06518   0.38690  -0.23984
  27   31858.3    313.9   0.063710895   0.65836  -0.72982  -0.10369  -0.33908
  28   32716.4    305.7   0.170732479   1.71801  -1.27762  -0.23139  -0.17931
  29   33070.3    302.4   0.000795471   0.00792   0.00999   0.08824  -0.00572
  30   33211.8    301.1   0.343867745   3.40859   0.38219  -1.55035   0.92678
  31   33492.3    298.6   0.075601741   0.74313   0.80642  -0.28404   0.11013
  32   33885.3    295.1   0.009185027   0.08924   0.27896   0.01826  -0.10528
  33   34005.5    294.1   0.029384288   0.28447   0.39280   0.26182   0.24826
  34   34421.9    290.5   0.156500375   1.49678   1.16602   0.25016   0.27313
  35   34753.7    287.7   0.052122753   0.49374  -0.22168  -0.57759   0.33315
  36   34888.4    286.6   0.004046319   0.03818   0.06791  -0.14396   0.11334
  37   35076.4    285.1   0.019483224   0.18286  -0.15899  -0.19362  -0.34655
  38   35169.3    284.3   0.005295771   0.04957   0.10586   0.11315   0.15988
  39   35439.6    282.2   0.223223745   2.07361   1.15247  -0.69524   0.51192
  40   35668.5    280.4   0.226879111   2.09404   0.91771   1.10385  -0.18267
  41   35861.0    278.9   0.479154489   4.39874  -1.91206  -0.60899  -0.60985
  42   35966.8    278.0   0.329896456   3.01962  -0.94409   0.95098  -1.10632
  43   36680.7    272.6   0.133408629   1.19735   0.15169  -0.80751   0.72268
  44   36755.4    272.1   0.011078101   0.09922  -0.21081   0.22633  -0.05964
  45   36897.9    271.0   0.068367256   0.60999  -0.16230   0.65818  -0.38788
  46   37055.3    269.9   0.110400569   0.98084   0.95073  -0.24736   0.12556
  47   37266.0    268.3   0.128567754   1.13578   0.89190  -0.03337   0.58240
  48   37463.9    266.9   0.051932072   0.45635  -0.29539  -0.55628   0.24424
  49   37742.7    265.0   0.059500075   0.51899  -0.62296  -0.15588  -0.32652
  50   37937.8    263.6   0.069174732   0.60028   0.11004  -0.75506   0.13437
  51   38275.1    261.3   0.014008825   0.12049  -0.03265  -0.34248  -0.04620
  52   38807.6    257.7   0.011954815   0.10141   0.07168  -0.29918   0.08228
  53   39270.1    254.6   0.079718216   0.66830   0.07432   0.78485   0.21630
  54   39371.0    254.0   0.122515944   1.02445   0.46331  -0.86394  -0.25179
  55   39518.9    253.0   0.159326174   1.32727  -0.59868   0.96431  -0.19740
  56   40037.0    249.8   0.034344179   0.28240  -0.12496  -0.38147  -0.34823
  57   40322.6    248.0   0.006795215   0.05548   0.06248  -0.22705  -0.00484

FINAL SINGLE POINT ENERGY     -5733.990559932628

DIPOLE MOMENT
-------------
                                X             Y             Z
Electronic contribution:    -20.44107      17.51295     -24.62617
Nuclear contribution   :     21.13932     -19.73397      25.99461
                        -----------------------------------------
Total Dipole Moment    :      0.69825      -2.22102       1.36844
                        -----------------------------------------
Magnitude (a.u.)       :      2.70058
Magnitude (Debye)      :      6.86433

Rotational constants in cm-1:     0.001531     0.000158     0.000147
Rotational constants in MHz :    45.896132     4.747889     4.406573

                             ****ORCA TERMINATED NORMALLY****
TOTAL RUN TIME: 0 days 0 hours 12 minutes 5 seconds 535 msec
