                         Program Version 4.2.0 -  RELEASE  -
|  1> # ORCA input file
|  2> # SCF done       -199.793062413422          0.000649157362
|  3> ! CAM-B3LYP def2-SVP def2/J RIJCOSX Grid4 TightSCF
|  4> %maxcore 5000
|  5> %tddft
|  6>     Mode sTDDFT
|  7>     Ethresh 5.0
|  8>     maxcore 5000
|  9> end
| 10>
| 11> %pal
| 12>   nprocs 6
| 13>   end
| 14> * xyz 0 1
| 15>    C       -5.08885        -0.07709        -0.12651
| 16>    C       -5.88360         0.75156         0.61790
| 17>    C       -7.28592         0.62738         0.69259
| 18>    N       -8.43013         0.57209         0.76638
| 19>    C       -5.38649         1.76989         1.45957
| 20>    N       -5.04275         2.57112         2.20531
| 21>    C       -5.52440        -1.29541        -0.79991
| 22>    C       -4.38209        -2.11420        -1.04087
| 23>    C       -4.48990        -3.34064        -1.63055
| 24>    C       -5.76423        -3.80727        -2.02360
| 25>    C       -6.90792        -2.98703        -1.80040
| 26>    C       -6.76790        -1.72441        -1.18023
| 27>    C       -8.17237        -3.46126        -2.20532
| 28>    C       -8.30336        -4.68659        -2.79963
| 29>    C       -7.17686        -5.49394        -3.01778
| 30>    C       -5.93480        -5.06390        -2.63748
| 31>    C       -3.17054        -1.41077        -0.58247
| 32>    O       -2.03035        -1.81286        -0.57969
| 33>    C       -3.63749        -0.05036        -0.18134
| 34>    C       -2.73883         0.95057        -0.04873
| 35>    C       -2.96158         2.37394        -0.03984
| 36>    C       -2.03685         3.19200         0.63329
| 37>    O       -0.98356         2.56842         1.25651
| 38>    C        0.30565         2.97208         0.81991
| 39>    C       -2.23030         4.57909         0.68870
| 40>    O       -1.39713         5.39962         1.40136
| 41>    C       -1.27794         5.09454         2.78761
| 42>    C       -3.24421         5.15694        -0.09026
| 43>    C       -4.09461         4.34023        -0.83437
| 44>    C       -3.99287         2.97234        -0.76905
| 45>    C       -3.37450         6.61235        -0.19844
| 46>    C       -3.45415         7.47652         0.89735
| 47>    C       -3.46684         8.91075         0.74013
| 48>    N       -3.49697         9.70165         1.84346
| 49>    C       -3.54594         9.15029         3.00408
| 50>    C       -3.59486         7.73103         3.15540
| 51>    N       -3.55256         6.94235         2.14086
| 52>    F       -3.69995         7.18746         4.36730
| 53>    F       -3.57372         9.94121         4.07482
| 54>    C       -3.41810         9.52012        -0.51894
| 55>    C       -3.44194         8.65464        -1.62192
| 56>    C       -3.41570         7.21679        -1.46367
| 57>    N       -3.42703         6.58995        -2.64789
| 58>    S       -3.49666         7.68566        -3.81062
| 59>    N       -3.50511         9.00621        -2.91227
| 60>    C       -3.35060        10.97266        -0.68962
| 61>    C       -2.38410        11.51593        -1.54622
| 62>    O       -1.47301        10.63287        -2.03693
| 63>    C       -0.91027        10.80777        -3.32108
| 64>    C       -2.34386        12.90931        -1.77073
| 65>    O       -1.29713        13.34027        -2.53428
| 66>    C       -1.26853        14.62214        -3.10611
| 67>    C       -3.27028        13.73527        -1.11833
| 68>    C       -4.19208        13.16564        -0.23194
| 69>    C       -4.23671        11.81220        -0.01963
| 70>    C       -3.37333        15.17727        -1.31836
| 71>    C       -3.27860        16.08932        -0.32524
| 72>    C       -3.49679        17.52725        -0.42376
| 73>    C       -3.75690        18.23950        -1.56429
| 74>    C       -3.95068        19.63710        -1.59995
| 75>    N       -4.12210        20.76787        -1.69690
| 76>    C       -3.82535        17.69630        -2.86389
| 77>    N       -3.86807        17.32772        -3.95138
| 78>    C       -3.33553        18.08803         0.91080
| 79>    C       -2.93933        17.05004         1.80259
| 80>    C       -2.84724        15.77470         1.06928
| 81>    O       -2.45636        14.71293         1.49484
| 82>    C       -2.69151        17.28906         3.12340
| 83>    C       -2.83710        18.60124         3.62576
| 84>    C       -3.23931        19.64474         2.74224
| 85>    C       -3.48611        19.36819         1.37897
| 86>    C       -3.37901        20.95151         3.25383
| 87>    C       -3.13217        21.21646         4.57308
| 88>    C       -2.73628        20.18816         5.44188
| 89>    C       -2.59264        18.90849         4.97863
| 90>    H       -3.61265        -3.94813        -1.79668
| 91>    H       -7.64893        -1.11987        -1.03046
| 92>    H       -9.03722        -2.83783        -2.03188
| 93>    H       -9.27647        -5.04151        -3.10442
| 94>    H       -7.29838        -6.45789        -3.48887
| 95>    H       -5.06366        -5.68091        -2.80282
| 96>    H       -1.70093         0.63645         0.00386
| 97>    H        1.01268         2.46259         1.47214
| 98>    H        0.45185         4.05191         0.88707
| 99>    H        0.47269         2.65681        -0.21561
|100>    H       -0.65716         5.88516         3.20554
|101>    H       -0.80695         4.12614         2.96403
|102>    H       -2.26122         5.10231         3.26119
|103>    H       -4.86035         4.79839        -1.43923
|104>    H       -4.67067         2.35305        -1.33691
|105>    H       -1.66559        11.11570        -4.04708
|106>    H       -0.52403         9.82634        -3.59886
|107>    H       -0.09146        11.52935        -3.31155
|108>    H       -0.30971        14.68317        -3.62123
|109>    H       -1.31381        15.40705        -2.34449
|110>    H       -2.07235        14.76775        -3.83303
|111>    H       -4.89364        13.81551         0.26756
|112>    H       -4.96812        11.38785         0.64717
|113>    H       -3.64521        15.50845        -2.31139
|114>    H       -2.38824        16.48405         3.77615
|115>    H       -3.78989        20.17944         0.73656
|116>    H       -3.68305        21.73978         2.58082
|117>    H       -3.24023        22.22051         4.95507
|118>    H       -2.54554        20.41547         6.48002
|119>    H       -2.28810        18.11269         5.64241
|120> *
|121>
|122>                          ****END OF INPUT****

CARTESIAN COORDINATES (ANGSTROEM)
---------------------------------
  C     -5.088850   -0.077090   -0.126510
  C     -5.883600    0.751560    0.617900
  C     -7.285920    0.627380    0.692590
  N     -8.430130    0.572090    0.766380
  C     -5.386490    1.769890    1.459570
  N     -5.042750    2.571120    2.205310
  C     -5.524400   -1.295410   -0.799910
  C     -4.382090   -2.114200   -1.040870
  C     -4.489900   -3.340640   -1.630550
  C     -5.764230   -3.807270   -2.023600
  C     -6.907920   -2.987030   -1.800400
  C     -6.767900   -1.724410   -1.180230
  C     -8.172370   -3.461260   -2.205320
  C     -8.303360   -4.686590   -2.799630
  C     -7.176860   -5.493940   -3.017780
  C     -5.934800   -5.063900   -2.637480
  C     -3.170540   -1.410770   -0.582470
  O     -2.030350   -1.812860   -0.579690
  C     -3.637490   -0.050360   -0.181340
  C     -2.738830    0.950570   -0.048730
  C     -2.961580    2.373940   -0.039840
  C     -2.036850    3.192000    0.633290
  O     -0.983560    2.568420    1.256510
  C      0.305650    2.972080    0.819910
  C     -2.230300    4.579090    0.688700
  O     -1.397130    5.399620    1.401360
  C     -1.277940    5.094540    2.787610
  C     -3.244210    5.156940   -0.090260
  C     -4.094610    4.340230   -0.834370
  C     -3.992870    2.972340   -0.769050
  C     -3.374500    6.612350   -0.198440
  C     -3.454150    7.476520    0.897350
  C     -3.466840    8.910750    0.740130
  N     -3.496970    9.701650    1.843460
  C     -3.545940    9.150290    3.004080
  C     -3.594860    7.731030    3.155400
  N     -3.552560    6.942350    2.140860
  F     -3.699950    7.187460    4.367300
  F     -3.573720    9.941210    4.074820
  C     -3.418100    9.520120   -0.518940
  C     -3.441940    8.654640   -1.621920
  C     -3.415700    7.216790   -1.463670
  N     -3.427030    6.589950   -2.647890
  S     -3.496660    7.685660   -3.810620
  N     -3.505110    9.006210   -2.912270
  C     -3.350600   10.972660   -0.689620
  C     -2.384100   11.515930   -1.546220
  O     -1.473010   10.632870   -2.036930
  C     -0.910270   10.807770   -3.321080
  C     -2.343860   12.909310   -1.770730
  O     -1.297130   13.340270   -2.534280
  C     -1.268530   14.622140   -3.106110
  C     -3.270280   13.735270   -1.118330
  C     -4.192080   13.165640   -0.231940
  C     -4.236710   11.812200   -0.019630
  C     -3.373330   15.177270   -1.318360
  C     -3.278600   16.089320   -0.325240
  C     -3.496790   17.527250   -0.423760
  C     -3.756900   18.239500   -1.564290
  C     -3.950680   19.637100   -1.599950
  N     -4.122100   20.767870   -1.696900
  C     -3.825350   17.696300   -2.863890
  N     -3.868070   17.327720   -3.951380
  C     -3.335530   18.088030    0.910800
  C     -2.939330   17.050040    1.802590
  C     -2.847240   15.774700    1.069280
  O     -2.456360   14.712930    1.494840
  C     -2.691510   17.289060    3.123400
  C     -2.837100   18.601240    3.625760
  C     -3.239310   19.644740    2.742240
  C     -3.486110   19.368190    1.378970
  C     -3.379010   20.951510    3.253830
  C     -3.132170   21.216460    4.573080
  C     -2.736280   20.188160    5.441880
  C     -2.592640   18.908490    4.978630
  H     -3.612650   -3.948130   -1.796680
  H     -7.648930   -1.119870   -1.030460
  H     -9.037220   -2.837830   -2.031880
  H     -9.276470   -5.041510   -3.104420
  H     -7.298380   -6.457890   -3.488870
  H     -5.063660   -5.680910   -2.802820
  H     -1.700930    0.636450    0.003860
  H      1.012680    2.462590    1.472140
  H      0.451850    4.051910    0.887070
  H      0.472690    2.656810   -0.215610
  H     -0.657160    5.885160    3.205540
  H     -0.806950    4.126140    2.964030
  H     -2.261220    5.102310    3.261190
  H     -4.860350    4.798390   -1.439230
  H     -4.670670    2.353050   -1.336910
  H     -1.665590   11.115700   -4.047080
  H     -0.524030    9.826340   -3.598860
  H     -0.091460   11.529350   -3.311550
  H     -0.309710   14.683170   -3.621230
  H     -1.313810   15.407050   -2.344490
  H     -2.072350   14.767750   -3.833030
  H     -4.893640   13.815510    0.267560
  H     -4.968120   11.387850    0.647170
  H     -3.645210   15.508450   -2.311390
  H     -2.388240   16.484050    3.776150
  H     -3.789890   20.179440    0.736560
  H     -3.683050   21.739780    2.580820
  H     -3.240230   22.220510    4.955070
  H     -2.545540   20.415470    6.480020
  H     -2.288100   18.112690    5.642410

 Total Charge           Charge          ....    0
 Multiplicity           Mult            ....    1
 Number of Electrons    NEL             ....  516
 Basis Dimension        Dim             .... 1204

ORBITAL ENERGIES
----------------

  NO   OCC          E(Eh)            E(eV)
   0   2.0000     -89.031101     -2422.6594
   1   2.0000     -24.804404      -674.9622
   2   2.0000     -24.802226      -674.9029
   3   2.0000     -19.247938      -523.7630
   4   2.0000     -19.241934      -523.5996
   5   2.0000     -19.235953      -523.4369
   6   2.0000     -19.231513      -523.3161
   7   2.0000     -19.213479      -522.8253
   8   2.0000     -19.207672      -522.6673
   9   2.0000     -14.439348      -392.9146
  10   2.0000     -14.439060      -392.9068
  11   2.0000     -14.436814      -392.8457
  12   2.0000     -14.436532      -392.8380
  13   2.0000     -14.423133      -392.4734
  14   2.0000     -14.418481      -392.3468
  15   2.0000     -14.410385      -392.1265
  16   2.0000     -14.405364      -391.9899
  17   2.0000     -10.417506      -283.4748
  18   2.0000     -10.417225      -283.4671
  19   2.0000     -10.365294      -282.0540
  20   2.0000     -10.358718      -281.8750
  21   2.0000     -10.346622      -281.5459
  22   2.0000     -10.345081      -281.5040
  23   2.0000     -10.337860      -281.3075
  24   2.0000     -10.336627      -281.2739
  25   2.0000     -10.334336      -281.2116
  26   2.0000     -10.332848      -281.1711
  27   2.0000     -10.331599      -281.1371
  28   2.0000     -10.331260      -281.1279
  29   2.0000     -10.331019      -281.1213
  30   2.0000     -10.328923      -281.0643
  31   2.0000     -10.326048      -280.9860
  32   2.0000     -10.325516      -280.9716
  33   2.0000     -10.325354      -280.9672
  34   2.0000     -10.323097      -280.9058
  35   2.0000     -10.321230      -280.8549
  36   2.0000     -10.320652      -280.8392
  37   2.0000     -10.315884      -280.7095
  38   2.0000     -10.312979      -280.6304
  39   2.0000     -10.306916      -280.4654
  40   2.0000     -10.306102      -280.4433
  41   2.0000     -10.305676      -280.4317
  42   2.0000     -10.305262      -280.4204
  43   2.0000     -10.303282      -280.3666
  44   2.0000     -10.299995      -280.2771
  45   2.0000     -10.299812      -280.2721
  46   2.0000     -10.299648      -280.2677
  47   2.0000     -10.299398      -280.2609
  48   2.0000     -10.299107      -280.2529
  49   2.0000     -10.298887      -280.2470
  50   2.0000     -10.298802      -280.2447
  51   2.0000     -10.297482      -280.2087
  52   2.0000     -10.294010      -280.1142
  53   2.0000     -10.293648      -280.1044
  54   2.0000     -10.292532      -280.0740
  55   2.0000     -10.292326      -280.0684
  56   2.0000     -10.289545      -279.9928
  57   2.0000     -10.288552      -279.9657
  58   2.0000     -10.288468      -279.9634
  59   2.0000     -10.288384      -279.9612
  60   2.0000     -10.287721      -279.9431
  61   2.0000     -10.287516      -279.9376
  62   2.0000     -10.287193      -279.9287
  63   2.0000     -10.287183      -279.9285
  64   2.0000     -10.285319      -279.8778
  65   2.0000     -10.284465      -279.8545
  66   2.0000     -10.283113      -279.8177
  67   2.0000     -10.282782      -279.8087
  68   2.0000     -10.282513      -279.8014
  69   2.0000     -10.282026      -279.7882
  70   2.0000     -10.278727      -279.6984
  71   2.0000     -10.274741      -279.5899
  72   2.0000     -10.270796      -279.4826
  73   2.0000     -10.267382      -279.3897
  74   2.0000     -10.263081      -279.2726
  75   2.0000      -8.122443      -221.0229
  76   2.0000      -6.093327      -165.8079
  77   2.0000      -6.085666      -165.5994
  78   2.0000      -6.085568      -165.5967
  79   2.0000      -1.331217       -36.2243
  80   2.0000      -1.316847       -35.8332
  81   2.0000      -1.157595       -31.4998
  82   2.0000      -1.152569       -31.3630
  83   2.0000      -1.130881       -30.7728
  84   2.0000      -1.129449       -30.7339
  85   2.0000      -1.127440       -30.6792
  86   2.0000      -1.124868       -30.6092
  87   2.0000      -1.122837       -30.5540
  88   2.0000      -1.098165       -29.8826
  89   2.0000      -1.024356       -27.8741
  90   2.0000      -1.022585       -27.8260
  91   2.0000      -1.011540       -27.5254
  92   2.0000      -1.001989       -27.2655
  93   2.0000      -0.998230       -27.1632
  94   2.0000      -0.992489       -27.0070
  95   2.0000      -0.986340       -26.8397
  96   2.0000      -0.980696       -26.6861
  97   2.0000      -0.974309       -26.5123
  98   2.0000      -0.968913       -26.3655
  99   2.0000      -0.966291       -26.2941
 100   2.0000      -0.954114       -25.9628
 101   2.0000      -0.946427       -25.7536
 102   2.0000      -0.926360       -25.2075
 103   2.0000      -0.919064       -25.0090
 104   2.0000      -0.908095       -24.7105
 105   2.0000      -0.899012       -24.4634
 106   2.0000      -0.887029       -24.1373
 107   2.0000      -0.883097       -24.0303
 108   2.0000      -0.878370       -23.9017
 109   2.0000      -0.875998       -23.8371
 110   2.0000      -0.868490       -23.6328
 111   2.0000      -0.862347       -23.4657
 112   2.0000      -0.846250       -23.0276
 113   2.0000      -0.841889       -22.9090
 114   2.0000      -0.838278       -22.8107
 115   2.0000      -0.830156       -22.5897
 116   2.0000      -0.824097       -22.4248
 117   2.0000      -0.821824       -22.3630
 118   2.0000      -0.806507       -21.9462
 119   2.0000      -0.797770       -21.7084
 120   2.0000      -0.790746       -21.5173
 121   2.0000      -0.781992       -21.2791
 122   2.0000      -0.771895       -21.0043
 123   2.0000      -0.763962       -20.7885
 124   2.0000      -0.759591       -20.6695
 125   2.0000      -0.758587       -20.6422
 126   2.0000      -0.754917       -20.5423
 127   2.0000      -0.749636       -20.3986
 128   2.0000      -0.740952       -20.1623
 129   2.0000      -0.725930       -19.7536
 130   2.0000      -0.716394       -19.4941
 131   2.0000      -0.705992       -19.2110
 132   2.0000      -0.703924       -19.1547
 133   2.0000      -0.699666       -19.0389
 134   2.0000      -0.697536       -18.9809
 135   2.0000      -0.688493       -18.7348
 136   2.0000      -0.683416       -18.5967
 137   2.0000      -0.680425       -18.5153
 138   2.0000      -0.676103       -18.3977
 139   2.0000      -0.670305       -18.2399
 140   2.0000      -0.667952       -18.1759
 141   2.0000      -0.665570       -18.1111
 142   2.0000      -0.662918       -18.0389
 143   2.0000      -0.651947       -17.7404
 144   2.0000      -0.642797       -17.4914
 145   2.0000      -0.638818       -17.3831
 146   2.0000      -0.629517       -17.1300
 147   2.0000      -0.624679       -16.9984
 148   2.0000      -0.620017       -16.8715
 149   2.0000      -0.614873       -16.7315
 150   2.0000      -0.609276       -16.5792
 151   2.0000      -0.608623       -16.5615
 152   2.0000      -0.606879       -16.5140
 153   2.0000      -0.603428       -16.4201
 154   2.0000      -0.602502       -16.3949
 155   2.0000      -0.599654       -16.3174
 156   2.0000      -0.595090       -16.1932
 157   2.0000      -0.588793       -16.0219
 158   2.0000      -0.584109       -15.8944
 159   2.0000      -0.579420       -15.7668
 160   2.0000      -0.574163       -15.6238
 161   2.0000      -0.572645       -15.5825
 162   2.0000      -0.563915       -15.3449
 163   2.0000      -0.559120       -15.2144
 164   2.0000      -0.552924       -15.0458
 165   2.0000      -0.552745       -15.0410
 166   2.0000      -0.551048       -14.9948
 167   2.0000      -0.548517       -14.9259
 168   2.0000      -0.547523       -14.8989
 169   2.0000      -0.545236       -14.8366
 170   2.0000      -0.543524       -14.7900
 171   2.0000      -0.542555       -14.7637
 172   2.0000      -0.541516       -14.7354
 173   2.0000      -0.540682       -14.7127
 174   2.0000      -0.537046       -14.6138
 175   2.0000      -0.534943       -14.5565
 176   2.0000      -0.534462       -14.5434
 177   2.0000      -0.533559       -14.5189
 178   2.0000      -0.531418       -14.4606
 179   2.0000      -0.528770       -14.3886
 180   2.0000      -0.524096       -14.2614
 181   2.0000      -0.518744       -14.1157
 182   2.0000      -0.515563       -14.0292
 183   2.0000      -0.513688       -13.9782
 184   2.0000      -0.513636       -13.9767
 185   2.0000      -0.510509       -13.8916
 186   2.0000      -0.508303       -13.8316
 187   2.0000      -0.507365       -13.8061
 188   2.0000      -0.506169       -13.7736
 189   2.0000      -0.504331       -13.7235
 190   2.0000      -0.502625       -13.6771
 191   2.0000      -0.500210       -13.6114
 192   2.0000      -0.500101       -13.6084
 193   2.0000      -0.499019       -13.5790
 194   2.0000      -0.495685       -13.4883
 195   2.0000      -0.493412       -13.4264
 196   2.0000      -0.491900       -13.3853
 197   2.0000      -0.485920       -13.2226
 198   2.0000      -0.482782       -13.1372
 199   2.0000      -0.481330       -13.0977
 200   2.0000      -0.469958       -12.7882
 201   2.0000      -0.468301       -12.7431
 202   2.0000      -0.464279       -12.6337
 203   2.0000      -0.461917       -12.5694
 204   2.0000      -0.460963       -12.5434
 205   2.0000      -0.459101       -12.4928
 206   2.0000      -0.457956       -12.4616
 207   2.0000      -0.455179       -12.3860
 208   2.0000      -0.452987       -12.3264
 209   2.0000      -0.450723       -12.2648
 210   2.0000      -0.448520       -12.2049
 211   2.0000      -0.443356       -12.0643
 212   2.0000      -0.441535       -12.0148
 213   2.0000      -0.437499       -11.9050
 214   2.0000      -0.436953       -11.8901
 215   2.0000      -0.436418       -11.8755
 216   2.0000      -0.434979       -11.8364
 217   2.0000      -0.434274       -11.8172
 218   2.0000      -0.431553       -11.7431
 219   2.0000      -0.428607       -11.6630
 220   2.0000      -0.425696       -11.5838
 221   2.0000      -0.425271       -11.5722
 222   2.0000      -0.423792       -11.5320
 223   2.0000      -0.421435       -11.4678
 224   2.0000      -0.418993       -11.4014
 225   2.0000      -0.417340       -11.3564
 226   2.0000      -0.415927       -11.3180
 227   2.0000      -0.412241       -11.2177
 228   2.0000      -0.409979       -11.1561
 229   2.0000      -0.409359       -11.1392
 230   2.0000      -0.405889       -11.0448
 231   2.0000      -0.404209       -10.9991
 232   2.0000      -0.401014       -10.9122
 233   2.0000      -0.398593       -10.8463
 234   2.0000      -0.397211       -10.8087
 235   2.0000      -0.394373       -10.7314
 236   2.0000      -0.389578       -10.6009
 237   2.0000      -0.382855       -10.4180
 238   2.0000      -0.376648       -10.2491
 239   2.0000      -0.374587       -10.1930
 240   2.0000      -0.371511       -10.1093
 241   2.0000      -0.362586        -9.8665
 242   2.0000      -0.357615        -9.7312
 243   2.0000      -0.353404        -9.6166
 244   2.0000      -0.344266        -9.3679
 245   2.0000      -0.343229        -9.3397
 246   2.0000      -0.333291        -9.0693
 247   2.0000      -0.328012        -8.9257
 248   2.0000      -0.324906        -8.8412
 249   2.0000      -0.318437        -8.6651
 250   2.0000      -0.313036        -8.5182
 251   2.0000      -0.307242        -8.3605
 252   2.0000      -0.296914        -8.0795
 253   2.0000      -0.295615        -8.0441
 254   2.0000      -0.293300        -7.9811
 255   2.0000      -0.287175        -7.8144
 256   2.0000      -0.274819        -7.4782
 257   2.0000      -0.262960        -7.1555
 258   0.0000      -0.093593        -2.5468
 259   0.0000      -0.087060        -2.3690
 260   0.0000      -0.078078        -2.1246
 261   0.0000      -0.054656        -1.4873
 262   0.0000      -0.047818        -1.3012

MULLIKEN ATOMIC CHARGES
-----------------------
   0 C :    0.264664
   1 C :   -0.330582
   2 C :   -0.180147
   3 N :    0.150770
   4 C :   -0.196105
   5 N :    0.176634
   6 C :    0.034434
   7 C :    0.014888
   8 C :   -0.085629
   9 C :    0.096433
  10 C :    0.096101
  11 C :   -0.083719
  12 C :   -0.019350
  13 C :    0.035706
  14 C :    0.036843
  15 C :   -0.016577
  16 C :    0.137202
  17 O :   -0.144092
  18 C :   -0.113325
  19 C :    0.047893
  20 C :    0.002951
  21 C :    0.103772
  22 O :   -0.335957
  23 C :    0.182878
  24 C :    0.142770
  25 O :   -0.339026
  26 C :    0.176589
  27 C :   -0.038383
  28 C :    0.031397
  29 C :   -0.004154
  30 C :    0.079158
  31 C :   -0.056219
  32 C :   -0.067879
  33 N :    0.030994
  34 C :    0.131168
  35 C :    0.131347
  36 N :    0.021787
  37 F :   -0.146007
  38 F :   -0.142961
  39 C :    0.094326
  40 C :   -0.000576
  41 C :   -0.013014
  42 N :   -0.272348
  43 S :    0.522317
  44 N :   -0.265863
  45 C :   -0.050324
  46 C :    0.149247
  47 O :   -0.324740
  48 C :    0.212526
  49 C :    0.138702
  50 O :   -0.329498
  51 C :    0.182967
  52 C :    0.001809
  53 C :    0.021774
  54 C :    0.023226
  55 C :   -0.086369
  56 C :   -0.075403
  57 C :    0.323704
  58 C :   -0.352321
  59 C :   -0.182605
  60 N :    0.152802
  61 C :   -0.198109
  62 N :    0.152814
  63 C :    0.043825
  64 C :   -0.003912
  65 C :    0.127000
  66 O :   -0.116389
  67 C :   -0.076285
  68 C :    0.095947
  69 C :    0.094241
  70 C :   -0.080029
  71 C :   -0.017463
  72 C :    0.036810
  73 C :    0.037632
  74 C :   -0.015068
  75 H :   -0.013406
  76 H :   -0.007708
  77 H :   -0.011249
  78 H :   -0.006498
  79 H :   -0.006708
  80 H :   -0.018145
  81 H :    0.024313
  82 H :    0.037245
  83 H :    0.040863
  84 H :    0.018082
  85 H :    0.022449
  86 H :    0.030821
  87 H :    0.046070
  88 H :   -0.022931
  89 H :   -0.011556
  90 H :    0.009659
  91 H :    0.011952
  92 H :    0.029986
  93 H :    0.034404
  94 H :    0.040181
  95 H :    0.035201
  96 H :   -0.027248
  97 H :   -0.029252
  98 H :    0.047741
  99 H :   -0.010799
 100 H :   -0.008551
 101 H :   -0.008381
 102 H :   -0.004420
 103 H :   -0.003821
 104 H :   -0.015917
Sum of atomic charges:   -0.0000000

LOEWDIN ATOMIC CHARGES
----------------------
   0 C :    0.066879
   1 C :   -0.134381
   2 C :   -0.017851
   3 N :   -0.054872
   4 C :   -0.019028
   5 N :   -0.040417
   6 C :   -0.023231
   7 C :   -0.056506
   8 C :    0.031189
   9 C :   -0.009290
  10 C :   -0.005876
  11 C :    0.014918
  12 C :   -0.006851
  13 C :   -0.014059
  14 C :   -0.014142
  15 C :   -0.009810
  16 C :    0.084348
  17 O :   -0.143030
  18 C :   -0.091650
  19 C :    0.091399
  20 C :   -0.053805
  21 C :    0.045981
  22 O :   -0.118744
  23 C :    0.078166
  24 C :    0.042168
  25 O :   -0.121716
  26 C :    0.075138
  27 C :   -0.011108
  28 C :   -0.000224
  29 C :   -0.007961
  30 C :   -0.013164
  31 C :   -0.003569
  32 C :   -0.007758
  33 N :   -0.031416
  34 C :    0.054396
  35 C :    0.055564
  36 N :   -0.025527
  37 F :   -0.032109
  38 F :   -0.032612
  39 C :   -0.001713
  40 C :   -0.040955
  41 C :   -0.042140
  42 N :   -0.293255
  43 S :    0.667147
  44 N :   -0.279802
  45 C :   -0.029210
  46 C :    0.053347
  47 O :   -0.104147
  48 C :    0.074842
  49 C :    0.038454
  50 O :   -0.099218
  51 C :    0.078825
  52 C :   -0.061593
  53 C :   -0.008715
  54 C :   -0.006214
  55 C :    0.084120
  56 C :   -0.091344
  57 C :    0.079105
  58 C :   -0.139310
  59 C :   -0.017635
  60 N :   -0.050792
  61 C :   -0.018465
  62 N :   -0.055064
  63 C :   -0.028879
  64 C :   -0.055963
  65 C :    0.077685
  66 O :   -0.120895
  67 C :    0.032938
  68 C :   -0.006699
  69 C :   -0.006730
  70 C :    0.021265
  71 C :   -0.004910
  72 C :   -0.012951
  73 C :   -0.010492
  74 C :   -0.009093
  75 H :    0.038791
  76 H :    0.038164
  77 H :    0.034028
  78 H :    0.032458
  79 H :    0.032198
  80 H :    0.031530
  81 H :    0.046163
  82 H :    0.026605
  83 H :    0.015763
  84 H :    0.015173
  85 H :    0.020879
  86 H :    0.011738
  87 H :    0.018377
  88 H :    0.031653
  89 H :    0.030587
  90 H :    0.011979
  91 H :    0.015255
  92 H :    0.013256
  93 H :    0.030606
  94 H :    0.020238
  95 H :    0.019268
  96 H :    0.027995
  97 H :    0.029462
  98 H :    0.043366
  99 H :    0.040114
 100 H :    0.038958
 101 H :    0.034975
 102 H :    0.033460
 103 H :    0.033318
 104 H :    0.032660

  Mayer bond orders larger than 0.100000
B(  0-C ,  1-C ) :   1.6734 B(  0-C ,  6-C ) :   0.9994 B(  0-C , 18-C ) :   1.0130
B(  1-C ,  2-C ) :   1.1327 B(  1-C ,  4-C ) :   1.1517 B(  2-C ,  3-N ) :   2.9862
B(  4-C ,  5-N ) :   3.0158 B(  6-C ,  7-C ) :   1.2172 B(  6-C , 11-C ) :   1.4547
B(  7-C ,  8-C ) :   1.4728 B(  7-C , 16-C ) :   0.9189 B(  8-C ,  9-C ) :   1.1833
B(  8-C , 75-H ) :   1.0160 B(  9-C , 10-C ) :   1.2590 B(  9-C , 15-C ) :   1.2440
B( 10-C , 11-C ) :   1.2038 B( 10-C , 12-C ) :   1.2381 B( 11-C , 76-H ) :   0.9941
B( 12-C , 13-C ) :   1.4915 B( 12-C , 77-H ) :   0.9976 B( 13-C , 14-C ) :   1.2605
B( 13-C , 78-H ) :   0.9883 B( 14-C , 15-C ) :   1.4889 B( 14-C , 79-H ) :   0.9883
B( 15-C , 80-H ) :   0.9977 B( 16-C , 17-O ) :   2.2699 B( 16-C , 18-C ) :   0.9333
B( 18-C , 19-C ) :   1.6982 B( 19-C , 20-C ) :   1.0420 B( 19-C , 81-H ) :   0.9384
B( 20-C , 21-C ) :   1.3584 B( 20-C , 27-C ) :   0.1016 B( 20-C , 29-C ) :   1.3054
B( 21-C , 22-O ) :   1.1586 B( 21-C , 24-C ) :   1.3001 B( 22-O , 23-C ) :   0.9223
B( 23-C , 82-H ) :   0.9830 B( 23-C , 83-H ) :   0.9645 B( 23-C , 84-H ) :   0.9691
B( 24-C , 25-O ) :   1.1547 B( 24-C , 27-C ) :   1.4031 B( 25-O , 26-C ) :   0.9150
B( 26-C , 85-H ) :   0.9829 B( 26-C , 86-H ) :   0.9644 B( 26-C , 87-H ) :   0.9600
B( 27-C , 28-C ) :   1.3622 B( 27-C , 30-C ) :   0.9342 B( 28-C , 29-C ) :   1.3905
B( 28-C , 88-H ) :   0.9957 B( 29-C , 89-H ) :   0.9948 B( 30-C , 31-C ) :   1.4005
B( 30-C , 39-C ) :   0.1442 B( 30-C , 41-C ) :   1.2735 B( 31-C , 32-C ) :   1.0832
B( 31-C , 36-N ) :   1.4048 B( 32-C , 33-N ) :   1.3937 B( 32-C , 39-C ) :   1.4092
B( 33-N , 34-C ) :   1.7260 B( 34-C , 35-C ) :   1.0784 B( 34-C , 38-F ) :   1.1753
B( 35-C , 36-N ) :   1.7022 B( 35-C , 37-F ) :   1.1516 B( 39-C , 40-C ) :   1.2568
B( 39-C , 45-C ) :   0.9369 B( 40-C , 41-C ) :   1.1020 B( 40-C , 44-N ) :   1.5003
B( 41-C , 42-N ) :   1.4946 B( 42-N , 43-S ) :   1.2912 B( 42-N , 44-N ) :   0.1629
B( 43-S , 44-N ) :   1.3002 B( 45-C , 46-C ) :   1.4383 B( 45-C , 52-C ) :   0.1001
B( 45-C , 54-C ) :   1.3526 B( 46-C , 47-O ) :   1.1870 B( 46-C , 49-C ) :   1.2759
B( 47-O , 48-C ) :   0.9317 B( 48-C , 90-H ) :   0.9704 B( 48-C , 91-H ) :   0.9778
B( 48-C , 92-H ) :   0.9738 B( 49-C , 50-O ) :   1.1471 B( 49-C , 52-C ) :   1.3488
B( 50-O , 51-C ) :   0.9489 B( 51-C , 93-H ) :   0.9705 B( 51-C , 94-H ) :   0.9497
B( 51-C , 95-H ) :   0.9691 B( 52-C , 53-C ) :   1.3253 B( 52-C , 55-C ) :   0.9944
B( 53-C , 54-C ) :   1.3906 B( 53-C , 96-H ) :   0.9930 B( 54-C , 97-H ) :   0.9965
B( 55-C , 56-C ) :   1.7495 B( 55-C , 98-H ) :   0.9157 B( 56-C , 57-C ) :   1.0290
B( 56-C , 65-C ) :   0.9133 B( 57-C , 58-C ) :   1.6457 B( 57-C , 63-C ) :   1.0011
B( 58-C , 59-C ) :   1.1398 B( 58-C , 61-C ) :   1.1515 B( 59-C , 60-N ) :   2.9684
B( 61-C , 62-N ) :   2.9633 B( 63-C , 64-C ) :   1.2127 B( 63-C , 70-C ) :   1.4400
B( 64-C , 65-C ) :   0.9312 B( 64-C , 67-C ) :   1.4759 B( 65-C , 66-O ) :   2.2723
B( 67-C , 68-C ) :   1.1809 B( 67-C , 99-H ) :   1.0149 B( 68-C , 69-C ) :   1.2549
B( 68-C , 74-C ) :   1.2442 B( 69-C , 70-C ) :   1.2144 B( 69-C , 71-C ) :   1.2365
B( 70-C ,100-H ) :   0.9875 B( 71-C , 72-C ) :   1.4930 B( 71-C ,101-H ) :   0.9964
B( 72-C , 73-C ) :   1.2587 B( 72-C ,102-H ) :   0.9882 B( 73-C , 74-C ) :   1.4911
B( 73-C ,103-H ) :   0.9883 B( 74-C ,104-H ) :   0.9966

-----------------------------------------------------------------------------
         ABSORPTION SPECTRUM VIA TRANSITION ELECTRIC DIPOLE MOMENTS
-----------------------------------------------------------------------------
State   Energy  Wavelength   fosc         T2         TX        TY        TZ
        (cm-1)    (nm)                  (au**2)     (au)      (au)      (au)
-----------------------------------------------------------------------------
   0   19220.9    520.3   0.436993875   7.48473   0.37780   2.70622  -0.13545
   1   21387.9    467.6   0.350680950   5.39784  -0.05214   2.30961   0.24659
   2   22529.3    443.9   0.059051631   0.86290  -0.22520  -0.89084   0.13634
   3   23316.9    428.9   0.036803318   0.51963  -0.45485   0.49806   0.25432
   4   24345.7    410.8   0.179614987   2.42883  -0.97804  -1.21310  -0.02564
   5   25556.1    391.3   0.012002455   0.15461   0.29507   0.19071   0.17657
   6   26471.4    377.8   0.005457402   0.06787  -0.13301  -0.01793  -0.22329
   7   27832.7    359.3   0.087268482   1.03223   0.05897   0.40060   0.93181
   8   28078.2    356.1   0.033380094   0.39138   0.02949  -0.59159  -0.20132
   9   28173.9    354.9   0.077839072   0.90955  -0.43441  -0.58714  -0.61327
  10   28378.0    352.4   0.010212364   0.11847  -0.22911   0.18679   0.17633
  11   29276.2    341.6   0.015785835   0.17751   0.38264   0.03571  -0.17269
  12   29614.2    337.7   0.002149430   0.02389   0.05258   0.12061   0.08113
  13   29936.7    334.0   0.007292548   0.08020  -0.09602   0.24829  -0.09658
  14   30339.8    329.6   0.044682920   0.48485  -0.23650  -0.14572   0.63850
  15   30534.2    327.5   0.060758781   0.65508   0.63113  -0.16172   0.48021
  16   30584.2    327.0   0.003129420   0.03369  -0.14358   0.10261   0.05042
  17   31340.0    319.1   0.042207429   0.44337  -0.30266   0.18828   0.56242
  18   32201.9    310.5   0.207530041   2.12166   0.05731  -1.39730  -0.40732
  19   32263.5    309.9   0.283614715   2.89396   0.13387   0.40900  -1.64583
  20   32864.4    304.3   0.190069338   1.90398  -0.24185  -1.28516  -0.44028
  21   33140.7    301.7   0.005920386   0.05881  -0.11746  -0.20941   0.03413
  22   33207.7    301.1   0.024150547   0.23942   0.33248  -0.13849  -0.33120
  23   33575.2    297.8   0.126620619   1.24154   0.24982   0.18859   1.06937
  24   33601.8    297.6   0.110100218   1.07870   0.08983  -1.03468   0.00816
  25   33769.0    296.1   0.396928625   3.86963   0.21199   1.50860   1.24452
  26   34352.9    291.1   0.140922936   1.35050   0.16874   1.04884   0.47113
  27   34592.7    289.1   0.057892761   0.55095   0.26757   0.53947   0.43397
  28   34838.9    287.0   0.712977959   6.73732  -0.34275  -0.59905  -2.50219
  29   35327.3    283.1   0.422315672   3.93552  -0.28675  -1.70814  -0.96724
  30   35493.8    281.7   0.116721892   1.08262   0.17856   0.02487   1.02475
  31   36227.6    276.0   0.229159208   2.08244   0.11833   1.21495   0.76964
  32   36842.7    271.4   0.049363553   0.44109  -0.00592  -0.41795  -0.51611
  33   36921.7    270.8   0.019403249   0.17301   0.00240  -0.27707  -0.31022
  34   37119.8    269.4   0.014509375   0.12868   0.22364  -0.11442   0.25608
  35   37749.9    264.9   0.034400962   0.30001  -0.00838  -0.54570  -0.04634
  36   37923.7    263.7   0.066115927   0.57395  -0.25161   0.62839   0.34025
  37   38442.4    260.1   0.075551084   0.64700   0.22714   0.29722   0.71209
  38   38472.0    259.9   0.020697865   0.17712  -0.06749  -0.04304   0.41317
  39   38637.1    258.8   0.018294943   0.15588   0.15202  -0.36340   0.02672
  40   38795.8    257.8   0.050390367   0.42760   0.22324   0.61263   0.04955
  41   39001.5    256.4   0.009138709   0.07714   0.03738   0.20967   0.17828
  42   39221.4    255.0   0.040182071   0.33728  -0.08313   0.35184   0.45451
  43   39319.0    254.3   0.005407275   0.04527   0.10055   0.07596   0.17145
  44   39597.6    252.5   0.026827500   0.22304   0.07823   0.17748   0.43061
  45   39947.9    250.3   0.007395094   0.06094  -0.05220  -0.20426   0.12845
  46   40309.4    248.1   0.286205556   2.33748  -0.11118  -1.49560   0.29717

FINAL SINGLE POINT ENERGY     -3711.108604569477

DIPOLE MOMENT
-------------
                                X             Y             Z
Electronic contribution:    -14.60270       3.27707      10.38933
Nuclear contribution   :     15.57590      -3.31576     -10.81182
                        -----------------------------------------
Total Dipole Moment    :      0.97319      -0.03869      -0.42249
                        -----------------------------------------
Magnitude (a.u.)       :      1.06165
Magnitude (Debye)      :      2.69850

Rotational constants in cm-1:     0.002312     0.000277     0.000266
Rotational constants in MHz :    69.298583     8.299163     7.960354

                             ****ORCA TERMINATED NORMALLY****
TOTAL RUN TIME: 0 days 0 hours 10 minutes 51 seconds 847 msec
