                         Program Version 4.2.0 -  RELEASE  -
|  1> # ORCA input file
|  2> # SCF done       -204.398530689455          0.000710733224
|  3> ! CAM-B3LYP def2-SVP def2/J RIJCOSX Grid4 TightSCF
|  4> %maxcore 5000
|  5> %tddft
|  6>     Mode sTDDFT
|  7>     Ethresh 5.0
|  8>     maxcore 5000
|  9> end
| 10>
| 11> %pal
| 12>   nprocs 6
| 13>   end
| 14> * xyz 0 1
| 15>    C       -0.64334         2.72715        -0.75550
| 16>    C        0.56510         2.06443        -0.60814
| 17>    C        0.60526         0.98074         0.24701
| 18>    C       -0.54077         0.57613         0.94143
| 19>    C       -0.18324        -0.60897         1.76314
| 20>    O       -0.87151        -1.26007         2.50707
| 21>    N        1.16001        -0.83752         1.51218
| 22>    C        1.71185         0.06659         0.61262
| 23>    O        2.86006         0.06377         0.24879
| 24>    C        1.90436        -1.93520         2.09179
| 25>    C        1.83938        -3.17431         1.20597
| 26>    C       -1.73910         1.23247         0.80531
| 27>    C       -1.80157         2.33699        -0.06525
| 28>    C       -3.01432         3.08397        -0.29858
| 29>    C       -4.19123         2.89205         0.33648
| 30>    C       -5.42151         3.58549         0.10641
| 31>    C       -5.67147         4.56751        -0.88452
| 32>    C       -6.95858         5.22100        -1.01239
| 33>    N       -7.10993         6.23352        -1.88491
| 34>    C       -6.10782         6.58097        -2.65365
| 35>    C       -4.86713         5.86848        -2.59859
| 36>    N       -4.68468         4.90893        -1.72664
| 37>    C       -3.80980         6.19408        -3.48456
| 38>    N       -2.96427         6.47266        -4.20527
| 39>    C       -6.26846         7.66123        -3.55697
| 40>    N       -6.36467         8.52286        -4.30520
| 41>    C       -8.04890         4.88319        -0.18846
| 42>    C       -7.81183         3.88859         0.77784
| 43>    C       -6.52127         3.26772         0.93202
| 44>    N       -6.52693         2.36981         1.92296
| 45>    S       -7.99311         2.31244         2.56416
| 46>    N       -8.71131         3.38698         1.62661
| 47>    C       -9.32284         5.54914        -0.15900
| 48>    N      -10.11446         5.90269        -1.21145
| 49>    C       -9.92874         5.56434        -2.60132
| 50>    C       -9.99204         4.05761        -2.83000
| 51>    C      -11.31759         6.50761        -0.77374
| 52>    O      -12.18457         6.88671        -1.52934
| 53>    C      -11.20071         6.53676         0.66708
| 54>    C       -9.96854         5.93100         1.01251
| 55>    C       -9.79159         6.04747         2.44516
| 56>    O       -8.89979         5.70999         3.19471
| 57>    N      -10.96227         6.70059         2.87792
| 58>    C      -11.15945         7.03427         4.26748
| 59>    C      -10.82404         8.49631         4.55392
| 60>    C      -11.80920         6.99591         1.83400
| 61>    C      -13.06464         7.62907         1.99416
| 62>    C      -13.96612         7.76639         0.98611
| 63>    C      -15.22333         8.38987         1.14890
| 64>    S      -15.66795         9.27632         2.60382
| 65>    C      -17.24960         9.68630         1.98373
| 66>    C      -17.39939         9.14868         0.72030
| 67>    C      -16.27724         8.42933         0.25497
| 68>    C      -16.55367         7.84369        -1.06252
| 69>    O      -15.86647         7.09234        -1.70301
| 70>    C      -17.94108         8.34717        -1.45339
| 71>    C      -18.48258         9.12719        -0.26340
| 72>    O      -19.58352         9.61104        -0.16302
| 73>    C      -18.21465        10.44605         2.69644
| 74>    C      -18.02644        10.96640         3.92292
| 75>    C      -18.98456        11.79389         4.63182
| 76>    C      -18.46595        12.86410         5.37985
| 77>    C      -19.33443        13.75485         5.96232
| 78>    C      -20.71816        13.60554         5.82053
| 79>    C      -21.37685        14.72567         6.53488
| 80>    O      -22.54846        14.97608         6.65685
| 81>    N      -20.34003        15.48441         7.06063
| 82>    C      -19.08376        14.97121         6.77344
| 83>    O      -18.03904        15.45652         7.12570
| 84>    C      -20.55214        16.66913         7.86484
| 85>    C      -20.67750        16.31888         9.34311
| 86>    C      -21.24596        12.54301         5.12415
| 87>    C      -20.37928        11.60787         4.54617
| 88>    C      -20.99608        10.41910         3.94763
| 89>    C      -20.63176         9.17401         4.21472
| 90>    H       -0.70230         3.57423        -1.42352
| 91>    H        1.44712         2.37746        -1.14454
| 92>    H        1.46818        -2.14359         3.07160
| 93>    H        2.93930        -1.60426         2.20680
| 94>    H        0.80711        -3.49341         1.08110
| 95>    H        2.40282        -3.98282         1.66277
| 96>    H        2.26499        -2.95954         0.22849
| 97>    H       -2.60405         0.89262         1.35143
| 98>    H       -2.94914         3.85398        -1.05309
| 99>    H       -4.27479         2.15053         1.11948
|100>    H       -8.97395         5.96885        -2.94652
|101>    H      -10.74199         6.06109        -3.13758
|102>    H       -9.19392         3.54858        -2.29223
|103>    H       -9.88802         3.84358        -3.89003
|104>    H      -10.94620         3.66382        -2.48743
|105>    H      -10.48209         6.38771         4.83235
|106>    H      -12.18892         6.80542         4.55674
|107>    H       -9.78450         8.69262         4.30382
|108>    H      -10.97325         8.70853         5.60890
|109>    H      -11.45193         9.16505         3.96944
|110>    H      -13.32456         7.99601         2.97861
|111>    H      -13.75622         7.38012        -0.00422
|112>    H      -18.60210         7.52254        -1.72669
|113>    H      -17.87247         8.99519        -2.33042
|114>    H      -19.14628        10.59161         2.16645
|115>    H      -17.05703        10.85248         4.39498
|116>    H      -17.39878        13.00046         5.46918
|117>    H      -21.46824        17.14591         7.50810
|118>    H      -19.69897        17.33170         7.70125
|119>    H      -21.51962        15.64890         9.50015
|120>    H      -20.83757        17.22351         9.92262
|121>    H      -19.76865        15.83478         9.69300
|122>    H      -22.31496        12.41700         5.04276
|123>    H      -21.86304        10.61001         3.32858
|124>    H      -19.79933         8.95209         4.86221
|125>    H      -21.15588         8.33167         3.79867
|126> *
|127>
|128>                          ****END OF INPUT****

CARTESIAN COORDINATES (ANGSTROEM)
---------------------------------
  C     -0.643340    2.727150   -0.755500
  C      0.565100    2.064430   -0.608140
  C      0.605260    0.980740    0.247010
  C     -0.540770    0.576130    0.941430
  C     -0.183240   -0.608970    1.763140
  O     -0.871510   -1.260070    2.507070
  N      1.160010   -0.837520    1.512180
  C      1.711850    0.066590    0.612620
  O      2.860060    0.063770    0.248790
  C      1.904360   -1.935200    2.091790
  C      1.839380   -3.174310    1.205970
  C     -1.739100    1.232470    0.805310
  C     -1.801570    2.336990   -0.065250
  C     -3.014320    3.083970   -0.298580
  C     -4.191230    2.892050    0.336480
  C     -5.421510    3.585490    0.106410
  C     -5.671470    4.567510   -0.884520
  C     -6.958580    5.221000   -1.012390
  N     -7.109930    6.233520   -1.884910
  C     -6.107820    6.580970   -2.653650
  C     -4.867130    5.868480   -2.598590
  N     -4.684680    4.908930   -1.726640
  C     -3.809800    6.194080   -3.484560
  N     -2.964270    6.472660   -4.205270
  C     -6.268460    7.661230   -3.556970
  N     -6.364670    8.522860   -4.305200
  C     -8.048900    4.883190   -0.188460
  C     -7.811830    3.888590    0.777840
  C     -6.521270    3.267720    0.932020
  N     -6.526930    2.369810    1.922960
  S     -7.993110    2.312440    2.564160
  N     -8.711310    3.386980    1.626610
  C     -9.322840    5.549140   -0.159000
  N    -10.114460    5.902690   -1.211450
  C     -9.928740    5.564340   -2.601320
  C     -9.992040    4.057610   -2.830000
  C    -11.317590    6.507610   -0.773740
  O    -12.184570    6.886710   -1.529340
  C    -11.200710    6.536760    0.667080
  C     -9.968540    5.931000    1.012510
  C     -9.791590    6.047470    2.445160
  O     -8.899790    5.709990    3.194710
  N    -10.962270    6.700590    2.877920
  C    -11.159450    7.034270    4.267480
  C    -10.824040    8.496310    4.553920
  C    -11.809200    6.995910    1.834000
  C    -13.064640    7.629070    1.994160
  C    -13.966120    7.766390    0.986110
  C    -15.223330    8.389870    1.148900
  S    -15.667950    9.276320    2.603820
  C    -17.249600    9.686300    1.983730
  C    -17.399390    9.148680    0.720300
  C    -16.277240    8.429330    0.254970
  C    -16.553670    7.843690   -1.062520
  O    -15.866470    7.092340   -1.703010
  C    -17.941080    8.347170   -1.453390
  C    -18.482580    9.127190   -0.263400
  O    -19.583520    9.611040   -0.163020
  C    -18.214650   10.446050    2.696440
  C    -18.026440   10.966400    3.922920
  C    -18.984560   11.793890    4.631820
  C    -18.465950   12.864100    5.379850
  C    -19.334430   13.754850    5.962320
  C    -20.718160   13.605540    5.820530
  C    -21.376850   14.725670    6.534880
  O    -22.548460   14.976080    6.656850
  N    -20.340030   15.484410    7.060630
  C    -19.083760   14.971210    6.773440
  O    -18.039040   15.456520    7.125700
  C    -20.552140   16.669130    7.864840
  C    -20.677500   16.318880    9.343110
  C    -21.245960   12.543010    5.124150
  C    -20.379280   11.607870    4.546170
  C    -20.996080   10.419100    3.947630
  C    -20.631760    9.174010    4.214720
  H     -0.702300    3.574230   -1.423520
  H      1.447120    2.377460   -1.144540
  H      1.468180   -2.143590    3.071600
  H      2.939300   -1.604260    2.206800
  H      0.807110   -3.493410    1.081100
  H      2.402820   -3.982820    1.662770
  H      2.264990   -2.959540    0.228490
  H     -2.604050    0.892620    1.351430
  H     -2.949140    3.853980   -1.053090
  H     -4.274790    2.150530    1.119480
  H     -8.973950    5.968850   -2.946520
  H    -10.741990    6.061090   -3.137580
  H     -9.193920    3.548580   -2.292230
  H     -9.888020    3.843580   -3.890030
  H    -10.946200    3.663820   -2.487430
  H    -10.482090    6.387710    4.832350
  H    -12.188920    6.805420    4.556740
  H     -9.784500    8.692620    4.303820
  H    -10.973250    8.708530    5.608900
  H    -11.451930    9.165050    3.969440
  H    -13.324560    7.996010    2.978610
  H    -13.756220    7.380120   -0.004220
  H    -18.602100    7.522540   -1.726690
  H    -17.872470    8.995190   -2.330420
  H    -19.146280   10.591610    2.166450
  H    -17.057030   10.852480    4.394980
  H    -17.398780   13.000460    5.469180
  H    -21.468240   17.145910    7.508100
  H    -19.698970   17.331700    7.701250
  H    -21.519620   15.648900    9.500150
  H    -20.837570   17.223510    9.922620
  H    -19.768650   15.834780    9.693000
  H    -22.314960   12.417000    5.042760
  H    -21.863040   10.610010    3.328580
  H    -19.799330    8.952090    4.862210
  H    -21.155880    8.331670    3.798670

 Total Charge           Charge          ....    0
 Multiplicity           Mult            ....    1
 Number of Electrons    NEL             ....  532
 Basis Dimension        Dim             .... 1238

ORBITAL ENERGIES
----------------

  NO   OCC          E(Eh)            E(eV)
   0   2.0000     -89.049296     -2423.1545
   1   2.0000     -88.985816     -2421.4272
   2   2.0000     -19.219433      -522.9874
   3   2.0000     -19.216840      -522.9168
   4   2.0000     -19.211661      -522.7759
   5   2.0000     -19.211645      -522.7754
   6   2.0000     -19.210300      -522.7388
   7   2.0000     -19.209881      -522.7274
   8   2.0000     -19.196237      -522.3562
   9   2.0000     -19.194209      -522.3010
  10   2.0000     -14.470360      -393.7585
  11   2.0000     -14.469462      -393.7341
  12   2.0000     -14.459267      -393.4566
  13   2.0000     -14.457099      -393.3977
  14   2.0000     -14.455245      -393.3472
  15   2.0000     -14.452964      -393.2851
  16   2.0000     -14.452612      -393.2756
  17   2.0000     -14.451296      -393.2397
  18   2.0000     -14.436585      -392.8395
  19   2.0000     -14.435800      -392.8181
  20   2.0000     -10.391614      -282.7702
  21   2.0000     -10.391421      -282.7649
  22   2.0000     -10.389849      -282.7222
  23   2.0000     -10.389692      -282.7179
  24   2.0000     -10.389089      -282.7015
  25   2.0000     -10.388518      -282.6859
  26   2.0000     -10.379903      -282.4515
  27   2.0000     -10.376630      -282.3625
  28   2.0000     -10.373276      -282.2712
  29   2.0000     -10.371059      -282.2108
  30   2.0000     -10.359391      -281.8934
  31   2.0000     -10.355899      -281.7983
  32   2.0000     -10.348371      -281.5935
  33   2.0000     -10.347290      -281.5641
  34   2.0000     -10.346073      -281.5310
  35   2.0000     -10.345382      -281.5122
  36   2.0000     -10.338237      -281.3177
  37   2.0000     -10.334827      -281.2250
  38   2.0000     -10.329997      -281.0935
  39   2.0000     -10.328652      -281.0569
  40   2.0000     -10.326260      -280.9918
  41   2.0000     -10.324861      -280.9537
  42   2.0000     -10.315840      -280.7083
  43   2.0000     -10.308328      -280.5039
  44   2.0000     -10.306513      -280.4545
  45   2.0000     -10.306479      -280.4536
  46   2.0000     -10.305398      -280.4241
  47   2.0000     -10.304179      -280.3910
  48   2.0000     -10.303761      -280.3796
  49   2.0000     -10.303280      -280.3665
  50   2.0000     -10.302270      -280.3390
  51   2.0000     -10.301208      -280.3101
  52   2.0000     -10.298672      -280.2411
  53   2.0000     -10.298414      -280.2341
  54   2.0000     -10.298394      -280.2335
  55   2.0000     -10.297790      -280.2171
  56   2.0000     -10.297617      -280.2124
  57   2.0000     -10.297046      -280.1969
  58   2.0000     -10.296755      -280.1890
  59   2.0000     -10.295886      -280.1653
  60   2.0000     -10.295505      -280.1549
  61   2.0000     -10.295332      -280.1502
  62   2.0000     -10.295118      -280.1444
  63   2.0000     -10.294520      -280.1281
  64   2.0000     -10.293695      -280.1057
  65   2.0000     -10.292937      -280.0851
  66   2.0000     -10.285162      -279.8735
  67   2.0000     -10.284180      -279.8468
  68   2.0000     -10.276397      -279.6350
  69   2.0000     -10.271158      -279.4924
  70   2.0000     -10.270588      -279.4769
  71   2.0000     -10.267171      -279.3839
  72   2.0000     -10.263975      -279.2970
  73   2.0000     -10.258862      -279.1578
  74   2.0000     -10.257667      -279.1253
  75   2.0000      -8.140400      -221.5116
  76   2.0000      -8.080730      -219.8878
  77   2.0000      -6.111297      -166.2969
  78   2.0000      -6.103607      -166.0876
  79   2.0000      -6.103473      -166.0839
  80   2.0000      -6.049813      -164.6238
  81   2.0000      -6.045849      -164.5159
  82   2.0000      -6.043166      -164.4429
  83   2.0000      -1.157591       -31.4997
  84   2.0000      -1.156032       -31.4572
  85   2.0000      -1.146351       -31.1938
  86   2.0000      -1.138047       -30.9678
  87   2.0000      -1.137050       -30.9407
  88   2.0000      -1.134119       -30.8609
  89   2.0000      -1.132485       -30.8165
  90   2.0000      -1.131986       -30.8029
  91   2.0000      -1.131690       -30.7949
  92   2.0000      -1.127995       -30.6943
  93   2.0000      -1.069991       -29.1159
  94   2.0000      -1.062373       -28.9086
  95   2.0000      -1.052996       -28.6535
  96   2.0000      -1.048442       -28.5296
  97   2.0000      -1.046872       -28.4868
  98   2.0000      -1.020216       -27.7615
  99   2.0000      -1.015953       -27.6455
 100   2.0000      -1.010365       -27.4934
 101   2.0000      -0.999094       -27.1867
 102   2.0000      -0.985801       -26.8250
 103   2.0000      -0.984705       -26.7952
 104   2.0000      -0.977788       -26.6070
 105   2.0000      -0.936824       -25.4923
 106   2.0000      -0.934321       -25.4242
 107   2.0000      -0.930532       -25.3210
 108   2.0000      -0.923605       -25.1326
 109   2.0000      -0.916354       -24.9353
 110   2.0000      -0.913649       -24.8617
 111   2.0000      -0.902628       -24.5618
 112   2.0000      -0.896253       -24.3883
 113   2.0000      -0.881292       -23.9812
 114   2.0000      -0.875613       -23.8266
 115   2.0000      -0.872287       -23.7361
 116   2.0000      -0.859225       -23.3807
 117   2.0000      -0.854037       -23.2395
 118   2.0000      -0.841384       -22.8952
 119   2.0000      -0.840046       -22.8588
 120   2.0000      -0.828679       -22.5495
 121   2.0000      -0.827198       -22.5092
 122   2.0000      -0.824799       -22.4439
 123   2.0000      -0.823355       -22.4046
 124   2.0000      -0.818846       -22.2819
 125   2.0000      -0.797459       -21.7000
 126   2.0000      -0.788541       -21.4573
 127   2.0000      -0.765116       -20.8199
 128   2.0000      -0.764750       -20.8099
 129   2.0000      -0.758761       -20.6469
 130   2.0000      -0.755583       -20.5605
 131   2.0000      -0.753936       -20.5156
 132   2.0000      -0.744335       -20.2544
 133   2.0000      -0.732095       -19.9213
 134   2.0000      -0.725761       -19.7490
 135   2.0000      -0.720183       -19.5972
 136   2.0000      -0.712341       -19.3838
 137   2.0000      -0.709605       -19.3093
 138   2.0000      -0.707605       -19.2549
 139   2.0000      -0.706284       -19.2190
 140   2.0000      -0.701278       -19.0827
 141   2.0000      -0.698336       -19.0027
 142   2.0000      -0.692941       -18.8559
 143   2.0000      -0.691397       -18.8139
 144   2.0000      -0.687789       -18.7157
 145   2.0000      -0.669922       -18.2295
 146   2.0000      -0.659620       -17.9492
 147   2.0000      -0.658895       -17.9295
 148   2.0000      -0.655147       -17.8275
 149   2.0000      -0.650171       -17.6920
 150   2.0000      -0.643691       -17.5157
 151   2.0000      -0.638403       -17.3718
 152   2.0000      -0.630203       -17.1487
 153   2.0000      -0.629361       -17.1258
 154   2.0000      -0.617946       -16.8152
 155   2.0000      -0.612004       -16.6535
 156   2.0000      -0.604628       -16.4528
 157   2.0000      -0.602470       -16.3941
 158   2.0000      -0.596121       -16.2213
 159   2.0000      -0.592498       -16.1227
 160   2.0000      -0.589319       -16.0362
 161   2.0000      -0.586069       -15.9478
 162   2.0000      -0.583487       -15.8775
 163   2.0000      -0.580171       -15.7873
 164   2.0000      -0.575665       -15.6646
 165   2.0000      -0.572146       -15.5689
 166   2.0000      -0.569745       -15.5035
 167   2.0000      -0.569471       -15.4961
 168   2.0000      -0.566996       -15.4287
 169   2.0000      -0.564894       -15.3715
 170   2.0000      -0.561670       -15.2838
 171   2.0000      -0.559559       -15.2264
 172   2.0000      -0.555982       -15.1290
 173   2.0000      -0.547967       -14.9109
 174   2.0000      -0.546342       -14.8667
 175   2.0000      -0.543377       -14.7860
 176   2.0000      -0.538953       -14.6657
 177   2.0000      -0.538470       -14.6525
 178   2.0000      -0.537954       -14.6385
 179   2.0000      -0.537081       -14.6147
 180   2.0000      -0.535320       -14.5668
 181   2.0000      -0.533450       -14.5159
 182   2.0000      -0.532665       -14.4945
 183   2.0000      -0.527252       -14.3473
 184   2.0000      -0.525592       -14.3021
 185   2.0000      -0.523153       -14.2357
 186   2.0000      -0.520994       -14.1770
 187   2.0000      -0.519306       -14.1310
 188   2.0000      -0.514713       -14.0060
 189   2.0000      -0.514085       -13.9890
 190   2.0000      -0.512124       -13.9356
 191   2.0000      -0.511112       -13.9081
 192   2.0000      -0.509045       -13.8518
 193   2.0000      -0.507684       -13.8148
 194   2.0000      -0.506162       -13.7734
 195   2.0000      -0.505455       -13.7541
 196   2.0000      -0.502475       -13.6730
 197   2.0000      -0.493661       -13.4332
 198   2.0000      -0.492399       -13.3989
 199   2.0000      -0.489422       -13.3178
 200   2.0000      -0.487633       -13.2692
 201   2.0000      -0.486256       -13.2317
 202   2.0000      -0.484174       -13.1750
 203   2.0000      -0.483524       -13.1574
 204   2.0000      -0.481896       -13.1131
 205   2.0000      -0.480686       -13.0801
 206   2.0000      -0.479695       -13.0532
 207   2.0000      -0.478879       -13.0310
 208   2.0000      -0.477020       -12.9804
 209   2.0000      -0.475910       -12.9502
 210   2.0000      -0.471922       -12.8417
 211   2.0000      -0.470721       -12.8090
 212   2.0000      -0.468138       -12.7387
 213   2.0000      -0.466574       -12.6961
 214   2.0000      -0.461983       -12.5712
 215   2.0000      -0.461409       -12.5556
 216   2.0000      -0.460451       -12.5295
 217   2.0000      -0.459576       -12.5057
 218   2.0000      -0.459229       -12.4963
 219   2.0000      -0.456633       -12.4256
 220   2.0000      -0.454322       -12.3627
 221   2.0000      -0.451603       -12.2887
 222   2.0000      -0.450353       -12.2547
 223   2.0000      -0.450134       -12.2488
 224   2.0000      -0.448642       -12.2082
 225   2.0000      -0.447493       -12.1769
 226   2.0000      -0.444421       -12.0933
 227   2.0000      -0.441535       -12.0148
 228   2.0000      -0.440064       -11.9747
 229   2.0000      -0.437887       -11.9155
 230   2.0000      -0.436390       -11.8748
 231   2.0000      -0.434789       -11.8312
 232   2.0000      -0.431987       -11.7550
 233   2.0000      -0.426204       -11.5976
 234   2.0000      -0.425964       -11.5911
 235   2.0000      -0.424799       -11.5594
 236   2.0000      -0.421562       -11.4713
 237   2.0000      -0.417883       -11.3712
 238   2.0000      -0.412459       -11.2236
 239   2.0000      -0.407232       -11.0814
 240   2.0000      -0.402270       -10.9463
 241   2.0000      -0.392162       -10.6713
 242   2.0000      -0.384170       -10.4538
 243   2.0000      -0.377629       -10.2758
 244   2.0000      -0.373817       -10.1721
 245   2.0000      -0.365318        -9.9408
 246   2.0000      -0.365214        -9.9380
 247   2.0000      -0.361786        -9.8447
 248   2.0000      -0.354100        -9.6356
 249   2.0000      -0.350783        -9.5453
 250   2.0000      -0.350225        -9.5301
 251   2.0000      -0.349429        -9.5085
 252   2.0000      -0.349299        -9.5049
 253   2.0000      -0.344747        -9.3810
 254   2.0000      -0.343184        -9.3385
 255   2.0000      -0.342481        -9.3194
 256   2.0000      -0.341739        -9.2992
 257   2.0000      -0.339692        -9.2435
 258   2.0000      -0.336092        -9.1455
 259   2.0000      -0.332648        -9.0518
 260   2.0000      -0.324992        -8.8435
 261   2.0000      -0.320177        -8.7125
 262   2.0000      -0.318650        -8.6709
 263   2.0000      -0.288438        -7.8488
 264   2.0000      -0.280939        -7.6447
 265   2.0000      -0.240587        -6.5467
 266   0.0000      -0.131337        -3.5739
 267   0.0000      -0.095237        -2.5915
 268   0.0000      -0.066188        -1.8011
 269   0.0000      -0.062392        -1.6978
 270   0.0000      -0.049946        -1.3591

MULLIKEN ATOMIC CHARGES
-----------------------
   0 C :   -0.015697
   1 C :   -0.018633
   2 C :   -0.004445
   3 C :    0.007229
   4 C :    0.191085
   5 O :   -0.158971
   6 N :   -0.302150
   7 C :    0.186854
   8 O :   -0.156067
   9 C :    0.134463
  10 C :   -0.009999
  11 C :   -0.071432
  12 C :    0.122442
  13 C :    0.014619
  14 C :   -0.070761
  15 C :    0.116864
  16 C :   -0.061060
  17 C :   -0.023223
  18 N :    0.041309
  19 C :   -0.123733
  20 C :   -0.120437
  21 N :    0.041242
  22 C :   -0.219993
  23 N :    0.239106
  24 C :   -0.213671
  25 N :    0.248126
  26 C :    0.046360
  27 C :    0.003674
  28 C :    0.000098
  29 N :   -0.284088
  30 S :    0.570657
  31 N :   -0.241527
  32 C :    0.026901
  33 N :   -0.238198
  34 C :    0.112854
  35 C :   -0.007405
  36 C :    0.164270
  37 O :   -0.183239
  38 C :   -0.096396
  39 C :   -0.005606
  40 C :    0.129856
  41 O :   -0.198885
  42 N :   -0.265023
  43 C :    0.099493
  44 C :    0.004979
  45 C :    0.159732
  46 C :   -0.038338
  47 C :    0.020492
  48 C :   -0.122272
  49 S :    0.129739
  50 C :   -0.120392
  51 C :    0.029667
  52 C :    0.049393
  53 C :    0.020236
  54 O :   -0.124800
  55 C :    0.047039
  56 C :    0.027778
  57 O :   -0.149923
  58 C :    0.035781
  59 C :   -0.039553
  60 C :    0.087569
  61 C :   -0.087021
  62 C :    0.015348
  63 C :    0.013728
  64 C :    0.187463
  65 O :   -0.155019
  66 N :   -0.302999
  67 C :    0.188303
  68 O :   -0.157348
  69 C :    0.133612
  70 C :   -0.008214
  71 C :   -0.073572
  72 C :    0.050363
  73 C :   -0.069947
  74 C :    0.020895
  75 H :    0.000336
  76 H :    0.001295
  77 H :    0.030209
  78 H :    0.031728
  79 H :    0.026435
  80 H :    0.022573
  81 H :    0.027305
  82 H :   -0.004577
  83 H :    0.005310
  84 H :    0.004648
  85 H :    0.030344
  86 H :    0.046798
  87 H :    0.014375
  88 H :    0.025356
  89 H :    0.026606
  90 H :    0.041395
  91 H :    0.021957
  92 H :    0.031276
  93 H :    0.024852
  94 H :    0.014388
  95 H :   -0.018793
  96 H :    0.043671
  97 H :    0.063590
  98 H :    0.074567
  99 H :    0.028521
 100 H :    0.001994
 101 H :   -0.008877
 102 H :    0.031251
 103 H :    0.031762
 104 H :    0.026936
 105 H :    0.022735
 106 H :    0.025683
 107 H :   -0.005810
 108 H :    0.023031
 109 H :    0.024140
 110 H :    0.033411
Sum of atomic charges:   -0.0000000

LOEWDIN ATOMIC CHARGES
----------------------
   0 C :    0.006077
   1 C :    0.012292
   2 C :   -0.047564
   3 C :   -0.048879
   4 C :    0.087926
   5 O :   -0.159250
   6 N :   -0.036048
   7 C :    0.087587
   8 O :   -0.157047
   9 C :    0.044533
  10 C :   -0.059768
  11 C :    0.023923
  12 C :   -0.015958
  13 C :    0.020852
  14 C :   -0.021946
  15 C :   -0.003599
  16 C :   -0.009300
  17 C :    0.000219
  18 N :    0.002879
  19 C :   -0.026504
  20 C :   -0.029391
  21 N :    0.009398
  22 C :   -0.038914
  23 N :   -0.004935
  24 C :   -0.038417
  25 N :    0.000854
  26 C :   -0.040012
  27 C :   -0.032675
  28 C :   -0.040646
  29 N :   -0.287087
  30 S :    0.707492
  31 N :   -0.261562
  32 C :    0.077761
  33 N :    0.012890
  34 C :    0.032326
  35 C :   -0.062219
  36 C :    0.081669
  37 O :   -0.177237
  38 C :   -0.119861
  39 C :   -0.098838
  40 C :    0.082408
  41 O :   -0.199218
  42 N :   -0.003312
  43 C :    0.035757
  44 C :   -0.060961
  45 C :    0.081485
  46 C :   -0.049755
  47 C :    0.021408
  48 C :   -0.136944
  49 S :    0.451355
  50 C :   -0.122928
  51 C :   -0.098147
  52 C :   -0.079402
  53 C :    0.075313
  54 O :   -0.116337
  55 C :   -0.070468
  56 C :    0.078023
  57 O :   -0.138489
  58 C :   -0.022982
  59 C :   -0.007082
  60 C :   -0.012409
  61 C :    0.018939
  62 C :   -0.052885
  63 C :   -0.047741
  64 C :    0.087955
  65 O :   -0.156865
  66 N :   -0.036501
  67 C :    0.087925
  68 O :   -0.159232
  69 C :    0.044532
  70 C :   -0.059695
  71 C :    0.018952
  72 C :   -0.000085
  73 C :   -0.026682
  74 C :   -0.018410
  75 H :    0.036043
  76 H :    0.041919
  77 H :    0.031903
  78 H :    0.032272
  79 H :    0.027863
  80 H :    0.030239
  81 H :    0.028261
  82 H :    0.038723
  83 H :    0.028735
  84 H :    0.034163
  85 H :    0.019297
  86 H :    0.037618
  87 H :    0.018736
  88 H :    0.032029
  89 H :    0.030227
  90 H :    0.037273
  91 H :    0.022557
  92 H :    0.033362
  93 H :    0.031086
  94 H :    0.021199
  95 H :    0.021627
  96 H :    0.051346
  97 H :    0.060267
  98 H :    0.065820
  99 H :    0.044409
 100 H :    0.024818
 101 H :    0.038552
 102 H :    0.032284
 103 H :    0.032243
 104 H :    0.028122
 105 H :    0.030363
 106 H :    0.027739
 107 H :    0.040788
 108 H :    0.036440
 109 H :    0.023732
 110 H :    0.029401

  Mayer bond orders larger than 0.100000
B(  0-C ,  1-C ) :   1.3446 B(  0-C , 12-C ) :   1.3437 B(  0-C , 75-H ) :   0.9999
B(  1-C ,  2-C ) :   1.3984 B(  1-C , 76-H ) :   1.0067 B(  2-C ,  3-C ) :   1.3524
B(  2-C ,  7-C ) :   0.8861 B(  3-C ,  4-C ) :   0.8732 B(  3-C , 11-C ) :   1.4253
B(  4-C ,  5-O ) :   2.2225 B(  4-C ,  6-N ) :   1.0699 B(  6-N ,  7-C ) :   1.0591
B(  6-N ,  9-C ) :   0.9189 B(  7-C ,  8-O ) :   2.2278 B(  9-C , 10-C ) :   1.1242
B(  9-C , 77-H ) :   0.9424 B(  9-C , 78-H ) :   0.9426 B( 10-C , 79-H ) :   0.9695
B( 10-C , 80-H ) :   0.9703 B( 10-C , 81-H ) :   0.9698 B( 11-C , 12-C ) :   1.2795
B( 11-C , 82-H ) :   1.0043 B( 12-C , 13-C ) :   1.0545 B( 13-C , 14-C ) :   1.6153
B( 13-C , 83-H ) :   0.9714 B( 14-C , 15-C ) :   1.1920 B( 14-C , 84-H ) :   0.9597
B( 15-C , 16-C ) :   1.2136 B( 15-C , 26-C ) :   0.1395 B( 15-C , 28-C ) :   1.1880
B( 16-C , 17-C ) :   1.0952 B( 16-C , 21-N ) :   1.4323 B( 17-C , 18-N ) :   1.4482
B( 17-C , 26-C ) :   1.2955 B( 18-N , 19-C ) :   1.7001 B( 19-C , 20-C ) :   1.2072
B( 19-C , 24-C ) :   1.1567 B( 20-C , 21-N ) :   1.7323 B( 20-C , 22-C ) :   1.1448
B( 22-C , 23-N ) :   3.0498 B( 24-C , 25-N ) :   3.0465 B( 26-C , 27-C ) :   1.2778
B( 26-C , 32-C ) :   0.9883 B( 27-C , 28-C ) :   1.0970 B( 27-C , 31-N ) :   1.5132
B( 28-C , 29-N ) :   1.5054 B( 29-N , 30-S ) :   1.2993 B( 29-N , 31-N ) :   0.1528
B( 30-S , 31-N ) :   1.3054 B( 32-C , 33-N ) :   1.2445 B( 32-C , 39-C ) :   1.4267
B( 33-N , 34-C ) :   0.9454 B( 33-N , 36-C ) :   1.0276 B( 34-C , 35-C ) :   1.1163
B( 34-C , 85-H ) :   0.9343 B( 34-C , 86-H ) :   0.9258 B( 35-C , 87-H ) :   0.9661
B( 35-C , 88-H ) :   0.9675 B( 35-C , 89-H ) :   0.9656 B( 36-C , 37-O ) :   2.0707
B( 36-C , 38-C ) :   0.9872 B( 38-C , 39-C ) :   1.2406 B( 38-C , 45-C ) :   1.3421
B( 39-C , 40-C ) :   0.9534 B( 40-C , 41-O ) :   2.1370 B( 40-C , 42-N ) :   1.0398
B( 42-N , 43-C ) :   0.9485 B( 42-N , 45-C ) :   1.1599 B( 43-C , 44-C ) :   1.1212
B( 43-C , 90-H ) :   0.9271 B( 43-C , 91-H ) :   0.9500 B( 44-C , 92-H ) :   0.9631
B( 44-C , 93-H ) :   0.9679 B( 44-C , 94-H ) :   0.9685 B( 45-C , 46-C ) :   1.1647
B( 46-C , 47-C ) :   1.5576 B( 46-C , 95-H ) :   0.9591 B( 47-C , 48-C ) :   1.1909
B( 47-C , 96-H ) :   0.9521 B( 48-C , 49-S ) :   1.1023 B( 48-C , 52-C ) :   1.4664
B( 49-S , 50-C ) :   1.1284 B( 50-C , 51-C ) :   1.4647 B( 50-C , 58-C ) :   1.1905
B( 51-C , 52-C ) :   1.2031 B( 51-C , 56-C ) :   0.9422 B( 52-C , 53-C ) :   0.9288
B( 53-C , 54-O ) :   2.2454 B( 53-C , 55-C ) :   0.9910 B( 55-C , 56-C ) :   0.9955
B( 55-C , 97-H ) :   0.8993 B( 55-C , 98-H ) :   0.8960 B( 56-C , 57-O ) :   2.2113
B( 58-C , 59-C ) :   1.6906 B( 58-C , 99-H ) :   0.9577 B( 59-C , 60-C ) :   1.0468
B( 59-C ,100-H ) :   0.9635 B( 60-C , 61-C ) :   1.2937 B( 60-C , 72-C ) :   1.3708
B( 61-C , 62-C ) :   1.3981 B( 61-C ,101-H ) :   1.0129 B( 62-C , 63-C ) :   1.3569
B( 62-C , 67-C ) :   0.8762 B( 63-C , 64-C ) :   0.8777 B( 63-C , 71-C ) :   1.3898
B( 64-C , 65-O ) :   2.2311 B( 64-C , 66-N ) :   1.0624 B( 66-N , 67-C ) :   1.0649
B( 66-N , 69-C ) :   0.9175 B( 67-C , 68-O ) :   2.2300 B( 69-C , 70-C ) :   1.1243
B( 69-C ,102-H ) :   0.9425 B( 69-C ,103-H ) :   0.9428 B( 70-C ,104-H ) :   0.9696
B( 70-C ,105-H ) :   0.9700 B( 70-C ,106-H ) :   0.9696 B( 71-C , 72-C ) :   1.3286
B( 71-C ,107-H ) :   1.0120 B( 72-C , 73-C ) :   1.0075 B( 73-C , 74-C ) :   2.0019
B( 73-C ,108-H ) :   0.9548 B( 74-C ,109-H ) :   0.9563 B( 74-C ,110-H ) :   0.9539

-----------------------------------------------------------------------------
         ABSORPTION SPECTRUM VIA TRANSITION ELECTRIC DIPOLE MOMENTS
-----------------------------------------------------------------------------
State   Energy  Wavelength   fosc         T2         TX        TY        TZ
        (cm-1)    (nm)                  (au**2)     (au)      (au)      (au)
-----------------------------------------------------------------------------
   0    8045.6   1242.9   0.398921739  16.32316   3.54495  -1.72165  -0.89020
   1   16495.2    606.2   0.572297436  11.42193  -2.77710   1.46370   1.25189
   2   17129.2    583.8   0.114252196   2.19585  -1.19190   0.60809  -0.63674
   3   21325.7    468.9   0.235305050   3.63248   1.62770  -0.91482  -0.38234
   4   22416.7    446.1   0.055364176   0.81308  -0.78534   0.43306   0.09370
   5   23110.5    432.7   0.062637077   0.89227  -0.54277   0.68747  -0.35364
   6   24666.2    405.4   0.053368939   0.71230   0.60449  -0.25270   0.53201
   7   24898.0    401.6   0.005068858   0.06702  -0.12564   0.22633   0.00367
   8   25483.1    392.4   0.164141642   2.12051   1.04993  -0.85726  -0.53224
   9   26150.7    382.4   0.005541310   0.06976   0.07038   0.23752   0.09160
  10   26313.4    380.0   0.065504098   0.81953  -0.62956   0.37284   0.53309
  11   27144.4    368.4   0.000681072   0.00826  -0.06882   0.05639   0.01854
  12   27565.7    362.8   0.126407420   1.50966  -1.04988   0.48122   0.41933
  13   28201.6    354.6   0.053258990   0.62172   0.55372  -0.55247   0.09948
  14   28491.0    351.0   0.013340283   0.15415   0.02881  -0.38805   0.05228
  15   28903.5    346.0   0.066608517   0.75867   0.71288  -0.46049  -0.19602
  16   29179.9    342.7   0.014571276   0.16440  -0.17713   0.26109   0.25466
  17   29746.3    336.2   0.189368318   2.09580   0.92538   0.40789  -1.03591
  18   30224.7    330.9   0.026009335   0.28330   0.23699   0.39031  -0.27349
  19   30901.0    323.6   0.045777634   0.48770   0.41066  -0.28538   0.48746
  20   31107.5    321.5   0.139743998   1.47892  -0.91635   0.40277  -0.69065
  21   31280.1    319.7   0.009956601   0.10479  -0.07848  -0.02617   0.31296
  22   31368.9    318.8   0.101882733   1.06925  -0.70722   0.29411  -0.69468
  23   31602.6    316.4   0.038327928   0.39927  -0.60371   0.13837   0.12512
  24   31864.1    313.8   0.101298882   1.04659   0.92639  -0.28542   0.32701
  25   32392.1    308.7   0.041478926   0.42156   0.00428   0.04343   0.64781
  26   32836.1    304.5   0.002471795   0.02478  -0.01439   0.12849  -0.08981
  27   33143.7    301.7   0.435930449   4.33004   0.17688   1.47524  -1.45686
  28   33713.1    296.6   0.002851468   0.02784   0.04319  -0.07381  -0.14329
  29   34114.5    293.1   0.076670511   0.73989  -0.02126  -0.64114  -0.57304
  30   34346.4    291.2   0.057716715   0.55322   0.34350  -0.36302   0.55085
  31   34812.6    287.3   0.464086111   4.38872   1.20304   0.96915  -1.41498
  32   35131.9    284.6   0.065386318   0.61272   0.31817  -0.53605   0.47343
  33   35534.3    281.4   0.000167561   0.00155  -0.01915  -0.00370  -0.03423
  34   35765.4    279.6   0.003933183   0.03620   0.04943  -0.17541   0.05468
  35   35959.5    278.1   0.028081379   0.25709   0.39964  -0.31034  -0.03266
  36   36438.0    274.4   0.213548591   1.92938  -0.61248  -0.17307  -1.23462
  37   36800.2    271.7   0.136482906   1.22097   1.06520  -0.29316  -0.01951
  38   37303.9    268.1   0.041810650   0.36898   0.05156   0.29362   0.52926
  39   37364.4    267.6   0.147606754   1.30054   0.40537   0.63500   0.85615
  40   37382.0    267.5   0.006764474   0.05957   0.23720   0.04927  -0.02967
  41   37911.3    263.8   0.011728208   0.10184   0.12491   0.23739   0.17288
  42   37987.1    263.2   0.006211257   0.05383  -0.11873  -0.18724  -0.06836
  43   38293.6    261.1   0.021092123   0.18133  -0.20523  -0.06094   0.36810
  44   38537.1    259.5   0.009175757   0.07839  -0.04200   0.26031  -0.09412
  45   39006.3    256.4   0.005282516   0.04458   0.08365   0.19228   0.02477
  46   39206.8    255.1   0.001493661   0.01254  -0.00264  -0.10901   0.02554
  47   39278.6    254.6   0.101352094   0.84948  -0.07846   0.76013   0.51530
  48   39610.4    252.5   0.112171564   0.93228   0.42100   0.60182   0.62678
  49   39796.4    251.3   0.019482091   0.16116  -0.18855  -0.06120  -0.34910
  50   40171.9    248.9   0.028581144   0.23422   0.41078   0.11007   0.23101

FINAL SINGLE POINT ENERGY     -4058.965739561635

DIPOLE MOMENT
-------------
                                X             Y             Z
Electronic contribution:     23.61411      -8.56226     -29.77467
Nuclear contribution   :    -25.00608       7.28950      31.92636
                        -----------------------------------------
Total Dipole Moment    :     -1.39197      -1.27276       2.15169
                        -----------------------------------------
Magnitude (a.u.)       :      2.86134
Magnitude (Debye)      :      7.27295

Rotational constants in cm-1:     0.001863     0.000210     0.000202
Rotational constants in MHz :    55.844982     6.292771     6.048603

                             ****ORCA TERMINATED NORMALLY****
TOTAL RUN TIME: 0 days 0 hours 10 minutes 15 seconds 779 msec
