                         Program Version 4.2.0 -  RELEASE  -
|  1> # ORCA input file
|  2> # SCF done       -186.151164541872          0.000983412124
|  3> ! CAM-B3LYP def2-SVP def2/J RIJCOSX Grid4 TightSCF
|  4> %maxcore 5000
|  5> %tddft
|  6>     Mode sTDDFT
|  7>     Ethresh 5.0
|  8>     maxcore 5000
|  9> end
| 10>
| 11> %pal
| 12>   nprocs 6
| 13>   end
| 14> * xyz 0 1
| 15>    C       20.29560        -0.01712        -0.86980
| 16>    N       20.60508        -0.39677         0.32517
| 17>    C       19.45379        -0.82086         0.90654
| 18>    C       18.39717        -0.67800         0.03880
| 19>    N       18.94969        -0.17093        -1.13358
| 20>    C       18.25120         0.41929        -2.20077
| 21>    O       17.23029         1.02978        -2.05422
| 22>    N       18.87267         0.26356        -3.42773
| 23>    C       19.84598        -0.63936        -3.82682
| 24>    C       20.06496        -0.39333        -5.14196
| 25>    N       19.26881         0.63501        -5.57329
| 26>    C       18.56642         0.99823        -4.55904
| 27>    C       17.02318        -1.04631         0.18164
| 28>    C       16.12973        -1.41370        -0.79965
| 29>    C       14.87607        -1.72672        -0.26823
| 30>    C       14.82401        -1.59890         1.12944
| 31>    S       16.32019        -1.10037         1.78652
| 32>    C       13.51548        -1.92499         1.57046
| 33>    C       12.74307        -2.25930         0.43929
| 34>    C       13.57273        -2.14831        -0.75016
| 35>    C       13.21123        -2.38484        -2.04420
| 36>    C       14.13001        -2.25102        -3.10655
| 37>    N       14.88791        -2.14733        -3.96134
| 38>    C       11.90723        -2.78609        -2.40346
| 39>    N       10.85069        -3.11319        -2.70565
| 40>    C       11.43323        -2.58782         0.75945
| 41>    C       11.19357        -2.50384         2.12583
| 42>    S       12.62142        -2.01367         3.02323
| 43>    C        9.96159        -2.75098         2.78804
| 44>    C        9.82324        -2.59662         4.18422
| 45>    C        8.57651        -2.80171         4.86365
| 46>    N        8.51781        -2.62697         6.19883
| 47>    C        9.58148        -2.28054         6.84866
| 48>    C       10.81486        -2.07835         6.17668
| 49>    N       10.90912        -2.23461         4.89592
| 50>    F       11.90887        -1.72304         6.84372
| 51>    F        9.48356        -2.12031         8.16500
| 52>    C        7.39579        -3.17716         4.18743
| 53>    C        7.53202        -3.36112         2.79009
| 54>    C        8.78769        -3.15137         2.10496
| 55>    N        8.67164        -3.38030         0.79602
| 56>    S        7.16611        -3.80953         0.45677
| 57>    N        6.57103        -3.73022         1.94188
| 58>    C        6.16114        -3.33940         4.87056
| 59>    C        4.94174        -3.69737         4.30791
| 60>    C        3.92476        -3.73786         5.25134
| 61>    C        4.36854        -3.40937         6.54875
| 62>    S        6.03945        -3.05803         6.59975
| 63>    C        3.25307        -3.46697         7.42343
| 64>    C        2.11448        -3.82473         6.68289
| 65>    C        2.49681        -4.01143         5.29453
| 66>    C        1.68448        -4.36571         4.25736
| 67>    C        2.16619        -4.52313         2.94057
| 68>    N        2.54693        -4.65265         1.86677
| 69>    C        0.30312        -4.58935         4.43795
| 70>    N       -0.82012        -4.76383         4.59101
| 71>    C        0.95567        -3.89505         7.46004
| 72>    C        1.20780        -3.60193         8.78207
| 73>    S        2.89426        -3.21990         9.07532
| 74>    C        0.28799        -3.53007         9.87329
| 75>    C        0.35061        -2.80023        11.03768
| 76>    N       -0.78419        -2.96584        11.76305
| 77>    C       -1.54625        -3.75302        11.07905
| 78>    N       -0.96297        -4.13912         9.88919
| 79>    C       -1.39433        -5.20077         9.07584
| 80>    O       -0.66082        -6.05980         8.67646
| 81>    N       -2.75324        -5.16991         8.80913
| 82>    C       -3.47091        -6.22460         8.26788
| 83>    C       -4.73279        -5.76644         8.08718
| 84>    N       -4.81946        -4.45429         8.47416
| 85>    C       -3.65021        -4.11953         8.89411
| 86>    H       20.97890         0.40954        -1.57631
| 87>    H       19.44445        -1.21199         1.90371
| 88>    H       20.25380        -1.37512        -3.16586
| 89>    H       20.73911        -0.88167        -5.81585
| 90>    H       17.83376         1.77908        -4.54096
| 91>    H       16.37518        -1.46785        -1.84415
| 92>    H       10.66689        -2.87405         0.06320
| 93>    H        4.83798        -3.90697         3.25945
| 94>    H       -0.01759        -4.13063         7.07163
| 95>    H        1.14288        -2.16552        11.37972
| 96>    H       -2.50565        -4.11034        11.39519
| 97>    H       -3.00511        -7.16942         8.08357
| 98>    H       -5.59043        -6.27821         7.70142
| 99>    H       -3.37741        -3.14298         9.24027
|100> *
|101>
|102>                          ****END OF INPUT****

CARTESIAN COORDINATES (ANGSTROEM)
---------------------------------
  C     20.295600   -0.017120   -0.869800
  N     20.605080   -0.396770    0.325170
  C     19.453790   -0.820860    0.906540
  C     18.397170   -0.678000    0.038800
  N     18.949690   -0.170930   -1.133580
  C     18.251200    0.419290   -2.200770
  O     17.230290    1.029780   -2.054220
  N     18.872670    0.263560   -3.427730
  C     19.845980   -0.639360   -3.826820
  C     20.064960   -0.393330   -5.141960
  N     19.268810    0.635010   -5.573290
  C     18.566420    0.998230   -4.559040
  C     17.023180   -1.046310    0.181640
  C     16.129730   -1.413700   -0.799650
  C     14.876070   -1.726720   -0.268230
  C     14.824010   -1.598900    1.129440
  S     16.320190   -1.100370    1.786520
  C     13.515480   -1.924990    1.570460
  C     12.743070   -2.259300    0.439290
  C     13.572730   -2.148310   -0.750160
  C     13.211230   -2.384840   -2.044200
  C     14.130010   -2.251020   -3.106550
  N     14.887910   -2.147330   -3.961340
  C     11.907230   -2.786090   -2.403460
  N     10.850690   -3.113190   -2.705650
  C     11.433230   -2.587820    0.759450
  C     11.193570   -2.503840    2.125830
  S     12.621420   -2.013670    3.023230
  C      9.961590   -2.750980    2.788040
  C      9.823240   -2.596620    4.184220
  C      8.576510   -2.801710    4.863650
  N      8.517810   -2.626970    6.198830
  C      9.581480   -2.280540    6.848660
  C     10.814860   -2.078350    6.176680
  N     10.909120   -2.234610    4.895920
  F     11.908870   -1.723040    6.843720
  F      9.483560   -2.120310    8.165000
  C      7.395790   -3.177160    4.187430
  C      7.532020   -3.361120    2.790090
  C      8.787690   -3.151370    2.104960
  N      8.671640   -3.380300    0.796020
  S      7.166110   -3.809530    0.456770
  N      6.571030   -3.730220    1.941880
  C      6.161140   -3.339400    4.870560
  C      4.941740   -3.697370    4.307910
  C      3.924760   -3.737860    5.251340
  C      4.368540   -3.409370    6.548750
  S      6.039450   -3.058030    6.599750
  C      3.253070   -3.466970    7.423430
  C      2.114480   -3.824730    6.682890
  C      2.496810   -4.011430    5.294530
  C      1.684480   -4.365710    4.257360
  C      2.166190   -4.523130    2.940570
  N      2.546930   -4.652650    1.866770
  C      0.303120   -4.589350    4.437950
  N     -0.820120   -4.763830    4.591010
  C      0.955670   -3.895050    7.460040
  C      1.207800   -3.601930    8.782070
  S      2.894260   -3.219900    9.075320
  C      0.287990   -3.530070    9.873290
  C      0.350610   -2.800230   11.037680
  N     -0.784190   -2.965840   11.763050
  C     -1.546250   -3.753020   11.079050
  N     -0.962970   -4.139120    9.889190
  C     -1.394330   -5.200770    9.075840
  O     -0.660820   -6.059800    8.676460
  N     -2.753240   -5.169910    8.809130
  C     -3.470910   -6.224600    8.267880
  C     -4.732790   -5.766440    8.087180
  N     -4.819460   -4.454290    8.474160
  C     -3.650210   -4.119530    8.894110
  H     20.978900    0.409540   -1.576310
  H     19.444450   -1.211990    1.903710
  H     20.253800   -1.375120   -3.165860
  H     20.739110   -0.881670   -5.815850
  H     17.833760    1.779080   -4.540960
  H     16.375180   -1.467850   -1.844150
  H     10.666890   -2.874050    0.063200
  H      4.837980   -3.906970    3.259450
  H     -0.017590   -4.130630    7.071630
  H      1.142880   -2.165520   11.379720
  H     -2.505650   -4.110340   11.395190
  H     -3.005110   -7.169420    8.083570
  H     -5.590430   -6.278210    7.701420
  H     -3.377410   -3.142980    9.240270

 Total Charge           Charge          ....    0
 Multiplicity           Mult            ....    1
 Number of Electrons    NEL             ....  516
 Basis Dimension        Dim             .... 1084

ORBITAL ENERGIES
----------------

  NO   OCC          E(Eh)            E(eV)
   0   2.0000     -89.045855     -2423.0609
   1   2.0000     -88.990732     -2421.5609
   2   2.0000     -88.990664     -2421.5591
   3   2.0000     -88.982832     -2421.3460
   4   2.0000     -88.982617     -2421.3401
   5   2.0000     -24.827668      -675.5952
   6   2.0000     -24.827522      -675.5912
   7   2.0000     -19.244878      -523.6797
   8   2.0000     -19.244396      -523.6666
   9   2.0000     -14.504786      -394.6953
  10   2.0000     -14.504672      -394.6922
  11   2.0000     -14.502520      -394.6336
  12   2.0000     -14.502037      -394.6205
  13   2.0000     -14.469219      -393.7275
  14   2.0000     -14.469066      -393.7233
  15   2.0000     -14.454397      -393.3241
  16   2.0000     -14.454290      -393.3212
  17   2.0000     -14.428184      -392.6109
  18   2.0000     -14.428165      -392.6103
  19   2.0000     -14.426586      -392.5674
  20   2.0000     -14.426464      -392.5640
  21   2.0000     -14.412771      -392.1914
  22   2.0000     -14.412379      -392.1808
  23   2.0000     -14.406001      -392.0072
  24   2.0000     -14.404575      -391.9684
  25   2.0000     -10.460650      -284.6488
  26   2.0000     -10.460482      -284.6442
  27   2.0000     -10.444040      -284.1968
  28   2.0000     -10.443743      -284.1887
  29   2.0000     -10.361011      -281.9375
  30   2.0000     -10.360864      -281.9334
  31   2.0000     -10.353007      -281.7196
  32   2.0000     -10.352738      -281.7123
  33   2.0000     -10.351084      -281.6673
  34   2.0000     -10.350950      -281.6637
  35   2.0000     -10.348460      -281.5959
  36   2.0000     -10.348439      -281.5954
  37   2.0000     -10.345677      -281.5202
  38   2.0000     -10.345437      -281.5136
  39   2.0000     -10.344768      -281.4954
  40   2.0000     -10.340845      -281.3887
  41   2.0000     -10.336656      -281.2747
  42   2.0000     -10.336495      -281.2703
  43   2.0000     -10.330249      -281.1004
  44   2.0000     -10.330146      -281.0976
  45   2.0000     -10.329217      -281.0723
  46   2.0000     -10.328924      -281.0643
  47   2.0000     -10.328865      -281.0627
  48   2.0000     -10.328816      -281.0614
  49   2.0000     -10.327004      -281.0121
  50   2.0000     -10.326875      -281.0086
  51   2.0000     -10.323414      -280.9144
  52   2.0000     -10.323369      -280.9132
  53   2.0000     -10.322764      -280.8967
  54   2.0000     -10.322589      -280.8919
  55   2.0000     -10.321254      -280.8556
  56   2.0000     -10.321121      -280.8520
  57   2.0000     -10.318261      -280.7742
  58   2.0000     -10.313337      -280.6402
  59   2.0000     -10.306476      -280.4535
  60   2.0000     -10.306318      -280.4492
  61   2.0000     -10.301877      -280.3283
  62   2.0000     -10.301870      -280.3281
  63   2.0000     -10.301006      -280.3046
  64   2.0000     -10.300900      -280.3017
  65   2.0000     -10.298998      -280.2500
  66   2.0000     -10.296804      -280.1903
  67   2.0000     -10.295689      -280.1599
  68   2.0000     -10.295685      -280.1598
  69   2.0000     -10.293069      -280.0886
  70   2.0000     -10.293054      -280.0882
  71   2.0000      -8.136886      -221.4159
  72   2.0000      -8.085275      -220.0115
  73   2.0000      -8.085198      -220.0094
  74   2.0000      -8.075596      -219.7481
  75   2.0000      -8.075441      -219.7439
  76   2.0000      -6.107967      -166.2062
  77   2.0000      -6.100070      -165.9913
  78   2.0000      -6.099780      -165.9835
  79   2.0000      -6.054581      -164.7535
  80   2.0000      -6.054483      -164.7508
  81   2.0000      -6.050332      -164.6379
  82   2.0000      -6.050289      -164.6367
  83   2.0000      -6.047624      -164.5642
  84   2.0000      -6.047523      -164.5615
  85   2.0000      -6.045085      -164.4951
  86   2.0000      -6.044943      -164.4913
  87   2.0000      -6.040363      -164.3666
  88   2.0000      -6.040192      -164.3620
  89   2.0000      -6.038097      -164.3050
  90   2.0000      -6.037931      -164.3005
  91   2.0000      -1.356004       -36.8987
  92   2.0000      -1.341985       -36.5173
  93   2.0000      -1.204981       -32.7892
  94   2.0000      -1.204873       -32.7863
  95   2.0000      -1.143937       -31.1281
  96   2.0000      -1.135545       -30.8998
  97   2.0000      -1.135198       -30.8903
  98   2.0000      -1.129495       -30.7351
  99   2.0000      -1.128614       -30.7112
 100   2.0000      -1.127225       -30.6734
 101   2.0000      -1.054920       -28.7058
 102   2.0000      -1.040895       -28.3242
 103   2.0000      -1.040265       -28.3070
 104   2.0000      -1.018976       -27.7277
 105   2.0000      -1.018863       -27.7247
 106   2.0000      -1.016863       -27.6703
 107   2.0000      -1.015601       -27.6359
 108   2.0000      -1.005124       -27.3508
 109   2.0000      -1.005040       -27.3485
 110   2.0000      -1.002328       -27.2747
 111   2.0000      -1.000044       -27.2126
 112   2.0000      -0.991616       -26.9832
 113   2.0000      -0.987173       -26.8623
 114   2.0000      -0.984536       -26.7906
 115   2.0000      -0.976079       -26.5604
 116   2.0000      -0.956293       -26.0221
 117   2.0000      -0.951571       -25.8936
 118   2.0000      -0.919204       -25.0128
 119   2.0000      -0.912527       -24.8311
 120   2.0000      -0.893761       -24.3205
 121   2.0000      -0.892694       -24.2914
 122   2.0000      -0.879122       -23.9221
 123   2.0000      -0.874826       -23.8052
 124   2.0000      -0.863453       -23.4958
 125   2.0000      -0.857882       -23.3442
 126   2.0000      -0.856656       -23.3108
 127   2.0000      -0.852666       -23.2022
 128   2.0000      -0.849966       -23.1288
 129   2.0000      -0.848470       -23.0880
 130   2.0000      -0.825279       -22.4570
 131   2.0000      -0.810638       -22.0586
 132   2.0000      -0.800446       -21.7813
 133   2.0000      -0.795191       -21.6383
 134   2.0000      -0.792924       -21.5766
 135   2.0000      -0.776898       -21.1405
 136   2.0000      -0.776134       -21.1197
 137   2.0000      -0.770135       -20.9564
 138   2.0000      -0.763100       -20.7650
 139   2.0000      -0.745909       -20.2972
 140   2.0000      -0.742972       -20.2173
 141   2.0000      -0.738102       -20.0848
 142   2.0000      -0.723742       -19.6940
 143   2.0000      -0.712443       -19.3865
 144   2.0000      -0.712268       -19.3818
 145   2.0000      -0.709171       -19.2975
 146   2.0000      -0.702873       -19.1261
 147   2.0000      -0.692789       -18.8517
 148   2.0000      -0.691210       -18.8088
 149   2.0000      -0.689334       -18.7577
 150   2.0000      -0.687595       -18.7104
 151   2.0000      -0.684262       -18.6197
 152   2.0000      -0.679056       -18.4781
 153   2.0000      -0.673439       -18.3252
 154   2.0000      -0.667918       -18.1750
 155   2.0000      -0.666679       -18.1413
 156   2.0000      -0.661847       -18.0098
 157   2.0000      -0.661089       -17.9891
 158   2.0000      -0.637773       -17.3547
 159   2.0000      -0.637700       -17.3527
 160   2.0000      -0.631269       -17.1777
 161   2.0000      -0.631091       -17.1729
 162   2.0000      -0.629820       -17.1383
 163   2.0000      -0.624327       -16.9888
 164   2.0000      -0.617638       -16.8068
 165   2.0000      -0.611343       -16.6355
 166   2.0000      -0.609704       -16.5909
 167   2.0000      -0.597106       -16.2481
 168   2.0000      -0.595350       -16.2003
 169   2.0000      -0.590220       -16.0607
 170   2.0000      -0.583037       -15.8652
 171   2.0000      -0.581746       -15.8301
 172   2.0000      -0.580139       -15.7864
 173   2.0000      -0.571481       -15.5508
 174   2.0000      -0.570790       -15.5320
 175   2.0000      -0.568677       -15.4745
 176   2.0000      -0.565174       -15.3792
 177   2.0000      -0.560860       -15.2618
 178   2.0000      -0.558735       -15.2040
 179   2.0000      -0.552859       -15.0440
 180   2.0000      -0.551825       -15.0159
 181   2.0000      -0.546962       -14.8836
 182   2.0000      -0.544834       -14.8257
 183   2.0000      -0.543722       -14.7954
 184   2.0000      -0.541804       -14.7432
 185   2.0000      -0.539618       -14.6837
 186   2.0000      -0.539217       -14.6728
 187   2.0000      -0.530778       -14.4432
 188   2.0000      -0.529070       -14.3967
 189   2.0000      -0.526866       -14.3368
 190   2.0000      -0.524498       -14.2723
 191   2.0000      -0.524185       -14.2638
 192   2.0000      -0.522633       -14.2216
 193   2.0000      -0.520962       -14.1761
 194   2.0000      -0.516158       -14.0454
 195   2.0000      -0.514789       -14.0081
 196   2.0000      -0.506431       -13.7807
 197   2.0000      -0.503847       -13.7104
 198   2.0000      -0.503443       -13.6994
 199   2.0000      -0.501428       -13.6446
 200   2.0000      -0.499934       -13.6039
 201   2.0000      -0.497661       -13.5420
 202   2.0000      -0.492868       -13.4116
 203   2.0000      -0.492350       -13.3975
 204   2.0000      -0.491815       -13.3830
 205   2.0000      -0.490407       -13.3446
 206   2.0000      -0.487202       -13.2574
 207   2.0000      -0.483790       -13.1646
 208   2.0000      -0.476868       -12.9762
 209   2.0000      -0.473548       -12.8859
 210   2.0000      -0.472130       -12.8473
 211   2.0000      -0.462355       -12.5813
 212   2.0000      -0.459772       -12.5110
 213   2.0000      -0.458811       -12.4849
 214   2.0000      -0.458354       -12.4724
 215   2.0000      -0.457749       -12.4560
 216   2.0000      -0.455903       -12.4057
 217   2.0000      -0.455095       -12.3838
 218   2.0000      -0.447079       -12.1656
 219   2.0000      -0.444814       -12.1040
 220   2.0000      -0.439988       -11.9727
 221   2.0000      -0.437725       -11.9111
 222   2.0000      -0.437509       -11.9052
 223   2.0000      -0.435902       -11.8615
 224   2.0000      -0.435724       -11.8566
 225   2.0000      -0.429669       -11.6919
 226   2.0000      -0.425010       -11.5651
 227   2.0000      -0.424709       -11.5569
 228   2.0000      -0.418710       -11.3937
 229   2.0000      -0.416122       -11.3233
 230   2.0000      -0.410436       -11.1685
 231   2.0000      -0.407458       -11.0875
 232   2.0000      -0.406520       -11.0620
 233   2.0000      -0.394710       -10.7406
 234   2.0000      -0.387654       -10.5486
 235   2.0000      -0.384869       -10.4728
 236   2.0000      -0.382572       -10.4103
 237   2.0000      -0.381494       -10.3810
 238   2.0000      -0.379580       -10.3289
 239   2.0000      -0.378655       -10.3037
 240   2.0000      -0.376239       -10.2380
 241   2.0000      -0.370430       -10.0799
 242   2.0000      -0.365817        -9.9544
 243   2.0000      -0.365578        -9.9479
 244   2.0000      -0.357971        -9.7409
 245   2.0000      -0.356775        -9.7083
 246   2.0000      -0.350319        -9.5327
 247   2.0000      -0.350070        -9.5259
 248   2.0000      -0.344227        -9.3669
 249   2.0000      -0.343765        -9.3543
 250   2.0000      -0.332213        -9.0400
 251   2.0000      -0.324390        -8.8271
 252   2.0000      -0.323988        -8.8162
 253   2.0000      -0.319156        -8.6847
 254   2.0000      -0.318100        -8.6559
 255   2.0000      -0.300012        -8.1637
 256   2.0000      -0.270082        -7.3493
 257   2.0000      -0.236496        -6.4354
 258   0.0000      -0.123544        -3.3618
 259   0.0000      -0.099489        -2.7072
 260   0.0000      -0.094503        -2.5716
 261   0.0000      -0.041010        -1.1160
 262   0.0000      -0.039067        -1.0631

MULLIKEN ATOMIC CHARGES
-----------------------
   0 C :    0.091961
   1 N :   -0.086207
   2 C :   -0.040716
   3 C :    0.130964
   4 N :   -0.207339
   5 C :    0.222466
   6 O :   -0.138560
   7 N :   -0.186386
   8 C :    0.053880
   9 C :    0.021600
  10 N :   -0.107165
  11 C :    0.120480
  12 C :   -0.087046
  13 C :   -0.014534
  14 C :   -0.006055
  15 C :   -0.103750
  16 S :    0.200917
  17 C :   -0.066676
  18 C :    0.035469
  19 C :    0.307969
  20 C :   -0.303434
  21 C :   -0.184781
  22 N :    0.163803
  23 C :   -0.187100
  24 N :    0.174450
  25 C :   -0.061153
  26 C :   -0.183355
  27 S :    0.200147
  28 C :    0.182488
  29 C :   -0.060573
  30 C :   -0.064492
  31 N :   -0.045305
  32 C :    0.147555
  33 C :    0.149922
  34 N :   -0.045660
  35 F :   -0.136132
  36 F :   -0.136748
  37 C :    0.183955
  38 C :   -0.010525
  39 C :   -0.013729
  40 N :   -0.287729
  41 S :    0.577135
  42 N :   -0.289523
  43 C :   -0.183280
  44 C :   -0.063093
  45 C :    0.035480
  46 C :   -0.065000
  47 S :    0.198948
  48 C :   -0.101620
  49 C :   -0.010016
  50 C :    0.310188
  51 C :   -0.304589
  52 C :   -0.185356
  53 N :    0.172081
  54 C :   -0.182183
  55 N :    0.162388
  56 C :   -0.017838
  57 C :   -0.081762
  58 S :    0.197286
  59 C :    0.135505
  60 C :   -0.043656
  61 N :   -0.085148
  62 C :    0.092301
  63 N :   -0.211231
  64 C :    0.225234
  65 O :   -0.135262
  66 N :   -0.187372
  67 C :    0.086737
  68 C :    0.025532
  69 N :   -0.111548
  70 C :    0.086778
  71 H :    0.045076
  72 H :   -0.000404
  73 H :    0.035889
  74 H :    0.013251
  75 H :    0.041398
  76 H :    0.009100
  77 H :    0.021720
  78 H :    0.020909
  79 H :    0.008447
  80 H :    0.000854
  81 H :    0.043493
  82 H :    0.031672
  83 H :    0.014172
  84 H :    0.044433
Sum of atomic charges:   -0.0000000

LOEWDIN ATOMIC CHARGES
----------------------
   0 C :    0.035342
   1 N :   -0.085610
   2 C :   -0.026841
   3 C :   -0.030264
   4 N :    0.019598
   5 C :    0.114785
   6 O :   -0.125644
   7 N :    0.025802
   8 C :   -0.025790
   9 C :   -0.018128
  10 N :   -0.087502
  11 C :    0.055312
  12 C :   -0.171883
  13 C :   -0.027283
  14 C :   -0.064830
  15 C :   -0.180518
  16 S :    0.486075
  17 C :   -0.180543
  18 C :   -0.076685
  19 C :    0.083541
  20 C :   -0.104266
  21 C :   -0.013841
  22 N :   -0.038349
  23 C :   -0.016922
  24 N :   -0.033342
  25 C :   -0.010910
  26 C :   -0.169908
  27 S :    0.506216
  28 C :   -0.043292
  29 C :   -0.018988
  30 C :   -0.019098
  31 N :   -0.055111
  32 C :    0.061836
  33 C :    0.061850
  34 N :   -0.055117
  35 F :   -0.025891
  36 F :   -0.025929
  37 C :   -0.043302
  38 C :   -0.038239
  39 C :   -0.038522
  40 N :   -0.274057
  41 S :    0.696166
  42 N :   -0.274331
  43 C :   -0.169855
  44 C :   -0.011180
  45 C :   -0.076706
  46 C :   -0.180880
  47 S :    0.506515
  48 C :   -0.180223
  49 C :   -0.064992
  50 C :    0.083552
  51 C :   -0.104109
  52 C :   -0.016761
  53 N :   -0.033550
  54 C :   -0.014007
  55 N :   -0.038112
  56 C :   -0.028139
  57 C :   -0.170721
  58 S :    0.485285
  59 C :   -0.030036
  60 C :   -0.027053
  61 N :   -0.084985
  62 C :    0.034970
  63 N :    0.019668
  64 C :    0.114445
  65 O :   -0.123832
  66 N :    0.026401
  67 C :    0.001736
  68 C :   -0.018298
  69 N :   -0.088047
  70 C :    0.027139
  71 H :    0.025986
  72 H :    0.023025
  73 H :    0.030088
  74 H :    0.026681
  75 H :    0.029105
  76 H :    0.036010
  77 H :    0.037594
  78 H :    0.037416
  79 H :    0.035772
  80 H :    0.022756
  81 H :    0.025546
  82 H :    0.035219
  83 H :    0.026669
  84 H :    0.024322

  Mayer bond orders larger than 0.100000
B(  0-C ,  1-N ) :   1.7403 B(  0-C ,  4-N ) :   1.0887 B(  0-C , 71-H ) :   0.9734
B(  1-N ,  2-C ) :   1.3680 B(  2-C ,  3-C ) :   1.5411 B(  2-C , 72-H ) :   1.0008
B(  3-C ,  4-N ) :   1.1180 B(  3-C , 12-C ) :   1.0400 B(  4-N ,  5-C ) :   0.9573
B(  5-C ,  6-O ) :   2.2011 B(  5-C ,  7-N ) :   1.0258 B(  7-N ,  8-C ) :   1.0772
B(  7-N , 11-C ) :   1.0967 B(  8-C ,  9-C ) :   1.6034 B(  8-C , 73-H ) :   0.9841
B(  9-C , 10-N ) :   1.3216 B(  9-C , 74-H ) :   1.0010 B( 10-N , 11-C ) :   1.7626
B( 11-C , 75-H ) :   0.9815 B( 12-C , 13-C ) :   1.4803 B( 12-C , 16-S ) :   1.1221
B( 13-C , 14-C ) :   1.2929 B( 13-C , 76-H ) :   0.9830 B( 14-C , 15-C ) :   1.4452
B( 14-C , 19-C ) :   0.9945 B( 15-C , 16-S ) :   1.1168 B( 15-C , 17-C ) :   1.1878
B( 17-C , 18-C ) :   1.4120 B( 17-C , 27-S ) :   1.0944 B( 18-C , 19-C ) :   0.9920
B( 18-C , 25-C ) :   1.2724 B( 19-C , 20-C ) :   1.7077 B( 20-C , 21-C ) :   1.1345
B( 20-C , 23-C ) :   1.1399 B( 21-C , 22-N ) :   2.9812 B( 23-C , 24-N ) :   2.9881
B( 25-C , 26-C ) :   1.4267 B( 25-C , 77-H ) :   0.9795 B( 26-C , 27-S ) :   1.0850
B( 26-C , 28-C ) :   1.1890 B( 28-C , 29-C ) :   1.2984 B( 28-C , 37-C ) :   0.1274
B( 28-C , 39-C ) :   1.1953 B( 29-C , 30-C ) :   1.1151 B( 29-C , 34-N ) :   1.3790
B( 30-C , 31-N ) :   1.3810 B( 30-C , 37-C ) :   1.2979 B( 31-N , 32-C ) :   1.6542
B( 32-C , 33-C ) :   1.1089 B( 32-C , 36-F ) :   1.1847 B( 33-C , 34-N ) :   1.6564
B( 33-C , 35-F ) :   1.1863 B( 37-C , 38-C ) :   1.1956 B( 37-C , 43-C ) :   1.1909
B( 38-C , 39-C ) :   1.1020 B( 38-C , 42-N ) :   1.5095 B( 39-C , 40-N ) :   1.5112
B( 40-N , 41-S ) :   1.2831 B( 40-N , 42-N ) :   0.1490 B( 41-S , 42-N ) :   1.2824
B( 43-C , 44-C ) :   1.4235 B( 43-C , 47-S ) :   1.0850 B( 44-C , 45-C ) :   1.2746
B( 44-C , 78-H ) :   0.9803 B( 45-C , 46-C ) :   1.4107 B( 45-C , 50-C ) :   0.9897
B( 46-C , 47-S ) :   1.0944 B( 46-C , 48-C ) :   1.1880 B( 48-C , 49-C ) :   1.4456
B( 48-C , 58-S ) :   1.1158 B( 49-C , 50-C ) :   0.9959 B( 49-C , 56-C ) :   1.2939
B( 50-C , 51-C ) :   1.7093 B( 51-C , 52-C ) :   1.1386 B( 51-C , 54-C ) :   1.1332
B( 52-C , 53-N ) :   2.9865 B( 54-C , 55-N ) :   2.9802 B( 56-C , 57-C ) :   1.4790
B( 56-C , 79-H ) :   0.9821 B( 57-C , 58-S ) :   1.1212 B( 57-C , 59-C ) :   1.0472
B( 59-C , 60-C ) :   1.5341 B( 59-C , 63-N ) :   1.1179 B( 60-C , 61-N ) :   1.3708
B( 60-C , 80-H ) :   1.0002 B( 61-N , 62-C ) :   1.7387 B( 62-C , 63-N ) :   1.0877
B( 62-C , 81-H ) :   0.9743 B( 63-N , 64-C ) :   0.9551 B( 64-C , 65-O ) :   2.2077
B( 64-C , 66-N ) :   1.0195 B( 66-N , 67-C ) :   1.0911 B( 66-N , 70-C ) :   1.0822
B( 67-C , 68-C ) :   1.5952 B( 67-C , 82-H ) :   0.9948 B( 68-C , 69-N ) :   1.3122
B( 68-C , 83-H ) :   0.9994 B( 69-N , 70-C ) :   1.7761 B( 70-C , 84-H ) :   0.9748

-----------------------------------------------------------------------------
         ABSORPTION SPECTRUM VIA TRANSITION ELECTRIC DIPOLE MOMENTS
-----------------------------------------------------------------------------
State   Energy  Wavelength   fosc         T2         TX        TY        TZ
        (cm-1)    (nm)                  (au**2)     (au)      (au)      (au)
-----------------------------------------------------------------------------
   0    9382.6   1065.8   0.709571016  24.89698   4.34389   0.68147  -2.35865
   1   12733.2    785.4   0.002247681   0.05811   0.09815   0.13654   0.17273
   2   13544.4    738.3   0.009301317   0.22608   0.40521   0.08202  -0.23485
   3   17956.0    556.9   0.001538652   0.02821   0.01013   0.15217   0.07037
   4   22521.0    444.0   0.003707484   0.05420   0.19288   0.05630  -0.11757
   5   23804.0    420.1   0.000425582   0.00589   0.04972  -0.04767   0.03378
   6   24973.1    400.4   0.415213712   5.47362   2.03862   0.30669  -1.10615
   7   25902.3    386.1   0.011868850   0.15085   0.33197   0.05989  -0.19250
   8   26831.3    372.7   0.049181141   0.60344  -0.41315  -0.18366  -0.63167
   9   26889.9    371.9   0.052832490   0.64683  -0.64939  -0.05881   0.47081
  10   28498.8    350.9   1.016945771  11.74753   2.96981   0.42111  -1.65844
  11   29145.8    343.1   0.097083737   1.09659  -0.54132  -0.39544  -0.80448
  12   29626.3    337.5   0.050187866   0.55769  -0.33856  -0.21557  -0.62976
  13   30480.1    328.1   0.001056469   0.01141   0.00607  -0.01651   0.10536
  14   30712.9    325.6   0.327331872   3.50867  -1.64253  -0.26655   0.86006
  15   31127.9    321.3   0.001836857   0.01943  -0.13421   0.00412   0.03739
  16   31376.4    318.7   0.235498056   2.47093  -1.35343  -0.27134   0.75202
  17   31717.0    315.3   0.012650858   0.13131   0.17150   0.05019   0.31524
  18   32012.9    312.4   0.000527659   0.00543   0.06570   0.00083  -0.03330
  19   32217.3    310.4   0.705015912   7.20419   1.22458   0.65614   2.29654
  20   32439.9    308.3   0.286909767   2.91166  -1.33012  -0.15001   1.05827
  21   32700.9    305.8   0.433247722   4.36167   0.93076   0.41181   1.82367
  22   32714.2    305.7   0.053964412   0.54306  -0.60154  -0.18695  -0.38244
  23   33700.2    296.7   0.003454103   0.03374  -0.16734  -0.07131  -0.02556
  24   33806.5    295.8   0.009289257   0.09046  -0.29389  -0.06234   0.01431
  25   34034.3    293.8   0.135182738   1.30761   0.48969   0.10368   1.02814
  26   34278.5    291.7   0.003862878   0.03710  -0.09733  -0.04383   0.16033
  27   35253.5    283.7   0.053586692   0.50041   0.33605   0.16363   0.60059
  28   35780.7    279.5   0.170683157   1.57043  -1.09839  -0.17774   0.57652
  29   35920.8    278.4   0.131936964   1.20919   0.42321   0.26741   0.97907
  30   36288.2    275.6   0.578732528   5.25034   0.93877   0.59988   2.00230
  31   36769.2    272.0   0.039106889   0.35014  -0.57287  -0.13627   0.05825
  32   37208.3    268.8   0.262022647   2.31833  -0.54510  -0.43522  -1.35343
  33   37386.0    267.5   0.001519823   0.01338   0.10001   0.03777   0.04421
  34   37741.0    265.0   0.075447877   0.65813   0.72852   0.16518  -0.31639
  35   37759.5    264.8   0.016312477   0.14222  -0.30279  -0.09698  -0.20282
  36   37874.3    264.0   0.000412109   0.00358   0.03424  -0.04120  -0.02668
  37   38246.6    261.5   0.020367355   0.17531  -0.07663  -0.16961  -0.37507
  38   38486.6    259.8   0.017574411   0.15033  -0.36115  -0.02736   0.13840
  39   38620.4    258.9   0.129367310   1.10277  -0.90201  -0.01939   0.53737
  40   38662.2    258.7   0.119117850   1.01430   0.94072   0.17389  -0.31482
  41   39957.0    250.3   0.002814127   0.02319   0.12731   0.01774  -0.08163
  42   40275.8    248.3   0.002034520   0.01663   0.08951   0.08302  -0.04154

FINAL SINGLE POINT ENERGY     -4974.050063961680

DIPOLE MOMENT
-------------
                                X             Y             Z
Electronic contribution:      7.71612       0.42250      14.65786
Nuclear contribution   :     -6.25216      -0.56974     -12.30165
                        -----------------------------------------
Total Dipole Moment    :      1.46396      -0.14724       2.35620
                        -----------------------------------------
Magnitude (a.u.)       :      2.77787
Magnitude (Debye)      :      7.06079

Rotational constants in cm-1:     0.002964     0.000240     0.000224
Rotational constants in MHz :    88.866328     7.194557     6.722523

                             ****ORCA TERMINATED NORMALLY****
TOTAL RUN TIME: 0 days 0 hours 7 minutes 49 seconds 574 msec
