                         Program Version 4.2.0 -  RELEASE  -
|  1> # ORCA input file
|  2> # SCF done       -203.948320635488          0.000828332327
|  3> ! CAM-B3LYP def2-SVP def2/J RIJCOSX Grid4 TightSCF
|  4> %maxcore 5000
|  5> %tddft
|  6>     Mode sTDDFT
|  7>     Ethresh 5.0
|  8>     maxcore 5000
|  9> end
| 10>
| 11> %pal
| 12>   nprocs 6
| 13>   end
| 14> * xyz 0 1
| 15>    C        2.35695         4.28318         5.50603
| 16>    C        2.49330         4.66835         6.81220
| 17>    C        3.76703         4.77465         7.39070
| 18>    C        4.88667         4.49474         6.65569
| 19>    C        4.78308         4.09853         5.30682
| 20>    C        5.93724         3.82363         4.53850
| 21>    C        5.79887         3.44999         3.22903
| 22>    C        4.50042         3.32038         2.65282
| 23>    C        3.36979         3.58541         3.37097
| 24>    C        3.48858         3.98793         4.72040
| 25>    C        4.62782         2.87526         1.25423
| 26>    O        3.75473         2.70823         0.43569
| 27>    C        6.08497         2.60164         1.06592
| 28>    C        6.79169         3.16142         2.20194
| 29>    C        8.08728         3.60731         2.20679
| 30>    C        8.93496         3.55364         1.08160
| 31>    N        9.63959         3.56059         0.17505
| 32>    C        8.68899         4.25204         3.30689
| 33>    N        9.22913         4.76742         4.17839
| 34>    C        6.50173         1.86209         0.00770
| 35>    C        7.73322         1.17542        -0.16049
| 36>    C        8.33509         0.85661        -1.36496
| 37>    C        9.54585         0.19158        -1.18610
| 38>    C        9.83958        -0.05167         0.16952
| 39>    S        8.64782         0.56467         1.21561
| 40>    C       11.08677        -0.71677         0.25929
| 41>    C       11.59648        -0.86596        -1.04600
| 42>    C       10.63765        -0.32102        -1.99604
| 43>    C       10.74531        -0.30204        -3.35497
| 44>    C       11.87180        -0.83224        -4.01934
| 45>    N       12.78749        -1.26718        -4.55490
| 46>    C        9.73563         0.23177        -4.18408
| 47>    N        8.91133         0.65157        -4.86074
| 48>    C       12.84610        -1.46487        -1.05858
| 49>    C       13.29211        -1.78944         0.22152
| 50>    S       12.11378        -1.36867         1.45282
| 51>    C       14.57778        -2.33503         0.47847
| 52>    C       15.27440        -2.63177         1.65532
| 53>    N       14.68452        -2.49257         2.93227
| 54>    O       13.47004        -2.62471         3.00611
| 55>    O       15.38665        -2.24847         3.89069
| 56>    C       16.61096        -3.08036         1.45612
| 57>    C       17.55597        -3.48224         2.53581
| 58>    C       16.93490        -3.12305         0.11642
| 59>    S       15.61130        -2.59846        -0.88942
| 60>    C       18.17129        -3.46746        -0.50963
| 61>    C       19.19069        -4.27723        -0.04984
| 62>    C       20.26346        -4.32404        -0.94386
| 63>    C       20.05393        -3.54578        -2.09317
| 64>    S       18.53541        -2.76772        -2.08222
| 65>    C       21.20474        -3.63289        -2.91610
| 66>    C       22.14470        -4.47651        -2.28393
| 67>    C       21.58052        -4.93810        -1.02481
| 68>    C       22.15651        -5.75530        -0.09822
| 69>    C       23.45561        -6.29324        -0.23151
| 70>    N       24.50871        -6.74006        -0.29656
| 71>    C       21.48089        -6.11376         1.08836
| 72>    N       20.92665        -6.40041         2.05041
| 73>    C       23.32352        -4.61677        -3.00435
| 74>    C       23.30570        -3.88470        -4.18495
| 75>    S       21.77807        -3.01105        -4.38714
| 76>    C       24.26582        -3.66321        -5.19422
| 77>    C       25.50345        -4.20553        -5.40087
| 78>    C       26.40496        -3.77912        -6.46234
| 79>    C       26.26996        -2.67993        -7.27126
| 80>    C       27.19835        -2.31731        -8.27081
| 81>    N       27.90537        -1.96266        -9.10279
| 82>    C       25.22731        -1.73058        -7.22604
| 83>    N       24.43053        -0.90303        -7.24972
| 84>    C       27.54030        -4.69339        -6.48048
| 85>    C       27.38184        -5.63052        -5.42174
| 86>    C       28.29930        -6.61113        -5.17641
| 87>    C       29.44383        -6.70204        -5.99895
| 88>    C       30.42772        -7.68907        -5.79420
| 89>    C       31.52748        -7.75851        -6.60583
| 90>    C       31.69120        -6.84384        -7.65698
| 91>    C       30.75370        -5.87298        -7.88274
| 92>    C       29.60897        -5.77207        -7.06600
| 93>    C       28.64039        -4.76784        -7.29426
| 94>    C       26.12966        -5.35689        -4.70042
| 95>    O       25.70499        -5.98333        -3.75237
| 96>    H        1.37870         4.19973         5.05577
| 97>    H        1.62061         4.89317         7.40678
| 98>    H        3.85682         5.08069         8.42214
| 99>    H        5.86975         4.57881         7.09502
|100>    H        6.90554         3.90565         5.00733
|101>    H        2.39547         3.49210         2.91483
|102>    H        5.77616         1.73310        -0.79023
|103>    H        7.92005         1.14501        -2.31376
|104>    H       13.42752        -1.65586        -1.94318
|105>    H       17.25017        -3.07488         3.49368
|106>    H       18.55790        -3.12628         2.30608
|107>    H       17.59010        -4.56867         2.61992
|108>    H       19.14454        -4.83218         0.86671
|109>    H       24.16597        -5.21837        -2.71266
|110>    H       23.94328        -2.92588        -5.92028
|111>    H       28.15233        -7.30600        -4.36296
|112>    H       30.29577        -8.39004        -4.98306
|113>    H       32.27707        -8.51827        -6.44249
|114>    H       32.56501        -6.91214        -8.28747
|115>    H       30.87619        -5.16585        -8.69001
|116>    H       28.79508        -4.08384        -8.11320
|117> *
|118>
|119>                          ****END OF INPUT****

CARTESIAN COORDINATES (ANGSTROEM)
---------------------------------
  C      2.356950    4.283180    5.506030
  C      2.493300    4.668350    6.812200
  C      3.767030    4.774650    7.390700
  C      4.886670    4.494740    6.655690
  C      4.783080    4.098530    5.306820
  C      5.937240    3.823630    4.538500
  C      5.798870    3.449990    3.229030
  C      4.500420    3.320380    2.652820
  C      3.369790    3.585410    3.370970
  C      3.488580    3.987930    4.720400
  C      4.627820    2.875260    1.254230
  O      3.754730    2.708230    0.435690
  C      6.084970    2.601640    1.065920
  C      6.791690    3.161420    2.201940
  C      8.087280    3.607310    2.206790
  C      8.934960    3.553640    1.081600
  N      9.639590    3.560590    0.175050
  C      8.688990    4.252040    3.306890
  N      9.229130    4.767420    4.178390
  C      6.501730    1.862090    0.007700
  C      7.733220    1.175420   -0.160490
  C      8.335090    0.856610   -1.364960
  C      9.545850    0.191580   -1.186100
  C      9.839580   -0.051670    0.169520
  S      8.647820    0.564670    1.215610
  C     11.086770   -0.716770    0.259290
  C     11.596480   -0.865960   -1.046000
  C     10.637650   -0.321020   -1.996040
  C     10.745310   -0.302040   -3.354970
  C     11.871800   -0.832240   -4.019340
  N     12.787490   -1.267180   -4.554900
  C      9.735630    0.231770   -4.184080
  N      8.911330    0.651570   -4.860740
  C     12.846100   -1.464870   -1.058580
  C     13.292110   -1.789440    0.221520
  S     12.113780   -1.368670    1.452820
  C     14.577780   -2.335030    0.478470
  C     15.274400   -2.631770    1.655320
  N     14.684520   -2.492570    2.932270
  O     13.470040   -2.624710    3.006110
  O     15.386650   -2.248470    3.890690
  C     16.610960   -3.080360    1.456120
  C     17.555970   -3.482240    2.535810
  C     16.934900   -3.123050    0.116420
  S     15.611300   -2.598460   -0.889420
  C     18.171290   -3.467460   -0.509630
  C     19.190690   -4.277230   -0.049840
  C     20.263460   -4.324040   -0.943860
  C     20.053930   -3.545780   -2.093170
  S     18.535410   -2.767720   -2.082220
  C     21.204740   -3.632890   -2.916100
  C     22.144700   -4.476510   -2.283930
  C     21.580520   -4.938100   -1.024810
  C     22.156510   -5.755300   -0.098220
  C     23.455610   -6.293240   -0.231510
  N     24.508710   -6.740060   -0.296560
  C     21.480890   -6.113760    1.088360
  N     20.926650   -6.400410    2.050410
  C     23.323520   -4.616770   -3.004350
  C     23.305700   -3.884700   -4.184950
  S     21.778070   -3.011050   -4.387140
  C     24.265820   -3.663210   -5.194220
  C     25.503450   -4.205530   -5.400870
  C     26.404960   -3.779120   -6.462340
  C     26.269960   -2.679930   -7.271260
  C     27.198350   -2.317310   -8.270810
  N     27.905370   -1.962660   -9.102790
  C     25.227310   -1.730580   -7.226040
  N     24.430530   -0.903030   -7.249720
  C     27.540300   -4.693390   -6.480480
  C     27.381840   -5.630520   -5.421740
  C     28.299300   -6.611130   -5.176410
  C     29.443830   -6.702040   -5.998950
  C     30.427720   -7.689070   -5.794200
  C     31.527480   -7.758510   -6.605830
  C     31.691200   -6.843840   -7.656980
  C     30.753700   -5.872980   -7.882740
  C     29.608970   -5.772070   -7.066000
  C     28.640390   -4.767840   -7.294260
  C     26.129660   -5.356890   -4.700420
  O     25.704990   -5.983330   -3.752370
  H      1.378700    4.199730    5.055770
  H      1.620610    4.893170    7.406780
  H      3.856820    5.080690    8.422140
  H      5.869750    4.578810    7.095020
  H      6.905540    3.905650    5.007330
  H      2.395470    3.492100    2.914830
  H      5.776160    1.733100   -0.790230
  H      7.920050    1.145010   -2.313760
  H     13.427520   -1.655860   -1.943180
  H     17.250170   -3.074880    3.493680
  H     18.557900   -3.126280    2.306080
  H     17.590100   -4.568670    2.619920
  H     19.144540   -4.832180    0.866710
  H     24.165970   -5.218370   -2.712660
  H     23.943280   -2.925880   -5.920280
  H     28.152330   -7.306000   -4.362960
  H     30.295770   -8.390040   -4.983060
  H     32.277070   -8.518270   -6.442490
  H     32.565010   -6.912140   -8.287470
  H     30.876190   -5.165850   -8.690010
  H     28.795080   -4.083840   -8.113200

 Total Charge           Charge          ....    0
 Multiplicity           Mult            ....    1
 Number of Electrons    NEL             ....  574
 Basis Dimension        Dim             .... 1259

ORBITAL ENERGIES
----------------

  NO   OCC          E(Eh)            E(eV)
   0   2.0000     -89.003149     -2421.8988
   1   2.0000     -89.000351     -2421.8227
   2   2.0000     -89.000114     -2421.8162
   3   2.0000     -88.999710     -2421.8052
   4   2.0000     -88.994734     -2421.6698
   5   2.0000     -19.263962      -524.1990
   6   2.0000     -19.262805      -524.1676
   7   2.0000     -19.219752      -522.9961
   8   2.0000     -19.219748      -522.9959
   9   2.0000     -14.670149      -399.1950
  10   2.0000     -14.439100      -392.9079
  11   2.0000     -14.437462      -392.8633
  12   2.0000     -14.435392      -392.8070
  13   2.0000     -14.433774      -392.7630
  14   2.0000     -14.420938      -392.4137
  15   2.0000     -14.420782      -392.4094
  16   2.0000     -14.418755      -392.3543
  17   2.0000     -14.414412      -392.2361
  18   2.0000     -10.374083      -282.2932
  19   2.0000     -10.371783      -282.2306
  20   2.0000     -10.371408      -282.2204
  21   2.0000     -10.370768      -282.2029
  22   2.0000     -10.362082      -281.9666
  23   2.0000     -10.360538      -281.9246
  24   2.0000     -10.359732      -281.9026
  25   2.0000     -10.350893      -281.6621
  26   2.0000     -10.350675      -281.6562
  27   2.0000     -10.349848      -281.6337
  28   2.0000     -10.348281      -281.5910
  29   2.0000     -10.346661      -281.5470
  30   2.0000     -10.346221      -281.5350
  31   2.0000     -10.343828      -281.4699
  32   2.0000     -10.343612      -281.4640
  33   2.0000     -10.342765      -281.4409
  34   2.0000     -10.342196      -281.4255
  35   2.0000     -10.339183      -281.3435
  36   2.0000     -10.337754      -281.3046
  37   2.0000     -10.337705      -281.3033
  38   2.0000     -10.337114      -281.2872
  39   2.0000     -10.335323      -281.2384
  40   2.0000     -10.333842      -281.1981
  41   2.0000     -10.332628      -281.1651
  42   2.0000     -10.332608      -281.1646
  43   2.0000     -10.330036      -281.0946
  44   2.0000     -10.329831      -281.0890
  45   2.0000     -10.324196      -280.9356
  46   2.0000     -10.323152      -280.9072
  47   2.0000     -10.322853      -280.8991
  48   2.0000     -10.321801      -280.8705
  49   2.0000     -10.318933      -280.7924
  50   2.0000     -10.317602      -280.7562
  51   2.0000     -10.317366      -280.7498
  52   2.0000     -10.316507      -280.7264
  53   2.0000     -10.314229      -280.6644
  54   2.0000     -10.314090      -280.6607
  55   2.0000     -10.313389      -280.6416
  56   2.0000     -10.313118      -280.6342
  57   2.0000     -10.309536      -280.5367
  58   2.0000     -10.308741      -280.5151
  59   2.0000     -10.306377      -280.4508
  60   2.0000     -10.304373      -280.3962
  61   2.0000     -10.302894      -280.3560
  62   2.0000     -10.302395      -280.3424
  63   2.0000     -10.302080      -280.3339
  64   2.0000     -10.301777      -280.3256
  65   2.0000     -10.301710      -280.3238
  66   2.0000     -10.297649      -280.2133
  67   2.0000     -10.297414      -280.2069
  68   2.0000     -10.296891      -280.1927
  69   2.0000     -10.296315      -280.1770
  70   2.0000     -10.294546      -280.1288
  71   2.0000     -10.290350      -280.0147
  72   2.0000     -10.289959      -280.0040
  73   2.0000     -10.289719      -279.9975
  74   2.0000     -10.289283      -279.9856
  75   2.0000     -10.288260      -279.9578
  76   2.0000     -10.286506      -279.9101
  77   2.0000     -10.285970      -279.8955
  78   2.0000     -10.285791      -279.8906
  79   2.0000     -10.285381      -279.8795
  80   2.0000     -10.280083      -279.7353
  81   2.0000      -8.097998      -220.3577
  82   2.0000      -8.094860      -220.2723
  83   2.0000      -8.094022      -220.2495
  84   2.0000      -8.093091      -220.2242
  85   2.0000      -8.090377      -220.1503
  86   2.0000      -6.067293      -165.0994
  87   2.0000      -6.063930      -165.0079
  88   2.0000      -6.063261      -164.9897
  89   2.0000      -6.063014      -164.9830
  90   2.0000      -6.062625      -164.9724
  91   2.0000      -6.060273      -164.9084
  92   2.0000      -6.059821      -164.8961
  93   2.0000      -6.059805      -164.8957
  94   2.0000      -6.059023      -164.8744
  95   2.0000      -6.057842      -164.8423
  96   2.0000      -6.057461      -164.8319
  97   2.0000      -6.056438      -164.8040
  98   2.0000      -6.055600      -164.7812
  99   2.0000      -6.055460      -164.7774
 100   2.0000      -6.052100      -164.6860
 101   2.0000      -1.343775       -36.5660
 102   2.0000      -1.161097       -31.5951
 103   2.0000      -1.135289       -30.8928
 104   2.0000      -1.135186       -30.8900
 105   2.0000      -1.057225       -28.7685
 106   2.0000      -1.055069       -28.7099
 107   2.0000      -1.036858       -28.2143
 108   2.0000      -1.029295       -28.0086
 109   2.0000      -1.028791       -27.9948
 110   2.0000      -1.024520       -27.8786
 111   2.0000      -1.020025       -27.7563
 112   2.0000      -1.014137       -27.5961
 113   2.0000      -1.013266       -27.5724
 114   2.0000      -1.010265       -27.4907
 115   2.0000      -1.004343       -27.3296
 116   2.0000      -1.003526       -27.3073
 117   2.0000      -0.999792       -27.2057
 118   2.0000      -0.998146       -27.1609
 119   2.0000      -0.994543       -27.0629
 120   2.0000      -0.977320       -26.5942
 121   2.0000      -0.973763       -26.4974
 122   2.0000      -0.968978       -26.3672
 123   2.0000      -0.966086       -26.2885
 124   2.0000      -0.936089       -25.4723
 125   2.0000      -0.933523       -25.4025
 126   2.0000      -0.927398       -25.2358
 127   2.0000      -0.925981       -25.1972
 128   2.0000      -0.918861       -25.0035
 129   2.0000      -0.909366       -24.7451
 130   2.0000      -0.900630       -24.5074
 131   2.0000      -0.896462       -24.3940
 132   2.0000      -0.886313       -24.1178
 133   2.0000      -0.882737       -24.0205
 134   2.0000      -0.881882       -23.9972
 135   2.0000      -0.880215       -23.9519
 136   2.0000      -0.871497       -23.7147
 137   2.0000      -0.868711       -23.6388
 138   2.0000      -0.866698       -23.5841
 139   2.0000      -0.863822       -23.5058
 140   2.0000      -0.836763       -22.7695
 141   2.0000      -0.832864       -22.6634
 142   2.0000      -0.828504       -22.5448
 143   2.0000      -0.825910       -22.4741
 144   2.0000      -0.812076       -22.0977
 145   2.0000      -0.799204       -21.7474
 146   2.0000      -0.788179       -21.4474
 147   2.0000      -0.785054       -21.3624
 148   2.0000      -0.775728       -21.1086
 149   2.0000      -0.770374       -20.9629
 150   2.0000      -0.763423       -20.7738
 151   2.0000      -0.763330       -20.7713
 152   2.0000      -0.748719       -20.3737
 153   2.0000      -0.727692       -19.8015
 154   2.0000      -0.719582       -19.5808
 155   2.0000      -0.713706       -19.4209
 156   2.0000      -0.707139       -19.2422
 157   2.0000      -0.705808       -19.2060
 158   2.0000      -0.705240       -19.1905
 159   2.0000      -0.700680       -19.0665
 160   2.0000      -0.697581       -18.9821
 161   2.0000      -0.694943       -18.9103
 162   2.0000      -0.690610       -18.7925
 163   2.0000      -0.684935       -18.6380
 164   2.0000      -0.681742       -18.5512
 165   2.0000      -0.677769       -18.4430
 166   2.0000      -0.671119       -18.2621
 167   2.0000      -0.663046       -18.0424
 168   2.0000      -0.658256       -17.9121
 169   2.0000      -0.651430       -17.7263
 170   2.0000      -0.642910       -17.4945
 171   2.0000      -0.640176       -17.4201
 172   2.0000      -0.637957       -17.3597
 173   2.0000      -0.633700       -17.2439
 174   2.0000      -0.631358       -17.1801
 175   2.0000      -0.628222       -17.0948
 176   2.0000      -0.623131       -16.9563
 177   2.0000      -0.622602       -16.9419
 178   2.0000      -0.612823       -16.6758
 179   2.0000      -0.612094       -16.6559
 180   2.0000      -0.606620       -16.5070
 181   2.0000      -0.603719       -16.4280
 182   2.0000      -0.602287       -16.3891
 183   2.0000      -0.594094       -16.1661
 184   2.0000      -0.591589       -16.0979
 185   2.0000      -0.577658       -15.7189
 186   2.0000      -0.570384       -15.5209
 187   2.0000      -0.563950       -15.3459
 188   2.0000      -0.560802       -15.2602
 189   2.0000      -0.559110       -15.2142
 190   2.0000      -0.556585       -15.1455
 191   2.0000      -0.551629       -15.0106
 192   2.0000      -0.550673       -14.9846
 193   2.0000      -0.548143       -14.9157
 194   2.0000      -0.547366       -14.8946
 195   2.0000      -0.543951       -14.8017
 196   2.0000      -0.541684       -14.7400
 197   2.0000      -0.540711       -14.7135
 198   2.0000      -0.538029       -14.6405
 199   2.0000      -0.536239       -14.5918
 200   2.0000      -0.531006       -14.4494
 201   2.0000      -0.529194       -14.4001
 202   2.0000      -0.524116       -14.2619
 203   2.0000      -0.523387       -14.2421
 204   2.0000      -0.521396       -14.1879
 205   2.0000      -0.517702       -14.0874
 206   2.0000      -0.516938       -14.0666
 207   2.0000      -0.515814       -14.0360
 208   2.0000      -0.513537       -13.9740
 209   2.0000      -0.512499       -13.9458
 210   2.0000      -0.511315       -13.9136
 211   2.0000      -0.509814       -13.8728
 212   2.0000      -0.508913       -13.8482
 213   2.0000      -0.507982       -13.8229
 214   2.0000      -0.503575       -13.7030
 215   2.0000      -0.501109       -13.6359
 216   2.0000      -0.498504       -13.5650
 217   2.0000      -0.497551       -13.5391
 218   2.0000      -0.496627       -13.5139
 219   2.0000      -0.495077       -13.4717
 220   2.0000      -0.493457       -13.4276
 221   2.0000      -0.489033       -13.3073
 222   2.0000      -0.485908       -13.2222
 223   2.0000      -0.484433       -13.1821
 224   2.0000      -0.480824       -13.0839
 225   2.0000      -0.474072       -12.9001
 226   2.0000      -0.470227       -12.7955
 227   2.0000      -0.469914       -12.7870
 228   2.0000      -0.468555       -12.7500
 229   2.0000      -0.467589       -12.7237
 230   2.0000      -0.465880       -12.6772
 231   2.0000      -0.465284       -12.6610
 232   2.0000      -0.463495       -12.6124
 233   2.0000      -0.459210       -12.4958
 234   2.0000      -0.457938       -12.4611
 235   2.0000      -0.455152       -12.3853
 236   2.0000      -0.452598       -12.3158
 237   2.0000      -0.451304       -12.2806
 238   2.0000      -0.450481       -12.2582
 239   2.0000      -0.449536       -12.2325
 240   2.0000      -0.447252       -12.1703
 241   2.0000      -0.446485       -12.1495
 242   2.0000      -0.445912       -12.1339
 243   2.0000      -0.445542       -12.1238
 244   2.0000      -0.444518       -12.0959
 245   2.0000      -0.443900       -12.0791
 246   2.0000      -0.442705       -12.0466
 247   2.0000      -0.440429       -11.9847
 248   2.0000      -0.439445       -11.9579
 249   2.0000      -0.437873       -11.9151
 250   2.0000      -0.435502       -11.8506
 251   2.0000      -0.434343       -11.8191
 252   2.0000      -0.434013       -11.8101
 253   2.0000      -0.432916       -11.7802
 254   2.0000      -0.432032       -11.7562
 255   2.0000      -0.430801       -11.7227
 256   2.0000      -0.429827       -11.6962
 257   2.0000      -0.426505       -11.6058
 258   2.0000      -0.421469       -11.4688
 259   2.0000      -0.420174       -11.4335
 260   2.0000      -0.412917       -11.2360
 261   2.0000      -0.410183       -11.1617
 262   2.0000      -0.408032       -11.1031
 263   2.0000      -0.406326       -11.0567
 264   2.0000      -0.404454       -11.0058
 265   2.0000      -0.398526       -10.8444
 266   2.0000      -0.394118       -10.7245
 267   2.0000      -0.387497       -10.5443
 268   2.0000      -0.385234       -10.4828
 269   2.0000      -0.380384       -10.3508
 270   2.0000      -0.375468       -10.2170
 271   2.0000      -0.365732        -9.9521
 272   2.0000      -0.360618        -9.8129
 273   2.0000      -0.356415        -9.6985
 274   2.0000      -0.354387        -9.6434
 275   2.0000      -0.346728        -9.4349
 276   2.0000      -0.341335        -9.2882
 277   2.0000      -0.338686        -9.2161
 278   2.0000      -0.331773        -9.0280
 279   2.0000      -0.329459        -8.9650
 280   2.0000      -0.322703        -8.7812
 281   2.0000      -0.318656        -8.6711
 282   2.0000      -0.314086        -8.5467
 283   2.0000      -0.299404        -8.1472
 284   2.0000      -0.295126        -8.0308
 285   2.0000      -0.281253        -7.6533
 286   2.0000      -0.259299        -7.0559
 287   0.0000      -0.122064        -3.3215
 288   0.0000      -0.115671        -3.1476
 289   0.0000      -0.094515        -2.5719
 290   0.0000      -0.092923        -2.5286
 291   0.0000      -0.077797        -2.1170

MULLIKEN ATOMIC CHARGES
-----------------------
   0 C :   -0.015428
   1 C :    0.036734
   2 C :    0.039820
   3 C :   -0.019336
   4 C :    0.094986
   5 C :   -0.080669
   6 C :    0.039190
   7 C :    0.012075
   8 C :   -0.081376
   9 C :    0.095487
  10 C :    0.141786
  11 O :   -0.136991
  12 C :   -0.137691
  13 C :    0.247944
  14 C :   -0.327787
  15 C :   -0.199920
  16 N :    0.170829
  17 C :   -0.175426
  18 N :    0.159678
  19 C :    0.052202
  20 C :   -0.112009
  21 C :    0.017858
  22 C :    0.028502
  23 C :   -0.087739
  24 S :    0.214391
  25 C :   -0.082237
  26 C :    0.041546
  27 C :    0.303628
  28 C :   -0.290593
  29 C :   -0.186422
  30 N :    0.171025
  31 C :   -0.190605
  32 N :    0.179920
  33 C :   -0.085346
  34 C :   -0.056444
  35 S :    0.246687
  36 C :   -0.101142
  37 C :    0.108103
  38 N :    0.265039
  39 O :   -0.265535
  40 O :   -0.218542
  41 C :   -0.095031
  42 C :    0.101065
  43 C :   -0.109472
  44 S :    0.151642
  45 C :   -0.064135
  46 C :   -0.046842
  47 C :    0.012682
  48 C :   -0.100344
  49 S :    0.201598
  50 C :   -0.083173
  51 C :   -0.005934
  52 C :    0.314015
  53 C :   -0.298343
  54 C :   -0.192051
  55 N :    0.201869
  56 C :   -0.188102
  57 N :    0.167907
  58 C :   -0.011446
  59 C :   -0.111075
  60 S :    0.212362
  61 C :    0.034491
  62 C :   -0.088548
  63 C :    0.321797
  64 C :   -0.359118
  65 C :   -0.183929
  66 N :    0.145217
  67 C :   -0.192841
  68 N :    0.155567
  69 C :    0.046994
  70 C :   -0.003017
  71 C :   -0.081189
  72 C :    0.099559
  73 C :   -0.016995
  74 C :    0.035851
  75 C :    0.036539
  76 C :   -0.020639
  77 C :    0.096294
  78 C :   -0.083569
  79 C :    0.157171
  80 O :   -0.150082
  81 H :   -0.016046
  82 H :   -0.003647
  83 H :   -0.002952
  84 H :   -0.010293
  85 H :   -0.003759
  86 H :   -0.010232
  87 H :    0.037670
  88 H :    0.017629
  89 H :    0.025227
  90 H :    0.049675
  91 H :    0.030939
  92 H :    0.054933
  93 H :    0.005623
  94 H :    0.039801
  95 H :    0.008799
  96 H :   -0.008233
  97 H :   -0.014826
  98 H :   -0.003798
  99 H :   -0.004242
 100 H :   -0.008309
 101 H :   -0.006897
Sum of atomic charges:   -0.0000000

LOEWDIN ATOMIC CHARGES
----------------------
   0 C :   -0.008365
   1 C :   -0.011480
   2 C :   -0.011178
   3 C :   -0.005907
   4 C :   -0.004948
   5 C :    0.017074
   6 C :   -0.023898
   7 C :   -0.057870
   8 C :    0.034415
   9 C :   -0.008470
  10 C :    0.083600
  11 O :   -0.138408
  12 C :   -0.092540
  13 C :    0.060877
  14 C :   -0.141118
  15 C :   -0.033251
  16 N :   -0.049167
  17 C :   -0.019941
  18 N :   -0.047696
  19 C :    0.049259
  20 C :   -0.175673
  21 C :    0.011777
  22 C :   -0.064836
  23 C :   -0.156805
  24 S :    0.510524
  25 C :   -0.183144
  26 C :   -0.062439
  27 C :    0.081289
  28 C :   -0.098068
  29 C :   -0.015073
  30 N :   -0.032760
  31 C :   -0.017696
  32 N :   -0.026010
  33 C :   -0.022884
  34 C :   -0.197293
  35 S :    0.541511
  36 C :   -0.141988
  37 C :   -0.081167
  38 N :    0.289377
  39 O :   -0.228523
  40 O :   -0.177630
  41 C :   -0.028537
  42 C :   -0.052524
  43 C :   -0.195458
  44 S :    0.471853
  45 C :   -0.169995
  46 C :   -0.030846
  47 C :   -0.054920
  48 C :   -0.187888
  49 S :    0.478694
  50 C :   -0.160787
  51 C :   -0.074749
  52 C :    0.075893
  53 C :   -0.092382
  54 C :   -0.024110
  55 N :   -0.011002
  56 C :   -0.013786
  57 N :   -0.032186
  58 C :    0.017152
  59 C :   -0.174910
  60 S :    0.502319
  61 C :    0.041129
  62 C :   -0.093291
  63 C :    0.077513
  64 C :   -0.142835
  65 C :   -0.016827
  66 N :   -0.054264
  67 C :   -0.024306
  68 N :   -0.054137
  69 C :   -0.027086
  70 C :   -0.055770
  71 C :    0.033944
  72 C :   -0.008035
  73 C :   -0.009025
  74 C :   -0.011862
  75 C :   -0.013123
  76 C :   -0.005338
  77 C :   -0.006229
  78 C :    0.019929
  79 C :    0.087258
  80 O :   -0.137625
  81 H :    0.032452
  82 H :    0.033472
  83 H :    0.033925
  84 H :    0.034654
  85 H :    0.039129
  86 H :    0.040185
  87 H :    0.055448
  88 H :    0.047365
  89 H :    0.033220
  90 H :    0.037343
  91 H :    0.041101
  92 H :    0.045244
  93 H :    0.041296
  94 H :    0.043467
  95 H :    0.042528
  96 H :    0.040580
  97 H :    0.032653
  98 H :    0.033146
  99 H :    0.033375
 100 H :    0.034913
 101 H :    0.039176

  Mayer bond orders larger than 0.100000
B(  0-C ,  1-C ) :   1.4881 B(  0-C ,  9-C ) :   1.2445 B(  0-C , 81-H ) :   0.9986
B(  1-C ,  2-C ) :   1.2602 B(  1-C , 82-H ) :   0.9891 B(  2-C ,  3-C ) :   1.4904
B(  2-C , 83-H ) :   0.9883 B(  3-C ,  4-C ) :   1.2383 B(  3-C , 84-H ) :   0.9984
B(  4-C ,  5-C ) :   1.2062 B(  4-C ,  9-C ) :   1.2574 B(  5-C ,  6-C ) :   1.4515
B(  5-C , 85-H ) :   0.9949 B(  6-C ,  7-C ) :   1.2150 B(  6-C , 13-C ) :   1.0050
B(  7-C ,  8-C ) :   1.4716 B(  7-C , 10-C ) :   0.9214 B(  8-C ,  9-C ) :   1.1835
B(  8-C , 86-H ) :   1.0176 B( 10-C , 11-O ) :   2.2797 B( 10-C , 12-C ) :   0.9288
B( 12-C , 13-C ) :   1.0271 B( 12-C , 19-C ) :   1.6781 B( 13-C , 14-C ) :   1.6598
B( 14-C , 15-C ) :   1.1555 B( 14-C , 17-C ) :   1.1359 B( 15-C , 16-N ) :   3.0127
B( 17-C , 18-N ) :   2.9920 B( 19-C , 20-C ) :   1.1037 B( 19-C , 87-H ) :   0.9461
B( 20-C , 21-C ) :   1.4169 B( 20-C , 24-S ) :   1.0993 B( 21-C , 22-C ) :   1.2963
B( 21-C , 88-H ) :   1.0004 B( 22-C , 23-C ) :   1.4102 B( 22-C , 27-C ) :   0.9920
B( 23-C , 24-S ) :   1.1488 B( 23-C , 25-C ) :   1.1992 B( 25-C , 26-C ) :   1.4009
B( 25-C , 35-S ) :   1.1177 B( 26-C , 27-C ) :   0.9915 B( 26-C , 33-C ) :   1.3476
B( 27-C , 28-C ) :   1.7175 B( 28-C , 29-C ) :   1.1349 B( 28-C , 31-C ) :   1.1325
B( 29-C , 30-N ) :   2.9847 B( 31-C , 32-N ) :   2.9950 B( 33-C , 34-C ) :   1.3907
B( 33-C , 89-H ) :   0.9776 B( 34-C , 35-S ) :   1.1098 B( 34-C , 36-C ) :   1.1955
B( 36-C , 37-C ) :   1.4403 B( 36-C , 43-C ) :   0.1055 B( 36-C , 44-S ) :   1.1808
B( 37-C , 38-N ) :   0.9475 B( 37-C , 41-C ) :   1.2389 B( 38-N , 39-O ) :   1.4492
B( 38-N , 40-O ) :   1.5409 B( 39-O , 40-O ) :   0.2468 B( 41-C , 42-C ) :   1.1173
B( 41-C , 43-C ) :   1.5823 B( 42-C , 90-H ) :   0.9229 B( 42-C , 91-H ) :   0.9270
B( 42-C , 92-H ) :   0.9328 B( 43-C , 44-S ) :   1.0784 B( 43-C , 45-C ) :   1.0912
B( 45-C , 46-C ) :   1.4747 B( 45-C , 49-S ) :   1.1140 B( 46-C , 47-C ) :   1.2746
B( 46-C , 93-H ) :   0.9955 B( 47-C , 48-C ) :   1.4441 B( 47-C , 52-C ) :   0.9951
B( 48-C , 49-S ) :   1.1154 B( 48-C , 50-C ) :   1.1940 B( 50-C , 51-C ) :   1.3859
B( 50-C , 60-S ) :   1.1702 B( 51-C , 52-C ) :   0.9958 B( 51-C , 58-C ) :   1.3081
B( 52-C , 53-C ) :   1.7144 B( 53-C , 54-C ) :   1.1366 B( 53-C , 56-C ) :   1.1379
B( 54-C , 55-N ) :   2.9993 B( 56-C , 57-N ) :   2.9803 B( 58-C , 59-C ) :   1.4039
B( 58-C , 94-H ) :   0.9694 B( 59-C , 60-S ) :   1.0788 B( 59-C , 61-C ) :   1.2104
B( 61-C , 62-C ) :   1.5988 B( 61-C , 95-H ) :   0.9093 B( 62-C , 63-C ) :   1.0799
B( 62-C , 79-C ) :   0.9362 B( 63-C , 64-C ) :   1.6171 B( 63-C , 69-C ) :   0.9859
B( 64-C , 65-C ) :   1.1525 B( 64-C , 67-C ) :   1.1403 B( 65-C , 66-N ) :   2.9613
B( 67-C , 68-N ) :   2.9723 B( 69-C , 70-C ) :   1.2149 B( 69-C , 78-C ) :   1.4486
B( 70-C , 71-C ) :   1.4705 B( 70-C , 79-C ) :   0.9548 B( 71-C , 72-C ) :   1.1768
B( 71-C , 96-H ) :   1.0176 B( 72-C , 73-C ) :   1.2444 B( 72-C , 77-C ) :   1.2546
B( 73-C , 74-C ) :   1.4885 B( 73-C , 97-H ) :   0.9982 B( 74-C , 75-C ) :   1.2590
B( 74-C , 98-H ) :   0.9889 B( 75-C , 76-C ) :   1.4907 B( 75-C , 99-H ) :   0.9883
B( 76-C , 77-C ) :   1.2401 B( 76-C ,100-H ) :   0.9972 B( 77-C , 78-C ) :   1.2085
B( 78-C ,101-H ) :   0.9893 B( 79-C , 80-O ) :   2.1668

-----------------------------------------------------------------------------
         ABSORPTION SPECTRUM VIA TRANSITION ELECTRIC DIPOLE MOMENTS
-----------------------------------------------------------------------------
State   Energy  Wavelength   fosc         T2         TX        TY        TZ
        (cm-1)    (nm)                  (au**2)     (au)      (au)      (au)
-----------------------------------------------------------------------------
   0   13468.1    742.5   0.683452616  16.70616  -3.63331   1.44073   1.19564
   1   14406.5    694.1   0.049702405   1.13578   0.45878   0.49628  -0.82402
   2   19473.6    513.5   1.137623023  19.23213  -3.70696   1.94520   1.30642
   3   21533.6    464.4   0.503314835   7.69484   2.30646   0.65786  -1.39366
   4   21997.6    454.6   0.100537011   1.50462   1.02637   0.37703  -0.55590
   5   23089.0    433.1   0.294538129   4.19963   0.54134   0.06104  -1.97556
   6   23566.7    424.3   0.107039145   1.49527  -0.41978   0.01243  -1.14843
   7   24993.0    400.1   0.061048385   0.80414  -0.67547   0.09614   0.58193
   8   25235.1    396.3   0.073138118   0.95415  -0.81988   0.33118   0.41506
   9   27319.8    366.0   0.011920005   0.14364   0.14566   0.22570   0.26737
  10   27600.4    362.3   0.009949625   0.11868   0.31816  -0.00234  -0.13209
  11   28089.7    356.0   0.107971885   1.26543  -1.01372   0.42481   0.23944
  12   28489.7    351.0   0.039598861   0.45758  -0.22123   0.31436  -0.55661
  13   28731.7    348.0   0.012353403   0.14155   0.30913  -0.19282  -0.09384
  14   29108.4    343.5   0.049321210   0.55782  -0.40932   0.32391  -0.53418
  15   29226.6    342.2   0.274350246   3.09031   1.49678  -0.92046   0.05221
  16   29345.7    340.8   0.043126588   0.48381   0.30429  -0.62542  -0.00846
  17   29838.3    335.1   0.214710747   2.36894   0.51535   0.02397  -1.45010
  18   29916.0    334.3   0.076117862   0.83764  -0.18079   0.42983   0.78753
  19   30257.1    330.5   0.285203937   3.10316   1.44314  -0.94593   0.35458
  20   30454.1    328.4   0.297180261   3.21255   0.81627  -0.22635  -1.57956
  21   30843.9    324.2   0.257750537   2.75109   1.43513  -0.00458  -0.83155
  22   31121.5    321.3   0.565110601   5.97790   2.03469  -1.35099  -0.11306
  23   31611.2    316.3   0.226358403   2.35739   0.17294  -0.19497  -1.51310
  24   31957.9    312.9   0.064921636   0.66879   0.64782   0.31694  -0.38558
  25   32185.3    310.7   0.147312598   1.50681   0.63268  -0.22399  -1.02779
  26   32367.9    308.9   0.123880291   1.25998  -0.35440   0.59645  -0.88240
  27   32635.2    306.4   0.274762000   2.77170  -1.44594   0.61396   0.55139
  28   32733.5    305.5   0.218817370   2.20072  -1.22543   0.83059  -0.09581
  29   33006.8    303.0   0.021885598   0.21829  -0.21723   0.19383  -0.36541
  30   33218.9    301.0   0.057009809   0.56499   0.65141  -0.28560  -0.24308
  31   33852.7    295.4   0.066215116   0.64393  -0.25497  -0.20227   0.73349
  32   34285.7    291.7   0.408278100   3.92029   1.34134  -1.38109   0.46228
  33   34358.0    291.1   0.148221807   1.42023  -0.21804   0.58983   1.01232
  34   34444.6    290.3   0.273126705   2.61047   1.19312  -0.48520  -0.97546
  35   34455.0    290.2   0.025073567   0.23957  -0.12862  -0.44393   0.16112
  36   34608.8    288.9   0.277937308   2.64384  -0.04664   0.48385  -1.55163
  37   35028.6    285.5   0.106568603   1.00157   0.91877  -0.20172  -0.34167
  38   35189.7    284.2   0.187225662   1.75156  -0.41953  -0.21356   1.23691
  39   35335.8    283.0   0.081181771   0.75634   0.63886  -0.04333  -0.58850
  40   35472.8    281.9   0.059590143   0.55304   0.16993   0.34110  -0.63860
  41   35758.8    279.7   0.091163618   0.83929  -0.87377   0.26031   0.08975
  42   36365.1    275.0   0.014338469   0.12981   0.00058  -0.35633   0.05323
  43   36499.3    274.0   0.022717495   0.20490  -0.38901  -0.06916   0.22089
  44   36914.7    270.9   0.023817076   0.21241   0.24466   0.07436  -0.38343
  45   37135.2    269.3   0.096550800   0.85594  -0.86246   0.32772   0.06863
  46   37345.1    267.8   0.051609954   0.45496   0.06015  -0.41811   0.52586
  47   37468.8    266.9   0.033182616   0.29155   0.25765   0.10181  -0.46347
  48   37680.5    265.4   0.032929324   0.28770  -0.44735  -0.01889   0.29534
  49   37907.0    263.8   0.006641272   0.05768  -0.11188  -0.18420   0.10599
  50   38025.0    263.0   0.022740076   0.19688   0.18675   0.25546  -0.31103
  51   38158.2    262.1   0.192123647   1.65756   0.28966  -0.80018   0.96610
  52   38230.7    261.6   0.057776866   0.49753  -0.05187   0.31832  -0.62730
  53   38458.5    260.0   0.030568669   0.26167  -0.48926  -0.02273   0.14758
  54   38624.3    258.9   0.043684915   0.37235   0.18740  -0.36537   0.45137
  55   38791.3    257.8   0.004933702   0.04187   0.02756   0.20130   0.02432
  56   38993.9    256.5   0.005315380   0.04488  -0.18790   0.09450  -0.02530
  57   39076.8    255.9   0.074800265   0.63017  -0.45079   0.08339   0.64808
  58   39236.5    254.9   0.018293929   0.15349   0.25432   0.21342  -0.20802
  59   39406.0    253.8   0.082873017   0.69235  -0.25781  -0.31251   0.72679
  60   39628.9    252.3   0.038501744   0.31985   0.27910  -0.26251  -0.41598
  61   39803.6    251.2   0.145461734   1.20310   0.01286   0.56569  -0.93965
  62   40098.0    249.4   0.132544236   1.08821   0.67314   0.49186   0.62703

FINAL SINGLE POINT ENERGY     -5193.029427618931

DIPOLE MOMENT
-------------
                                X             Y             Z
Electronic contribution:    -12.94377       1.66660     -11.21835
Nuclear contribution   :     11.71105      -3.28868      13.15610
                        -----------------------------------------
Total Dipole Moment    :     -1.23272      -1.62209       1.93775
                        -----------------------------------------
Magnitude (a.u.)       :      2.81170
Magnitude (Debye)      :      7.14677

Rotational constants in cm-1:     0.002002     0.000161     0.000154
Rotational constants in MHz :    60.018766     4.828302     4.619870

                             ****ORCA TERMINATED NORMALLY****
TOTAL RUN TIME: 0 days 0 hours 11 minutes 37 seconds 684 msec
