                         Program Version 4.2.0 -  RELEASE  -
|  1> # ORCA input file
|  2> # SCF done       -209.754750511357          0.000580619704
|  3> ! CAM-B3LYP def2-SVP def2/J RIJCOSX Grid4 TightSCF
|  4> %maxcore 5000
|  5> %tddft
|  6>     Mode sTDDFT
|  7>     Ethresh 5.0
|  8>     maxcore 5000
|  9> end
| 10>
| 11> %pal
| 12>   nprocs 6
| 13>   end
| 14> * xyz 0 1
| 15>    C       -1.42449        -0.79501         3.24114
| 16>    C       -1.49910        -2.15623         3.09676
| 17>    C       -0.38649        -3.02142         3.16942
| 18>    N        0.47407        -3.77970         3.21564
| 19>    C       -2.67360        -2.89551         2.84320
| 20>    N       -3.57746        -3.57275         2.63419
| 21>    C       -0.19933        -0.03865         3.48030
| 22>    C       -0.51534         1.34260         3.51794
| 23>    C        0.43013         2.31695         3.72688
| 24>    C        1.75536         1.90911         3.91111
| 25>    C        2.06320         0.52772         3.87470
| 26>    C        1.10581        -0.45680         3.66117
| 27>    S        3.75769         0.24416         4.12884
| 28>    C        4.02697         1.96034         4.27869
| 29>    C        2.90635         2.70954         4.14491
| 30>   Br        5.76011         2.60033         4.59708
| 31>    C       -1.96200         1.51072         3.30846
| 32>    O       -2.56986         2.56626         3.27043
| 33>    C       -2.51608         0.15941         3.16297
| 34>    C       -3.84439        -0.13816         3.01048
| 35>    C       -4.95522         0.71719         2.91897
| 36>    C       -6.25200         0.22363         2.78181
| 37>    C       -7.21144         1.21381         2.69165
| 38>   Cl       -8.88441         0.87544         2.51964
| 39>    C       -6.68737         2.50966         2.75042
| 40>    S       -4.95825         2.46108         2.93662
| 41>    C       -7.40350         3.72364         2.67216
| 42>    C       -6.89975         5.02652         2.70923
| 43>   Cl       -5.23410         5.36845         2.88144
| 44>    C       -7.86430         6.02317         2.59162
| 45>    C       -9.14306         5.50998         2.46368
| 46>    S       -9.13548         3.76992         2.49205
| 47>    C      -10.34125         6.23439         2.31414
| 48>    C      -10.49076         7.62700         2.23353
| 49>    C      -11.86074         8.03611         2.06109
| 50>    N      -12.18579         9.32631         1.95577
| 51>    C      -11.20417        10.19920         2.01877
| 52>    C      -11.57173        11.63281         1.89612
| 53>    O      -12.71532        12.00211         1.73413
| 54>    C      -10.44163        12.57452         1.98090
| 55>    C       -9.17056        12.19499         2.14786
| 56>    C       -8.74559        10.78913         2.26802
| 57>    O       -7.58458        10.47134         2.41492
| 58>    C       -9.84440         9.79327         2.19445
| 59>    N       -9.50701         8.52614         2.29764
| 60>    C      -12.75333         6.95545         2.01690
| 61>    S      -11.88827         5.46208         2.18506
| 62>    C      -14.15160         7.00649         1.85472
| 63>    C      -14.93533         8.13406         1.68688
| 64>    C      -16.28525         7.82509         1.54379
| 65>   Cl      -17.48796         9.01777         1.31278
| 66>    C      -16.57789         6.46215         1.60019
| 67>    S      -15.11252         5.55529         1.83783
| 68>    C      -17.83712         5.83001         1.49157
| 69>    C      -18.11570         4.46462         1.55344
| 70>   Cl      -16.90877         3.26736         1.75281
| 71>    C      -19.46585         4.15122         1.44751
| 72>    C      -20.26894         5.26536         1.28725
| 73>    S      -19.30885         6.71687         1.25601
| 74>    C      -21.66711         5.33886         1.08534
| 75>    C      -22.61784         4.41425         1.39046
| 76>    C      -22.60833         3.23716         2.23348
| 77>    C      -21.85753         3.05316         3.36545
| 78>    C      -21.96850         1.92619         4.20540
| 79>    N      -22.01191         1.02000         4.90824
| 80>    C      -20.95176         4.00928         3.86804
| 81>    N      -20.23346         4.77155         4.33718
| 82>    C      -23.73287         2.40300         1.82383
| 83>    C      -24.54788         3.14407         0.93046
| 84>    C      -23.93562         4.46668         0.69494
| 85>    O      -24.37144         5.38356         0.03986
| 86>    C      -25.70536         2.63343         0.39469
| 87>    C      -26.06827         1.32903         0.74723
| 88>    C      -25.24097         0.59420         1.63093
| 89>    C      -24.07506         1.11296         2.18072
| 90>    S      -25.87032        -0.99801         1.92114
| 91>    C      -27.21984        -0.66087         0.86936
| 92>    C      -27.20117         0.58005         0.32692
| 93>   Br      -28.52209        -1.97933         0.58520
| 94>    H        0.15605         3.35995         3.74874
| 95>    H        1.39253        -1.49480         3.64432
| 96>    H        2.89051         3.78218         4.20875
| 97>    H       -4.11134        -1.18630         2.95291
| 98>    H       -6.47657        -0.82728         2.74834
| 99>    H       -7.65788         7.07791         2.59521
|100>    H      -10.71017        13.61899         1.89640
|101>    H       -8.37002        12.92034         2.20422
|102>    H      -14.52879         9.12890         1.67015
|103>    H      -19.83073         3.14040         1.44345
|104>    H      -22.02786         6.21321         0.55262
|105>    H      -26.31211         3.22048        -0.27661
|106>    H      -23.47190         0.51538         2.84421
|107>    H      -27.95394         0.95298        -0.34324
|108> *
|109>
|110>                          ****END OF INPUT****

CARTESIAN COORDINATES (ANGSTROEM)
---------------------------------
  C     -1.424490   -0.795010    3.241140
  C     -1.499100   -2.156230    3.096760
  C     -0.386490   -3.021420    3.169420
  N      0.474070   -3.779700    3.215640
  C     -2.673600   -2.895510    2.843200
  N     -3.577460   -3.572750    2.634190
  C     -0.199330   -0.038650    3.480300
  C     -0.515340    1.342600    3.517940
  C      0.430130    2.316950    3.726880
  C      1.755360    1.909110    3.911110
  C      2.063200    0.527720    3.874700
  C      1.105810   -0.456800    3.661170
  S      3.757690    0.244160    4.128840
  C      4.026970    1.960340    4.278690
  C      2.906350    2.709540    4.144910
  Br     5.760110    2.600330    4.597080
  C     -1.962000    1.510720    3.308460
  O     -2.569860    2.566260    3.270430
  C     -2.516080    0.159410    3.162970
  C     -3.844390   -0.138160    3.010480
  C     -4.955220    0.717190    2.918970
  C     -6.252000    0.223630    2.781810
  C     -7.211440    1.213810    2.691650
  Cl    -8.884410    0.875440    2.519640
  C     -6.687370    2.509660    2.750420
  S     -4.958250    2.461080    2.936620
  C     -7.403500    3.723640    2.672160
  C     -6.899750    5.026520    2.709230
  Cl    -5.234100    5.368450    2.881440
  C     -7.864300    6.023170    2.591620
  C     -9.143060    5.509980    2.463680
  S     -9.135480    3.769920    2.492050
  C    -10.341250    6.234390    2.314140
  C    -10.490760    7.627000    2.233530
  C    -11.860740    8.036110    2.061090
  N    -12.185790    9.326310    1.955770
  C    -11.204170   10.199200    2.018770
  C    -11.571730   11.632810    1.896120
  O    -12.715320   12.002110    1.734130
  C    -10.441630   12.574520    1.980900
  C     -9.170560   12.194990    2.147860
  C     -8.745590   10.789130    2.268020
  O     -7.584580   10.471340    2.414920
  C     -9.844400    9.793270    2.194450
  N     -9.507010    8.526140    2.297640
  C    -12.753330    6.955450    2.016900
  S    -11.888270    5.462080    2.185060
  C    -14.151600    7.006490    1.854720
  C    -14.935330    8.134060    1.686880
  C    -16.285250    7.825090    1.543790
  Cl   -17.487960    9.017770    1.312780
  C    -16.577890    6.462150    1.600190
  S    -15.112520    5.555290    1.837830
  C    -17.837120    5.830010    1.491570
  C    -18.115700    4.464620    1.553440
  Cl   -16.908770    3.267360    1.752810
  C    -19.465850    4.151220    1.447510
  C    -20.268940    5.265360    1.287250
  S    -19.308850    6.716870    1.256010
  C    -21.667110    5.338860    1.085340
  C    -22.617840    4.414250    1.390460
  C    -22.608330    3.237160    2.233480
  C    -21.857530    3.053160    3.365450
  C    -21.968500    1.926190    4.205400
  N    -22.011910    1.020000    4.908240
  C    -20.951760    4.009280    3.868040
  N    -20.233460    4.771550    4.337180
  C    -23.732870    2.403000    1.823830
  C    -24.547880    3.144070    0.930460
  C    -23.935620    4.466680    0.694940
  O    -24.371440    5.383560    0.039860
  C    -25.705360    2.633430    0.394690
  C    -26.068270    1.329030    0.747230
  C    -25.240970    0.594200    1.630930
  C    -24.075060    1.112960    2.180720
  S    -25.870320   -0.998010    1.921140
  C    -27.219840   -0.660870    0.869360
  C    -27.201170    0.580050    0.326920
  Br   -28.522090   -1.979330    0.585200
  H      0.156050    3.359950    3.748740
  H      1.392530   -1.494800    3.644320
  H      2.890510    3.782180    4.208750
  H     -4.111340   -1.186300    2.952910
  H     -6.476570   -0.827280    2.748340
  H     -7.657880    7.077910    2.595210
  H    -10.710170   13.618990    1.896400
  H     -8.370020   12.920340    2.204220
  H    -14.528790    9.128900    1.670150
  H    -19.830730    3.140400    1.443450
  H    -22.027860    6.213210    0.552620
  H    -26.312110    3.220480   -0.276610
  H    -23.471900    0.515380    2.844210
  H    -27.953940    0.952980   -0.343240

 Total Charge           Charge          ....    0
 Multiplicity           Mult            ....    1
 Number of Electrons    NEL             ....  674
 Basis Dimension        Dim             .... 1256

ORBITAL ENERGIES
----------------

  NO   OCC          E(Eh)            E(eV)
   0   2.0000    -482.887668    -13140.0415
   1   2.0000    -482.886984    -13140.0229
   2   2.0000    -101.608792     -2764.9158
   3   2.0000    -101.605911     -2764.8374
   4   2.0000    -101.605535     -2764.8272
   5   2.0000    -101.601620     -2764.7206
   6   2.0000     -89.004238     -2421.9284
   7   2.0000     -88.978775     -2421.2356
   8   2.0000     -88.978648     -2421.2321
   9   2.0000     -88.978171     -2421.2191
  10   2.0000     -88.977360     -2421.1971
  11   2.0000     -88.977327     -2421.1962
  12   2.0000     -88.971607     -2421.0405
  13   2.0000     -62.565378     -1702.4905
  14   2.0000     -62.564704     -1702.4721
  15   2.0000     -56.399331     -1534.7038
  16   2.0000     -56.398653     -1534.6854
  17   2.0000     -56.396611     -1534.6298
  18   2.0000     -56.396579     -1534.6289
  19   2.0000     -56.395936     -1534.6114
  20   2.0000     -56.395904     -1534.6106
  21   2.0000     -19.233072      -523.3585
  22   2.0000     -19.232955      -523.3553
  23   2.0000     -19.224350      -523.1212
  24   2.0000     -19.217866      -522.9447
  25   2.0000     -14.454842      -393.3363
  26   2.0000     -14.454692      -393.3322
  27   2.0000     -14.418758      -392.3544
  28   2.0000     -14.418646      -392.3513
  29   2.0000     -14.416858      -392.3027
  30   2.0000     -14.415581      -392.2679
  31   2.0000     -10.381894      -282.5057
  32   2.0000     -10.381751      -282.5018
  33   2.0000     -10.372177      -282.2413
  34   2.0000     -10.369265      -282.1620
  35   2.0000     -10.361301      -281.9453
  36   2.0000     -10.360618      -281.9268
  37   2.0000     -10.346848      -281.5521
  38   2.0000     -10.346568      -281.5444
  39   2.0000     -10.346444      -281.5411
  40   2.0000     -10.345618      -281.5186
  41   2.0000     -10.344297      -281.4826
  42   2.0000     -10.344167      -281.4791
  43   2.0000     -10.343854      -281.4706
  44   2.0000     -10.343176      -281.4521
  45   2.0000     -10.343130      -281.4509
  46   2.0000     -10.341326      -281.4018
  47   2.0000     -10.340874      -281.3895
  48   2.0000     -10.340241      -281.3723
  49   2.0000     -10.340065      -281.3675
  50   2.0000     -10.339977      -281.3651
  51   2.0000     -10.338881      -281.3353
  52   2.0000     -10.333884      -281.1993
  53   2.0000     -10.331223      -281.1269
  54   2.0000     -10.329846      -281.0894
  55   2.0000     -10.328863      -281.0626
  56   2.0000     -10.327940      -281.0375
  57   2.0000     -10.327837      -281.0347
  58   2.0000     -10.327458      -281.0244
  59   2.0000     -10.325818      -280.9798
  60   2.0000     -10.325364      -280.9674
  61   2.0000     -10.321648      -280.8663
  62   2.0000     -10.321205      -280.8543
  63   2.0000     -10.320929      -280.8468
  64   2.0000     -10.318729      -280.7869
  65   2.0000     -10.318394      -280.7778
  66   2.0000     -10.318137      -280.7708
  67   2.0000     -10.314759      -280.6789
  68   2.0000     -10.314055      -280.6597
  69   2.0000     -10.312182      -280.6087
  70   2.0000     -10.310378      -280.5596
  71   2.0000     -10.310233      -280.5557
  72   2.0000     -10.309560      -280.5374
  73   2.0000     -10.309077      -280.5243
  74   2.0000     -10.307369      -280.4778
  75   2.0000     -10.304505      -280.3998
  76   2.0000     -10.304085      -280.3884
  77   2.0000     -10.303620      -280.3758
  78   2.0000     -10.302462      -280.3442
  79   2.0000     -10.301734      -280.3244
  80   2.0000     -10.299675      -280.2684
  81   2.0000     -10.299063      -280.2517
  82   2.0000     -10.298363      -280.2327
  83   2.0000     -10.296194      -280.1737
  84   2.0000     -10.294798      -280.1357
  85   2.0000     -10.292313      -280.0681
  86   2.0000     -10.291141      -280.0362
  87   2.0000      -9.563544      -260.2373
  88   2.0000      -9.560667      -260.1590
  89   2.0000      -9.560353      -260.1504
  90   2.0000      -9.556410      -260.0431
  91   2.0000      -8.794803      -239.3187
  92   2.0000      -8.794143      -239.3008
  93   2.0000      -8.098965      -220.3840
  94   2.0000      -8.074213      -219.7105
  95   2.0000      -8.073550      -219.6925
  96   2.0000      -8.073540      -219.6922
  97   2.0000      -8.073342      -219.6868
  98   2.0000      -8.072145      -219.6542
  99   2.0000      -8.064256      -219.4396
 100   2.0000      -7.333622      -199.5580
 101   2.0000      -7.330763      -199.4802
 102   2.0000      -7.330423      -199.4709
 103   2.0000      -7.326569      -199.3661
 104   2.0000      -7.323641      -199.2864
 105   2.0000      -7.323549      -199.2839
 106   2.0000      -7.320761      -199.2080
 107   2.0000      -7.320654      -199.2051
 108   2.0000      -7.320443      -199.1994
 109   2.0000      -7.320361      -199.1971
 110   2.0000      -7.316550      -199.0935
 111   2.0000      -7.316242      -199.0851
 112   2.0000      -6.631110      -180.4417
 113   2.0000      -6.630445      -180.4236
 114   2.0000      -6.616536      -180.0451
 115   2.0000      -6.616334      -180.0396
 116   2.0000      -6.615878      -180.0272
 117   2.0000      -6.615677      -180.0217
 118   2.0000      -6.067962      -165.1176
 119   2.0000      -6.063800      -165.0044
 120   2.0000      -6.061782      -164.9495
 121   2.0000      -6.043891      -164.4626
 122   2.0000      -6.043142      -164.4423
 123   2.0000      -6.043014      -164.4388
 124   2.0000      -6.043014      -164.4388
 125   2.0000      -6.041741      -164.4041
 126   2.0000      -6.039627      -164.3466
 127   2.0000      -6.038769      -164.3232
 128   2.0000      -6.038755      -164.3229
 129   2.0000      -6.038653      -164.3201
 130   2.0000      -6.037364      -164.2850
 131   2.0000      -6.035435      -164.2325
 132   2.0000      -6.035412      -164.2319
 133   2.0000      -6.035178      -164.2256
 134   2.0000      -6.034577      -164.2092
 135   2.0000      -6.033916      -164.1912
 136   2.0000      -6.033818      -164.1885
 137   2.0000      -6.029134      -164.0611
 138   2.0000      -6.026067      -163.9776
 139   2.0000      -2.747014       -74.7501
 140   2.0000      -2.746329       -74.7314
 141   2.0000      -2.742874       -74.6374
 142   2.0000      -2.742721       -74.6332
 143   2.0000      -2.742218       -74.6195
 144   2.0000      -2.742079       -74.6158
 145   2.0000      -2.731147       -74.3183
 146   2.0000      -2.731144       -74.3182
 147   2.0000      -2.730491       -74.3004
 148   2.0000      -2.730482       -74.3002
 149   2.0000      -1.149982       -31.2926
 150   2.0000      -1.145487       -31.1703
 151   2.0000      -1.140009       -31.0212
 152   2.0000      -1.133737       -30.8505
 153   2.0000      -1.106063       -30.0975
 154   2.0000      -1.037694       -28.2371
 155   2.0000      -1.034676       -28.1550
 156   2.0000      -1.031023       -28.0556
 157   2.0000      -1.026165       -27.9234
 158   2.0000      -1.025039       -27.8927
 159   2.0000      -1.019125       -27.7318
 160   2.0000      -1.015642       -27.6370
 161   2.0000      -1.015239       -27.6260
 162   2.0000      -1.009867       -27.4799
 163   2.0000      -1.002481       -27.2789
 164   2.0000      -0.996098       -27.1052
 165   2.0000      -0.996095       -27.1051
 166   2.0000      -0.992677       -27.0121
 167   2.0000      -0.992063       -26.9954
 168   2.0000      -0.970987       -26.4219
 169   2.0000      -0.966632       -26.3034
 170   2.0000      -0.960650       -26.1406
 171   2.0000      -0.955216       -25.9928
 172   2.0000      -0.944960       -25.7137
 173   2.0000      -0.944254       -25.6945
 174   2.0000      -0.943527       -25.6747
 175   2.0000      -0.912665       -24.8349
 176   2.0000      -0.911345       -24.7990
 177   2.0000      -0.910675       -24.7807
 178   2.0000      -0.908420       -24.7194
 179   2.0000      -0.896516       -24.3954
 180   2.0000      -0.889004       -24.1910
 181   2.0000      -0.887905       -24.1611
 182   2.0000      -0.884140       -24.0587
 183   2.0000      -0.880411       -23.9572
 184   2.0000      -0.872034       -23.7293
 185   2.0000      -0.859256       -23.3815
 186   2.0000      -0.850912       -23.1545
 187   2.0000      -0.836762       -22.7695
 188   2.0000      -0.834416       -22.7056
 189   2.0000      -0.832400       -22.6508
 190   2.0000      -0.830783       -22.6068
 191   2.0000      -0.828038       -22.5321
 192   2.0000      -0.824087       -22.4245
 193   2.0000      -0.809683       -22.0326
 194   2.0000      -0.806554       -21.9474
 195   2.0000      -0.795431       -21.6448
 196   2.0000      -0.788366       -21.4525
 197   2.0000      -0.775063       -21.0905
 198   2.0000      -0.767412       -20.8823
 199   2.0000      -0.762428       -20.7467
 200   2.0000      -0.758618       -20.6430
 201   2.0000      -0.745787       -20.2939
 202   2.0000      -0.736321       -20.0363
 203   2.0000      -0.717813       -19.5327
 204   2.0000      -0.715008       -19.4564
 205   2.0000      -0.700602       -19.0644
 206   2.0000      -0.694562       -18.9000
 207   2.0000      -0.693609       -18.8741
 208   2.0000      -0.689267       -18.7559
 209   2.0000      -0.686826       -18.6895
 210   2.0000      -0.680638       -18.5211
 211   2.0000      -0.674424       -18.3520
 212   2.0000      -0.670970       -18.2580
 213   2.0000      -0.666250       -18.1296
 214   2.0000      -0.661818       -18.0090
 215   2.0000      -0.657072       -17.8798
 216   2.0000      -0.651237       -17.7211
 217   2.0000      -0.647280       -17.6134
 218   2.0000      -0.634418       -17.2634
 219   2.0000      -0.631726       -17.1901
 220   2.0000      -0.628502       -17.1024
 221   2.0000      -0.625319       -17.0158
 222   2.0000      -0.624431       -16.9916
 223   2.0000      -0.619177       -16.8487
 224   2.0000      -0.609957       -16.5978
 225   2.0000      -0.605286       -16.4707
 226   2.0000      -0.604439       -16.4476
 227   2.0000      -0.601802       -16.3759
 228   2.0000      -0.599961       -16.3258
 229   2.0000      -0.592487       -16.1224
 230   2.0000      -0.587124       -15.9765
 231   2.0000      -0.577965       -15.7272
 232   2.0000      -0.573648       -15.6097
 233   2.0000      -0.572939       -15.5905
 234   2.0000      -0.565660       -15.3924
 235   2.0000      -0.564188       -15.3523
 236   2.0000      -0.560293       -15.2464
 237   2.0000      -0.554518       -15.0892
 238   2.0000      -0.551098       -14.9961
 239   2.0000      -0.546489       -14.8707
 240   2.0000      -0.545339       -14.8394
 241   2.0000      -0.542996       -14.7757
 242   2.0000      -0.540892       -14.7184
 243   2.0000      -0.538180       -14.6446
 244   2.0000      -0.537093       -14.6150
 245   2.0000      -0.536518       -14.5994
 246   2.0000      -0.534688       -14.5496
 247   2.0000      -0.532444       -14.4885
 248   2.0000      -0.531924       -14.4744
 249   2.0000      -0.530796       -14.4437
 250   2.0000      -0.525918       -14.3110
 251   2.0000      -0.523299       -14.2397
 252   2.0000      -0.522478       -14.2173
 253   2.0000      -0.519935       -14.1482
 254   2.0000      -0.518438       -14.1074
 255   2.0000      -0.514046       -13.9879
 256   2.0000      -0.511471       -13.9178
 257   2.0000      -0.511317       -13.9136
 258   2.0000      -0.510170       -13.8824
 259   2.0000      -0.509282       -13.8583
 260   2.0000      -0.506473       -13.7818
 261   2.0000      -0.504269       -13.7219
 262   2.0000      -0.503134       -13.6910
 263   2.0000      -0.499722       -13.5981
 264   2.0000      -0.499400       -13.5894
 265   2.0000      -0.498906       -13.5759
 266   2.0000      -0.496525       -13.5111
 267   2.0000      -0.493329       -13.4242
 268   2.0000      -0.491509       -13.3746
 269   2.0000      -0.489385       -13.3168
 270   2.0000      -0.487980       -13.2786
 271   2.0000      -0.478884       -13.0311
 272   2.0000      -0.475929       -12.9507
 273   2.0000      -0.474434       -12.9100
 274   2.0000      -0.470018       -12.7898
 275   2.0000      -0.468220       -12.7409
 276   2.0000      -0.465745       -12.6736
 277   2.0000      -0.462103       -12.5745
 278   2.0000      -0.461196       -12.5498
 279   2.0000      -0.460735       -12.5372
 280   2.0000      -0.455600       -12.3975
 281   2.0000      -0.455305       -12.3895
 282   2.0000      -0.452016       -12.3000
 283   2.0000      -0.451982       -12.2991
 284   2.0000      -0.451018       -12.2728
 285   2.0000      -0.449906       -12.2426
 286   2.0000      -0.447220       -12.1695
 287   2.0000      -0.446258       -12.1433
 288   2.0000      -0.445025       -12.1098
 289   2.0000      -0.444604       -12.0983
 290   2.0000      -0.441689       -12.0190
 291   2.0000      -0.439608       -11.9623
 292   2.0000      -0.439511       -11.9597
 293   2.0000      -0.436413       -11.8754
 294   2.0000      -0.429562       -11.6890
 295   2.0000      -0.428816       -11.6687
 296   2.0000      -0.426866       -11.6156
 297   2.0000      -0.424768       -11.5585
 298   2.0000      -0.423874       -11.5342
 299   2.0000      -0.420062       -11.4305
 300   2.0000      -0.416311       -11.3284
 301   2.0000      -0.414674       -11.2839
 302   2.0000      -0.413156       -11.2425
 303   2.0000      -0.412678       -11.2295
 304   2.0000      -0.409747       -11.1498
 305   2.0000      -0.397291       -10.8109
 306   2.0000      -0.393086       -10.6964
 307   2.0000      -0.391882       -10.6637
 308   2.0000      -0.389202       -10.5907
 309   2.0000      -0.388234       -10.5644
 310   2.0000      -0.387199       -10.5362
 311   2.0000      -0.378752       -10.3064
 312   2.0000      -0.377921       -10.2837
 313   2.0000      -0.376995       -10.2586
 314   2.0000      -0.376523       -10.2457
 315   2.0000      -0.373946       -10.1756
 316   2.0000      -0.372726       -10.1424
 317   2.0000      -0.368471       -10.0266
 318   2.0000      -0.364011        -9.9052
 319   2.0000      -0.355556        -9.6752
 320   2.0000      -0.352844        -9.6014
 321   2.0000      -0.351227        -9.5574
 322   2.0000      -0.341837        -9.3019
 323   2.0000      -0.340789        -9.2733
 324   2.0000      -0.335511        -9.1297
 325   2.0000      -0.334364        -9.0985
 326   2.0000      -0.333266        -9.0686
 327   2.0000      -0.329594        -8.9687
 328   2.0000      -0.324886        -8.8406
 329   2.0000      -0.322184        -8.7671
 330   2.0000      -0.318181        -8.6581
 331   2.0000      -0.317115        -8.6291
 332   2.0000      -0.303224        -8.2511
 333   2.0000      -0.296748        -8.0749
 334   2.0000      -0.295039        -8.0284
 335   2.0000      -0.272850        -7.4246
 336   2.0000      -0.240230        -6.5370
 337   0.0000      -0.116009        -3.1568
 338   0.0000      -0.099086        -2.6963
 339   0.0000      -0.090579        -2.4648
 340   0.0000      -0.088859        -2.4180
 341   0.0000      -0.063967        -1.7406

MULLIKEN ATOMIC CHARGES
-----------------------
   0 C :    0.323085
   1 C :   -0.351859
   2 C :   -0.188057
   3 N :    0.152822
   4 C :   -0.188918
   5 N :    0.145094
   6 C :    0.013276
   7 C :   -0.012471
   8 C :   -0.069623
   9 C :    0.117365
  10 C :   -0.091895
  11 C :   -0.020618
  12 S :    0.188947
  13 C :   -0.122678
  14 C :    0.037099
  15 Br:    0.025625
  16 C :    0.166599
  17 O :   -0.180338
  18 C :   -0.093169
  19 C :   -0.010141
  20 C :   -0.042156
  21 C :    0.000747
  22 C :    0.086132
  23 Cl:   -0.061643
  24 C :   -0.073943
  25 S :    0.213167
  26 C :   -0.092581
  27 C :    0.080615
  28 Cl:   -0.037794
  29 C :   -0.017871
  30 C :   -0.072556
  31 S :    0.142108
  32 C :   -0.093466
  33 C :    0.015981
  34 C :    0.019092
  35 N :    0.066200
  36 C :   -0.121047
  37 C :    0.145642
  38 O :   -0.105367
  39 C :   -0.017099
  40 C :   -0.017188
  41 C :    0.144778
  42 O :   -0.105045
  43 C :   -0.119723
  44 N :    0.066572
  45 C :   -0.094391
  46 S :    0.220775
  47 C :   -0.073185
  48 C :   -0.013117
  49 C :    0.075793
  50 Cl:   -0.046963
  51 C :   -0.081406
  52 S :    0.145292
  53 C :   -0.073871
  54 C :    0.047643
  55 Cl:   -0.053516
  56 C :    0.051597
  57 C :   -0.109166
  58 S :    0.188210
  59 C :    0.095177
  60 C :   -0.129080
  61 C :    0.257442
  62 C :   -0.333645
  63 C :   -0.177998
  64 N :    0.157731
  65 C :   -0.202949
  66 N :    0.173690
  67 C :    0.002269
  68 C :    0.004024
  69 C :    0.134806
  70 O :   -0.140344
  71 C :   -0.073671
  72 C :    0.113625
  73 C :   -0.086389
  74 C :   -0.023692
  75 S :    0.187017
  76 C :   -0.124332
  77 C :    0.039979
  78 Br:    0.025984
  79 H :   -0.009457
  80 H :   -0.005334
  81 H :   -0.001862
  82 H :    0.009092
  83 H :    0.005877
  84 H :    0.011010
  85 H :    0.020253
  86 H :    0.020320
  87 H :    0.009882
  88 H :   -0.000680
  89 H :    0.025396
  90 H :   -0.007022
  91 H :   -0.002271
  92 H :   -0.002242
Sum of atomic charges:   -0.0000000

LOEWDIN ATOMIC CHARGES
----------------------
   0 C :    0.076998
   1 C :   -0.142419
   2 C :   -0.018448
   3 N :   -0.053574
   4 C :   -0.021016
   5 N :   -0.053245
   6 C :   -0.020031
   7 C :   -0.050585
   8 C :    0.022851
   9 C :   -0.032619
  10 C :   -0.143860
  11 C :   -0.008989
  12 S :    0.434922
  13 C :   -0.271445
  14 C :   -0.070252
  15 Br:    0.138398
  16 C :    0.085598
  17 O :   -0.165360
  18 C :   -0.108047
  19 C :    0.057489
  20 C :   -0.191056
  21 C :   -0.030190
  22 C :   -0.179867
  23 Cl:    0.158573
  24 C :   -0.194567
  25 S :    0.522429
  26 C :   -0.209484
  27 C :   -0.157510
  28 Cl:    0.181478
  29 C :   -0.049417
  30 C :   -0.186360
  31 S :    0.438626
  32 C :   -0.188897
  33 C :   -0.041876
  34 C :   -0.042314
  35 N :    0.009558
  36 C :   -0.041871
  37 C :    0.056495
  38 O :   -0.101101
  39 C :   -0.011768
  40 C :   -0.011672
  41 C :    0.056439
  42 O :   -0.101169
  43 C :   -0.041653
  44 N :    0.009648
  45 C :   -0.187602
  46 S :    0.509573
  47 C :   -0.187747
  48 C :   -0.046942
  49 C :   -0.161645
  50 Cl:    0.174330
  51 C :   -0.206020
  52 S :    0.442222
  53 C :   -0.187621
  54 C :   -0.169388
  55 Cl:    0.168193
  56 C :   -0.033317
  57 C :   -0.188629
  58 S :    0.480641
  59 C :    0.049095
  60 C :   -0.090440
  61 C :    0.064521
  62 C :   -0.139856
  63 C :   -0.021143
  64 N :   -0.050167
  65 C :   -0.019758
  66 N :   -0.040632
  67 C :   -0.018609
  68 C :   -0.052910
  69 C :    0.083133
  70 O :   -0.140597
  71 C :    0.023390
  72 C :   -0.032945
  73 C :   -0.143038
  74 C :   -0.012465
  75 S :    0.433639
  76 C :   -0.271407
  77 C :   -0.069765
  78 Br:    0.138648
  79 H :    0.041364
  80 H :    0.041436
  81 H :    0.039252
  82 H :    0.051019
  83 H :    0.041909
  84 H :    0.040717
  85 H :    0.046634
  86 H :    0.046555
  87 H :    0.040887
  88 H :    0.036885
  89 H :    0.047338
  90 H :    0.042057
  91 H :    0.041051
  92 H :    0.039318

  Mayer bond orders larger than 0.100000
B(  0-C ,  1-C ) :   1.6220 B(  0-C ,  6-C ) :   0.9993 B(  0-C , 18-C ) :   1.0782
B(  1-C ,  2-C ) :   1.1449 B(  1-C ,  4-C ) :   1.1458 B(  2-C ,  3-N ) :   2.9692
B(  4-C ,  5-N ) :   2.9572 B(  6-C ,  7-C ) :   1.2755 B(  6-C , 11-C ) :   1.4144
B(  7-C ,  8-C ) :   1.4199 B(  7-C , 16-C ) :   0.9607 B(  8-C ,  9-C ) :   1.2445
B(  8-C , 79-H ) :   1.0179 B(  9-C , 10-C ) :   1.3065 B(  9-C , 14-C ) :   1.1627
B( 10-C , 11-C ) :   1.3264 B( 10-C , 12-S ) :   1.0878 B( 11-C , 80-H ) :   0.9799
B( 12-S , 13-C ) :   1.0867 B( 13-C , 14-C ) :   1.6165 B( 13-C , 15-Br) :   1.0202
B( 14-C , 81-H ) :   1.0008 B( 16-C , 17-O ) :   2.1248 B( 16-C , 18-C ) :   0.9771
B( 18-C , 19-C ) :   1.5046 B( 19-C , 20-C ) :   1.2565 B( 19-C , 82-H ) :   0.9394
B( 20-C , 21-C ) :   1.3407 B( 20-C , 25-S ) :   1.0778 B( 21-C , 22-C ) :   1.3358
B( 21-C , 83-H ) :   1.0147 B( 22-C , 23-Cl) :   1.0296 B( 22-C , 24-C ) :   1.3652
B( 24-C , 25-S ) :   1.1187 B( 24-C , 26-C ) :   1.2211 B( 26-C , 27-C ) :   1.4325
B( 26-C , 30-C ) :   0.1014 B( 26-C , 31-S ) :   1.1173 B( 27-C , 28-Cl) :   1.0588
B( 27-C , 29-C ) :   1.2615 B( 29-C , 30-C ) :   1.4557 B( 29-C , 84-H ) :   1.0008
B( 30-C , 31-S ) :   1.0897 B( 30-C , 32-C ) :   1.1862 B( 32-C , 33-C ) :   1.3623
B( 32-C , 45-C ) :   0.1515 B( 32-C , 46-S ) :   1.1599 B( 33-C , 34-C ) :   1.1846
B( 33-C , 44-N ) :   1.4448 B( 34-C , 35-N ) :   1.4429 B( 34-C , 45-C ) :   1.3636
B( 35-N , 36-C ) :   1.7135 B( 36-C , 37-C ) :   0.8935 B( 36-C , 43-C ) :   1.0907
B( 37-C , 38-O ) :   2.2318 B( 37-C , 39-C ) :   1.0254 B( 39-C , 40-C ) :   1.6803
B( 39-C , 85-H ) :   0.9994 B( 40-C , 41-C ) :   1.0274 B( 40-C , 86-H ) :   0.9988
B( 41-C , 42-O ) :   2.2315 B( 41-C , 43-C ) :   0.8943 B( 43-C , 44-N ) :   1.7114
B( 45-C , 46-S ) :   1.1616 B( 45-C , 47-C ) :   1.1862 B( 47-C , 48-C ) :   1.4579
B( 47-C , 51-C ) :   0.1024 B( 47-C , 52-S ) :   1.0884 B( 48-C , 49-C ) :   1.2611
B( 48-C , 87-H ) :   1.0007 B( 49-C , 50-Cl) :   1.0443 B( 49-C , 51-C ) :   1.4431
B( 51-C , 52-S ) :   1.1228 B( 51-C , 53-C ) :   1.1956 B( 53-C , 54-C ) :   1.4263
B( 53-C , 58-S ) :   1.1556 B( 54-C , 55-Cl) :   1.0375 B( 54-C , 56-C ) :   1.3353
B( 56-C , 57-C ) :   1.4208 B( 56-C , 88-H ) :   0.9975 B( 57-C , 58-S ) :   1.0929
B( 57-C , 59-C ) :   1.1209 B( 59-C , 60-C ) :   1.6776 B( 59-C , 89-H ) :   0.9315
B( 60-C , 61-C ) :   1.0364 B( 60-C , 69-C ) :   0.9402 B( 61-C , 62-C ) :   1.6487
B( 61-C , 67-C ) :   1.0151 B( 62-C , 63-C ) :   1.1274 B( 62-C , 65-C ) :   1.1645
B( 63-C , 64-N ) :   2.9912 B( 65-C , 66-N ) :   3.0073 B( 67-C , 68-C ) :   1.2738
B( 67-C , 74-C ) :   1.4132 B( 68-C , 69-C ) :   0.9187 B( 68-C , 71-C ) :   1.4247
B( 69-C , 70-O ) :   2.2715 B( 71-C , 72-C ) :   1.2516 B( 71-C , 90-H ) :   1.0168
B( 72-C , 73-C ) :   1.3046 B( 72-C , 77-C ) :   1.1642 B( 73-C , 74-C ) :   1.3268
B( 73-C , 75-S ) :   1.0858 B( 74-C , 91-H ) :   0.9842 B( 75-S , 76-C ) :   1.0864
B( 76-C , 77-C ) :   1.6192 B( 76-C , 78-Br) :   1.0201 B( 77-C , 92-H ) :   1.0005

-----------------------------------------------------------------------------
         ABSORPTION SPECTRUM VIA TRANSITION ELECTRIC DIPOLE MOMENTS
-----------------------------------------------------------------------------
State   Energy  Wavelength   fosc         T2         TX        TY        TZ
        (cm-1)    (nm)                  (au**2)     (au)      (au)      (au)
-----------------------------------------------------------------------------
   0   11932.3    838.1   1.224221004  33.77617  -5.65782   1.25650  -0.43177
   1   16652.4    600.5   0.479769530   9.48485   0.63925   3.00376  -0.23156
   2   18590.2    537.9   0.542476438   9.60665   3.08138   0.26011  -0.21000
   3   19436.6    514.5   0.480016220   8.13038  -1.63634   2.29155  -0.44895
   4   20794.9    480.9   0.119032018   1.88444   0.43225   1.30223  -0.04237
   5   24847.6    402.5   0.074524841   0.98740   0.93463  -0.15021   0.30215
   6   25109.9    398.2   0.002666836   0.03496   0.02464  -0.00134  -0.18535
   7   25373.4    394.1   0.011372508   0.14755   0.15097  -0.12752  -0.32940
   8   25778.9    387.9   0.186396947   2.38040  -1.53266  -0.17629   0.01697
   9   26052.3    383.8   0.000000687   0.00001  -0.00024  -0.00097  -0.00277
  10   26669.9    375.0   0.001157829   0.01429  -0.00765   0.00104   0.11930
  11   27011.5    370.2   0.456751866   5.56682  -1.94420  -0.95286  -0.93755
  12   27125.2    368.7   0.030003243   0.36414  -0.46618  -0.37702   0.06836
  13   27323.4    366.0   0.081398005   0.98074  -0.89417  -0.42557   0.00924
  14   27863.5    358.9   0.007637927   0.09024  -0.00072   0.27827  -0.11317
  15   28038.8    356.6   0.082619498   0.97006  -0.78502  -0.59249   0.05248
  16   28147.9    355.3   0.143925479   1.68332  -1.10815  -0.64423  -0.20074
  17   29069.1    344.0   0.071649711   0.81144   0.87972  -0.14190   0.13192
  18   29296.2    341.3   0.019488500   0.21900   0.25422   0.37891  -0.10392
  19   29593.2    337.9   0.097572433   1.08545  -1.00345   0.25914  -0.10673
  20   29687.0    336.8   0.002071064   0.02297  -0.13332   0.07206  -0.00006
  21   29886.5    334.6   0.086251278   0.95009  -0.33225   0.91410   0.06424
  22   30276.7    330.3   0.002784222   0.03027  -0.12850  -0.09142  -0.07351
  23   30949.6    323.1   0.000019650   0.00021  -0.01223   0.00737  -0.00225
  24   31601.8    316.4   0.010258970   0.10687  -0.10479  -0.29933  -0.07935
  25   31755.3    314.9   0.007500128   0.07775   0.16574   0.21095  -0.07606
  26   31960.6    312.9   0.063831720   0.65750  -0.18833  -0.73005  -0.29844
  27   32186.5    310.7   0.012073054   0.12349  -0.27229   0.02561  -0.22066
  28   32491.5    307.8   0.004016185   0.04069  -0.16193  -0.10132  -0.06486
  29   32615.8    306.6   0.897853703   9.06261   2.14318   1.93397   0.85391
  30   32875.3    304.2   0.085527797   0.85647  -0.16543   0.71624  -0.56224
  31   33212.2    301.1   0.084773659   0.84031  -0.65531  -0.43657  -0.46935
  32   33556.3    298.0   0.094042588   0.92263   0.88051   0.30711   0.23025
  33   33764.2    296.2   0.008159598   0.07956  -0.12485  -0.25061  -0.03414
  34   33905.8    294.9   0.224646354   2.18123   0.91734   1.13695   0.21692
  35   34051.5    293.7   0.171135662   1.65455  -0.85711  -0.86205  -0.42047
  36   34123.2    293.1   0.054548010   0.52627  -0.60394   0.19888  -0.34924
  37   34157.0    292.8   0.000576114   0.00555   0.04724  -0.04260   0.03881
  38   34632.1    288.7   0.001927035   0.01832  -0.13035  -0.03417   0.01267
  39   34745.8    287.8   0.040762950   0.38622   0.62075   0.01490  -0.02597
  40   34931.4    286.3   0.078878171   0.74339   0.81973   0.26412  -0.04085
  41   35045.2    285.3   0.023683859   0.22248  -0.40877   0.20613  -0.11358
  42   35395.4    282.5   0.207934712   1.93400  -0.45932  -1.31146   0.05558
  43   35403.8    282.5   0.082435007   0.76654  -0.30099  -0.82054   0.05156
  44   35704.0    280.1   0.042008328   0.38734  -0.56365   0.26155  -0.03514
  45   36232.1    276.0   0.145619542   1.32313  -0.43172  -1.06442   0.06140
  46   36368.5    275.0   0.004455494   0.04033  -0.17653  -0.09567   0.00404
  47   36603.5    273.2   0.015515725   0.13955   0.30460  -0.19237   0.09880
  48   36802.3    271.7   0.012616975   0.11286  -0.28932   0.17042  -0.01058
  49   36841.7    271.4   0.002101308   0.01878   0.01245  -0.11121  -0.07908
  50   36934.2    270.8   0.027532716   0.24541   0.18105   0.46112  -0.00220
  51   37025.1    270.1   0.012068996   0.10731  -0.00258   0.25204  -0.20924
  52   37412.5    267.3   0.095186394   0.83759  -0.41642   0.81452  -0.02723
  53   37578.0    266.1   0.130488465   1.14318   0.32934  -0.98132   0.26780
  54   37746.6    264.9   0.050340340   0.43905  -0.29960  -0.35169  -0.47498
  55   37926.3    263.7   0.057980481   0.50329   0.54540  -0.20571   0.40436
  56   38102.9    262.4   0.010802178   0.09333  -0.28722   0.03653  -0.09749
  57   38417.2    260.3   0.037737832   0.32339   0.50914   0.01649   0.25278
  58   38613.4    259.0   0.080374363   0.68526   0.25989   0.76462   0.18186
  59   39184.3    255.2   0.058441367   0.49100  -0.66312   0.22516  -0.02398
  60   39328.1    254.3   0.010433651   0.08734   0.26979   0.08200   0.08848
  61   39569.1    252.7   0.041903340   0.34863   0.46688   0.36140  -0.00671
  62   39652.1    252.2   0.064717067   0.53731   0.67884   0.23753   0.14166
  63   39738.4    251.6   0.019344255   0.16026  -0.04211   0.39225  -0.06797
  64   39987.1    250.1   0.003701686   0.03048   0.00390  -0.17306   0.02259
  65   40300.2    248.1   0.001385742   0.01132   0.06938   0.01484   0.07929

FINAL SINGLE POINT ENERGY    -12542.888324039413

DIPOLE MOMENT
-------------
                                X             Y             Z
Electronic contribution:      7.01698     -62.08644       4.20978
Nuclear contribution   :     -7.28558      64.07027      -5.45051
                        -----------------------------------------
Total Dipole Moment    :     -0.26861       1.98383      -1.24072
                        -----------------------------------------
Magnitude (a.u.)       :      2.35523
Magnitude (Debye)      :      5.98652

Rotational constants in cm-1:     0.000826     0.000120     0.000106
Rotational constants in MHz :    24.763374     3.603953     3.171256

                             ****ORCA TERMINATED NORMALLY****
TOTAL RUN TIME: 0 days 0 hours 10 minutes 50 seconds 348 msec
