                         Program Version 4.2.0 -  RELEASE  -
|  1> # ORCA input file
|  2> # SCF done       -151.360103501414          0.000752679044
|  3> ! CAM-B3LYP def2-SVP def2/J RIJCOSX Grid4 TightSCF
|  4> %maxcore 5000
|  5> %tddft
|  6>     Mode sTDDFT
|  7>     Ethresh 5.0
|  8>     maxcore 5000
|  9> end
| 10>
| 11> %pal
| 12>   nprocs 6
| 13>   end
| 14> * xyz 0 1
| 15>    C       -4.08146        -0.04647        -1.00436
| 16>    C       -4.45397         1.18795        -1.52110
| 17>    N       -3.72088         2.27003        -1.34974
| 18>    C       -2.59108         2.13492        -0.65248
| 19>    N       -2.14466         0.99861        -0.11540
| 20>    C       -2.88757        -0.07576        -0.29351
| 21>    C       -1.79655         3.32008        -0.47356
| 22>    C       -0.59248         3.44117         0.18614
| 23>    C       -0.11924         4.75357         0.14457
| 24>    C       -0.98396         5.61914        -0.55535
| 25>    S       -2.36732         4.82069        -1.15641
| 26>    C       -0.42221         6.92067        -0.55164
| 27>    C        0.79893         6.87704         0.15147
| 28>    C        1.03008         5.51304         0.60631
| 29>    C        2.10511         5.04437         1.30176
| 30>    C        3.18681         5.86998         1.67740
| 31>    N        4.07913         6.51973         1.98620
| 32>    C        2.22279         3.69164         1.68703
| 33>    N        2.33358         2.59631         2.00710
| 34>    C        1.43433         8.11036         0.20813
| 35>    C        0.71480         9.10021        -0.45130
| 36>    S       -0.77696         8.47844        -1.14902
| 37>    C        1.05078        10.46979        -0.63549
| 38>    C        2.19633        11.09898        -0.09033
| 39>    C        2.50686        12.47175        -0.37932
| 40>    N        3.61703        13.02653         0.14959
| 41>    C        4.38361        12.32722         0.92020
| 42>    C        4.06721        10.97601         1.22008
| 43>    N        3.01886        10.40498         0.72403
| 44>    F        4.84088        10.26145         2.02770
| 45>    F        5.46564        12.91346         1.42138
| 46>    C        1.70905        13.29402        -1.20563
| 47>    C        0.53791        12.68406        -1.71027
| 48>    C        0.22710        11.30592        -1.42396
| 49>    N       -0.91449        10.92934        -2.00131
| 50>    S       -1.53541        12.16811        -2.81262
| 51>    N       -0.39566        13.24282        -2.48229
| 52>    C        2.07969        14.62984        -1.51552
| 53>    C        1.38446        15.51360        -2.33245
| 54>    C        2.04007        16.73077        -2.45846
| 55>    C        3.24501        16.77885        -1.72939
| 56>    S        3.56328        15.32599        -0.88836
| 57>    C        3.83554        18.05089        -1.94112
| 58>    C        3.01113        18.80092        -2.79731
| 59>    C        1.85374        17.99708        -3.15063
| 60>    C        0.81747        18.34913        -3.96513
| 61>    C        0.75224        19.61366        -4.58693
| 62>    N        0.70045        20.64159        -5.09226
| 63>    C       -0.25446        17.47490        -4.24319
| 64>    N       -1.13021        16.77327        -4.47874
| 65>    C        3.52636        20.07067        -3.07108
| 66>    C        4.72990        20.29176        -2.43685
| 67>    S        5.23619        18.90419        -1.47834
| 68>    C        5.55580        21.46757        -2.49139
| 69>    C        5.17994        22.63962        -3.16711
| 70>    N        5.95353        23.70412        -3.21527
| 71>    C        7.11704        23.63935        -2.59171
| 72>    N        7.57905        22.59972        -1.91844
| 73>    C        6.81178        21.53080        -1.87068
| 74>    H       -4.68244        -0.92873        -1.14622
| 75>    H       -5.36535         1.32074        -2.09024
| 76>    H       -2.50815        -0.98745         0.15023
| 77>    H       -0.11161         2.60473         0.65882
| 78>    H        2.37098         8.31069         0.69282
| 79>    H        0.45366        15.24773        -2.79825
| 80>    H        3.04904        20.79339        -3.70684
| 81>    H        4.23086        22.72297        -3.67928
| 82>    H        7.74762        24.51685        -2.63519
| 83>    H        7.20491        20.68381        -1.32024
| 84> *
| 85>
| 86>                          ****END OF INPUT****

CARTESIAN COORDINATES (ANGSTROEM)
---------------------------------
  C     -4.081460   -0.046470   -1.004360
  C     -4.453970    1.187950   -1.521100
  N     -3.720880    2.270030   -1.349740
  C     -2.591080    2.134920   -0.652480
  N     -2.144660    0.998610   -0.115400
  C     -2.887570   -0.075760   -0.293510
  C     -1.796550    3.320080   -0.473560
  C     -0.592480    3.441170    0.186140
  C     -0.119240    4.753570    0.144570
  C     -0.983960    5.619140   -0.555350
  S     -2.367320    4.820690   -1.156410
  C     -0.422210    6.920670   -0.551640
  C      0.798930    6.877040    0.151470
  C      1.030080    5.513040    0.606310
  C      2.105110    5.044370    1.301760
  C      3.186810    5.869980    1.677400
  N      4.079130    6.519730    1.986200
  C      2.222790    3.691640    1.687030
  N      2.333580    2.596310    2.007100
  C      1.434330    8.110360    0.208130
  C      0.714800    9.100210   -0.451300
  S     -0.776960    8.478440   -1.149020
  C      1.050780   10.469790   -0.635490
  C      2.196330   11.098980   -0.090330
  C      2.506860   12.471750   -0.379320
  N      3.617030   13.026530    0.149590
  C      4.383610   12.327220    0.920200
  C      4.067210   10.976010    1.220080
  N      3.018860   10.404980    0.724030
  F      4.840880   10.261450    2.027700
  F      5.465640   12.913460    1.421380
  C      1.709050   13.294020   -1.205630
  C      0.537910   12.684060   -1.710270
  C      0.227100   11.305920   -1.423960
  N     -0.914490   10.929340   -2.001310
  S     -1.535410   12.168110   -2.812620
  N     -0.395660   13.242820   -2.482290
  C      2.079690   14.629840   -1.515520
  C      1.384460   15.513600   -2.332450
  C      2.040070   16.730770   -2.458460
  C      3.245010   16.778850   -1.729390
  S      3.563280   15.325990   -0.888360
  C      3.835540   18.050890   -1.941120
  C      3.011130   18.800920   -2.797310
  C      1.853740   17.997080   -3.150630
  C      0.817470   18.349130   -3.965130
  C      0.752240   19.613660   -4.586930
  N      0.700450   20.641590   -5.092260
  C     -0.254460   17.474900   -4.243190
  N     -1.130210   16.773270   -4.478740
  C      3.526360   20.070670   -3.071080
  C      4.729900   20.291760   -2.436850
  S      5.236190   18.904190   -1.478340
  C      5.555800   21.467570   -2.491390
  C      5.179940   22.639620   -3.167110
  N      5.953530   23.704120   -3.215270
  C      7.117040   23.639350   -2.591710
  N      7.579050   22.599720   -1.918440
  C      6.811780   21.530800   -1.870680
  H     -4.682440   -0.928730   -1.146220
  H     -5.365350    1.320740   -2.090240
  H     -2.508150   -0.987450    0.150230
  H     -0.111610    2.604730    0.658820
  H      2.370980    8.310690    0.692820
  H      0.453660   15.247730   -2.798250
  H      3.049040   20.793390   -3.706840
  H      4.230860   22.722970   -3.679280
  H      7.747620   24.516850   -2.635190
  H      7.204910   20.683810   -1.320240

 Total Charge           Charge          ....    0
 Multiplicity           Mult            ....    1
 Number of Electrons    NEL             ....  432
 Basis Dimension        Dim             ....  896

ORBITAL ENERGIES
----------------

  NO   OCC          E(Eh)            E(eV)
   0   2.0000     -89.050282     -2423.1814
   1   2.0000     -88.990630     -2421.5582
   2   2.0000     -88.983123     -2421.3539
   3   2.0000     -88.981799     -2421.3179
   4   2.0000     -88.980473     -2421.2818
   5   2.0000     -24.825063      -675.5243
   6   2.0000     -24.817647      -675.3225
   7   2.0000     -14.465670      -393.6309
   8   2.0000     -14.460314      -393.4851
   9   2.0000     -14.459386      -393.4599
  10   2.0000     -14.458634      -393.4394
  11   2.0000     -14.429257      -392.6400
  12   2.0000     -14.428156      -392.6101
  13   2.0000     -14.422042      -392.4437
  14   2.0000     -14.421806      -392.4373
  15   2.0000     -14.419869      -392.3846
  16   2.0000     -14.417685      -392.3251
  17   2.0000     -14.415518      -392.2662
  18   2.0000     -14.414586      -392.2408
  19   2.0000     -10.441038      -284.1151
  20   2.0000     -10.436815      -284.0002
  21   2.0000     -10.362231      -281.9706
  22   2.0000     -10.356297      -281.8092
  23   2.0000     -10.355972      -281.8003
  24   2.0000     -10.353300      -281.7276
  25   2.0000     -10.352010      -281.6925
  26   2.0000     -10.349985      -281.6374
  27   2.0000     -10.347509      -281.5700
  28   2.0000     -10.346233      -281.5353
  29   2.0000     -10.343956      -281.4733
  30   2.0000     -10.335492      -281.2430
  31   2.0000     -10.332565      -281.1634
  32   2.0000     -10.330152      -281.0977
  33   2.0000     -10.329903      -281.0910
  34   2.0000     -10.329058      -281.0679
  35   2.0000     -10.328650      -281.0569
  36   2.0000     -10.328481      -281.0523
  37   2.0000     -10.327725      -281.0317
  38   2.0000     -10.326514      -280.9987
  39   2.0000     -10.325393      -280.9682
  40   2.0000     -10.323294      -280.9111
  41   2.0000     -10.322537      -280.8905
  42   2.0000     -10.322487      -280.8891
  43   2.0000     -10.322458      -280.8884
  44   2.0000     -10.322213      -280.8817
  45   2.0000     -10.322186      -280.8810
  46   2.0000     -10.321547      -280.8636
  47   2.0000     -10.321485      -280.8619
  48   2.0000     -10.309406      -280.5332
  49   2.0000     -10.308323      -280.5037
  50   2.0000     -10.303103      -280.3617
  51   2.0000     -10.302620      -280.3485
  52   2.0000     -10.297181      -280.2005
  53   2.0000     -10.296071      -280.1703
  54   2.0000     -10.294484      -280.1272
  55   2.0000     -10.294055      -280.1155
  56   2.0000     -10.294031      -280.1148
  57   2.0000     -10.292124      -280.0629
  58   2.0000     -10.291245      -280.0390
  59   2.0000      -8.141269      -221.5352
  60   2.0000      -8.085162      -220.0085
  61   2.0000      -8.075872      -219.7556
  62   2.0000      -8.075861      -219.7553
  63   2.0000      -8.073659      -219.6954
  64   2.0000      -6.112382      -166.3264
  65   2.0000      -6.104565      -166.1137
  66   2.0000      -6.104030      -166.0991
  67   2.0000      -6.054344      -164.7471
  68   2.0000      -6.050198      -164.6343
  69   2.0000      -6.047640      -164.5646
  70   2.0000      -6.045359      -164.5026
  71   2.0000      -6.045020      -164.4934
  72   2.0000      -6.043058      -164.4400
  73   2.0000      -6.040751      -164.3772
  74   2.0000      -6.040609      -164.3733
  75   2.0000      -6.038539      -164.3170
  76   2.0000      -6.038487      -164.3156
  77   2.0000      -6.038377      -164.3126
  78   2.0000      -6.036134      -164.2516
  79   2.0000      -1.351032       -36.7635
  80   2.0000      -1.335487       -36.3405
  81   2.0000      -1.148055       -31.2402
  82   2.0000      -1.122394       -30.5419
  83   2.0000      -1.093073       -29.7440
  84   2.0000      -1.086944       -29.5772
  85   2.0000      -1.048928       -28.5428
  86   2.0000      -1.041175       -28.3318
  87   2.0000      -1.035841       -28.1867
  88   2.0000      -1.020273       -27.7630
  89   2.0000      -1.014174       -27.5971
  90   2.0000      -1.006775       -27.3957
  91   2.0000      -1.005965       -27.3737
  92   2.0000      -0.999706       -27.2034
  93   2.0000      -0.998545       -27.1718
  94   2.0000      -0.987850       -26.8808
  95   2.0000      -0.986262       -26.8376
  96   2.0000      -0.982381       -26.7320
  97   2.0000      -0.975589       -26.5471
  98   2.0000      -0.956067       -26.0159
  99   2.0000      -0.948485       -25.8096
 100   2.0000      -0.922222       -25.0949
 101   2.0000      -0.912798       -24.8385
 102   2.0000      -0.899035       -24.4640
 103   2.0000      -0.893139       -24.3036
 104   2.0000      -0.887255       -24.1434
 105   2.0000      -0.877380       -23.8747
 106   2.0000      -0.863367       -23.4934
 107   2.0000      -0.855379       -23.2760
 108   2.0000      -0.851200       -23.1623
 109   2.0000      -0.846267       -23.0281
 110   2.0000      -0.824690       -22.4410
 111   2.0000      -0.811767       -22.0893
 112   2.0000      -0.796866       -21.6838
 113   2.0000      -0.785230       -21.3672
 114   2.0000      -0.777382       -21.1536
 115   2.0000      -0.772585       -21.0231
 116   2.0000      -0.766026       -20.8446
 117   2.0000      -0.751602       -20.4521
 118   2.0000      -0.749765       -20.4021
 119   2.0000      -0.748725       -20.3739
 120   2.0000      -0.743970       -20.2445
 121   2.0000      -0.720535       -19.6067
 122   2.0000      -0.701824       -19.0976
 123   2.0000      -0.695508       -18.9257
 124   2.0000      -0.692638       -18.8476
 125   2.0000      -0.686585       -18.6829
 126   2.0000      -0.683802       -18.6072
 127   2.0000      -0.680038       -18.5048
 128   2.0000      -0.673264       -18.3205
 129   2.0000      -0.662940       -18.0395
 130   2.0000      -0.659971       -17.9587
 131   2.0000      -0.647744       -17.6260
 132   2.0000      -0.635484       -17.2924
 133   2.0000      -0.632587       -17.2136
 134   2.0000      -0.631036       -17.1714
 135   2.0000      -0.625807       -17.0291
 136   2.0000      -0.624294       -16.9879
 137   2.0000      -0.622476       -16.9384
 138   2.0000      -0.613203       -16.6861
 139   2.0000      -0.610915       -16.6238
 140   2.0000      -0.609210       -16.5774
 141   2.0000      -0.603371       -16.4186
 142   2.0000      -0.597196       -16.2505
 143   2.0000      -0.590773       -16.0758
 144   2.0000      -0.576899       -15.6982
 145   2.0000      -0.574094       -15.6219
 146   2.0000      -0.569370       -15.4934
 147   2.0000      -0.563314       -15.3285
 148   2.0000      -0.554678       -15.0936
 149   2.0000      -0.545795       -14.8518
 150   2.0000      -0.545504       -14.8439
 151   2.0000      -0.544324       -14.8118
 152   2.0000      -0.542333       -14.7576
 153   2.0000      -0.530301       -14.4302
 154   2.0000      -0.529259       -14.4019
 155   2.0000      -0.528004       -14.3677
 156   2.0000      -0.524969       -14.2851
 157   2.0000      -0.522729       -14.2242
 158   2.0000      -0.517871       -14.0920
 159   2.0000      -0.516294       -14.0491
 160   2.0000      -0.510954       -13.9038
 161   2.0000      -0.509547       -13.8655
 162   2.0000      -0.502828       -13.6826
 163   2.0000      -0.502126       -13.6635
 164   2.0000      -0.500670       -13.6239
 165   2.0000      -0.497386       -13.5345
 166   2.0000      -0.491878       -13.3847
 167   2.0000      -0.491406       -13.3718
 168   2.0000      -0.489824       -13.3288
 169   2.0000      -0.488504       -13.2929
 170   2.0000      -0.487939       -13.2775
 171   2.0000      -0.481633       -13.1059
 172   2.0000      -0.475558       -12.9406
 173   2.0000      -0.473813       -12.8931
 174   2.0000      -0.466367       -12.6905
 175   2.0000      -0.465516       -12.6673
 176   2.0000      -0.460340       -12.5265
 177   2.0000      -0.456626       -12.4254
 178   2.0000      -0.455011       -12.3815
 179   2.0000      -0.453564       -12.3421
 180   2.0000      -0.451312       -12.2808
 181   2.0000      -0.448250       -12.1975
 182   2.0000      -0.445425       -12.1206
 183   2.0000      -0.440326       -11.9819
 184   2.0000      -0.439438       -11.9577
 185   2.0000      -0.438548       -11.9335
 186   2.0000      -0.437468       -11.9041
 187   2.0000      -0.432442       -11.7673
 188   2.0000      -0.431428       -11.7397
 189   2.0000      -0.428953       -11.6724
 190   2.0000      -0.426073       -11.5940
 191   2.0000      -0.419579       -11.4173
 192   2.0000      -0.411935       -11.2093
 193   2.0000      -0.409310       -11.1379
 194   2.0000      -0.403571       -10.9817
 195   2.0000      -0.401054       -10.9132
 196   2.0000      -0.399994       -10.8844
 197   2.0000      -0.396884       -10.7998
 198   2.0000      -0.391818       -10.6619
 199   2.0000      -0.389486       -10.5984
 200   2.0000      -0.384267       -10.4564
 201   2.0000      -0.376971       -10.2579
 202   2.0000      -0.375120       -10.2075
 203   2.0000      -0.370125       -10.0716
 204   2.0000      -0.362017        -9.8510
 205   2.0000      -0.350462        -9.5366
 206   2.0000      -0.345704        -9.4071
 207   2.0000      -0.343998        -9.3607
 208   2.0000      -0.339025        -9.2253
 209   2.0000      -0.331749        -9.0274
 210   2.0000      -0.325903        -8.8683
 211   2.0000      -0.320279        -8.7152
 212   2.0000      -0.313995        -8.5442
 213   2.0000      -0.307707        -8.3731
 214   2.0000      -0.274855        -7.4792
 215   2.0000      -0.238204        -6.4819
 216   0.0000      -0.123678        -3.3654
 217   0.0000      -0.099115        -2.6971
 218   0.0000      -0.091962        -2.5024
 219   0.0000      -0.038853        -1.0573
 220   0.0000      -0.035748        -0.9727

MULLIKEN ATOMIC CHARGES
-----------------------
   0 C :   -0.026444
   1 C :    0.076355
   2 N :   -0.088031
   3 C :   -0.083395
   4 N :   -0.058451
   5 C :    0.078377
   6 C :   -0.030152
   7 C :   -0.041031
   8 C :    0.003781
   9 C :   -0.100374
  10 S :    0.234019
  11 C :   -0.072365
  12 C :    0.040955
  13 C :    0.310929
  14 C :   -0.308871
  15 C :   -0.192024
  16 N :    0.175137
  17 C :   -0.195707
  18 N :    0.178768
  19 C :   -0.065851
  20 C :   -0.187760
  21 S :    0.204157
  22 C :    0.208575
  23 C :   -0.075545
  24 C :   -0.060020
  25 N :   -0.055219
  26 C :    0.154720
  27 C :    0.146731
  28 N :    0.006752
  29 F :   -0.128542
  30 F :   -0.133864
  31 C :    0.176775
  32 C :   -0.005466
  33 C :   -0.027262
  34 N :   -0.338338
  35 S :    0.569603
  36 N :   -0.284314
  37 C :   -0.176368
  38 C :   -0.064575
  39 C :    0.033521
  40 C :   -0.067850
  41 S :    0.205703
  42 C :   -0.098707
  43 C :    0.012899
  44 C :    0.311358
  45 C :   -0.306173
  46 C :   -0.190529
  47 N :    0.170670
  48 C :   -0.182853
  49 N :    0.168529
  50 C :   -0.048149
  51 C :   -0.051318
  52 S :    0.175961
  53 C :    0.030078
  54 C :    0.018134
  55 N :   -0.083174
  56 C :    0.065757
  57 N :   -0.084159
  58 C :   -0.004525
  59 H :    0.010471
  60 H :    0.014536
  61 H :    0.016170
  62 H :    0.018003
  63 H :    0.022011
  64 H :    0.018020
  65 H :    0.007982
  66 H :    0.014550
  67 H :    0.023142
  68 H :    0.014276
Sum of atomic charges:   -0.0000000

LOEWDIN ATOMIC CHARGES
----------------------
   0 C :   -0.074468
   1 C :    0.054300
   2 N :   -0.103779
   3 C :    0.011884
   4 N :   -0.083094
   5 C :    0.056855
   6 C :   -0.188196
   7 C :   -0.002178
   8 C :   -0.071735
   9 C :   -0.177155
  10 S :    0.511435
  11 C :   -0.181112
  12 C :   -0.073145
  13 C :    0.080646
  14 C :   -0.105030
  15 C :   -0.018399
  16 N :   -0.033602
  17 C :   -0.018365
  18 N :   -0.033275
  19 C :   -0.012210
  20 C :   -0.166818
  21 S :    0.511113
  22 C :   -0.043460
  23 C :   -0.009116
  24 C :   -0.016161
  25 N :   -0.059923
  26 C :    0.065194
  27 C :    0.060906
  28 N :   -0.026797
  29 F :   -0.017618
  30 F :   -0.023599
  31 C :   -0.045432
  32 C :   -0.038480
  33 C :   -0.048111
  34 N :   -0.305227
  35 S :    0.687025
  36 N :   -0.271333
  37 C :   -0.167603
  38 C :   -0.013456
  39 C :   -0.074581
  40 C :   -0.185440
  41 S :    0.511003
  42 C :   -0.174996
  43 C :   -0.068812
  44 C :    0.083108
  45 C :   -0.105157
  46 C :   -0.016636
  47 N :   -0.036248
  48 C :   -0.016084
  49 N :   -0.034981
  50 C :   -0.025893
  51 C :   -0.163025
  52 S :    0.479569
  53 C :   -0.081595
  54 C :    0.052769
  55 N :   -0.074912
  56 C :    0.044063
  57 N :   -0.076106
  58 C :    0.034153
  59 H :    0.036580
  60 H :    0.028087
  61 H :    0.029063
  62 H :    0.045862
  63 H :    0.037240
  64 H :    0.036971
  65 H :    0.039847
  66 H :    0.027785
  67 H :    0.020319
  68 H :    0.017566

  Mayer bond orders larger than 0.100000
B(  0-C ,  1-C ) :   1.3804 B(  0-C ,  5-C ) :   1.3701 B(  0-C , 59-H ) :   0.9742
B(  1-C ,  2-N ) :   1.5435 B(  1-C , 60-H ) :   0.9819 B(  2-N ,  3-C ) :   1.5906
B(  3-C ,  4-N ) :   1.6004 B(  3-C ,  6-C ) :   1.0175 B(  4-N ,  5-C ) :   1.5446
B(  5-C , 61-H ) :   0.9828 B(  6-C ,  7-C ) :   1.4851 B(  6-C , 10-S ) :   1.1100
B(  7-C ,  8-C ) :   1.2609 B(  7-C , 62-H ) :   1.0068 B(  8-C ,  9-C ) :   1.4240
B(  8-C , 13-C ) :   0.9950 B(  9-C , 10-S ) :   1.1281 B(  9-C , 11-C ) :   1.1944
B( 11-C , 12-C ) :   1.4080 B( 11-C , 21-S ) :   1.1043 B( 12-C , 13-C ) :   0.9898
B( 12-C , 19-C ) :   1.2735 B( 13-C , 14-C ) :   1.7116 B( 14-C , 15-C ) :   1.1383
B( 14-C , 17-C ) :   1.1334 B( 15-C , 16-N ) :   2.9904 B( 17-C , 18-N ) :   3.0015
B( 19-C , 20-C ) :   1.4111 B( 19-C , 63-H ) :   0.9865 B( 20-C , 21-S ) :   1.0972
B( 20-C , 22-C ) :   1.1840 B( 22-C , 23-C ) :   1.2962 B( 22-C , 31-C ) :   0.1283
B( 22-C , 33-C ) :   1.1878 B( 23-C , 24-C ) :   1.1098 B( 23-C , 28-N ) :   1.4403
B( 24-C , 25-N ) :   1.3736 B( 24-C , 31-C ) :   1.2976 B( 25-N , 26-C ) :   1.6539
B( 26-C , 27-C ) :   1.1036 B( 26-C , 30-F ) :   1.1902 B( 27-C , 28-N ) :   1.6605
B( 27-C , 29-F ) :   1.1851 B( 31-C , 32-C ) :   1.2018 B( 31-C , 37-C ) :   1.1877
B( 32-C , 33-C ) :   1.1107 B( 32-C , 36-N ) :   1.5091 B( 33-C , 34-N ) :   1.4693
B( 34-N , 35-S ) :   1.2707 B( 34-N , 36-N ) :   0.1515 B( 35-S , 36-N ) :   1.2865
B( 37-C , 38-C ) :   1.4241 B( 37-C , 41-S ) :   1.0901 B( 38-C , 39-C ) :   1.2725
B( 38-C , 64-H ) :   0.9824 B( 39-C , 40-C ) :   1.4162 B( 39-C , 44-C ) :   0.9889
B( 40-C , 41-S ) :   1.0899 B( 40-C , 42-C ) :   1.1846 B( 42-C , 43-C ) :   1.4423
B( 42-C , 52-S ) :   1.1267 B( 43-C , 44-C ) :   0.9979 B( 43-C , 50-C ) :   1.2762
B( 44-C , 45-C ) :   1.7072 B( 45-C , 46-C ) :   1.1344 B( 45-C , 48-C ) :   1.1366
B( 46-C , 47-N ) :   2.9892 B( 48-C , 49-N ) :   2.9856 B( 50-C , 51-C ) :   1.5025
B( 50-C , 65-H ) :   0.9889 B( 51-C , 52-S ) :   1.1032 B( 51-C , 53-C ) :   1.0645
B( 53-C , 54-C ) :   1.3372 B( 53-C , 58-C ) :   1.3264 B( 54-C , 55-N ) :   1.5828
B( 54-C , 66-H ) :   0.9869 B( 55-N , 56-C ) :   1.4984 B( 56-C , 57-N ) :   1.5018
B( 56-C , 67-H ) :   0.9756 B( 57-N , 58-C ) :   1.5865 B( 58-C , 68-H ) :   0.9830

-----------------------------------------------------------------------------
         ABSORPTION SPECTRUM VIA TRANSITION ELECTRIC DIPOLE MOMENTS
-----------------------------------------------------------------------------
State   Energy  Wavelength   fosc         T2         TX        TY        TZ
        (cm-1)    (nm)                  (au**2)     (au)      (au)      (au)
-----------------------------------------------------------------------------
   0    9740.8   1026.6   0.763516101  25.80475  -1.43464  -4.80703   0.79941
   1   13140.8    761.0   0.012197888   0.30559   0.09817   0.54402  -0.00043
   2   14358.2    696.5   0.002436772   0.05587   0.14599  -0.07718   0.16912
   3   18526.0    539.8   0.004316535   0.07671   0.06424   0.02888   0.26785
   4   23272.6    429.7   0.036015069   0.50946   0.08077   0.66818  -0.23764
   5   24859.1    402.3   0.032736336   0.43353  -0.18721  -0.63046  -0.03170
   6   25816.9    387.3   0.141468545   1.80398   0.61213   1.19283  -0.08018
   7   25971.2    385.0   0.161679940   2.04946  -0.13887  -1.37261   0.38224
   8   26871.0    372.1   0.143455912   1.75756   0.63887   1.16146  -0.02014
   9   27026.2    370.0   0.137965857   1.68059  -0.90327  -0.89538  -0.25096
  10   28650.8    349.0   1.333230230  15.31949   1.15754   3.69401  -0.57785
  11   29612.1    337.7   0.112607943   1.25192   0.89312   0.66333   0.11934
  12   30743.2    325.3   0.065109992   0.69723   0.62930   0.23966   0.49373
  13   31008.0    322.5   0.016901541   0.17944   0.28991   0.23410   0.20148
  14   31279.7    319.7   0.171442050   1.80439  -1.01044  -0.82877  -0.31070
  15   31357.8    318.9   0.000184771   0.00194   0.03529  -0.01835   0.01890
  16   31658.3    315.9   0.011175596   0.11621  -0.14695  -0.30754  -0.00646
  17   31705.3    315.4   0.011490789   0.11931  -0.28135  -0.17044  -0.10540
  18   31941.5    313.1   0.000153319   0.00158  -0.01331  -0.03691  -0.00639
  19   32140.2    311.1   0.823150168   8.43152   1.74106  -1.57562   1.70812
  20   32160.3    310.9   0.499624979   5.11446   2.01263   0.50432   0.89968
  21   32483.1    307.9   0.111302962   1.12804   0.01386  -1.05519   0.12007
  22   33319.6    300.1   0.016327141   0.16132   0.18133   0.32260  -0.15611
  23   33902.8    295.0   0.011317348   0.10990  -0.19079  -0.08778  -0.25649
  24   34286.1    291.7   0.200670704   1.92682   1.06029   0.78152   0.43798
  25   35419.9    282.3   0.037166039   0.34544  -0.49642  -0.18603  -0.25378
  26   35792.1    279.4   0.174287888   1.60308  -0.29924   1.09253  -0.56561
  27   36098.0    277.0   0.733116236   6.68599   2.25226   0.23047   1.24908
  28   36764.8    272.0   0.012730542   0.11400   0.25396  -0.10780   0.19463
  29   36825.5    271.6   0.003205084   0.02865   0.09804  -0.06045  -0.12404
  30   37090.1    269.6   0.021225259   0.18840  -0.38349  -0.06436  -0.19285
  31   37130.2    269.3   0.078313610   0.69436  -0.69241   0.13411  -0.44379
  32   37443.7    267.1   0.004863037   0.04276   0.17704   0.02285   0.10437
  33   37535.0    266.4   0.009182955   0.08054   0.18527  -0.10138   0.18958
  34   37683.1    265.4   0.000041075   0.00036   0.00021   0.00158   0.01888
  35   38022.4    263.0   0.010120223   0.08762   0.14009  -0.12520  -0.22874
  36   38095.8    262.5   0.000955858   0.00826   0.04092  -0.02672  -0.07663
  37   38392.3    260.5   0.015517410   0.13306   0.23079  -0.10649   0.26164
  38   38688.2    258.5   0.012312084   0.10477  -0.17830   0.07527  -0.25945
  39   39443.8    253.5   0.024375375   0.20345   0.17956  -0.36290   0.19876
  40   39531.7    253.0   0.004310988   0.03590  -0.07412  -0.02442  -0.17266
  41   39764.3    251.5   0.047215423   0.39090   0.48429  -0.11001   0.37982
  42   39942.4    250.4   0.354208398   2.91945   1.05231   1.33869   0.14142
  43   40259.8    248.4   0.109863173   0.89837   0.79731   0.35311   0.37146

FINAL SINGLE POINT ENERGY     -4374.259290655278

DIPOLE MOMENT
-------------
                                X             Y             Z
Electronic contribution:      7.97990       1.65486       9.18990
Nuclear contribution   :     -9.67762      -3.20511      -9.45248
                        -----------------------------------------
Total Dipole Moment    :     -1.69772      -1.55025      -0.26258
                        -----------------------------------------
Magnitude (a.u.)       :      2.31397
Magnitude (Debye)      :      5.88165

Rotational constants in cm-1:     0.003280     0.000400     0.000357
Rotational constants in MHz :    98.329779    11.980545    10.712720

                             ****ORCA TERMINATED NORMALLY****
TOTAL RUN TIME: 0 days 0 hours 5 minutes 52 seconds 838 msec
