                         Program Version 4.2.0 -  RELEASE  -
|  1> # ORCA input file
|  2> # SCF done       -167.183713882930          0.000462766227
|  3> ! CAM-B3LYP def2-SVP def2/J RIJCOSX Grid4 TightSCF
|  4> %maxcore 5000
|  5> %tddft
|  6>     Mode sTDDFT
|  7>     Ethresh 5.0
|  8>     maxcore 5000
|  9> end
| 10>
| 11> %pal
| 12>   nprocs 6
| 13>   end
| 14> * xyz 0 1
| 15>    C       -0.88360         0.46039        -4.36538
| 16>    C       -1.12342         0.68672        -3.02264
| 17>    C       -1.63373        -0.32477        -2.23188
| 18>    F       -1.82423        -0.05293        -0.92744
| 19>    C       -1.93081        -1.59860        -2.73550
| 20>    C       -1.67282        -1.81170        -4.09352
| 21>    C       -1.16263        -0.79675        -4.87498
| 22>    F       -0.93318        -1.03934        -6.17815
| 23>    C       -2.47340        -2.65997        -1.91813
| 24>    C       -3.07149        -2.58244        -0.67904
| 25>    C       -3.48527        -3.83442        -0.21426
| 26>    C       -3.19033        -4.87646        -1.10973
| 27>    S       -2.41832        -4.31336        -2.52014
| 28>    C       -3.64245        -6.10210        -0.55808
| 29>    C       -4.22693        -5.82642         0.69419
| 30>    C       -4.14979        -4.39530         0.94923
| 31>    C       -4.61481        -3.73068         2.04561
| 32>    C       -5.24675        -4.39845         3.11646
| 33>    N       -5.76187        -4.93085         3.99179
| 34>    C       -4.50687        -2.33077         2.18701
| 35>    N       -4.43350        -1.19329         2.31015
| 36>    C       -4.71333        -6.96416         1.32252
| 37>    C       -4.50564        -8.10918         0.56257
| 38>    S       -3.69051        -7.76371        -0.95350
| 39>    C       -4.88998        -9.43372         0.90247
| 40>    C       -4.62303       -10.52756         0.05138
| 41>    C       -5.01768       -11.86898         0.37181
| 42>    N       -4.72799       -12.86374        -0.49031
| 43>    C       -4.10120       -12.59890        -1.59045
| 44>    C       -3.71221       -11.27165        -1.90804
| 45>    N       -3.97287       -10.29120        -1.10548
| 46>    F       -3.06881       -10.99779        -3.03896
| 47>    F       -3.83272       -13.60797        -2.41359
| 48>    C       -5.70582       -12.19520         1.56025
| 49>    C       -5.96954       -11.10513         2.42435
| 50>    C       -5.56895        -9.75372         2.10309
| 51>    N       -5.92449        -8.89999         3.06438
| 52>    S       -6.67313        -9.69252         4.23771
| 53>    N       -6.59402       -11.16038         3.60176
| 54>    C       -6.10323       -13.52708         1.85324
| 55>    C       -6.79683       -13.95982         2.97744
| 56>    C       -7.03164       -15.32756         2.95037
| 57>    C       -6.51096       -15.94667         1.79670
| 58>    S       -5.73783       -14.84148         0.74854
| 59>    C       -6.80268       -17.33183         1.87274
| 60>    C       -7.50323       -17.58873         3.06338
| 61>    C       -7.66886       -16.33767         3.78339
| 62>    C       -8.28354       -16.14184         4.98503
| 63>    C       -8.85849       -17.19744         5.72447
| 64>    N       -9.32392       -18.04703         6.33755
| 65>    C       -8.38255       -14.86525         5.57875
| 66>    N       -8.46837       -13.83338         6.07133
| 67>    C       -7.83743       -18.93775         3.21808
| 68>    C       -7.39331       -19.70721         2.16439
| 69>    S       -6.54840       -18.74465         0.95657
| 70>    C       -7.52438       -21.13096         1.95311
| 71>    C       -6.74118       -21.77762         0.99133
| 72>    C       -6.86163       -23.13625         0.79038
| 73>    F       -6.08703       -23.72154        -0.14086
| 74>    C       -7.74767       -23.91544         1.51543
| 75>    C       -8.53612       -23.29230         2.46506
| 76>    C       -8.42259       -21.93099         2.67256
| 77>    F       -9.23199       -21.37667         3.59417
| 78>    H       -0.48871         1.23147        -5.00577
| 79>    H       -0.91603         1.64424        -2.57246
| 80>    H       -1.87896        -2.77081        -4.54271
| 81>    H       -3.21402        -1.66440        -0.14045
| 82>    H       -5.19925        -6.99758         2.27986
| 83>    H       -7.09877       -13.28263         3.75466
| 84>    H       -8.36790       -19.33234         4.06437
| 85>    H       -6.03003       -21.21876         0.40303
| 86>    H       -7.81373       -24.97536         1.33424
| 87>    H       -9.24813       -23.85013         3.05191
| 88> *
| 89>
| 90>                          ****END OF INPUT****

CARTESIAN COORDINATES (ANGSTROEM)
---------------------------------
  C     -0.883600    0.460390   -4.365380
  C     -1.123420    0.686720   -3.022640
  C     -1.633730   -0.324770   -2.231880
  F     -1.824230   -0.052930   -0.927440
  C     -1.930810   -1.598600   -2.735500
  C     -1.672820   -1.811700   -4.093520
  C     -1.162630   -0.796750   -4.874980
  F     -0.933180   -1.039340   -6.178150
  C     -2.473400   -2.659970   -1.918130
  C     -3.071490   -2.582440   -0.679040
  C     -3.485270   -3.834420   -0.214260
  C     -3.190330   -4.876460   -1.109730
  S     -2.418320   -4.313360   -2.520140
  C     -3.642450   -6.102100   -0.558080
  C     -4.226930   -5.826420    0.694190
  C     -4.149790   -4.395300    0.949230
  C     -4.614810   -3.730680    2.045610
  C     -5.246750   -4.398450    3.116460
  N     -5.761870   -4.930850    3.991790
  C     -4.506870   -2.330770    2.187010
  N     -4.433500   -1.193290    2.310150
  C     -4.713330   -6.964160    1.322520
  C     -4.505640   -8.109180    0.562570
  S     -3.690510   -7.763710   -0.953500
  C     -4.889980   -9.433720    0.902470
  C     -4.623030  -10.527560    0.051380
  C     -5.017680  -11.868980    0.371810
  N     -4.727990  -12.863740   -0.490310
  C     -4.101200  -12.598900   -1.590450
  C     -3.712210  -11.271650   -1.908040
  N     -3.972870  -10.291200   -1.105480
  F     -3.068810  -10.997790   -3.038960
  F     -3.832720  -13.607970   -2.413590
  C     -5.705820  -12.195200    1.560250
  C     -5.969540  -11.105130    2.424350
  C     -5.568950   -9.753720    2.103090
  N     -5.924490   -8.899990    3.064380
  S     -6.673130   -9.692520    4.237710
  N     -6.594020  -11.160380    3.601760
  C     -6.103230  -13.527080    1.853240
  C     -6.796830  -13.959820    2.977440
  C     -7.031640  -15.327560    2.950370
  C     -6.510960  -15.946670    1.796700
  S     -5.737830  -14.841480    0.748540
  C     -6.802680  -17.331830    1.872740
  C     -7.503230  -17.588730    3.063380
  C     -7.668860  -16.337670    3.783390
  C     -8.283540  -16.141840    4.985030
  C     -8.858490  -17.197440    5.724470
  N     -9.323920  -18.047030    6.337550
  C     -8.382550  -14.865250    5.578750
  N     -8.468370  -13.833380    6.071330
  C     -7.837430  -18.937750    3.218080
  C     -7.393310  -19.707210    2.164390
  S     -6.548400  -18.744650    0.956570
  C     -7.524380  -21.130960    1.953110
  C     -6.741180  -21.777620    0.991330
  C     -6.861630  -23.136250    0.790380
  F     -6.087030  -23.721540   -0.140860
  C     -7.747670  -23.915440    1.515430
  C     -8.536120  -23.292300    2.465060
  C     -8.422590  -21.930990    2.672560
  F     -9.231990  -21.376670    3.594170
  H     -0.488710    1.231470   -5.005770
  H     -0.916030    1.644240   -2.572460
  H     -1.878960   -2.770810   -4.542710
  H     -3.214020   -1.664400   -0.140450
  H     -5.199250   -6.997580    2.279860
  H     -7.098770  -13.282630    3.754660
  H     -8.367900  -19.332340    4.064370
  H     -6.030030  -21.218760    0.403030
  H     -7.813730  -24.975360    1.334240
  H     -9.248130  -23.850130    3.051910

 Total Charge           Charge          ....    0
 Multiplicity           Mult            ....    1
 Number of Electrons    NEL             ....  464
 Basis Dimension        Dim             ....  952

ORBITAL ENERGIES
----------------

  NO   OCC          E(Eh)            E(eV)
   0   2.0000     -89.044563     -2423.0257
   1   2.0000     -88.986409     -2421.4433
   2   2.0000     -88.986204     -2421.4377
   3   2.0000     -88.981024     -2421.2968
   4   2.0000     -88.980945     -2421.2946
   5   2.0000     -24.826806      -675.5717
   6   2.0000     -24.826642      -675.5673
   7   2.0000     -24.790248      -674.5769
   8   2.0000     -24.790002      -674.5703
   9   2.0000     -24.782342      -674.3618
  10   2.0000     -24.782244      -674.3591
  11   2.0000     -14.468175      -393.6990
  12   2.0000     -14.468023      -393.6949
  13   2.0000     -14.453043      -393.2873
  14   2.0000     -14.452965      -393.2852
  15   2.0000     -14.424361      -392.5068
  16   2.0000     -14.424286      -392.5048
  17   2.0000     -14.424122      -392.5003
  18   2.0000     -14.424077      -392.4991
  19   2.0000     -10.443054      -284.1699
  20   2.0000     -10.442764      -284.1621
  21   2.0000     -10.366992      -282.1002
  22   2.0000     -10.366947      -282.0990
  23   2.0000     -10.364243      -282.0254
  24   2.0000     -10.364218      -282.0247
  25   2.0000     -10.358483      -281.8687
  26   2.0000     -10.358434      -281.8673
  27   2.0000     -10.352007      -281.6924
  28   2.0000     -10.351743      -281.6852
  29   2.0000     -10.345860      -281.5252
  30   2.0000     -10.345858      -281.5251
  31   2.0000     -10.344528      -281.4889
  32   2.0000     -10.344288      -281.4824
  33   2.0000     -10.328415      -281.0505
  34   2.0000     -10.328175      -281.0439
  35   2.0000     -10.324838      -280.9531
  36   2.0000     -10.324761      -280.9510
  37   2.0000     -10.324445      -280.9424
  38   2.0000     -10.324369      -280.9404
  39   2.0000     -10.323330      -280.9121
  40   2.0000     -10.323257      -280.9101
  41   2.0000     -10.321729      -280.8685
  42   2.0000     -10.321560      -280.8639
  43   2.0000     -10.321018      -280.8492
  44   2.0000     -10.320783      -280.8428
  45   2.0000     -10.320045      -280.8227
  46   2.0000     -10.319919      -280.8193
  47   2.0000     -10.313063      -280.6327
  48   2.0000     -10.313019      -280.6315
  49   2.0000     -10.298273      -280.2303
  50   2.0000     -10.298235      -280.2292
  51   2.0000     -10.295235      -280.1476
  52   2.0000     -10.295137      -280.1449
  53   2.0000     -10.294245      -280.1206
  54   2.0000     -10.294231      -280.1203
  55   2.0000     -10.294179      -280.1189
  56   2.0000     -10.294110      -280.1170
  57   2.0000     -10.293776      -280.1079
  58   2.0000     -10.293749      -280.1071
  59   2.0000     -10.291751      -280.0528
  60   2.0000     -10.291709      -280.0516
  61   2.0000     -10.291499      -280.0459
  62   2.0000     -10.291324      -280.0412
  63   2.0000      -8.135658      -221.3825
  64   2.0000      -8.081011      -219.8955
  65   2.0000      -8.080862      -219.8914
  66   2.0000      -8.073883      -219.7015
  67   2.0000      -8.073788      -219.6989
  68   2.0000      -6.106759      -166.1734
  69   2.0000      -6.098810      -165.9571
  70   2.0000      -6.098535      -165.9496
  71   2.0000      -6.050195      -164.6342
  72   2.0000      -6.050049      -164.6302
  73   2.0000      -6.046062      -164.5217
  74   2.0000      -6.045890      -164.5170
  75   2.0000      -6.043468      -164.4511
  76   2.0000      -6.043377      -164.4487
  77   2.0000      -6.043319      -164.4471
  78   2.0000      -6.043259      -164.4454
  79   2.0000      -6.038641      -164.3198
  80   2.0000      -6.038563      -164.3177
  81   2.0000      -6.036361      -164.2577
  82   2.0000      -6.036286      -164.2557
  83   2.0000      -1.355117       -36.8746
  84   2.0000      -1.341105       -36.4933
  85   2.0000      -1.304948       -35.5094
  86   2.0000      -1.304804       -35.5055
  87   2.0000      -1.297686       -35.3118
  88   2.0000      -1.297645       -35.3107
  89   2.0000      -1.142808       -31.0974
  90   2.0000      -1.126313       -30.6485
  91   2.0000      -1.053867       -28.6772
  92   2.0000      -1.038395       -28.2562
  93   2.0000      -1.037772       -28.2392
  94   2.0000      -1.016150       -27.6509
  95   2.0000      -1.016041       -27.6479
  96   2.0000      -1.002349       -27.2753
  97   2.0000      -1.001979       -27.2652
  98   2.0000      -1.000719       -27.2309
  99   2.0000      -0.998927       -27.1822
 100   2.0000      -0.990594       -26.9554
 101   2.0000      -0.981359       -26.7041
 102   2.0000      -0.973027       -26.4774
 103   2.0000      -0.967904       -26.3380
 104   2.0000      -0.951503       -25.8917
 105   2.0000      -0.948010       -25.7967
 106   2.0000      -0.915658       -24.9163
 107   2.0000      -0.907795       -24.7023
 108   2.0000      -0.892697       -24.2915
 109   2.0000      -0.889273       -24.1983
 110   2.0000      -0.875146       -23.8139
 111   2.0000      -0.871686       -23.7198
 112   2.0000      -0.861673       -23.4473
 113   2.0000      -0.856727       -23.3127
 114   2.0000      -0.848299       -23.0834
 115   2.0000      -0.847713       -23.0675
 116   2.0000      -0.843709       -22.9585
 117   2.0000      -0.841979       -22.9114
 118   2.0000      -0.823896       -22.4194
 119   2.0000      -0.808433       -21.9986
 120   2.0000      -0.791826       -21.5467
 121   2.0000      -0.774843       -21.0845
 122   2.0000      -0.774744       -21.0819
 123   2.0000      -0.769045       -20.9268
 124   2.0000      -0.763826       -20.7848
 125   2.0000      -0.748497       -20.3676
 126   2.0000      -0.736086       -20.0299
 127   2.0000      -0.722263       -19.6538
 128   2.0000      -0.718995       -19.5648
 129   2.0000      -0.714043       -19.4301
 130   2.0000      -0.701273       -19.0826
 131   2.0000      -0.691862       -18.8265
 132   2.0000      -0.690834       -18.7985
 133   2.0000      -0.688322       -18.7302
 134   2.0000      -0.682860       -18.5816
 135   2.0000      -0.680486       -18.5170
 136   2.0000      -0.672200       -18.2915
 137   2.0000      -0.670566       -18.2470
 138   2.0000      -0.656853       -17.8739
 139   2.0000      -0.653026       -17.7697
 140   2.0000      -0.637856       -17.3570
 141   2.0000      -0.637001       -17.3337
 142   2.0000      -0.630231       -17.1494
 143   2.0000      -0.629767       -17.1368
 144   2.0000      -0.628345       -17.0981
 145   2.0000      -0.625015       -17.0075
 146   2.0000      -0.623317       -16.9613
 147   2.0000      -0.619256       -16.8508
 148   2.0000      -0.619207       -16.8495
 149   2.0000      -0.614929       -16.7331
 150   2.0000      -0.607362       -16.5272
 151   2.0000      -0.601868       -16.3777
 152   2.0000      -0.601431       -16.3658
 153   2.0000      -0.586375       -15.9561
 154   2.0000      -0.582258       -15.8441
 155   2.0000      -0.570286       -15.5183
 156   2.0000      -0.569837       -15.5061
 157   2.0000      -0.566497       -15.4152
 158   2.0000      -0.565612       -15.3911
 159   2.0000      -0.558617       -15.2007
 160   2.0000      -0.557119       -15.1600
 161   2.0000      -0.550703       -14.9854
 162   2.0000      -0.550630       -14.9834
 163   2.0000      -0.545751       -14.8506
 164   2.0000      -0.545260       -14.8373
 165   2.0000      -0.540959       -14.7202
 166   2.0000      -0.540375       -14.7043
 167   2.0000      -0.538337       -14.6489
 168   2.0000      -0.535421       -14.5695
 169   2.0000      -0.529702       -14.4139
 170   2.0000      -0.525873       -14.3097
 171   2.0000      -0.525645       -14.3035
 172   2.0000      -0.523662       -14.2496
 173   2.0000      -0.522713       -14.2237
 174   2.0000      -0.518846       -14.1185
 175   2.0000      -0.515948       -14.0397
 176   2.0000      -0.509612       -13.8672
 177   2.0000      -0.509051       -13.8520
 178   2.0000      -0.501210       -13.6386
 179   2.0000      -0.498615       -13.5680
 180   2.0000      -0.492681       -13.4065
 181   2.0000      -0.491404       -13.3718
 182   2.0000      -0.489677       -13.3248
 183   2.0000      -0.485594       -13.2137
 184   2.0000      -0.485245       -13.2042
 185   2.0000      -0.485055       -13.1990
 186   2.0000      -0.481498       -13.1022
 187   2.0000      -0.478751       -13.0275
 188   2.0000      -0.477908       -13.0045
 189   2.0000      -0.464952       -12.6520
 190   2.0000      -0.463383       -12.6093
 191   2.0000      -0.463159       -12.6032
 192   2.0000      -0.459267       -12.4973
 193   2.0000      -0.456402       -12.4193
 194   2.0000      -0.455750       -12.4016
 195   2.0000      -0.455502       -12.3948
 196   2.0000      -0.452136       -12.3032
 197   2.0000      -0.451967       -12.2987
 198   2.0000      -0.450541       -12.2599
 199   2.0000      -0.449413       -12.2292
 200   2.0000      -0.446400       -12.1472
 201   2.0000      -0.444482       -12.0950
 202   2.0000      -0.435319       -11.8456
 203   2.0000      -0.434406       -11.8208
 204   2.0000      -0.433115       -11.7857
 205   2.0000      -0.432888       -11.7795
 206   2.0000      -0.432832       -11.7780
 207   2.0000      -0.429493       -11.6871
 208   2.0000      -0.429336       -11.6828
 209   2.0000      -0.426257       -11.5990
 210   2.0000      -0.420776       -11.4499
 211   2.0000      -0.420555       -11.4439
 212   2.0000      -0.408951       -11.1281
 213   2.0000      -0.405092       -11.0231
 214   2.0000      -0.404253       -11.0003
 215   2.0000      -0.393092       -10.6966
 216   2.0000      -0.382449       -10.4070
 217   2.0000      -0.380110       -10.3433
 218   2.0000      -0.378143       -10.2898
 219   2.0000      -0.369089       -10.0434
 220   2.0000      -0.355406        -9.6711
 221   2.0000      -0.349222        -9.5028
 222   2.0000      -0.342604        -9.3227
 223   2.0000      -0.342285        -9.3140
 224   2.0000      -0.340717        -9.2714
 225   2.0000      -0.324760        -8.8372
 226   2.0000      -0.319570        -8.6959
 227   2.0000      -0.316097        -8.6014
 228   2.0000      -0.315878        -8.5955
 229   2.0000      -0.301133        -8.1942
 230   2.0000      -0.271037        -7.3753
 231   2.0000      -0.236152        -6.4260
 232   0.0000      -0.122571        -3.3353
 233   0.0000      -0.097242        -2.6461
 234   0.0000      -0.092183        -2.5084
 235   0.0000      -0.036357        -0.9893
 236   0.0000      -0.030170        -0.8210

MULLIKEN ATOMIC CHARGES
-----------------------
   0 C :   -0.045306
   1 C :   -0.030854
   2 C :    0.217166
   3 F :   -0.183809
   4 C :    0.084740
   5 C :   -0.117529
   6 C :    0.298990
   7 F :   -0.194805
   8 C :   -0.081455
   9 C :   -0.037320
  10 C :    0.006729
  11 C :   -0.100756
  12 S :    0.168880
  13 C :   -0.067137
  14 C :    0.034500
  15 C :    0.308193
  16 C :   -0.307145
  17 C :   -0.187256
  18 N :    0.172013
  19 C :   -0.193265
  20 N :    0.176555
  21 C :   -0.061730
  22 C :   -0.181189
  23 S :    0.199430
  24 C :    0.179983
  25 C :   -0.060107
  26 C :   -0.058860
  27 N :   -0.048576
  28 C :    0.148700
  29 C :    0.149300
  30 N :   -0.046713
  31 F :   -0.136400
  32 F :   -0.136732
  33 C :    0.181734
  34 C :   -0.010394
  35 C :   -0.009446
  36 N :   -0.289359
  37 S :    0.578592
  38 N :   -0.289500
  39 C :   -0.181632
  40 C :   -0.066019
  41 C :    0.037555
  42 C :   -0.065203
  43 S :    0.198797
  44 C :   -0.100727
  45 C :    0.004081
  46 C :    0.309192
  47 C :   -0.306992
  48 C :   -0.193095
  49 N :    0.179297
  50 C :   -0.185399
  51 N :    0.168268
  52 C :   -0.038583
  53 C :   -0.082774
  54 S :    0.167633
  55 C :    0.086334
  56 C :   -0.117965
  57 C :    0.299008
  58 F :   -0.194876
  59 C :   -0.047473
  60 C :   -0.033931
  61 C :    0.219080
  62 F :   -0.183509
  63 H :    0.004935
  64 H :    0.006112
  65 H :    0.000085
  66 H :    0.015431
  67 H :    0.021331
  68 H :    0.020107
  69 H :    0.016488
  70 H :    0.001300
  71 H :    0.005855
  72 H :    0.007426
Sum of atomic charges:    0.0000000

LOEWDIN ATOMIC CHARGES
----------------------
   0 C :   -0.040308
   1 C :   -0.030580
   2 C :    0.082851
   3 F :   -0.057202
   4 C :   -0.056152
   5 C :   -0.051056
   6 C :    0.081068
   7 F :   -0.069541
   8 C :   -0.158358
   9 C :   -0.023929
  10 C :   -0.069458
  11 C :   -0.178000
  12 S :    0.477949
  13 C :   -0.182670
  14 C :   -0.074560
  15 C :    0.081662
  16 C :   -0.103441
  17 C :   -0.015959
  18 N :   -0.034972
  19 C :   -0.018605
  20 N :   -0.031840
  21 C :   -0.011587
  22 C :   -0.169315
  23 S :    0.505383
  24 C :   -0.043063
  25 C :   -0.018817
  26 C :   -0.018817
  27 N :   -0.055222
  28 C :    0.061821
  29 C :    0.061770
  30 N :   -0.054946
  31 F :   -0.026001
  32 F :   -0.026013
  33 C :   -0.043055
  34 C :   -0.038413
  35 C :   -0.038347
  36 N :   -0.273845
  37 S :    0.697181
  38 N :   -0.274125
  39 C :   -0.169369
  40 C :   -0.011718
  41 C :   -0.074477
  42 C :   -0.182790
  43 S :    0.505799
  44 C :   -0.178203
  45 C :   -0.069351
  46 C :    0.081737
  47 C :   -0.103443
  48 C :   -0.018844
  49 N :   -0.031630
  50 C :   -0.015850
  51 N :   -0.035085
  52 C :   -0.024085
  53 C :   -0.158163
  54 S :    0.478249
  55 C :   -0.056089
  56 C :   -0.051406
  57 C :    0.081084
  58 F :   -0.069551
  59 C :   -0.040560
  60 C :   -0.030788
  61 C :    0.082798
  62 F :   -0.057114
  63 H :    0.041960
  64 H :    0.044013
  65 H :    0.030755
  66 H :    0.039529
  67 H :    0.037311
  68 H :    0.037252
  69 H :    0.039659
  70 H :    0.030561
  71 H :    0.042094
  72 H :    0.044231

  Mayer bond orders larger than 0.100000
B(  0-C ,  1-C ) :   1.3270 B(  0-C ,  6-C ) :   1.3635 B(  0-C , 63-H ) :   0.9977
B(  1-C ,  2-C ) :   1.3959 B(  1-C , 64-H ) :   0.9871 B(  2-C ,  3-F ) :   1.1005
B(  2-C ,  4-C ) :   1.3184 B(  4-C ,  5-C ) :   1.2884 B(  4-C ,  8-C ) :   1.0664
B(  5-C ,  6-C ) :   1.3810 B(  5-C , 65-H ) :   0.9869 B(  6-C ,  7-F ) :   1.0884
B(  8-C ,  9-C ) :   1.4973 B(  8-C , 12-S ) :   1.1021 B(  9-C , 10-C ) :   1.2615
B(  9-C , 66-H ) :   0.9950 B( 10-C , 11-C ) :   1.4404 B( 10-C , 15-C ) :   0.9968
B( 11-C , 12-S ) :   1.1263 B( 11-C , 13-C ) :   1.1860 B( 13-C , 14-C ) :   1.4132
B( 13-C , 23-S ) :   1.0916 B( 14-C , 15-C ) :   0.9908 B( 14-C , 21-C ) :   1.2729
B( 15-C , 16-C ) :   1.7074 B( 16-C , 17-C ) :   1.1412 B( 16-C , 19-C ) :   1.1327
B( 17-C , 18-N ) :   2.9851 B( 19-C , 20-N ) :   2.9957 B( 21-C , 22-C ) :   1.4237
B( 21-C , 67-H ) :   0.9796 B( 22-C , 23-S ) :   1.0866 B( 22-C , 24-C ) :   1.1902
B( 24-C , 25-C ) :   1.2968 B( 24-C , 33-C ) :   0.1285 B( 24-C , 35-C ) :   1.1935
B( 25-C , 26-C ) :   1.1167 B( 25-C , 30-N ) :   1.3786 B( 26-C , 27-N ) :   1.3781
B( 26-C , 33-C ) :   1.2960 B( 27-N , 28-C ) :   1.6546 B( 28-C , 29-C ) :   1.1086
B( 28-C , 32-F ) :   1.1855 B( 29-C , 30-N ) :   1.6564 B( 29-C , 31-F ) :   1.1856
B( 33-C , 34-C ) :   1.1937 B( 33-C , 39-C ) :   1.1903 B( 34-C , 35-C ) :   1.1034
B( 34-C , 38-N ) :   1.5097 B( 35-C , 36-N ) :   1.5090 B( 36-N , 37-S ) :   1.2835
B( 36-N , 38-N ) :   0.1489 B( 37-S , 38-N ) :   1.2826 B( 39-C , 40-C ) :   1.4242
B( 39-C , 43-S ) :   1.0857 B( 40-C , 41-C ) :   1.2728 B( 40-C , 68-H ) :   0.9800
B( 41-C , 42-C ) :   1.4124 B( 41-C , 46-C ) :   0.9897 B( 42-C , 43-S ) :   1.0921
B( 42-C , 44-C ) :   1.1852 B( 44-C , 45-C ) :   1.4418 B( 44-C , 54-S ) :   1.1255
B( 45-C , 46-C ) :   0.9970 B( 45-C , 52-C ) :   1.2604 B( 46-C , 47-C ) :   1.7084
B( 47-C , 48-C ) :   1.1317 B( 47-C , 50-C ) :   1.1404 B( 48-C , 49-N ) :   2.9970
B( 50-C , 51-N ) :   2.9836 B( 52-C , 53-C ) :   1.4983 B( 52-C , 69-H ) :   0.9941
B( 53-C , 54-S ) :   1.1029 B( 53-C , 55-C ) :   1.0672 B( 55-C , 56-C ) :   1.2886
B( 55-C , 61-C ) :   1.3186 B( 56-C , 57-C ) :   1.3803 B( 56-C , 70-H ) :   0.9867
B( 57-C , 58-F ) :   1.0891 B( 57-C , 59-C ) :   1.3638 B( 59-C , 60-C ) :   1.3277
B( 59-C , 71-H ) :   0.9978 B( 60-C , 61-C ) :   1.3935 B( 60-C , 72-H ) :   0.9881
B( 61-C , 62-F ) :   1.1015

-----------------------------------------------------------------------------
         ABSORPTION SPECTRUM VIA TRANSITION ELECTRIC DIPOLE MOMENTS
-----------------------------------------------------------------------------
State   Energy  Wavelength   fosc         T2         TX        TY        TZ
        (cm-1)    (nm)                  (au**2)     (au)      (au)      (au)
-----------------------------------------------------------------------------
   0    9502.2   1052.4   0.743177980  25.74801   1.37603   4.75035  -1.13522
   1   13120.9    762.1   0.001662622   0.04172   0.05217  -0.06160  -0.18762
   2   13931.8    717.8   0.003653530   0.08633  -0.08950  -0.27213   0.06532
   3   18216.0    549.0   0.000527802   0.00954  -0.01025  -0.02107  -0.09481
   4   23082.6    433.2   0.004263529   0.06081  -0.06958  -0.23003   0.05526
   5   24347.2    410.7   0.000604448   0.00817   0.05341  -0.03965  -0.06123
   6   25218.4    396.5   0.455578841   5.94733  -0.66402  -2.28240   0.54502
   7   26081.8    383.4   0.000014772   0.00019  -0.00889   0.01028   0.00132
   8   26645.2    375.3   0.056430724   0.69722   0.31861  -0.31734  -0.70357
   9   26783.6    373.4   0.069977075   0.86013  -0.26222  -0.85660   0.24003
  10   29217.7    342.3   1.615896088  18.20719   1.14668   4.00084  -0.94105
  11   29696.6    336.7   0.149502511   1.65736   0.49199  -0.36571  -1.13206
  12   30165.5    331.5   0.004429697   0.04834  -0.06930   0.07288   0.19553
  13   30458.6    328.3   0.152724771   1.65073  -0.38911  -1.19775   0.25441
  14   31042.8    322.1   0.000760963   0.00807  -0.02410   0.08284   0.02503
  15   31254.0    320.0   0.026023656   0.27412  -0.17445   0.13459   0.47495
  16   31722.9    315.2   0.151206001   1.56918   0.46836  -0.38845  -1.09495
  17   32142.9    311.1   0.001630963   0.01670   0.04193   0.12192   0.00906
  18   32149.9    311.0   0.001725948   0.01767   0.07562   0.04256  -0.10071
  19   32325.0    309.4   0.011206006   0.11413   0.11214  -0.10556  -0.30068
  20   32559.8    307.1   1.013747626  10.25000   1.31916  -0.97597  -2.74905
  21   32603.2    306.7   0.128514217   1.29768   0.28367   1.09207  -0.15678
  22   32803.5    304.8   0.136268576   1.36757   0.23464   1.12108  -0.23599
  23   34086.8    293.4   0.019271226   0.18612  -0.20719   0.15323   0.34600
  24   34524.1    289.7   0.030784418   0.29355   0.12694   0.50780  -0.13992
  25   34784.4    287.5   0.001039600   0.00984   0.02501  -0.03012  -0.09114
  26   35338.6    283.0   0.102421849   0.95416   0.26040   0.91676  -0.21423
  27   35757.4    279.7   0.762854549   7.02346   1.03659  -0.85620  -2.28383
  28   36242.7    275.9   0.234390620   2.12910   0.32574  -1.06713  -0.94033
  29   36251.6    275.8   0.203108862   1.84449   0.58946   0.66897  -1.02446
  30   36944.9    270.7   0.092278724   0.82228  -0.35227   0.28235   0.78643
  31   37167.9    269.0   0.016266371   0.14408  -0.12158  -0.35765   0.03721
  32   37235.0    268.6   0.000007833   0.00007   0.00364   0.00044  -0.00747
  33   38396.2    260.4   0.005647086   0.04842  -0.07987   0.08530   0.18645
  34   38467.2    260.0   0.000913353   0.00782   0.04635   0.04963  -0.05662
  35   38830.3    257.5   0.000339542   0.00288   0.03425  -0.01412  -0.03881
  36   39058.7    256.0   0.000183888   0.00155   0.01317   0.03709  -0.00095
  37   39145.7    255.5   0.000106542   0.00090  -0.02364   0.00002  -0.01836
  38   40145.0    249.1   0.246116766   2.01830  -0.41021  -1.32806   0.29375
  39   40279.8    248.3   0.017470884   0.14279   0.11616   0.34571  -0.09889

FINAL SINGLE POINT ENERGY     -4706.717520880885

DIPOLE MOMENT
-------------
                                X             Y             Z
Electronic contribution:      5.50019      -4.16980     -10.72217
Nuclear contribution   :     -4.27330       3.19252       8.08446
                        -----------------------------------------
Total Dipole Moment    :      1.22688      -0.97728      -2.63771
                        -----------------------------------------
Magnitude (a.u.)       :      3.06885
Magnitude (Debye)      :      7.80040

Rotational constants in cm-1:     0.002810     0.000325     0.000292
Rotational constants in MHz :    84.239531     9.748560     8.754865

                             ****ORCA TERMINATED NORMALLY****
TOTAL RUN TIME: 0 days 0 hours 6 minutes 14 seconds 471 msec
