                         Program Version 4.2.0 -  RELEASE  -
|  1> # ORCA input file
|  2> # SCF done       -179.637714611766          0.000553836678
|  3> ! CAM-B3LYP def2-SVP def2/J RIJCOSX Grid4 TightSCF
|  4> %maxcore 5000
|  5> %tddft
|  6>     Mode sTDDFT
|  7>     Ethresh 5.0
|  8>     maxcore 5000
|  9> end
| 10>
| 11> %pal
| 12>   nprocs 6
| 13>   end
| 14> * xyz 0 1
| 15>    C        3.86182        12.91532        -2.63310
| 16>    S        4.70567        11.50644        -3.10167
| 17>    C        3.93229        10.55618        -1.86260
| 18>    C        3.04998        11.34013        -1.12656
| 19>    C        3.01722        12.69422        -1.57717
| 20>    C        2.20595        13.68905        -0.99582
| 21>    N        1.54680        14.49697        -0.52187
| 22>    C        2.25357        10.90184        -0.05719
| 23>    N        1.58698        10.57615         0.81881
| 24>    C        4.26348         9.18037        -1.74030
| 25>    C        3.75537         8.33399        -0.81159
| 26>    C        4.13980         6.96836        -0.74212
| 27>    N        5.01560         6.43642        -1.58603
| 28>    C        5.14241         5.14766        -1.21749
| 29>    C        4.29560         4.83136        -0.06090
| 30>    C        4.45509         3.42084         0.31737
| 31>    O        3.91515         2.80880         1.21841
| 32>    C        5.43391         2.92617        -0.66788
| 33>    C        5.82741         4.01049        -1.58609
| 34>    N        6.72700         3.56684        -2.49595
| 35>    C        6.91191         2.30047        -2.20416
| 36>    C        6.13537         1.83540        -1.07436
| 37>    C        3.63780         5.99783         0.25785
| 38>    C        2.69677         6.29207         1.28279
| 39>    C        2.32439         5.37915         2.21020
| 40>    C        1.40202         5.57954         3.29171
| 41>    C        1.27984         4.57024         4.23080
| 42>    C        0.41373         4.71277         5.32636
| 43>    C        0.13052         3.87404         6.40446
| 44>    C        0.67341         2.52599         6.71389
| 45>    C        0.20617         1.49811         5.66623
| 46>    N       -1.24642         1.43019         5.69195
| 47>    C        2.22181         2.54180         6.84933
| 48>    N        2.78849         1.38246         7.48943
| 49>    C       -0.86571         4.54580         7.20347
| 50>    C       -1.49913         4.16646         8.32887
| 51>    C       -2.55094         5.00992         8.95105
| 52>    C       -2.77825         6.33065         8.27661
| 53>    C       -2.13508         6.69107         7.14763
| 54>    C       -1.17314         5.83384         6.56826
| 55>    C       -0.38305         5.92783         5.43590
| 56>    C       -0.25067         6.93952         4.45870
| 57>    C        0.61948         6.77172         3.42933
| 58>    C       -3.89255         4.32804         8.92180
| 59>    C       -4.25165         3.39980         8.02118
| 60>    C       -5.55073         2.80631         8.04979
| 61>    N       -6.42022         3.08659         9.01007
| 62>    C       -7.51009         2.33916         8.75518
| 63>    C       -7.32890         1.52528         7.54365
| 64>    C       -8.53204         0.71723         7.28032
| 65>    O       -8.73340        -0.05610         6.36861
| 66>    C       -9.41863         1.08670         8.39641
| 67>    C       -8.75852         2.07979         9.27000
| 68>    N       -9.56858         2.42521        10.29855
| 69>    C      -10.66338         1.72293        10.12243
| 70>    C      -10.63732         0.86748         8.95493
| 71>    C       -6.07077         1.81702         7.07627
| 72>    C       -5.38395         1.34357         5.92387
| 73>    C       -5.90364         0.43123         5.06916
| 74>    C       -5.23817        -0.01951         3.89970
| 75>    S       -3.71520         0.63600         3.36582
| 76>    C       -3.65693        -0.40748         1.97816
| 77>    C       -4.77490        -1.22263         1.93397
| 78>    C       -5.66992        -1.00041         3.01963
| 79>    C       -6.86455        -1.72822         3.17194
| 80>    N       -7.82881        -2.33999         3.26541
| 81>    C       -5.05193        -2.18454         0.94616
| 82>    N       -5.31305        -2.98029         0.16294
| 83>    C       -2.52674        -0.30911         1.09603
| 84>    C       -2.31848        -1.04880         0.00802
| 85>    H        4.01841        13.84316        -3.14794
| 86>    H        4.98253         8.78497        -2.44500
| 87>    H        3.03864         8.68710        -0.08708
| 88>    H        7.59301         1.70339        -2.78528
| 89>    H        6.14430         0.83886        -0.67881
| 90>    H        2.29457         7.29475         1.30475
| 91>    H        2.77270         4.39497         2.16003
| 92>    H        1.87207         3.67555         4.11328
| 93>    H        0.26032         2.20447         7.67638
| 94>    H        0.58572         0.50807         5.93408
| 95>    H        0.61322         1.76732         4.68004
| 96>    H       -1.57488         0.65935         5.12134
| 97>    H       -1.63378         2.28807         5.31034
| 98>    H        2.50565         3.41774         7.43915
| 99>    H        2.68098         2.63322         5.86418
|100>    H        2.62419         0.54007         6.95187
|101>    H        2.41204         1.25133         8.42115
|102>    H       -1.30278         3.21815         8.80921
|103>    H       -2.28599         5.18047        10.00441
|104>    H       -3.51876         6.97149         8.72850
|105>    H       -2.33815         7.64433         6.68191
|106>    H       -0.84033         7.84016         4.54241
|107>    H        0.71844         7.54824         2.68766
|108>    H       -4.62514         4.65284         9.64654
|109>    H       -3.55545         3.05956         7.26744
|110>    H      -11.48159         1.81196        10.81592
|111>    H      -11.42915         0.21826         8.63782
|112>    H       -4.39637         1.74616         5.73264
|113>    H       -6.88108         0.00099         5.25434
|114>    H       -1.80476         0.44650         1.38047
|115>    H       -3.00555        -1.81152        -0.31304
|116>    H       -1.43884        -0.90382        -0.59386
|117> *
|118>
|119>                          ****END OF INPUT****

CARTESIAN COORDINATES (ANGSTROEM)
---------------------------------
  C      3.861820   12.915320   -2.633100
  S      4.705670   11.506440   -3.101670
  C      3.932290   10.556180   -1.862600
  C      3.049980   11.340130   -1.126560
  C      3.017220   12.694220   -1.577170
  C      2.205950   13.689050   -0.995820
  N      1.546800   14.496970   -0.521870
  C      2.253570   10.901840   -0.057190
  N      1.586980   10.576150    0.818810
  C      4.263480    9.180370   -1.740300
  C      3.755370    8.333990   -0.811590
  C      4.139800    6.968360   -0.742120
  N      5.015600    6.436420   -1.586030
  C      5.142410    5.147660   -1.217490
  C      4.295600    4.831360   -0.060900
  C      4.455090    3.420840    0.317370
  O      3.915150    2.808800    1.218410
  C      5.433910    2.926170   -0.667880
  C      5.827410    4.010490   -1.586090
  N      6.727000    3.566840   -2.495950
  C      6.911910    2.300470   -2.204160
  C      6.135370    1.835400   -1.074360
  C      3.637800    5.997830    0.257850
  C      2.696770    6.292070    1.282790
  C      2.324390    5.379150    2.210200
  C      1.402020    5.579540    3.291710
  C      1.279840    4.570240    4.230800
  C      0.413730    4.712770    5.326360
  C      0.130520    3.874040    6.404460
  C      0.673410    2.525990    6.713890
  C      0.206170    1.498110    5.666230
  N     -1.246420    1.430190    5.691950
  C      2.221810    2.541800    6.849330
  N      2.788490    1.382460    7.489430
  C     -0.865710    4.545800    7.203470
  C     -1.499130    4.166460    8.328870
  C     -2.550940    5.009920    8.951050
  C     -2.778250    6.330650    8.276610
  C     -2.135080    6.691070    7.147630
  C     -1.173140    5.833840    6.568260
  C     -0.383050    5.927830    5.435900
  C     -0.250670    6.939520    4.458700
  C      0.619480    6.771720    3.429330
  C     -3.892550    4.328040    8.921800
  C     -4.251650    3.399800    8.021180
  C     -5.550730    2.806310    8.049790
  N     -6.420220    3.086590    9.010070
  C     -7.510090    2.339160    8.755180
  C     -7.328900    1.525280    7.543650
  C     -8.532040    0.717230    7.280320
  O     -8.733400   -0.056100    6.368610
  C     -9.418630    1.086700    8.396410
  C     -8.758520    2.079790    9.270000
  N     -9.568580    2.425210   10.298550
  C    -10.663380    1.722930   10.122430
  C    -10.637320    0.867480    8.954930
  C     -6.070770    1.817020    7.076270
  C     -5.383950    1.343570    5.923870
  C     -5.903640    0.431230    5.069160
  C     -5.238170   -0.019510    3.899700
  S     -3.715200    0.636000    3.365820
  C     -3.656930   -0.407480    1.978160
  C     -4.774900   -1.222630    1.933970
  C     -5.669920   -1.000410    3.019630
  C     -6.864550   -1.728220    3.171940
  N     -7.828810   -2.339990    3.265410
  C     -5.051930   -2.184540    0.946160
  N     -5.313050   -2.980290    0.162940
  C     -2.526740   -0.309110    1.096030
  C     -2.318480   -1.048800    0.008020
  H      4.018410   13.843160   -3.147940
  H      4.982530    8.784970   -2.445000
  H      3.038640    8.687100   -0.087080
  H      7.593010    1.703390   -2.785280
  H      6.144300    0.838860   -0.678810
  H      2.294570    7.294750    1.304750
  H      2.772700    4.394970    2.160030
  H      1.872070    3.675550    4.113280
  H      0.260320    2.204470    7.676380
  H      0.585720    0.508070    5.934080
  H      0.613220    1.767320    4.680040
  H     -1.574880    0.659350    5.121340
  H     -1.633780    2.288070    5.310340
  H      2.505650    3.417740    7.439150
  H      2.680980    2.633220    5.864180
  H      2.624190    0.540070    6.951870
  H      2.412040    1.251330    8.421150
  H     -1.302780    3.218150    8.809210
  H     -2.285990    5.180470   10.004410
  H     -3.518760    6.971490    8.728500
  H     -2.338150    7.644330    6.681910
  H     -0.840330    7.840160    4.542410
  H      0.718440    7.548240    2.687660
  H     -4.625140    4.652840    9.646540
  H     -3.555450    3.059560    7.267440
  H    -11.481590    1.811960   10.815920
  H    -11.429150    0.218260    8.637820
  H     -4.396370    1.746160    5.732640
  H     -6.881080    0.000990    5.254340
  H     -1.804760    0.446500    1.380470
  H     -3.005550   -1.811520   -0.313040
  H     -1.438840   -0.903820   -0.593860

 Total Charge           Charge          ....    0
 Multiplicity           Mult            ....    1
 Number of Electrons    NEL             ....  486
 Basis Dimension        Dim             .... 1148

ORBITAL ENERGIES
----------------

  NO   OCC          E(Eh)            E(eV)
   0   2.0000     -89.011674     -2422.1308
   1   2.0000     -88.992676     -2421.6138
   2   2.0000     -19.213050      -522.8137
   3   2.0000     -19.212241      -522.7916
   4   2.0000     -14.437446      -392.8629
   5   2.0000     -14.427556      -392.5938
   6   2.0000     -14.415800      -392.2739
   7   2.0000     -14.415621      -392.2690
   8   2.0000     -14.409446      -392.1010
   9   2.0000     -14.409180      -392.0937
  10   2.0000     -14.405945      -392.0057
  11   2.0000     -14.404754      -391.9733
  12   2.0000     -14.390450      -391.5841
  13   2.0000     -14.380471      -391.3125
  14   2.0000     -10.372684      -282.2551
  15   2.0000     -10.372105      -282.2393
  16   2.0000     -10.360812      -281.9320
  17   2.0000     -10.353579      -281.7352
  18   2.0000     -10.353282      -281.7271
  19   2.0000     -10.352460      -281.7047
  20   2.0000     -10.347577      -281.5719
  21   2.0000     -10.345783      -281.5231
  22   2.0000     -10.345063      -281.5035
  23   2.0000     -10.340133      -281.3693
  24   2.0000     -10.336890      -281.2811
  25   2.0000     -10.334434      -281.2143
  26   2.0000     -10.333932      -281.2006
  27   2.0000     -10.333852      -281.1984
  28   2.0000     -10.332912      -281.1728
  29   2.0000     -10.327855      -281.0352
  30   2.0000     -10.326702      -281.0039
  31   2.0000     -10.324858      -280.9537
  32   2.0000     -10.323832      -280.9258
  33   2.0000     -10.323157      -280.9074
  34   2.0000     -10.322912      -280.9007
  35   2.0000     -10.315583      -280.7013
  36   2.0000     -10.314367      -280.6682
  37   2.0000     -10.311580      -280.5924
  38   2.0000     -10.310132      -280.5530
  39   2.0000     -10.309222      -280.5282
  40   2.0000     -10.309033      -280.5231
  41   2.0000     -10.307559      -280.4829
  42   2.0000     -10.306771      -280.4615
  43   2.0000     -10.304332      -280.3951
  44   2.0000     -10.303103      -280.3617
  45   2.0000     -10.300463      -280.2899
  46   2.0000     -10.294119      -280.1172
  47   2.0000     -10.292563      -280.0749
  48   2.0000     -10.291580      -280.0481
  49   2.0000     -10.290806      -280.0271
  50   2.0000     -10.290548      -280.0200
  51   2.0000     -10.288642      -279.9682
  52   2.0000     -10.288282      -279.9584
  53   2.0000     -10.287881      -279.9475
  54   2.0000     -10.285748      -279.8894
  55   2.0000     -10.284337      -279.8510
  56   2.0000     -10.283583      -279.8305
  57   2.0000     -10.283237      -279.8211
  58   2.0000     -10.282807      -279.8094
  59   2.0000     -10.282067      -279.7893
  60   2.0000     -10.281385      -279.7707
  61   2.0000     -10.281284      -279.7680
  62   2.0000     -10.278600      -279.6949
  63   2.0000     -10.274962      -279.5959
  64   2.0000     -10.274267      -279.5770
  65   2.0000     -10.272065      -279.5171
  66   2.0000     -10.271559      -279.5033
  67   2.0000     -10.271504      -279.5018
  68   2.0000     -10.270877      -279.4848
  69   2.0000     -10.268927      -279.4317
  70   2.0000      -8.107491      -220.6160
  71   2.0000      -8.087812      -220.0806
  72   2.0000      -6.076618      -165.3532
  73   2.0000      -6.072194      -165.2328
  74   2.0000      -6.070064      -165.1748
  75   2.0000      -6.056898      -164.8166
  76   2.0000      -6.052956      -164.7093
  77   2.0000      -6.050177      -164.6337
  78   2.0000      -1.127588       -30.6832
  79   2.0000      -1.125352       -30.6224
  80   2.0000      -1.080653       -29.4061
  81   2.0000      -1.079021       -29.3616
  82   2.0000      -1.060470       -28.8569
  83   2.0000      -1.058943       -28.8153
  84   2.0000      -1.049031       -28.5456
  85   2.0000      -1.031877       -28.0788
  86   2.0000      -1.015731       -27.6394
  87   2.0000      -1.007240       -27.4084
  88   2.0000      -0.995969       -27.1017
  89   2.0000      -0.994040       -27.0492
  90   2.0000      -0.988785       -26.9062
  91   2.0000      -0.974450       -26.5161
  92   2.0000      -0.958885       -26.0926
  93   2.0000      -0.958471       -26.0813
  94   2.0000      -0.946810       -25.7640
  95   2.0000      -0.939949       -25.5773
  96   2.0000      -0.935800       -25.4644
  97   2.0000      -0.929766       -25.3002
  98   2.0000      -0.925988       -25.1974
  99   2.0000      -0.910174       -24.7671
 100   2.0000      -0.908299       -24.7161
 101   2.0000      -0.905374       -24.6365
 102   2.0000      -0.892060       -24.2742
 103   2.0000      -0.886989       -24.1362
 104   2.0000      -0.877899       -23.8888
 105   2.0000      -0.872848       -23.7514
 106   2.0000      -0.861770       -23.4499
 107   2.0000      -0.857482       -23.3333
 108   2.0000      -0.854453       -23.2508
 109   2.0000      -0.846433       -23.0326
 110   2.0000      -0.842055       -22.9135
 111   2.0000      -0.832816       -22.6621
 112   2.0000      -0.824932       -22.4475
 113   2.0000      -0.810467       -22.0539
 114   2.0000      -0.799512       -21.7558
 115   2.0000      -0.775571       -21.1043
 116   2.0000      -0.766253       -20.8508
 117   2.0000      -0.764711       -20.8088
 118   2.0000      -0.753452       -20.5025
 119   2.0000      -0.749586       -20.3973
 120   2.0000      -0.746319       -20.3084
 121   2.0000      -0.739010       -20.1095
 122   2.0000      -0.733414       -19.9572
 123   2.0000      -0.732046       -19.9200
 124   2.0000      -0.729683       -19.8557
 125   2.0000      -0.723465       -19.6865
 126   2.0000      -0.710376       -19.3303
 127   2.0000      -0.708207       -19.2713
 128   2.0000      -0.703652       -19.1474
 129   2.0000      -0.684560       -18.6278
 130   2.0000      -0.681637       -18.5483
 131   2.0000      -0.673984       -18.3400
 132   2.0000      -0.666729       -18.1426
 133   2.0000      -0.664568       -18.0838
 134   2.0000      -0.662811       -18.0360
 135   2.0000      -0.651196       -17.7199
 136   2.0000      -0.646274       -17.5860
 137   2.0000      -0.645334       -17.5604
 138   2.0000      -0.634402       -17.2630
 139   2.0000      -0.633024       -17.2255
 140   2.0000      -0.622293       -16.9334
 141   2.0000      -0.620584       -16.8869
 142   2.0000      -0.616080       -16.7644
 143   2.0000      -0.607990       -16.5442
 144   2.0000      -0.599461       -16.3122
 145   2.0000      -0.596485       -16.2312
 146   2.0000      -0.591834       -16.1046
 147   2.0000      -0.585734       -15.9386
 148   2.0000      -0.581174       -15.8146
 149   2.0000      -0.577635       -15.7182
 150   2.0000      -0.576815       -15.6959
 151   2.0000      -0.573373       -15.6023
 152   2.0000      -0.571952       -15.5636
 153   2.0000      -0.571705       -15.5569
 154   2.0000      -0.563497       -15.3335
 155   2.0000      -0.556855       -15.1528
 156   2.0000      -0.555074       -15.1043
 157   2.0000      -0.551948       -15.0193
 158   2.0000      -0.549952       -14.9650
 159   2.0000      -0.547346       -14.8940
 160   2.0000      -0.545625       -14.8472
 161   2.0000      -0.543766       -14.7966
 162   2.0000      -0.542432       -14.7603
 163   2.0000      -0.538281       -14.6474
 164   2.0000      -0.535531       -14.5725
 165   2.0000      -0.533706       -14.5229
 166   2.0000      -0.530867       -14.4456
 167   2.0000      -0.529462       -14.4074
 168   2.0000      -0.527336       -14.3495
 169   2.0000      -0.521898       -14.2016
 170   2.0000      -0.517422       -14.0798
 171   2.0000      -0.514738       -14.0067
 172   2.0000      -0.510819       -13.9001
 173   2.0000      -0.510342       -13.8871
 174   2.0000      -0.507551       -13.8112
 175   2.0000      -0.503583       -13.7032
 176   2.0000      -0.499452       -13.5908
 177   2.0000      -0.498462       -13.5639
 178   2.0000      -0.496762       -13.5176
 179   2.0000      -0.495740       -13.4898
 180   2.0000      -0.492444       -13.4001
 181   2.0000      -0.490624       -13.3505
 182   2.0000      -0.484696       -13.1892
 183   2.0000      -0.482220       -13.1219
 184   2.0000      -0.480945       -13.0872
 185   2.0000      -0.479278       -13.0418
 186   2.0000      -0.474672       -12.9165
 187   2.0000      -0.474101       -12.9009
 188   2.0000      -0.473891       -12.8952
 189   2.0000      -0.473521       -12.8852
 190   2.0000      -0.468485       -12.7481
 191   2.0000      -0.467827       -12.7302
 192   2.0000      -0.467094       -12.7103
 193   2.0000      -0.464280       -12.6337
 194   2.0000      -0.462187       -12.5767
 195   2.0000      -0.461093       -12.5470
 196   2.0000      -0.459785       -12.5114
 197   2.0000      -0.457185       -12.4406
 198   2.0000      -0.456639       -12.4258
 199   2.0000      -0.453077       -12.3288
 200   2.0000      -0.450150       -12.2492
 201   2.0000      -0.449339       -12.2271
 202   2.0000      -0.445342       -12.1184
 203   2.0000      -0.442434       -12.0392
 204   2.0000      -0.441632       -12.0174
 205   2.0000      -0.440330       -11.9820
 206   2.0000      -0.434342       -11.8191
 207   2.0000      -0.433908       -11.8072
 208   2.0000      -0.433238       -11.7890
 209   2.0000      -0.428796       -11.6681
 210   2.0000      -0.427959       -11.6454
 211   2.0000      -0.422266       -11.4905
 212   2.0000      -0.418069       -11.3762
 213   2.0000      -0.416110       -11.3229
 214   2.0000      -0.414190       -11.2707
 215   2.0000      -0.410289       -11.1645
 216   2.0000      -0.401446       -10.9239
 217   2.0000      -0.396213       -10.7815
 218   2.0000      -0.392388       -10.6774
 219   2.0000      -0.389450       -10.5975
 220   2.0000      -0.387463       -10.5434
 221   2.0000      -0.374258       -10.1841
 222   2.0000      -0.364851        -9.9281
 223   2.0000      -0.361484        -9.8365
 224   2.0000      -0.360070        -9.7980
 225   2.0000      -0.356004        -9.6874
 226   2.0000      -0.354793        -9.6544
 227   2.0000      -0.353459        -9.6181
 228   2.0000      -0.343140        -9.3373
 229   2.0000      -0.342710        -9.3256
 230   2.0000      -0.338115        -9.2006
 231   2.0000      -0.335465        -9.1285
 232   2.0000      -0.331464        -9.0196
 233   2.0000      -0.330922        -9.0049
 234   2.0000      -0.330449        -8.9920
 235   2.0000      -0.329883        -8.9766
 236   2.0000      -0.315890        -8.5958
 237   2.0000      -0.307002        -8.3540
 238   2.0000      -0.302159        -8.2222
 239   2.0000      -0.300996        -8.1905
 240   2.0000      -0.276325        -7.5192
 241   2.0000      -0.274693        -7.4748
 242   2.0000      -0.228307        -6.2125
 243   0.0000      -0.126675        -3.4470
 244   0.0000      -0.116062        -3.1582
 245   0.0000      -0.083070        -2.2605
 246   0.0000      -0.072159        -1.9635
 247   0.0000      -0.058593        -1.5944

MULLIKEN ATOMIC CHARGES
-----------------------
   0 C :   -0.073952
   1 S :    0.205531
   2 C :   -0.117545
   3 C :    0.007289
   4 C :   -0.051045
   5 C :   -0.198164
   6 N :    0.199984
   7 C :   -0.228779
   8 N :    0.192189
   9 C :    0.093353
  10 C :   -0.043121
  11 C :    0.026894
  12 N :   -0.044329
  13 C :    0.068211
  14 C :   -0.176200
  15 C :    0.218502
  16 O :   -0.153997
  17 C :   -0.005714
  18 C :   -0.032147
  19 N :   -0.056065
  20 C :    0.087736
  21 C :   -0.098481
  22 C :    0.070335
  23 C :   -0.036510
  24 C :    0.002325
  25 C :    0.123095
  26 C :   -0.111371
  27 C :    0.062779
  28 C :   -0.074858
  29 C :   -0.009081
  30 C :    0.129657
  31 N :   -0.244015
  32 C :    0.138834
  33 N :   -0.205271
  34 C :    0.101241
  35 C :   -0.136734
  36 C :    0.161869
  37 C :   -0.040813
  38 C :    0.026850
  39 C :    0.013220
  40 C :    0.033711
  41 C :   -0.001491
  42 C :   -0.016480
  43 C :   -0.037020
  44 C :   -0.019038
  45 C :    0.049455
  46 N :   -0.046611
  47 C :    0.069844
  48 C :   -0.161035
  49 C :    0.220314
  50 O :   -0.133325
  51 C :   -0.009630
  52 C :   -0.031858
  53 N :   -0.055633
  54 C :    0.089792
  55 C :   -0.096163
  56 C :    0.049840
  57 C :   -0.032157
  58 C :    0.013076
  59 C :   -0.075185
  60 S :    0.137888
  61 C :   -0.098157
  62 C :   -0.014186
  63 C :   -0.005102
  64 C :   -0.262247
  65 N :    0.227122
  66 C :   -0.261263
  67 N :    0.195736
  68 C :    0.028502
  69 C :   -0.006574
  70 H :    0.052037
  71 H :    0.019846
  72 H :   -0.000983
  73 H :    0.009052
  74 H :   -0.007444
  75 H :   -0.019602
  76 H :   -0.005170
  77 H :   -0.018526
  78 H :   -0.046016
  79 H :   -0.020002
  80 H :   -0.011794
  81 H :    0.094353
  82 H :    0.112270
  83 H :    0.007792
  84 H :   -0.001276
  85 H :    0.088899
  86 H :    0.088895
  87 H :    0.006566
  88 H :    0.041591
  89 H :   -0.002622
  90 H :   -0.029656
  91 H :   -0.031046
  92 H :   -0.015107
  93 H :    0.038831
  94 H :    0.000408
  95 H :    0.010627
  96 H :   -0.002590
  97 H :   -0.029150
  98 H :    0.034422
  99 H :   -0.001780
 100 H :    0.052426
 101 H :    0.040923
Sum of atomic charges:   -0.0000000

LOEWDIN ATOMIC CHARGES
----------------------
   0 C :   -0.135168
   1 S :    0.513704
   2 C :   -0.140151
   3 C :   -0.078879
   4 C :   -0.080297
   5 C :   -0.033984
   6 N :   -0.023354
   7 C :   -0.023978
   8 N :   -0.035566
   9 C :    0.018417
  10 C :   -0.022535
  11 C :    0.066210
  12 N :   -0.102522
  13 C :    0.048208
  14 C :   -0.064901
  15 C :    0.070273
  16 O :   -0.151542
  17 C :   -0.040332
  18 C :    0.019441
  19 N :   -0.098419
  20 C :    0.071301
  21 C :   -0.035749
  22 C :   -0.014308
  23 C :   -0.055476
  24 C :    0.032971
  25 C :   -0.029737
  26 C :   -0.000259
  27 C :   -0.024420
  28 C :   -0.030849
  29 C :   -0.053731
  30 C :    0.028448
  31 N :   -0.124891
  32 C :    0.024346
  33 N :   -0.102687
  34 C :   -0.019191
  35 C :    0.069870
  36 C :   -0.032518
  37 C :   -0.027590
  38 C :   -0.012320
  39 C :   -0.039973
  40 C :   -0.025722
  41 C :   -0.005608
  42 C :   -0.020268
  43 C :    0.085385
  44 C :   -0.063031
  45 C :    0.078326
  46 N :   -0.108820
  47 C :    0.047086
  48 C :   -0.037532
  49 C :    0.067882
  50 O :   -0.132718
  51 C :   -0.039464
  52 C :    0.020909
  53 N :   -0.097526
  54 C :    0.074111
  55 C :   -0.034601
  56 C :   -0.031808
  57 C :   -0.024444
  58 C :   -0.006856
  59 C :   -0.136259
  60 S :    0.481738
  61 C :   -0.128245
  62 C :   -0.087661
  63 C :   -0.073480
  64 C :   -0.035542
  65 N :   -0.019961
  66 C :   -0.027957
  67 N :   -0.035533
  68 C :   -0.055508
  69 C :    0.004501
  70 H :    0.042613
  71 H :    0.044737
  72 H :    0.037012
  73 H :    0.023181
  74 H :    0.033536
  75 H :    0.026054
  76 H :    0.032577
  77 H :    0.027336
  78 H :    0.019181
  79 H :    0.009542
  80 H :    0.002188
  81 H :    0.037150
  82 H :    0.046518
  83 H :    0.021982
  84 H :    0.019305
  85 H :    0.048751
  86 H :    0.051737
  87 H :    0.033431
  88 H :    0.061578
  89 H :    0.027972
  90 H :    0.033045
  91 H :    0.030183
  92 H :    0.030135
  93 H :    0.040617
  94 H :    0.030594
  95 H :    0.023892
  96 H :    0.035620
  97 H :    0.021277
  98 H :    0.045582
  99 H :    0.032501
 100 H :    0.035631
 101 H :    0.035286

  Mayer bond orders larger than 0.100000
B(  0-C ,  1-S ) :   1.1934 B(  0-C ,  4-C ) :   1.5400 B(  0-C , 70-H ) :   0.9734
B(  1-S ,  2-C ) :   1.1574 B(  2-C ,  3-C ) :   1.4668 B(  2-C ,  9-C ) :   1.1036
B(  3-C ,  4-C ) :   1.3279 B(  3-C ,  7-C ) :   1.1550 B(  4-C ,  5-C ) :   1.1228
B(  5-C ,  6-N ) :   3.0411 B(  7-C ,  8-N ) :   2.9582 B(  9-C , 10-C ) :   1.6779
B(  9-C , 71-H ) :   0.9587 B( 10-C , 11-C ) :   1.1437 B( 10-C , 72-H ) :   0.9447
B( 11-C , 12-N ) :   1.6050 B( 11-C , 13-C ) :   0.1086 B( 11-C , 22-C ) :   0.9996
B( 12-N , 13-C ) :   1.3454 B( 13-C , 14-C ) :   1.0616 B( 13-C , 18-C ) :   1.4082
B( 14-C , 15-C ) :   0.9076 B( 14-C , 22-C ) :   1.5289 B( 15-C , 16-O ) :   2.1682
B( 15-C , 17-C ) :   0.9332 B( 16-O , 76-H ) :   0.1100 B( 17-C , 18-C ) :   1.0735
B( 17-C , 21-C ) :   1.5996 B( 18-C , 19-N ) :   1.3147 B( 19-N , 20-C ) :   1.6541
B( 20-C , 21-C ) :   1.0692 B( 20-C , 73-H ) :   0.9896 B( 21-C , 74-H ) :   1.0118
B( 22-C , 23-C ) :   1.1404 B( 23-C , 24-C ) :   1.6236 B( 23-C , 75-H ) :   0.9598
B( 24-C , 25-C ) :   1.0791 B( 24-C , 76-H ) :   0.9723 B( 25-C , 26-C ) :   1.4886
B( 25-C , 42-C ) :   1.1170 B( 26-C , 27-C ) :   1.1100 B( 26-C , 77-H ) :   1.0046
B( 27-C , 28-C ) :   1.4432 B( 27-C , 40-C ) :   1.1237 B( 28-C , 29-C ) :   1.0166
B( 28-C , 34-C ) :   1.1160 B( 29-C , 30-C ) :   1.0144 B( 29-C , 32-C ) :   1.0044
B( 29-C , 78-H ) :   0.8697 B( 30-C , 31-N ) :   1.0908 B( 30-C , 79-H ) :   0.9329
B( 30-C , 80-H ) :   0.9417 B( 31-N , 81-H ) :   0.9588 B( 31-N , 82-H ) :   0.9504
B( 32-C , 33-N ) :   1.1288 B( 32-C , 83-H ) :   0.9516 B( 32-C , 84-H ) :   0.9398
B( 33-N , 85-H ) :   0.9818 B( 33-N , 86-H ) :   0.9784 B( 34-C , 35-C ) :   1.6532
B( 34-C , 39-C ) :   1.0492 B( 35-C , 36-C ) :   0.9748 B( 35-C , 87-H ) :   0.9761
B( 36-C , 37-C ) :   0.9770 B( 36-C , 43-C ) :   0.9440 B( 36-C , 88-H ) :   0.8636
B( 37-C , 38-C ) :   1.7237 B( 37-C , 89-H ) :   0.9657 B( 38-C , 39-C ) :   1.1369
B( 38-C , 90-H ) :   0.9880 B( 39-C , 40-C ) :   1.4351 B( 40-C , 41-C ) :   1.1382
B( 41-C , 42-C ) :   1.6239 B( 41-C , 91-H ) :   0.9912 B( 42-C , 92-H ) :   0.9853
B( 43-C , 44-C ) :   1.7767 B( 43-C , 93-H ) :   0.9662 B( 44-C , 45-C ) :   1.1162
B( 44-C , 94-H ) :   0.9402 B( 45-C , 46-N ) :   1.6038 B( 45-C , 47-C ) :   0.1090
B( 45-C , 56-C ) :   0.9999 B( 46-N , 47-C ) :   1.3565 B( 47-C , 48-C ) :   1.0541
B( 47-C , 52-C ) :   1.4052 B( 48-C , 49-C ) :   0.8944 B( 48-C , 56-C ) :   1.5525
B( 49-C , 50-O ) :   2.1847 B( 49-C , 51-C ) :   0.9302 B( 50-O , 98-H ) :   0.1072
B( 51-C , 52-C ) :   1.0710 B( 51-C , 55-C ) :   1.5980 B( 52-C , 53-N ) :   1.3193
B( 53-N , 54-C ) :   1.6474 B( 54-C , 55-C ) :   1.0747 B( 54-C , 95-H ) :   0.9892
B( 55-C , 96-H ) :   1.0112 B( 56-C , 57-C ) :   1.1341 B( 57-C , 58-C ) :   1.6468
B( 57-C , 97-H ) :   0.9583 B( 58-C , 59-C ) :   1.1708 B( 58-C , 98-H ) :   0.9414
B( 59-C , 60-S ) :   1.1026 B( 59-C , 63-C ) :   1.4763 B( 60-S , 61-C ) :   1.1331
B( 61-C , 62-C ) :   1.5037 B( 61-C , 68-C ) :   1.1123 B( 62-C , 63-C ) :   1.3074
B( 62-C , 66-C ) :   1.1629 B( 63-C , 64-C ) :   1.1554 B( 64-C , 65-N ) :   3.0058
B( 66-C , 67-N ) :   2.9646 B( 68-C , 69-C ) :   1.9293 B( 68-C , 99-H ) :   0.9447
B( 69-C ,100-H ) :   0.9494 B( 69-C ,101-H ) :   0.9453

-----------------------------------------------------------------------------
         ABSORPTION SPECTRUM VIA TRANSITION ELECTRIC DIPOLE MOMENTS
-----------------------------------------------------------------------------
State   Energy  Wavelength   fosc         T2         TX        TY        TZ
        (cm-1)    (nm)                  (au**2)     (au)      (au)      (au)
-----------------------------------------------------------------------------
   0    9487.8   1054.0   0.090409692   3.13706  -1.17562  -0.08369   1.32211
   1   11484.0    870.8   0.085981268   2.46482  -1.32121  -0.73239   0.42757
   2   13713.7    729.2   0.059229024   1.42185   0.77177  -0.90816   0.03823
   3   16586.7    602.9   0.012319394   0.24451   0.26102  -0.28794  -0.30574
   4   17838.2    560.6   0.156883565   2.89536  -1.02967   0.38815   1.29787
   5   20606.1    485.3   0.066285691   1.05901  -0.84971  -0.42803   0.39215
   6   21010.9    475.9   0.000513185   0.00804  -0.02585  -0.06014  -0.06128
   7   21829.4    458.1   0.003062924   0.04619  -0.06715  -0.17106   0.11145
   8   21882.8    457.0   0.576320743   8.67036   0.10541   2.70564  -1.15704
   9   22982.4    435.1   0.734789610  10.52551  -1.87281   2.38171   1.15998
  10   23992.5    416.8   0.002401384   0.03295  -0.16287  -0.06459   0.04746
  11   24229.2    412.7   0.416671844   5.66149  -1.90320  -0.57063   1.30908
  12   24404.7    409.8   0.097844524   1.31989  -0.08393   1.10587  -0.29983
  13   24455.0    408.9   0.179057410   2.41046  -1.27189   0.14475   0.87852
  14   25040.6    399.4   0.000634446   0.00834  -0.06540  -0.00836   0.06320
  15   25110.9    398.2   0.561209026   7.35764   1.85590   0.35212  -1.94661
  16   25659.8    389.7   0.050859638   0.65252  -0.62941  -0.26030   0.43429
  17   25745.2    388.4   0.068208721   0.87221  -0.84259   0.20663   0.34575
  18   25904.7    386.0   0.167513644   2.12886   1.19197  -0.12017  -0.83285
  19   26690.3    374.7   0.271584384   3.34986  -0.22748   0.83607   1.61217
  20   26776.2    373.5   0.003033456   0.03730  -0.17187   0.01504   0.08678
  21   26955.4    371.0   0.583196872   7.12271  -0.97881   1.20117   2.17298
  22   27557.2    362.9   0.005685796   0.06793   0.24323  -0.09245  -0.01467
  23   28372.3    352.5   0.001480478   0.01718   0.03869  -0.10324  -0.07087
  24   28894.4    346.1   0.034225658   0.38995   0.12122  -0.56543  -0.23570
  25   29131.4    343.3   0.029520659   0.33361  -0.41632  -0.03557   0.39878
  26   29191.8    342.6   0.007502773   0.08461   0.12389   0.19119  -0.18086
  27   29637.7    337.4   0.005867635   0.06518   0.03987   0.15108  -0.20190
  28   29673.6    337.0   0.025225137   0.27986  -0.18427  -0.32215   0.37699
  29   30409.6    328.8   0.039739124   0.43021  -0.44749   0.47807  -0.03752
  30   30786.4    324.8   0.073168019   0.78242  -0.69892  -0.06365   0.53840
  31   30916.7    323.5   0.000209702   0.00223  -0.02697   0.03739  -0.01037
  32   30982.8    322.8   0.014600626   0.15514  -0.27327   0.18062   0.21873
  33   31027.6    322.3   0.001195306   0.01268   0.04868  -0.06826  -0.07519
  34   31450.2    318.0   0.107356402   1.12378  -0.66089  -0.10617   0.82202
  35   32060.6    311.9   0.011339654   0.11644  -0.26605  -0.16305   0.13811
  36   32194.2    310.6   0.001804140   0.01845   0.05895   0.11953  -0.02619
  37   32696.3    305.8   0.016116437   0.16227  -0.08354  -0.37986   0.10490
  38   32886.3    304.1   0.098397922   0.98502   0.10609   0.89042  -0.42536
  39   33102.1    302.1   0.184490323   1.83482   0.32548  -1.31149   0.09417
  40   33231.6    300.9   0.092677820   0.91812   0.82101  -0.15089  -0.47042
  41   33293.9    300.4   0.152367703   1.50662  -0.66317  -0.46747   0.92103
  42   33453.7    298.9   0.117939224   1.16062  -0.27793   1.03631   0.09716
  43   33737.8    296.4   0.072103441   0.70358   0.51495  -0.40427  -0.52438
  44   33955.5    294.5   0.007683349   0.07449   0.12758  -0.17212  -0.16909
  45   34161.7    292.7   0.051431701   0.49564  -0.64879  -0.22749   0.15153
  46   34298.0    291.6   0.052115178   0.50023   0.64806   0.27419   0.07123
  47   34422.2    290.5   0.038644290   0.36959  -0.47886  -0.16678   0.33536
  48   34977.5    285.9   0.004031935   0.03795  -0.12681   0.09732   0.11135
  49   35081.0    285.1   0.239550101   2.24802  -1.13093  -0.22224   0.95897
  50   35347.7    282.9   0.008033107   0.07482   0.02528  -0.12559  -0.24167
  51   35714.0    280.0   0.184572685   1.70139   1.00422   0.78351   0.28115
  52   36585.8    273.3   0.005881409   0.05292   0.00419   0.11580  -0.19874
  53   36698.9    272.5   0.033291373   0.29864  -0.19039  -0.38342   0.33969
  54   37171.9    269.0   0.156547737   1.38646   0.68195   0.87708   0.39005
  55   37335.5    267.8   0.038512207   0.33959   0.50937   0.25630  -0.12018
  56   37652.8    265.6   0.006874820   0.06011   0.23258  -0.03743   0.06791
  57   37839.5    264.3   0.001244164   0.01082   0.02283   0.03029  -0.09688
  58   37949.9    263.5   0.052312182   0.45380  -0.19023  -0.27467   0.58496
  59   38187.2    261.9   0.010572710   0.09115   0.17920   0.23203   0.07210
  60   38279.7    261.2   0.009556520   0.08219  -0.21953  -0.15687  -0.09689
  61   38505.2    259.7   0.000883789   0.00756   0.03809   0.07795   0.00545
  62   38604.0    259.0   0.041982538   0.35802   0.30601  -0.46771   0.21360
  63   38979.2    256.5   0.000020799   0.00018   0.01312  -0.00186   0.00005
  64   39340.8    254.2   0.000280797   0.00235   0.02027  -0.02193  -0.03818
  65   39549.9    252.8   0.000632621   0.00527   0.05795  -0.03326  -0.02832
  66   39891.4    250.7   0.026509711   0.21878  -0.21409   0.19092   0.36945
  67   39947.6    250.3   0.014146355   0.11658  -0.15382   0.25477   0.16737

FINAL SINGLE POINT ENERGY     -3643.379033154361

DIPOLE MOMENT
-------------
                                X             Y             Z
Electronic contribution:    -10.67580      20.67695     -35.43567
Nuclear contribution   :     13.56067     -18.66901      35.21697
                        -----------------------------------------
Total Dipole Moment    :      2.88486       2.00794      -0.21870
                        -----------------------------------------
Magnitude (a.u.)       :      3.52166
Magnitude (Debye)      :      8.95134

Rotational constants in cm-1:     0.001230     0.000384     0.000345
Rotational constants in MHz :    36.888898    11.518331    10.337478

                             ****ORCA TERMINATED NORMALLY****
TOTAL RUN TIME: 0 days 0 hours 10 minutes 40 seconds 18 msec
