                         Program Version 4.2.0 -  RELEASE  -
|  1> # ORCA input file
|  2> # SCF done       -192.384981449685          0.000578000008
|  3> ! CAM-B3LYP def2-SVP def2/J RIJCOSX Grid4 TightSCF
|  4> %maxcore 5000
|  5> %tddft
|  6>     Mode sTDDFT
|  7>     Ethresh 5.0
|  8>     maxcore 5000
|  9> end
| 10>
| 11> %pal
| 12>   nprocs 6
| 13>   end
| 14> * xyz 0 1
| 15>    C       -2.15385         5.27256        -8.03465
| 16>    C       -2.74101         6.19173        -7.21031
| 17>    C       -2.29303         6.36371        -5.89350
| 18>    C       -1.25531         5.61204        -5.40410
| 19>    C       -0.64177         4.63125        -6.23241
| 20>    C       -1.09638         4.46786        -7.56527
| 21>    C       -0.46657         3.47389        -8.34359
| 22>    C        0.53160         2.71740        -7.79226
| 23>    C        0.90226         2.96309        -6.45934
| 24>    N        0.34874         3.87896        -5.71579
| 25>    C       -0.71102         5.73040        -4.04915
| 26>    C       -0.59854         4.58374        -3.25364
| 27>    C       -1.20963         3.28735        -3.59816
| 28>    O       -2.05947         3.04489        -4.40187
| 29>    S       -0.55405         2.04216        -2.47775
| 30>    C        0.29460         3.25374        -1.45595
| 31>    O        0.93941         2.95095        -0.49556
| 32>    C        0.08887         4.59007        -2.04009
| 33>    C        0.61556         5.76907        -1.49250
| 34>    C        0.47356         6.92536        -2.27100
| 35>    C       -0.14093         6.89680        -3.53242
| 36>    C       -0.08364         8.17103        -4.26793
| 37>    O       -0.43648         8.41639        -5.38241
| 38>    S        0.67350         9.41437        -3.20989
| 39>    C        0.95573         8.25673        -1.86661
| 40>    O        1.46933         8.59795        -0.83974
| 41>    C        1.26208         5.76882        -0.17476
| 42>    C        2.55986         6.18964        -0.03962
| 43>    C        3.16852         6.19533         1.23126
| 44>    C        4.41894         6.62835         1.66580
| 45>    C        5.49022         7.39563         0.97007
| 46>    C        5.58316         7.18047        -0.54625
| 47>    N        6.94873         7.44491        -0.97068
| 48>    C        5.27854         8.88934         1.32706
| 49>    N        3.86028         9.18432         1.42799
| 50>    C        4.46732         6.39141         3.09110
| 51>    C        5.45119         6.60869         3.98472
| 52>    C        5.23113         6.37924         5.43851
| 53>    C        3.91344         5.77225         5.78832
| 54>    C        2.95855         5.51736         4.86908
| 55>    C        3.18759         5.81984         3.50892
| 56>    C        2.40295         5.70474         2.36603
| 57>    C        1.07777         5.26652         2.18933
| 58>    C        0.51861         5.30922         0.94772
| 59>    C        5.35715         7.75388         6.05661
| 60>    C        6.35598         8.12086         6.84630
| 61>    C        6.49373         9.47141         7.38722
| 62>    C        6.55705         9.69043         8.76729
| 63>    C        6.47500         8.60942         9.75739
| 64>    O        6.32768         7.43691         9.55790
| 65>    S        6.62500         9.31767        11.39932
| 66>    C        6.77371        11.00596        10.77922
| 67>    O        6.92438        11.94710        11.49977
| 68>    C        6.68716        10.97225         9.31352
| 69>    C        6.73764        12.11384         8.50762
| 70>    C        6.67466        11.89701         7.12825
| 71>    C        6.57829        10.61016         6.57552
| 72>    C        6.64631        10.58206         5.10807
| 73>    O        6.71104         9.63400         4.37437
| 74>    S        6.67851        12.26646         4.49324
| 75>    C        6.68375        12.98865         6.14681
| 76>    O        6.68062        14.16836         6.33417
| 77>    C        6.86470        13.46068         9.08858
| 78>    C        8.06618        14.12271         9.04083
| 79>    C        8.20974        15.38981         9.62143
| 80>    C        7.15485        15.99348        10.24485
| 81>    C        5.90380        15.34606        10.30939
| 82>    C        5.74840        14.06034         9.72228
| 83>    C        4.47553        13.45885         9.80164
| 84>    C        3.46342        14.11666        10.44526
| 85>    C        3.72997        15.38139        10.99996
| 86>    N        4.88756        15.97263        10.93276
| 87>    H       -2.49803         5.13791        -9.04982
| 88>    H       -3.56065         6.79699        -7.56613
| 89>    H       -2.78217         7.08580        -5.25772
| 90>    H       -0.78925         3.31973        -9.36372
| 91>    H        1.02984         1.94293        -8.35393
| 92>    H        1.68379         2.38097        -5.98771
| 93>    H        3.10865         6.49758        -0.91346
| 94>    H        6.46142         7.08863         1.37259
| 95>    H        4.84014         7.81082        -1.06348
| 96>    H        5.37680         6.13203        -0.77847
| 97>    H        7.19976         8.41071        -0.78606
| 98>    H        7.05282         7.28231        -1.96583
| 99>    H        5.80889         9.52013         0.59307
|100>    H        5.71594         9.08654         2.30951
|101>    H        3.35410         8.94452         0.58178
|102>    H        3.71631        10.17101         1.60901
|103>    H        6.40857         7.02192         3.70392
|104>    H        6.03952         5.75654         5.84234
|105>    H        3.75556         5.56541         6.83571
|106>    H        2.01428         5.08231         5.16197
|107>    H        0.51117         4.91053         3.03628
|108>    H       -0.50502         5.00033         0.79642
|109>    H        4.57850         8.44842         5.77442
|110>    H        7.10265         7.40826         7.17015
|111>    H        8.91518        13.65726         8.56065
|112>    H        9.17015        15.88090         9.57069
|113>    H        7.24321        16.96606        10.70202
|114>    H        4.30807        12.48670         9.35574
|115>    H        2.47774        13.68510        10.52935
|116>    H        2.94930        15.92615        11.51627
|117> *
|118>
|119>                          ****END OF INPUT****

CARTESIAN COORDINATES (ANGSTROEM)
---------------------------------
  C     -2.153850    5.272560   -8.034650
  C     -2.741010    6.191730   -7.210310
  C     -2.293030    6.363710   -5.893500
  C     -1.255310    5.612040   -5.404100
  C     -0.641770    4.631250   -6.232410
  C     -1.096380    4.467860   -7.565270
  C     -0.466570    3.473890   -8.343590
  C      0.531600    2.717400   -7.792260
  C      0.902260    2.963090   -6.459340
  N      0.348740    3.878960   -5.715790
  C     -0.711020    5.730400   -4.049150
  C     -0.598540    4.583740   -3.253640
  C     -1.209630    3.287350   -3.598160
  O     -2.059470    3.044890   -4.401870
  S     -0.554050    2.042160   -2.477750
  C      0.294600    3.253740   -1.455950
  O      0.939410    2.950950   -0.495560
  C      0.088870    4.590070   -2.040090
  C      0.615560    5.769070   -1.492500
  C      0.473560    6.925360   -2.271000
  C     -0.140930    6.896800   -3.532420
  C     -0.083640    8.171030   -4.267930
  O     -0.436480    8.416390   -5.382410
  S      0.673500    9.414370   -3.209890
  C      0.955730    8.256730   -1.866610
  O      1.469330    8.597950   -0.839740
  C      1.262080    5.768820   -0.174760
  C      2.559860    6.189640   -0.039620
  C      3.168520    6.195330    1.231260
  C      4.418940    6.628350    1.665800
  C      5.490220    7.395630    0.970070
  C      5.583160    7.180470   -0.546250
  N      6.948730    7.444910   -0.970680
  C      5.278540    8.889340    1.327060
  N      3.860280    9.184320    1.427990
  C      4.467320    6.391410    3.091100
  C      5.451190    6.608690    3.984720
  C      5.231130    6.379240    5.438510
  C      3.913440    5.772250    5.788320
  C      2.958550    5.517360    4.869080
  C      3.187590    5.819840    3.508920
  C      2.402950    5.704740    2.366030
  C      1.077770    5.266520    2.189330
  C      0.518610    5.309220    0.947720
  C      5.357150    7.753880    6.056610
  C      6.355980    8.120860    6.846300
  C      6.493730    9.471410    7.387220
  C      6.557050    9.690430    8.767290
  C      6.475000    8.609420    9.757390
  O      6.327680    7.436910    9.557900
  S      6.625000    9.317670   11.399320
  C      6.773710   11.005960   10.779220
  O      6.924380   11.947100   11.499770
  C      6.687160   10.972250    9.313520
  C      6.737640   12.113840    8.507620
  C      6.674660   11.897010    7.128250
  C      6.578290   10.610160    6.575520
  C      6.646310   10.582060    5.108070
  O      6.711040    9.634000    4.374370
  S      6.678510   12.266460    4.493240
  C      6.683750   12.988650    6.146810
  O      6.680620   14.168360    6.334170
  C      6.864700   13.460680    9.088580
  C      8.066180   14.122710    9.040830
  C      8.209740   15.389810    9.621430
  C      7.154850   15.993480   10.244850
  C      5.903800   15.346060   10.309390
  C      5.748400   14.060340    9.722280
  C      4.475530   13.458850    9.801640
  C      3.463420   14.116660   10.445260
  C      3.729970   15.381390   10.999960
  N      4.887560   15.972630   10.932760
  H     -2.498030    5.137910   -9.049820
  H     -3.560650    6.796990   -7.566130
  H     -2.782170    7.085800   -5.257720
  H     -0.789250    3.319730   -9.363720
  H      1.029840    1.942930   -8.353930
  H      1.683790    2.380970   -5.987710
  H      3.108650    6.497580   -0.913460
  H      6.461420    7.088630    1.372590
  H      4.840140    7.810820   -1.063480
  H      5.376800    6.132030   -0.778470
  H      7.199760    8.410710   -0.786060
  H      7.052820    7.282310   -1.965830
  H      5.808890    9.520130    0.593070
  H      5.715940    9.086540    2.309510
  H      3.354100    8.944520    0.581780
  H      3.716310   10.171010    1.609010
  H      6.408570    7.021920    3.703920
  H      6.039520    5.756540    5.842340
  H      3.755560    5.565410    6.835710
  H      2.014280    5.082310    5.161970
  H      0.511170    4.910530    3.036280
  H     -0.505020    5.000330    0.796420
  H      4.578500    8.448420    5.774420
  H      7.102650    7.408260    7.170150
  H      8.915180   13.657260    8.560650
  H      9.170150   15.880900    9.570690
  H      7.243210   16.966060   10.702020
  H      4.308070   12.486700    9.355740
  H      2.477740   13.685100   10.529350
  H      2.949300   15.926150   11.516270

 Total Charge           Charge          ....    0
 Multiplicity           Mult            ....    1
 Number of Electrons    NEL             ....  522
 Basis Dimension        Dim             .... 1174

ORBITAL ENERGIES
----------------

  NO   OCC          E(Eh)            E(eV)
   0   2.0000     -88.958525     -2420.6845
   1   2.0000     -88.957092     -2420.6455
   2   2.0000     -88.946029     -2420.3445
   3   2.0000     -88.939753     -2420.1737
   4   2.0000     -19.251388      -523.8569
   5   2.0000     -19.250565      -523.8345
   6   2.0000     -19.250386      -523.8296
   7   2.0000     -19.250208      -523.8248
   8   2.0000     -19.238513      -523.5065
   9   2.0000     -19.237118      -523.4686
  10   2.0000     -19.230921      -523.3000
  11   2.0000     -19.230740      -523.2950
  12   2.0000     -14.407770      -392.0554
  13   2.0000     -14.397161      -391.7667
  14   2.0000     -14.371448      -391.0670
  15   2.0000     -14.358103      -390.7038
  16   2.0000     -10.415462      -283.4191
  17   2.0000     -10.413010      -283.3524
  18   2.0000     -10.412242      -283.3315
  19   2.0000     -10.412080      -283.3271
  20   2.0000     -10.401999      -283.0528
  21   2.0000     -10.401844      -283.0486
  22   2.0000     -10.395672      -282.8806
  23   2.0000     -10.394043      -282.8363
  24   2.0000     -10.341091      -281.3954
  25   2.0000     -10.340033      -281.3666
  26   2.0000     -10.337141      -281.2879
  27   2.0000     -10.336800      -281.2786
  28   2.0000     -10.336388      -281.2674
  29   2.0000     -10.334188      -281.2075
  30   2.0000     -10.321942      -280.8743
  31   2.0000     -10.321825      -280.8711
  32   2.0000     -10.320666      -280.8396
  33   2.0000     -10.319147      -280.7983
  34   2.0000     -10.317490      -280.7532
  35   2.0000     -10.314652      -280.6760
  36   2.0000     -10.311779      -280.5978
  37   2.0000     -10.310896      -280.5737
  38   2.0000     -10.302552      -280.3467
  39   2.0000     -10.302497      -280.3452
  40   2.0000     -10.294582      -280.1298
  41   2.0000     -10.294328      -280.1229
  42   2.0000     -10.291506      -280.0461
  43   2.0000     -10.291286      -280.0401
  44   2.0000     -10.288995      -279.9778
  45   2.0000     -10.287227      -279.9297
  46   2.0000     -10.286482      -279.9094
  47   2.0000     -10.286459      -279.9088
  48   2.0000     -10.286078      -279.8984
  49   2.0000     -10.284426      -279.8535
  50   2.0000     -10.282387      -279.7980
  51   2.0000     -10.281774      -279.7813
  52   2.0000     -10.280980      -279.7597
  53   2.0000     -10.280822      -279.7554
  54   2.0000     -10.279312      -279.7143
  55   2.0000     -10.277378      -279.6617
  56   2.0000     -10.275238      -279.6034
  57   2.0000     -10.274864      -279.5933
  58   2.0000     -10.270688      -279.4796
  59   2.0000     -10.268777      -279.4276
  60   2.0000     -10.268202      -279.4120
  61   2.0000     -10.263383      -279.2809
  62   2.0000     -10.261664      -279.2341
  63   2.0000     -10.258551      -279.1494
  64   2.0000     -10.258330      -279.1433
  65   2.0000     -10.257092      -279.1097
  66   2.0000     -10.254526      -279.0398
  67   2.0000     -10.253922      -279.0234
  68   2.0000     -10.251881      -278.9679
  69   2.0000     -10.250499      -278.9303
  70   2.0000     -10.249119      -278.8927
  71   2.0000     -10.245564      -278.7960
  72   2.0000      -8.057767      -219.2630
  73   2.0000      -8.056223      -219.2210
  74   2.0000      -8.045401      -218.9265
  75   2.0000      -8.038951      -218.7510
  76   2.0000      -6.026605      -163.9923
  77   2.0000      -6.025097      -163.9512
  78   2.0000      -6.023362      -163.9040
  79   2.0000      -6.021813      -163.8619
  80   2.0000      -6.018834      -163.7808
  81   2.0000      -6.017285      -163.7386
  82   2.0000      -6.014202      -163.6548
  83   2.0000      -6.010999      -163.5676
  84   2.0000      -6.007780      -163.4800
  85   2.0000      -6.006510      -163.4455
  86   2.0000      -6.004569      -163.3926
  87   2.0000      -6.000059      -163.2699
  88   2.0000      -1.174661       -31.9641
  89   2.0000      -1.173562       -31.9342
  90   2.0000      -1.170394       -31.8480
  91   2.0000      -1.169423       -31.8216
  92   2.0000      -1.163395       -31.6576
  93   2.0000      -1.158679       -31.5292
  94   2.0000      -1.156404       -31.4674
  95   2.0000      -1.152009       -31.3478
  96   2.0000      -1.046569       -28.4786
  97   2.0000      -1.036165       -28.1955
  98   2.0000      -1.029069       -28.0024
  99   2.0000      -1.010893       -27.5078
 100   2.0000      -0.974959       -26.5300
 101   2.0000      -0.972874       -26.4732
 102   2.0000      -0.960096       -26.1256
 103   2.0000      -0.957911       -26.0661
 104   2.0000      -0.956123       -26.0174
 105   2.0000      -0.952024       -25.9059
 106   2.0000      -0.942029       -25.6339
 107   2.0000      -0.936804       -25.4917
 108   2.0000      -0.929962       -25.3055
 109   2.0000      -0.918489       -24.9934
 110   2.0000      -0.915861       -24.9219
 111   2.0000      -0.910312       -24.7708
 112   2.0000      -0.895446       -24.3663
 113   2.0000      -0.891750       -24.2657
 114   2.0000      -0.878867       -23.9152
 115   2.0000      -0.864141       -23.5145
 116   2.0000      -0.858158       -23.3517
 117   2.0000      -0.847704       -23.0672
 118   2.0000      -0.846265       -23.0281
 119   2.0000      -0.841032       -22.8856
 120   2.0000      -0.840516       -22.8716
 121   2.0000      -0.832544       -22.6547
 122   2.0000      -0.824211       -22.4279
 123   2.0000      -0.823735       -22.4150
 124   2.0000      -0.816626       -22.2215
 125   2.0000      -0.808418       -21.9982
 126   2.0000      -0.793077       -21.5807
 127   2.0000      -0.789847       -21.4928
 128   2.0000      -0.762395       -20.7458
 129   2.0000      -0.751553       -20.4508
 130   2.0000      -0.744653       -20.2630
 131   2.0000      -0.735179       -20.0052
 132   2.0000      -0.733833       -19.9686
 133   2.0000      -0.730142       -19.8682
 134   2.0000      -0.724168       -19.7056
 135   2.0000      -0.723223       -19.6799
 136   2.0000      -0.718926       -19.5630
 137   2.0000      -0.718142       -19.5416
 138   2.0000      -0.714799       -19.4507
 139   2.0000      -0.708917       -19.2906
 140   2.0000      -0.693150       -18.8616
 141   2.0000      -0.676559       -18.4101
 142   2.0000      -0.667204       -18.1555
 143   2.0000      -0.663840       -18.0640
 144   2.0000      -0.659222       -17.9383
 145   2.0000      -0.652709       -17.7611
 146   2.0000      -0.645253       -17.5582
 147   2.0000      -0.643595       -17.5131
 148   2.0000      -0.640437       -17.4272
 149   2.0000      -0.637913       -17.3585
 150   2.0000      -0.623526       -16.9670
 151   2.0000      -0.621255       -16.9052
 152   2.0000      -0.619454       -16.8562
 153   2.0000      -0.618086       -16.8190
 154   2.0000      -0.613876       -16.7044
 155   2.0000      -0.608069       -16.5464
 156   2.0000      -0.607634       -16.5346
 157   2.0000      -0.604755       -16.4562
 158   2.0000      -0.599943       -16.3253
 159   2.0000      -0.597311       -16.2536
 160   2.0000      -0.596756       -16.2386
 161   2.0000      -0.593108       -16.1393
 162   2.0000      -0.583230       -15.8705
 163   2.0000      -0.579543       -15.7702
 164   2.0000      -0.573594       -15.6083
 165   2.0000      -0.571447       -15.5499
 166   2.0000      -0.568756       -15.4766
 167   2.0000      -0.559478       -15.2242
 168   2.0000      -0.559116       -15.2143
 169   2.0000      -0.556683       -15.1481
 170   2.0000      -0.553621       -15.0648
 171   2.0000      -0.552074       -15.0227
 172   2.0000      -0.548833       -14.9345
 173   2.0000      -0.547992       -14.9116
 174   2.0000      -0.545634       -14.8475
 175   2.0000      -0.544375       -14.8132
 176   2.0000      -0.541932       -14.7467
 177   2.0000      -0.539384       -14.6774
 178   2.0000      -0.538456       -14.6521
 179   2.0000      -0.537368       -14.6225
 180   2.0000      -0.536917       -14.6103
 181   2.0000      -0.535346       -14.5675
 182   2.0000      -0.531215       -14.4551
 183   2.0000      -0.527351       -14.3500
 184   2.0000      -0.525195       -14.2913
 185   2.0000      -0.522040       -14.2054
 186   2.0000      -0.519023       -14.1233
 187   2.0000      -0.515941       -14.0395
 188   2.0000      -0.515307       -14.0222
 189   2.0000      -0.514100       -13.9894
 190   2.0000      -0.513647       -13.9770
 191   2.0000      -0.512183       -13.9372
 192   2.0000      -0.510359       -13.8876
 193   2.0000      -0.509389       -13.8612
 194   2.0000      -0.505193       -13.7470
 195   2.0000      -0.504652       -13.7323
 196   2.0000      -0.500208       -13.6113
 197   2.0000      -0.498491       -13.5646
 198   2.0000      -0.496732       -13.5168
 199   2.0000      -0.493240       -13.4217
 200   2.0000      -0.490904       -13.3582
 201   2.0000      -0.489881       -13.3303
 202   2.0000      -0.488725       -13.2989
 203   2.0000      -0.487600       -13.2683
 204   2.0000      -0.485086       -13.1999
 205   2.0000      -0.482753       -13.1364
 206   2.0000      -0.479634       -13.0515
 207   2.0000      -0.477951       -13.0057
 208   2.0000      -0.475005       -12.9255
 209   2.0000      -0.471159       -12.8209
 210   2.0000      -0.466750       -12.7009
 211   2.0000      -0.462738       -12.5917
 212   2.0000      -0.460564       -12.5326
 213   2.0000      -0.456721       -12.4280
 214   2.0000      -0.456193       -12.4136
 215   2.0000      -0.448759       -12.2114
 216   2.0000      -0.445098       -12.1117
 217   2.0000      -0.440420       -11.9844
 218   2.0000      -0.440158       -11.9773
 219   2.0000      -0.433136       -11.7862
 220   2.0000      -0.429849       -11.6968
 221   2.0000      -0.428601       -11.6628
 222   2.0000      -0.427431       -11.6310
 223   2.0000      -0.425932       -11.5902
 224   2.0000      -0.423108       -11.5134
 225   2.0000      -0.410181       -11.1616
 226   2.0000      -0.400143       -10.8885
 227   2.0000      -0.395936       -10.7740
 228   2.0000      -0.392700       -10.6859
 229   2.0000      -0.389018       -10.5857
 230   2.0000      -0.385959       -10.5025
 231   2.0000      -0.383648       -10.4396
 232   2.0000      -0.381679       -10.3860
 233   2.0000      -0.380717       -10.3598
 234   2.0000      -0.375184       -10.2093
 235   2.0000      -0.369896       -10.0654
 236   2.0000      -0.368765       -10.0346
 237   2.0000      -0.366789        -9.9808
 238   2.0000      -0.360119        -9.7993
 239   2.0000      -0.358877        -9.7655
 240   2.0000      -0.354272        -9.6402
 241   2.0000      -0.353754        -9.6261
 242   2.0000      -0.352195        -9.5837
 243   2.0000      -0.351502        -9.5648
 244   2.0000      -0.349400        -9.5077
 245   2.0000      -0.346676        -9.4335
 246   2.0000      -0.345552        -9.4030
 247   2.0000      -0.337663        -9.1883
 248   2.0000      -0.334406        -9.0996
 249   2.0000      -0.327413        -8.9094
 250   2.0000      -0.324367        -8.8265
 251   2.0000      -0.322869        -8.7857
 252   2.0000      -0.317784        -8.6474
 253   2.0000      -0.316402        -8.6097
 254   2.0000      -0.308733        -8.4011
 255   2.0000      -0.297108        -8.0847
 256   2.0000      -0.292439        -7.9577
 257   2.0000      -0.291568        -7.9340
 258   2.0000      -0.287444        -7.8217
 259   2.0000      -0.277812        -7.5597
 260   2.0000      -0.206492        -5.6189
 261   0.0000      -0.109075        -2.9681
 262   0.0000      -0.088533        -2.4091
 263   0.0000      -0.067881        -1.8471
 264   0.0000      -0.056874        -1.5476
 265   0.0000      -0.044889        -1.2215

MULLIKEN ATOMIC CHARGES
-----------------------
   0 C :   -0.005953
   1 C :    0.036431
   2 C :    0.020315
   3 C :    0.011605
   4 C :   -0.001511
   5 C :    0.052050
   6 C :    0.039180
   7 C :    0.002011
   8 C :    0.040465
   9 N :   -0.070404
  10 C :    0.042174
  11 C :    0.059455
  12 C :    0.043489
  13 O :   -0.126699
  14 S :    0.004229
  15 C :    0.028741
  16 O :   -0.109524
  17 C :    0.025428
  18 C :    0.011066
  19 C :    0.045099
  20 C :    0.041137
  21 C :    0.023634
  22 O :   -0.114350
  23 S :    0.004225
  24 C :    0.026324
  25 O :   -0.119599
  26 C :    0.000170
  27 C :   -0.021556
  28 C :    0.014475
  29 C :    0.038298
  30 C :   -0.079855
  31 C :    0.102769
  32 N :   -0.198686
  33 C :    0.153030
  34 N :   -0.225577
  35 C :    0.101154
  36 C :   -0.126019
  37 C :    0.117115
  38 C :   -0.055445
  39 C :    0.024941
  40 C :    0.010285
  41 C :    0.055761
  42 C :   -0.024447
  43 C :    0.047648
  44 C :    0.008351
  45 C :   -0.020108
  46 C :   -0.004344
  47 C :    0.055807
  48 C :    0.031409
  49 O :   -0.123345
  50 S :    0.019850
  51 C :    0.035494
  52 O :   -0.101138
  53 C :    0.057840
  54 C :   -0.081823
  55 C :    0.060624
  56 C :    0.053251
  57 C :    0.034941
  58 O :   -0.115923
  59 S :    0.016847
  60 C :    0.031805
  61 O :   -0.100252
  62 C :   -0.005302
  63 C :    0.025880
  64 C :    0.031159
  65 C :    0.044653
  66 C :   -0.054158
  67 C :    0.116731
  68 C :    0.012662
  69 C :    0.014376
  70 C :    0.020882
  71 N :   -0.044095
  72 H :   -0.025173
  73 H :   -0.009801
  74 H :   -0.024726
  75 H :   -0.012181
  76 H :   -0.001447
  77 H :    0.005732
  78 H :   -0.050332
  79 H :   -0.006010
  80 H :   -0.008472
  81 H :    0.007826
  82 H :    0.083818
  83 H :    0.087947
  84 H :   -0.034846
  85 H :   -0.009705
  86 H :    0.092953
  87 H :    0.085157
  88 H :    0.002285
  89 H :    0.022626
  90 H :   -0.011066
  91 H :   -0.039155
  92 H :   -0.042320
  93 H :   -0.037322
  94 H :    0.016152
  95 H :    0.023455
  96 H :   -0.027828
  97 H :   -0.009929
  98 H :   -0.024232
  99 H :   -0.015013
 100 H :   -0.007210
 101 H :    0.003662
Sum of atomic charges:   -0.0000000

LOEWDIN ATOMIC CHARGES
----------------------
   0 C :   -0.003818
   1 C :   -0.016103
   2 C :    0.016235
   3 C :   -0.029713
   4 C :    0.021176
   5 C :   -0.030963
   6 C :    0.026795
   7 C :   -0.049686
   8 C :    0.032563
   9 N :   -0.073209
  10 C :    0.038893
  11 C :   -0.027272
  12 C :   -0.041087
  13 O :   -0.113632
  14 S :    0.293913
  15 C :   -0.045433
  16 O :   -0.099165
  17 C :   -0.056446
  18 C :    0.047403
  19 C :   -0.063871
  20 C :   -0.052314
  21 C :   -0.043733
  22 O :   -0.107218
  23 S :    0.293159
  24 C :   -0.039803
  25 O :   -0.112203
  26 C :   -0.044812
  27 C :    0.013271
  28 C :   -0.022515
  29 C :   -0.006412
  30 C :   -0.043001
  31 C :    0.020639
  32 N :   -0.117461
  33 C :    0.024695
  34 N :   -0.114920
  35 C :   -0.008433
  36 C :    0.073268
  37 C :   -0.024601
  38 C :   -0.047774
  39 C :   -0.010165
  40 C :   -0.043988
  41 C :   -0.017791
  42 C :   -0.009921
  43 C :   -0.020188
  44 C :    0.039421
  45 C :   -0.049054
  46 C :    0.039749
  47 C :   -0.051959
  48 C :   -0.045569
  49 O :   -0.107256
  50 S :    0.303155
  51 C :   -0.043578
  52 O :   -0.092768
  53 C :   -0.049930
  54 C :    0.037924
  55 C :   -0.049668
  56 C :   -0.053030
  57 C :   -0.038764
  58 O :   -0.108009
  59 S :    0.303298
  60 C :   -0.043342
  61 O :   -0.094186
  62 C :   -0.023428
  63 C :   -0.005010
  64 C :   -0.014135
  65 C :   -0.000049
  66 C :    0.010010
  67 C :   -0.020344
  68 C :    0.004496
  69 C :   -0.043647
  70 C :    0.023598
  71 N :   -0.063449
  72 H :    0.029772
  73 H :    0.032578
  74 H :    0.030056
  75 H :    0.033464
  76 H :    0.033675
  77 H :    0.023275
  78 H :    0.019357
  79 H :    0.029403
  80 H :   -0.004362
  81 H :    0.020188
  82 H :    0.046301
  83 H :    0.053279
  84 H :   -0.009605
  85 H :    0.010825
  86 H :    0.044922
  87 H :    0.052146
  88 H :    0.031864
  89 H :    0.051984
  90 H :    0.023934
  91 H :    0.028679
  92 H :    0.025944
  93 H :    0.021211
  94 H :    0.030445
  95 H :    0.036261
  96 H :    0.027242
  97 H :    0.032048
  98 H :    0.035363
  99 H :    0.026567
 100 H :    0.032550
 101 H :    0.021798

  Mayer bond orders larger than 0.100000
B(  0-C ,  1-C ) :   1.4815 B(  0-C ,  5-C ) :   1.2255 B(  0-C , 72-H ) :   1.0005
B(  1-C ,  2-C ) :   1.2415 B(  1-C , 73-H ) :   0.9890 B(  2-C ,  3-C ) :   1.5048
B(  2-C , 74-H ) :   0.9939 B(  3-C ,  4-C ) :   1.2605 B(  3-C , 10-C ) :   0.9513
B(  4-C ,  5-C ) :   1.2609 B(  4-C ,  9-N ) :   1.4182 B(  5-C ,  6-C ) :   1.2581
B(  6-C ,  7-C ) :   1.5246 B(  6-C , 75-H ) :   0.9819 B(  7-C ,  8-C ) :   1.2431
B(  7-C , 76-H ) :   0.9753 B(  8-C ,  9-N ) :   1.6344 B(  8-C , 77-H ) :   0.9783
B( 10-C , 11-C ) :   1.3860 B( 10-C , 20-C ) :   1.4411 B( 11-C , 12-C ) :   0.8285
B( 11-C , 17-C ) :   1.3420 B( 12-C , 13-O ) :   2.1915 B( 12-C , 14-S ) :   1.0183
B( 13-O , 14-S ) :   0.1073 B( 14-S , 15-C ) :   1.0210 B( 14-S , 16-O ) :   0.1085
B( 15-C , 16-O ) :   2.1913 B( 15-C , 17-C ) :   0.8489 B( 17-C , 18-C ) :   1.3671
B( 18-C , 19-C ) :   1.4246 B( 18-C , 26-C ) :   0.9849 B( 19-C , 20-C ) :   1.2762
B( 19-C , 24-C ) :   0.8423 B( 20-C , 21-C ) :   0.8348 B( 21-C , 22-O ) :   2.1966
B( 21-C , 23-S ) :   1.0210 B( 22-O , 23-S ) :   0.1074 B( 23-S , 24-C ) :   1.0267
B( 23-S , 25-O ) :   0.1059 B( 24-C , 25-O ) :   2.1443 B( 26-C , 27-C ) :   1.5430
B( 26-C , 43-C ) :   1.1455 B( 27-C , 28-C ) :   1.1489 B( 27-C , 78-H ) :   0.9835
B( 28-C , 29-C ) :   1.4621 B( 28-C , 41-C ) :   1.1373 B( 29-C , 30-C ) :   1.0456
B( 29-C , 35-C ) :   1.1038 B( 30-C , 31-C ) :   1.0482 B( 30-C , 33-C ) :   1.0297
B( 30-C , 79-H ) :   0.8781 B( 31-C , 32-N ) :   1.1031 B( 31-C , 80-H ) :   0.9207
B( 31-C , 81-H ) :   0.9428 B( 32-N , 82-H ) :   0.9682 B( 32-N , 83-H ) :   0.9667
B( 33-C , 34-N ) :   1.1040 B( 33-C , 84-H ) :   0.9308 B( 33-C , 85-H ) :   0.9228
B( 34-N , 86-H ) :   0.9526 B( 34-N , 87-H ) :   0.9680 B( 35-C , 36-C ) :   1.6549
B( 35-C , 40-C ) :   1.0530 B( 36-C , 37-C ) :   0.9761 B( 36-C , 88-H ) :   0.9655
B( 37-C , 38-C ) :   0.9880 B( 37-C , 44-C ) :   0.9703 B( 37-C , 89-H ) :   0.8792
B( 38-C , 39-C ) :   1.7016 B( 38-C , 90-H ) :   0.9775 B( 39-C , 40-C ) :   1.1366
B( 39-C , 91-H ) :   0.9897 B( 40-C , 41-C ) :   1.4187 B( 41-C , 42-C ) :   1.1530
B( 42-C , 43-C ) :   1.5939 B( 42-C , 92-H ) :   0.9920 B( 43-C , 93-H ) :   0.9805
B( 44-C , 45-C ) :   1.8547 B( 44-C , 94-H ) :   0.9671 B( 45-C , 46-C ) :   1.0398
B( 45-C , 95-H ) :   0.9359 B( 46-C , 47-C ) :   1.3873 B( 46-C , 56-C ) :   1.3805
B( 47-C , 48-C ) :   0.8430 B( 47-C , 53-C ) :   1.3003 B( 48-C , 49-O ) :   2.1728
B( 48-C , 50-S ) :   1.0359 B( 49-O , 50-S ) :   0.1093 B( 50-S , 51-C ) :   1.0182
B( 50-S , 52-O ) :   0.1103 B( 51-C , 52-O ) :   2.2028 B( 51-C , 53-C ) :   0.8359
B( 53-C , 54-C ) :   1.4155 B( 54-C , 55-C ) :   1.4346 B( 54-C , 62-C ) :   0.9711
B( 55-C , 56-C ) :   1.2989 B( 55-C , 60-C ) :   0.8356 B( 56-C , 57-C ) :   0.8445
B( 57-C , 58-O ) :   2.1209 B( 57-C , 59-S ) :   1.0364 B( 58-O , 59-S ) :   0.1071
B( 59-S , 60-C ) :   1.0139 B( 59-S , 61-O ) :   0.1089 B( 60-C , 61-O ) :   2.2088
B( 62-C , 63-C ) :   1.5161 B( 62-C , 67-C ) :   1.2440 B( 63-C , 64-C ) :   1.2432
B( 63-C , 96-H ) :   0.9924 B( 64-C , 65-C ) :   1.4616 B( 64-C , 97-H ) :   0.9874
B( 65-C , 66-C ) :   1.2614 B( 65-C , 98-H ) :   0.9969 B( 66-C , 67-C ) :   1.2454
B( 66-C , 71-N ) :   1.3992 B( 67-C , 68-C ) :   1.2758 B( 68-C , 69-C ) :   1.5363
B( 68-C , 99-H ) :   0.9648 B( 69-C , 70-C ) :   1.2437 B( 69-C ,100-H ) :   0.9710
B( 70-C , 71-N ) :   1.6769 B( 70-C ,101-H ) :   0.9773

-----------------------------------------------------------------------------
         ABSORPTION SPECTRUM VIA TRANSITION ELECTRIC DIPOLE MOMENTS
-----------------------------------------------------------------------------
State   Energy  Wavelength   fosc         T2         TX        TY        TZ
        (cm-1)    (nm)                  (au**2)     (au)      (au)      (au)
-----------------------------------------------------------------------------
   0    7853.6   1273.3   0.000360503   0.01511   0.07102   0.09847  -0.01927
   1    9269.5   1078.8   0.001463527   0.05198  -0.03943   0.21579  -0.06210
   2   12818.6    780.1   0.028716093   0.73750   0.66410   0.46420  -0.28457
   3   17222.4    580.6   0.012899583   0.24658  -0.41501   0.01385  -0.27231
   4   18959.7    527.4   0.176464671   3.06410   0.47797   0.08918   1.68157
   5   19365.6    516.4   0.002596645   0.04414   0.00942  -0.05957  -0.20126
   6   22134.2    451.8   0.000381121   0.00567  -0.02374  -0.06770   0.02283
   7   22630.4    441.9   0.006182121   0.08993   0.09681   0.20420   0.19714
   8   22941.3    435.9   0.017505146   0.25120   0.05963   0.25359  -0.42818
   9   23800.9    420.2   0.017856346   0.24699   0.07142   0.49165  -0.01311
  10   24060.1    415.6   0.005062570   0.06927   0.03889   0.01644   0.25978
  11   24307.4    411.4   0.008471401   0.11473  -0.13701  -0.23986  -0.19604
  12   25544.9    391.5   0.026863958   0.34621   0.25993   0.40114   0.34312
  13   26193.4    381.8   0.000719043   0.00904  -0.05951  -0.07410  -0.00229
  14   26317.2    380.0   0.001052777   0.01317   0.05305   0.07785   0.06553
  15   26409.0    378.7   0.036131584   0.45041   0.40237   0.25888   0.47063
  16   28044.6    356.6   0.024470148   0.28725   0.13657   0.42907   0.29069
  17   28117.5    355.7   0.007247832   0.08486   0.20317  -0.07408   0.19518
  18   28561.9    350.1   0.000144091   0.00166  -0.03367   0.01213  -0.01948
  19   28954.5    345.4   0.009917401   0.11276  -0.14554   0.24123   0.18272
  20   29028.1    344.5   0.000269607   0.00306  -0.01329   0.03065   0.04406
  21   29574.4    338.1   0.169599810   1.88793  -1.02013  -0.37210  -0.84191
  22   29860.0    334.9   0.018439324   0.20330   0.26218   0.36206   0.05892
  23   29995.5    333.4   0.001226253   0.01346  -0.10495   0.04690  -0.01565
  24   30381.5    329.1   0.006419884   0.06957   0.22257  -0.03527   0.13706
  25   30583.8    327.0   0.001901505   0.02047  -0.07086  -0.02742  -0.12122
  26   30730.3    325.4   0.006544744   0.07011  -0.03247  -0.19151  -0.17995
  27   31054.4    322.0   0.030480672   0.32313   0.12071   0.47402   0.28959
  28   31071.6    321.8   0.007351677   0.07789  -0.19713  -0.11750  -0.15883
  29   31199.1    320.5   0.006623352   0.06989  -0.05599   0.03056  -0.25656
  30   31567.6    316.8   0.399531615   4.16663   0.68335   0.57453   1.83564
  31   31651.6    315.9   0.024971849   0.25974   0.00807   0.10132  -0.49940
  32   31984.6    312.7   0.392398973   4.03889  -0.83952  -0.36690  -1.78871
  33   32363.0    309.0   0.018112693   0.18425  -0.01334   0.42153  -0.07989
  34   32530.8    307.4   0.076059799   0.76973  -0.27880  -0.58744  -0.58899
  35   32613.5    306.6   0.011102655   0.11207   0.10737  -0.27729   0.15380
  36   32677.0    306.0   0.045895290   0.46238  -0.10120   0.25594  -0.62180
  37   32901.4    303.9   0.055878260   0.55912   0.30666   0.36008   0.57916
  38   33020.7    302.8   0.012403710   0.12366   0.23858   0.04963   0.25353
  39   33066.5    302.4   0.000228290   0.00227  -0.02593  -0.03902   0.00885
  40   33324.8    300.1   0.025354435   0.25047  -0.00407  -0.16427   0.47273
  41   33383.6    299.5   0.024186883   0.23852   0.15129   0.00568   0.46432
  42   34155.5    292.8   0.054298501   0.52336   0.35412   0.52326   0.35236
  43   34361.3    291.0   0.116189753   1.11320   0.46559   0.28563   0.90268
  44   34896.2    286.6   0.007754066   0.07315  -0.20969   0.15250  -0.07699
  45   35190.1    284.2   0.006127568   0.05732  -0.02258  -0.01292  -0.23801
  46   35512.3    281.6   0.010870271   0.10077  -0.20561   0.02564   0.24049
  47   35847.9    279.0   0.081975570   0.75283   0.49877  -0.00923   0.70991
  48   36079.0    277.2   0.057518573   0.52484  -0.44988  -0.07494  -0.56288
  49   36343.6    275.2   0.088259642   0.79948  -0.22209   0.09606  -0.86077
  50   36664.1    272.7   0.059380052   0.53318   0.58785   0.23775   0.36206
  51   36852.1    271.4   0.088748993   0.79282   0.60915  -0.04251   0.64804
  52   37168.6    269.0   0.021550567   0.19088   0.03596  -0.28655  -0.32784
  53   37364.0    267.6   0.022482319   0.19809  -0.00468   0.10333  -0.43289
  54   37555.2    266.3   0.011717282   0.10271  -0.01366   0.17868   0.26571
  55   37560.8    266.2   0.047986559   0.42059  -0.08877   0.63174  -0.11669
  56   37758.5    264.8   0.000380135   0.00331  -0.02871   0.02806  -0.04127
  57   37975.4    263.3   0.010340846   0.08965  -0.20045   0.03686  -0.21933
  58   38119.5    262.3   0.030577509   0.26408   0.37167   0.11181   0.33680
  59   38877.2    257.2   0.001720276   0.01457  -0.09981   0.01377  -0.06645
  60   39022.5    256.3   0.011677655   0.09852   0.30128  -0.08193  -0.03222
  61   39064.1    256.0   0.002390679   0.02015   0.06032  -0.09696  -0.08431
  62   39113.7    255.7   0.001309389   0.01102   0.00059  -0.05660   0.08841
  63   39146.0    255.5   0.002662042   0.02239  -0.09131   0.11803   0.01082
  64   39305.4    254.4   0.003617066   0.03030   0.09391   0.06920   0.12918
  65   39320.6    254.3   0.056563215   0.47358  -0.42412  -0.26027  -0.47535
  66   39440.3    253.5   0.160662667   1.34107  -0.50555  -0.54810  -0.88604
  67   39554.7    252.8   0.002859056   0.02380  -0.02352   0.02407  -0.15054
  68   39805.1    251.2   0.034955051   0.28910   0.49469  -0.14825  -0.14968
  69   39984.9    250.1   0.005876684   0.04839   0.12257   0.05019  -0.17562
  70   40114.4    249.3   0.003130923   0.02569  -0.11473  -0.07003  -0.08734
  71   40199.7    248.8   0.001035506   0.00848  -0.06773  -0.03153  -0.05384
  72   40309.1    248.1   0.000917310   0.00749  -0.02991   0.04817  -0.06540

FINAL SINGLE POINT ENERGY     -4561.423896098447

DIPOLE MOMENT
-------------
                                X             Y             Z
Electronic contribution:    -11.02840       1.21162      12.36315
Nuclear contribution   :     11.18288      -1.13655     -13.81557
                        -----------------------------------------
Total Dipole Moment    :      0.15448       0.07507      -1.45242
                        -----------------------------------------
Magnitude (a.u.)       :      1.46254
Magnitude (Debye)      :      3.71748

Rotational constants in cm-1:     0.002323     0.000302     0.000287
Rotational constants in MHz :    69.640695     9.049730     8.615443

                             ****ORCA TERMINATED NORMALLY****
TOTAL RUN TIME: 0 days 0 hours 10 minutes 46 seconds 819 msec
