                         Program Version 4.2.0 -  RELEASE  -
|  1> # ORCA input file
|  2> # SCF done       -193.799208304119          0.000520598208
|  3> ! CAM-B3LYP def2-SVP def2/J RIJCOSX Grid4 TightSCF
|  4> %maxcore 5000
|  5> %tddft
|  6>     Mode sTDDFT
|  7>     Ethresh 5.0
|  8>     maxcore 5000
|  9> end
| 10>
| 11> %pal
| 12>   nprocs 6
| 13>   end
| 14> * xyz 0 1
| 15>    C       22.68805         3.87628        -4.59202
| 16>    C       23.19195         4.19504        -5.82278
| 17>    F       24.49377         3.98739        -6.07816
| 18>    C       22.39680         4.73611        -6.84320
| 19>    C       21.06892         4.95475        -6.60309
| 20>    C       20.49642         4.64417        -5.35211
| 21>    C       21.32258         4.09612        -4.32658
| 22>    C       20.77417         3.78532        -3.06093
| 23>    C       19.44384         4.01431        -2.83135
| 24>    C       18.61839         4.54828        -3.86530
| 25>    C       19.12485         4.86151        -5.09473
| 26>    C       17.23184         4.66963        -3.37897
| 27>    O       16.27099         5.12161        -3.95216
| 28>    C       17.24632         4.03818        -2.02338
| 29>    C       18.62985         3.83465        -1.63510
| 30>    C       19.09474         3.72145        -0.35164
| 31>    C       18.28001         3.86081         0.79193
| 32>    N       17.66902         4.04329         1.74645
| 33>    C       20.45985         3.56779        -0.02735
| 34>    N       21.55720         3.42778         0.27546
| 35>    C       16.10024         3.64341        -1.41871
| 36>    C       16.01858         2.71904        -0.33750
| 37>    C       16.87625         1.53392        -0.16372
| 38>    N       16.62916         0.85073         0.91125
| 39>    C       15.63125         1.52066         1.55209
| 40>    C       15.17520         2.66657         0.74341
| 41>    C       14.18303         3.42604         1.46746
| 42>    S       13.44406         4.80657         0.97151
| 43>    C       14.06934         2.73851         2.72730
| 44>    C       14.96591         1.56599         2.74620
| 45>    N       14.93398         0.95398         3.96267
| 46>    C       14.15609         1.67758         4.70520
| 47>    C       13.58317         2.84771         4.01422
| 48>    C       12.73747         3.82507         4.59331
| 49>    S       11.81546         4.91911         3.60591
| 50>    C       11.16003         5.72094         4.99730
| 51>    C       11.65164         5.15882         6.17722
| 52>    C       12.53149         4.07820         5.95142
| 53>    C       13.13802         3.38772         7.01621
| 54>    N       13.60859         2.84975         7.91231
| 55>    C       11.29709         5.63019         7.45382
| 56>    N       10.99680         6.03275         8.48413
| 57>    C       10.25181         6.80388         4.91726
| 58>    C        9.74092         7.27247         3.75038
| 59>    C        8.81222         8.33471         3.65029
| 60>    C        8.33919         9.24207         4.71582
| 61>    N        7.45795        10.10771         4.32594
| 62>    C        7.24816         9.85300         2.99690
| 63>    C        8.12361         8.76842         2.53927
| 64>    C        7.87528         8.48013         1.15108
| 65>    S        8.67281         7.36772         0.22652
| 66>    C        6.78447         9.34212         0.79476
| 67>    C        6.45456        10.21941         1.94578
| 68>    N        5.44215        11.07027         1.63020
| 69>    C        5.10777        10.78106         0.41186
| 70>    C        5.86092         9.66377        -0.18693
| 71>    C        5.56401         9.21727        -1.49134
| 72>    C        5.81624         8.05929        -2.17018
| 73>    C        5.63274         8.08603        -3.66135
| 74>    O        5.09829         8.96545        -4.29364
| 75>    C        6.26503         6.85379        -4.15499
| 76>    C        6.46026         6.44040        -5.44146
| 77>    C        7.12501         5.21595        -5.67732
| 78>    C        7.58660         4.44756        -4.56871
| 79>    C        8.25921         3.23478        -4.81089
| 80>    C        8.44910         2.81803        -6.09973
| 81>    C        7.99831         3.55619        -7.20235
| 82>    C        7.34682         4.73873        -6.98518
| 83>    F        9.08964         1.65918        -6.33216
| 84>    C        7.36197         4.89674        -3.24574
| 85>    C        6.70088         6.07711        -3.04258
| 86>    C        6.30693         6.75965        -1.81372
| 87>    C        6.29923         6.19007        -0.55872
| 88>    C        5.61800         6.75460         0.53626
| 89>    N        5.06130         7.18020         1.44542
| 90>    C        6.76420         4.88671        -0.27052
| 91>    N        7.13351         3.84488         0.03502
| 92>    H       23.33005         3.46469        -3.82899
| 93>    H       22.85010         4.96755        -7.79396
| 94>    H       20.43738         5.37063        -7.37348
| 95>    H       21.41860         3.36457        -2.30526
| 96>    H       18.48550         5.27178        -5.86195
| 97>    H       15.17013         4.02528        -1.82604
| 98>    H       17.61121         1.19691        -0.87478
| 99>    H       13.95160         1.39653         5.72260
|100>    H        9.95765         7.24114         5.86257
|101>    H       10.02774         6.80014         2.81789
|102>    H        8.68754         9.24417         5.73360
|103>    H        4.32364        11.32133        -0.09002
|104>    H        5.04952         9.95887        -2.10124
|105>    H        6.11375         7.04018        -6.26969
|106>    H        8.61737         2.63911        -3.98585
|107>    H        8.17517         3.17664        -8.19615
|108>    H        6.99131         5.32543        -7.81873
|109>    H        7.72895         4.29919        -2.42673
|110> *
|111>
|112>                          ****END OF INPUT****

CARTESIAN COORDINATES (ANGSTROEM)
---------------------------------
  C     22.688050    3.876280   -4.592020
  C     23.191950    4.195040   -5.822780
  F     24.493770    3.987390   -6.078160
  C     22.396800    4.736110   -6.843200
  C     21.068920    4.954750   -6.603090
  C     20.496420    4.644170   -5.352110
  C     21.322580    4.096120   -4.326580
  C     20.774170    3.785320   -3.060930
  C     19.443840    4.014310   -2.831350
  C     18.618390    4.548280   -3.865300
  C     19.124850    4.861510   -5.094730
  C     17.231840    4.669630   -3.378970
  O     16.270990    5.121610   -3.952160
  C     17.246320    4.038180   -2.023380
  C     18.629850    3.834650   -1.635100
  C     19.094740    3.721450   -0.351640
  C     18.280010    3.860810    0.791930
  N     17.669020    4.043290    1.746450
  C     20.459850    3.567790   -0.027350
  N     21.557200    3.427780    0.275460
  C     16.100240    3.643410   -1.418710
  C     16.018580    2.719040   -0.337500
  C     16.876250    1.533920   -0.163720
  N     16.629160    0.850730    0.911250
  C     15.631250    1.520660    1.552090
  C     15.175200    2.666570    0.743410
  C     14.183030    3.426040    1.467460
  S     13.444060    4.806570    0.971510
  C     14.069340    2.738510    2.727300
  C     14.965910    1.565990    2.746200
  N     14.933980    0.953980    3.962670
  C     14.156090    1.677580    4.705200
  C     13.583170    2.847710    4.014220
  C     12.737470    3.825070    4.593310
  S     11.815460    4.919110    3.605910
  C     11.160030    5.720940    4.997300
  C     11.651640    5.158820    6.177220
  C     12.531490    4.078200    5.951420
  C     13.138020    3.387720    7.016210
  N     13.608590    2.849750    7.912310
  C     11.297090    5.630190    7.453820
  N     10.996800    6.032750    8.484130
  C     10.251810    6.803880    4.917260
  C      9.740920    7.272470    3.750380
  C      8.812220    8.334710    3.650290
  C      8.339190    9.242070    4.715820
  N      7.457950   10.107710    4.325940
  C      7.248160    9.853000    2.996900
  C      8.123610    8.768420    2.539270
  C      7.875280    8.480130    1.151080
  S      8.672810    7.367720    0.226520
  C      6.784470    9.342120    0.794760
  C      6.454560   10.219410    1.945780
  N      5.442150   11.070270    1.630200
  C      5.107770   10.781060    0.411860
  C      5.860920    9.663770   -0.186930
  C      5.564010    9.217270   -1.491340
  C      5.816240    8.059290   -2.170180
  C      5.632740    8.086030   -3.661350
  O      5.098290    8.965450   -4.293640
  C      6.265030    6.853790   -4.154990
  C      6.460260    6.440400   -5.441460
  C      7.125010    5.215950   -5.677320
  C      7.586600    4.447560   -4.568710
  C      8.259210    3.234780   -4.810890
  C      8.449100    2.818030   -6.099730
  C      7.998310    3.556190   -7.202350
  C      7.346820    4.738730   -6.985180
  F      9.089640    1.659180   -6.332160
  C      7.361970    4.896740   -3.245740
  C      6.700880    6.077110   -3.042580
  C      6.306930    6.759650   -1.813720
  C      6.299230    6.190070   -0.558720
  C      5.618000    6.754600    0.536260
  N      5.061300    7.180200    1.445420
  C      6.764200    4.886710   -0.270520
  N      7.133510    3.844880    0.035020
  H     23.330050    3.464690   -3.828990
  H     22.850100    4.967550   -7.793960
  H     20.437380    5.370630   -7.373480
  H     21.418600    3.364570   -2.305260
  H     18.485500    5.271780   -5.861950
  H     15.170130    4.025280   -1.826040
  H     17.611210    1.196910   -0.874780
  H     13.951600    1.396530    5.722600
  H      9.957650    7.241140    5.862570
  H     10.027740    6.800140    2.817890
  H      8.687540    9.244170    5.733600
  H      4.323640   11.321330   -0.090020
  H      5.049520    9.958870   -2.101240
  H      6.113750    7.040180   -6.269690
  H      8.617370    2.639110   -3.985850
  H      8.175170    3.176640   -8.196150
  H      6.991310    5.325430   -7.818730
  H      7.728950    4.299190   -2.426730

 Total Charge           Charge          ....    0
 Multiplicity           Mult            ....    1
 Number of Electrons    NEL             ....  530
 Basis Dimension        Dim             .... 1180

ORBITAL ENERGIES
----------------

  NO   OCC          E(Eh)            E(eV)
   0   2.0000     -88.999860     -2421.8093
   1   2.0000     -88.925551     -2419.7873
   2   2.0000     -88.923827     -2419.7403
   3   2.0000     -24.796532      -674.7479
   4   2.0000     -24.792469      -674.6374
   5   2.0000     -19.231550      -523.3171
   6   2.0000     -19.229025      -523.2484
   7   2.0000     -14.433101      -392.7446
   8   2.0000     -14.432438      -392.7266
   9   2.0000     -14.432060      -392.7163
  10   2.0000     -14.431763      -392.7082
  11   2.0000     -14.430431      -392.6720
  12   2.0000     -14.428859      -392.6292
  13   2.0000     -14.428746      -392.6261
  14   2.0000     -14.427572      -392.5942
  15   2.0000     -14.426926      -392.5766
  16   2.0000     -14.423186      -392.4749
  17   2.0000     -10.382717      -282.5281
  18   2.0000     -10.381438      -282.4933
  19   2.0000     -10.377603      -282.3889
  20   2.0000     -10.376441      -282.3573
  21   2.0000     -10.365028      -282.0468
  22   2.0000     -10.363982      -282.0183
  23   2.0000     -10.363125      -281.9950
  24   2.0000     -10.359640      -281.9001
  25   2.0000     -10.358006      -281.8557
  26   2.0000     -10.357992      -281.8553
  27   2.0000     -10.353127      -281.7229
  28   2.0000     -10.352281      -281.6999
  29   2.0000     -10.350993      -281.6648
  30   2.0000     -10.349042      -281.6117
  31   2.0000     -10.348839      -281.6062
  32   2.0000     -10.348329      -281.5924
  33   2.0000     -10.348178      -281.5882
  34   2.0000     -10.347525      -281.5705
  35   2.0000     -10.346927      -281.5542
  36   2.0000     -10.344492      -281.4879
  37   2.0000     -10.343489      -281.4607
  38   2.0000     -10.342950      -281.4460
  39   2.0000     -10.335768      -281.2506
  40   2.0000     -10.335554      -281.2447
  41   2.0000     -10.333577      -281.1909
  42   2.0000     -10.333334      -281.1843
  43   2.0000     -10.331092      -281.1233
  44   2.0000     -10.329996      -281.0935
  45   2.0000     -10.329891      -281.0906
  46   2.0000     -10.326701      -281.0038
  47   2.0000     -10.326129      -280.9883
  48   2.0000     -10.325873      -280.9813
  49   2.0000     -10.324770      -280.9513
  50   2.0000     -10.322041      -280.8770
  51   2.0000     -10.321550      -280.8637
  52   2.0000     -10.321078      -280.8508
  53   2.0000     -10.320870      -280.8452
  54   2.0000     -10.320822      -280.8439
  55   2.0000     -10.320333      -280.8305
  56   2.0000     -10.319506      -280.8080
  57   2.0000     -10.319429      -280.8059
  58   2.0000     -10.317023      -280.7405
  59   2.0000     -10.314594      -280.6744
  60   2.0000     -10.314356      -280.6679
  61   2.0000     -10.314261      -280.6653
  62   2.0000     -10.313628      -280.6481
  63   2.0000     -10.313347      -280.6404
  64   2.0000     -10.312963      -280.6300
  65   2.0000     -10.309465      -280.5348
  66   2.0000     -10.309064      -280.5239
  67   2.0000     -10.309044      -280.5234
  68   2.0000     -10.307914      -280.4926
  69   2.0000     -10.306214      -280.4463
  70   2.0000     -10.305072      -280.4153
  71   2.0000     -10.304907      -280.4108
  72   2.0000     -10.304458      -280.3986
  73   2.0000     -10.300740      -280.2974
  74   2.0000     -10.300655      -280.2951
  75   2.0000     -10.297919      -280.2206
  76   2.0000     -10.295453      -280.1535
  77   2.0000      -8.094020      -220.2495
  78   2.0000      -8.020510      -218.2492
  79   2.0000      -8.019536      -218.2227
  80   2.0000      -6.063091      -164.9851
  81   2.0000      -6.058971      -164.8730
  82   2.0000      -6.056421      -164.8036
  83   2.0000      -5.989620      -162.9858
  84   2.0000      -5.988969      -162.9681
  85   2.0000      -5.988398      -162.9526
  86   2.0000      -5.988009      -162.9420
  87   2.0000      -5.979616      -162.7136
  88   2.0000      -5.978749      -162.6900
  89   2.0000      -1.312310       -35.7098
  90   2.0000      -1.307648       -35.5829
  91   2.0000      -1.147170       -31.2161
  92   2.0000      -1.144209       -31.1355
  93   2.0000      -1.103837       -30.0369
  94   2.0000      -1.098190       -29.8833
  95   2.0000      -1.084587       -29.5131
  96   2.0000      -1.078719       -29.3534
  97   2.0000      -1.042147       -28.3583
  98   2.0000      -1.035644       -28.1813
  99   2.0000      -1.031547       -28.0698
 100   2.0000      -1.015625       -27.6365
 101   2.0000      -1.011118       -27.5139
 102   2.0000      -1.010176       -27.4883
 103   2.0000      -1.007941       -27.4275
 104   2.0000      -1.007170       -27.4065
 105   2.0000      -1.002380       -27.2761
 106   2.0000      -0.991510       -26.9803
 107   2.0000      -0.985147       -26.8072
 108   2.0000      -0.984291       -26.7839
 109   2.0000      -0.979942       -26.6656
 110   2.0000      -0.948111       -25.7994
 111   2.0000      -0.946711       -25.7613
 112   2.0000      -0.939768       -25.5724
 113   2.0000      -0.929569       -25.2949
 114   2.0000      -0.926046       -25.1990
 115   2.0000      -0.921360       -25.0715
 116   2.0000      -0.905348       -24.6358
 117   2.0000      -0.900902       -24.5148
 118   2.0000      -0.900823       -24.5126
 119   2.0000      -0.898587       -24.4518
 120   2.0000      -0.893789       -24.3212
 121   2.0000      -0.879575       -23.9344
 122   2.0000      -0.874802       -23.8046
 123   2.0000      -0.869199       -23.6521
 124   2.0000      -0.859152       -23.3787
 125   2.0000      -0.854771       -23.2595
 126   2.0000      -0.847439       -23.0600
 127   2.0000      -0.842088       -22.9144
 128   2.0000      -0.838917       -22.8281
 129   2.0000      -0.813246       -22.1296
 130   2.0000      -0.810494       -22.0547
 131   2.0000      -0.795017       -21.6335
 132   2.0000      -0.787720       -21.4349
 133   2.0000      -0.777825       -21.1657
 134   2.0000      -0.771695       -20.9989
 135   2.0000      -0.765974       -20.8432
 136   2.0000      -0.765349       -20.8262
 137   2.0000      -0.743754       -20.2386
 138   2.0000      -0.742323       -20.1996
 139   2.0000      -0.736252       -20.0344
 140   2.0000      -0.735515       -20.0144
 141   2.0000      -0.723843       -19.6968
 142   2.0000      -0.720429       -19.6039
 143   2.0000      -0.718993       -19.5648
 144   2.0000      -0.716991       -19.5103
 145   2.0000      -0.714368       -19.4389
 146   2.0000      -0.711223       -19.3534
 147   2.0000      -0.704950       -19.1827
 148   2.0000      -0.697225       -18.9725
 149   2.0000      -0.691948       -18.8289
 150   2.0000      -0.674206       -18.3461
 151   2.0000      -0.669631       -18.2216
 152   2.0000      -0.666434       -18.1346
 153   2.0000      -0.659631       -17.9495
 154   2.0000      -0.655798       -17.8452
 155   2.0000      -0.649142       -17.6641
 156   2.0000      -0.644122       -17.5274
 157   2.0000      -0.642177       -17.4745
 158   2.0000      -0.636864       -17.3300
 159   2.0000      -0.631530       -17.1848
 160   2.0000      -0.621486       -16.9115
 161   2.0000      -0.617297       -16.7975
 162   2.0000      -0.615324       -16.7438
 163   2.0000      -0.611773       -16.6472
 164   2.0000      -0.604745       -16.4559
 165   2.0000      -0.597218       -16.2511
 166   2.0000      -0.592635       -16.1264
 167   2.0000      -0.590702       -16.0738
 168   2.0000      -0.582559       -15.8522
 169   2.0000      -0.580193       -15.7879
 170   2.0000      -0.578575       -15.7438
 171   2.0000      -0.572550       -15.5799
 172   2.0000      -0.571888       -15.5619
 173   2.0000      -0.569521       -15.4975
 174   2.0000      -0.568680       -15.4746
 175   2.0000      -0.565095       -15.3770
 176   2.0000      -0.563016       -15.3204
 177   2.0000      -0.561261       -15.2727
 178   2.0000      -0.559736       -15.2312
 179   2.0000      -0.557733       -15.1767
 180   2.0000      -0.556679       -15.1480
 181   2.0000      -0.552134       -15.0243
 182   2.0000      -0.549831       -14.9617
 183   2.0000      -0.547620       -14.9015
 184   2.0000      -0.545275       -14.8377
 185   2.0000      -0.543552       -14.7908
 186   2.0000      -0.538154       -14.6439
 187   2.0000      -0.537230       -14.6188
 188   2.0000      -0.536061       -14.5870
 189   2.0000      -0.531432       -14.4610
 190   2.0000      -0.530732       -14.4419
 191   2.0000      -0.527483       -14.3535
 192   2.0000      -0.524178       -14.2636
 193   2.0000      -0.520451       -14.1622
 194   2.0000      -0.519746       -14.1430
 195   2.0000      -0.515344       -14.0232
 196   2.0000      -0.513449       -13.9717
 197   2.0000      -0.511466       -13.9177
 198   2.0000      -0.505572       -13.7573
 199   2.0000      -0.504951       -13.7404
 200   2.0000      -0.503115       -13.6904
 201   2.0000      -0.502302       -13.6683
 202   2.0000      -0.501062       -13.6346
 203   2.0000      -0.499132       -13.5821
 204   2.0000      -0.497124       -13.5274
 205   2.0000      -0.493510       -13.4291
 206   2.0000      -0.490528       -13.3479
 207   2.0000      -0.490047       -13.3348
 208   2.0000      -0.488296       -13.2872
 209   2.0000      -0.481720       -13.1083
 210   2.0000      -0.473672       -12.8893
 211   2.0000      -0.470501       -12.8030
 212   2.0000      -0.468266       -12.7422
 213   2.0000      -0.466409       -12.6916
 214   2.0000      -0.465714       -12.6727
 215   2.0000      -0.465061       -12.6549
 216   2.0000      -0.462240       -12.5782
 217   2.0000      -0.460437       -12.5291
 218   2.0000      -0.460122       -12.5205
 219   2.0000      -0.458751       -12.4833
 220   2.0000      -0.456099       -12.4111
 221   2.0000      -0.454826       -12.3764
 222   2.0000      -0.452211       -12.3053
 223   2.0000      -0.452077       -12.3016
 224   2.0000      -0.450836       -12.2679
 225   2.0000      -0.447842       -12.1864
 226   2.0000      -0.447453       -12.1758
 227   2.0000      -0.445939       -12.1346
 228   2.0000      -0.443585       -12.0706
 229   2.0000      -0.439992       -11.9728
 230   2.0000      -0.439172       -11.9505
 231   2.0000      -0.437217       -11.8973
 232   2.0000      -0.436053       -11.8656
 233   2.0000      -0.430776       -11.7220
 234   2.0000      -0.429691       -11.6925
 235   2.0000      -0.429167       -11.6782
 236   2.0000      -0.425508       -11.5787
 237   2.0000      -0.424295       -11.5457
 238   2.0000      -0.421117       -11.4592
 239   2.0000      -0.414504       -11.2792
 240   2.0000      -0.414016       -11.2659
 241   2.0000      -0.394538       -10.7359
 242   2.0000      -0.389418       -10.5966
 243   2.0000      -0.384921       -10.4742
 244   2.0000      -0.381630       -10.3847
 245   2.0000      -0.377761       -10.2794
 246   2.0000      -0.372102       -10.1254
 247   2.0000      -0.368508       -10.0276
 248   2.0000      -0.368187       -10.0189
 249   2.0000      -0.365729        -9.9520
 250   2.0000      -0.353620        -9.6225
 251   2.0000      -0.351231        -9.5575
 252   2.0000      -0.349574        -9.5124
 253   2.0000      -0.340046        -9.2531
 254   2.0000      -0.338084        -9.1997
 255   2.0000      -0.334242        -9.0952
 256   2.0000      -0.327253        -8.9050
 257   2.0000      -0.325115        -8.8468
 258   2.0000      -0.320308        -8.7160
 259   2.0000      -0.318072        -8.6552
 260   2.0000      -0.309789        -8.4298
 261   2.0000      -0.308913        -8.4059
 262   2.0000      -0.303526        -8.2594
 263   2.0000      -0.291703        -7.9376
 264   2.0000      -0.280788        -7.6406
 265   0.0000      -0.136974        -3.7273
 266   0.0000      -0.128488        -3.4963
 267   0.0000      -0.115908        -3.1540
 268   0.0000      -0.103607        -2.8193
 269   0.0000      -0.089089        -2.4242

MULLIKEN ATOMIC CHARGES
-----------------------
   0 C :   -0.094744
   1 C :    0.302953
   2 F :   -0.184753
   3 C :   -0.025304
   4 C :   -0.007349
   5 C :    0.099588
   6 C :    0.101102
   7 C :   -0.084959
   8 C :    0.048763
   9 C :    0.001775
  10 C :   -0.073854
  11 C :    0.143450
  12 O :   -0.125967
  13 C :   -0.128764
  14 C :    0.261238
  15 C :   -0.338398
  16 C :   -0.171007
  17 N :    0.169399
  18 C :   -0.176979
  19 N :    0.168328
  20 C :    0.047766
  21 C :   -0.089305
  22 C :    0.068891
  23 N :   -0.008793
  24 C :    0.019439
  25 C :    0.057516
  26 C :   -0.003170
  27 S :   -0.092701
  28 C :   -0.020490
  29 C :    0.028450
  30 N :   -0.013049
  31 C :    0.065678
  32 C :   -0.032237
  33 C :   -0.089803
  34 S :    0.234265
  35 C :   -0.061324
  36 C :   -0.024539
  37 C :    0.014710
  38 C :   -0.286647
  39 N :    0.232295
  40 C :   -0.265023
  41 N :    0.217248
  42 C :   -0.005120
  43 C :   -0.017325
  44 C :   -0.008131
  45 C :    0.067160
  46 N :   -0.018707
  47 C :    0.041441
  48 C :    0.017799
  49 C :   -0.032312
  50 S :   -0.073380
  51 C :    0.001898
  52 C :    0.002447
  53 N :   -0.012447
  54 C :    0.068569
  55 C :    0.030509
  56 C :   -0.027595
  57 C :   -0.092443
  58 C :    0.134243
  59 O :   -0.133956
  60 C :    0.009064
  61 C :   -0.072219
  62 C :    0.096177
  63 C :    0.103716
  64 C :   -0.096427
  65 C :    0.304690
  66 C :   -0.031256
  67 C :   -0.006139
  68 F :   -0.188314
  69 C :   -0.092303
  70 C :    0.050698
  71 C :    0.346116
  72 C :   -0.394283
  73 C :   -0.203131
  74 N :    0.177798
  75 C :   -0.161531
  76 N :    0.166157
  77 H :    0.001088
  78 H :    0.007510
  79 H :   -0.005118
  80 H :   -0.001422
  81 H :   -0.007383
  82 H :    0.038011
  83 H :    0.021777
  84 H :    0.035704
  85 H :    0.019426
  86 H :    0.011815
  87 H :    0.022691
  88 H :    0.017371
  89 H :    0.026267
  90 H :   -0.010212
  91 H :   -0.002182
  92 H :    0.004761
  93 H :   -0.007854
  94 H :   -0.007407
Sum of atomic charges:   -0.0000000

LOEWDIN ATOMIC CHARGES
----------------------
   0 C :   -0.040296
   1 C :    0.095647
   2 F :   -0.059614
   3 C :   -0.032139
   4 C :    0.006343
   5 C :   -0.017010
   6 C :    0.004583
   7 C :    0.015066
   8 C :   -0.020813
   9 C :   -0.062366
  10 C :    0.039460
  11 C :    0.083348
  12 O :   -0.128871
  13 C :   -0.068916
  14 C :    0.064642
  15 C :   -0.124105
  16 C :   -0.017251
  17 N :   -0.040924
  18 C :   -0.018691
  19 N :   -0.035309
  20 C :    0.073295
  21 C :   -0.056166
  22 C :    0.088811
  23 N :   -0.065631
  24 C :    0.043890
  25 C :   -0.000940
  26 C :   -0.142509
  27 S :    0.080412
  28 C :   -0.029026
  29 C :    0.051538
  30 N :   -0.063840
  31 C :    0.102254
  32 C :   -0.055270
  33 C :   -0.137179
  34 S :    0.534746
  35 C :   -0.137141
  36 C :   -0.079682
  37 C :   -0.075829
  38 C :   -0.034133
  39 N :   -0.025623
  40 C :   -0.035501
  41 N :   -0.029027
  42 C :   -0.022911
  43 C :    0.000747
  44 C :   -0.034899
  45 C :    0.095980
  46 N :   -0.068299
  47 C :    0.045640
  48 C :   -0.027003
  49 C :   -0.147804
  50 S :    0.116580
  51 C :    0.006054
  52 C :    0.040105
  53 N :   -0.065273
  54 C :    0.095053
  55 C :   -0.051137
  56 C :    0.048224
  57 C :   -0.057852
  58 C :    0.086983
  59 O :   -0.131890
  60 C :   -0.064168
  61 C :    0.040601
  62 C :   -0.020113
  63 C :    0.005750
  64 C :   -0.041960
  65 C :    0.094921
  66 C :   -0.036320
  67 C :    0.006584
  68 F :   -0.062913
  69 C :    0.009741
  70 C :   -0.014257
  71 C :    0.057304
  72 C :   -0.133590
  73 C :   -0.015145
  74 N :   -0.041576
  75 C :   -0.026222
  76 N :   -0.044139
  77 H :    0.044619
  78 H :    0.043750
  79 H :    0.037269
  80 H :    0.040473
  81 H :    0.041583
  82 H :    0.054194
  83 H :    0.028104
  84 H :    0.035282
  85 H :    0.043102
  86 H :    0.027555
  87 H :    0.029147
  88 H :    0.030184
  89 H :    0.050016
  90 H :    0.040673
  91 H :    0.043261
  92 H :    0.042505
  93 H :    0.036359
  94 H :    0.038897

  Mayer bond orders larger than 0.100000
B(  0-C ,  1-C ) :   1.4398 B(  0-C ,  6-C ) :   1.2051 B(  0-C , 77-H ) :   1.0054
B(  1-C ,  2-F ) :   1.0948 B(  1-C ,  3-C ) :   1.2544 B(  3-C ,  4-C ) :   1.4641
B(  3-C , 78-H ) :   0.9920 B(  4-C ,  5-C ) :   1.2317 B(  4-C , 79-H ) :   0.9966
B(  5-C ,  6-C ) :   1.2517 B(  5-C , 10-C ) :   1.1997 B(  6-C ,  7-C ) :   1.2052
B(  7-C ,  8-C ) :   1.4574 B(  7-C , 80-H ) :   0.9937 B(  8-C ,  9-C ) :   1.2144
B(  8-C , 14-C ) :   1.0091 B(  9-C , 10-C ) :   1.4658 B(  9-C , 11-C ) :   0.9219
B( 10-C , 81-H ) :   1.0141 B( 11-C , 12-O ) :   2.2952 B( 11-C , 13-C ) :   0.9172
B( 13-C , 14-C ) :   1.0233 B( 13-C , 20-C ) :   1.7132 B( 14-C , 15-C ) :   1.6568
B( 15-C , 16-C ) :   1.1538 B( 15-C , 18-C ) :   1.1361 B( 16-C , 17-N ) :   2.9935
B( 18-C , 19-N ) :   2.9860 B( 20-C , 21-C ) :   1.0223 B( 20-C , 82-H ) :   0.9568
B( 21-C , 22-C ) :   1.0156 B( 21-C , 25-C ) :   1.5725 B( 22-C , 23-N ) :   1.7399
B( 22-C , 83-H ) :   0.9899 B( 23-N , 24-C ) :   1.2676 B( 24-C , 25-C ) :   1.0622
B( 24-C , 29-C ) :   1.5024 B( 25-C , 26-C ) :   1.0210 B( 26-C , 27-S ) :   1.7029
B( 26-C , 28-C ) :   1.0333 B( 28-C , 29-C ) :   1.0594 B( 28-C , 32-C ) :   1.5380
B( 29-C , 30-N ) :   1.2768 B( 30-N , 31-C ) :   1.7332 B( 31-C , 32-C ) :   1.0277
B( 31-C , 84-H ) :   0.9836 B( 32-C , 33-C ) :   1.1454 B( 33-C , 34-S ) :   1.1577
B( 33-C , 37-C ) :   1.4433 B( 34-S , 35-C ) :   1.1263 B( 35-C , 36-C ) :   1.4353
B( 35-C , 42-C ) :   1.1935 B( 36-C , 37-C ) :   1.3528 B( 36-C , 40-C ) :   1.1464
B( 37-C , 38-C ) :   1.1490 B( 38-C , 39-N ) :   2.9727 B( 40-C , 41-N ) :   3.0076
B( 42-C , 43-C ) :   1.6049 B( 42-C , 85-H ) :   0.9657 B( 43-C , 44-C ) :   1.1338
B( 43-C , 86-H ) :   0.9691 B( 44-C , 45-C ) :   0.9897 B( 44-C , 48-C ) :   1.5211
B( 45-C , 46-N ) :   1.7634 B( 45-C , 87-H ) :   0.9878 B( 46-N , 47-C ) :   1.2476
B( 47-C , 48-C ) :   1.0650 B( 47-C , 52-C ) :   1.5221 B( 48-C , 49-C ) :   1.0204
B( 49-C , 50-S ) :   1.6469 B( 49-C , 51-C ) :   1.0635 B( 50-S , 72-C ) :   0.1580
B( 51-C , 52-C ) :   1.0603 B( 51-C , 55-C ) :   1.4404 B( 52-C , 53-N ) :   1.2793
B( 53-N , 54-C ) :   1.7249 B( 54-C , 55-C ) :   1.0172 B( 54-C , 88-H ) :   0.9930
B( 55-C , 56-C ) :   1.1275 B( 56-C , 57-C ) :   1.6308 B( 56-C , 89-H ) :   0.9288
B( 57-C , 58-C ) :   0.9162 B( 57-C , 71-C ) :   1.0962 B( 58-C , 59-O ) :   2.2625
B( 58-C , 60-C ) :   0.9282 B( 60-C , 61-C ) :   1.4693 B( 60-C , 70-C ) :   1.2090
B( 61-C , 62-C ) :   1.1906 B( 61-C , 90-H ) :   1.0152 B( 62-C , 63-C ) :   1.2565
B( 62-C , 67-C ) :   1.2347 B( 63-C , 64-C ) :   1.2055 B( 63-C , 69-C ) :   1.2003
B( 64-C , 65-C ) :   1.4365 B( 64-C , 91-H ) :   1.0064 B( 65-C , 66-C ) :   1.2561
B( 65-C , 68-F ) :   1.0912 B( 66-C , 67-C ) :   1.4587 B( 66-C , 92-H ) :   0.9935
B( 67-C , 93-H ) :   0.9973 B( 69-C , 70-C ) :   1.4637 B( 69-C , 94-H ) :   0.9932
B( 70-C , 71-C ) :   1.0066 B( 71-C , 72-C ) :   1.5425 B( 72-C , 73-C ) :   1.1828
B( 72-C , 75-C ) :   1.1147 B( 73-C , 74-N ) :   2.9892 B( 75-C , 76-N ) :   2.9906

-----------------------------------------------------------------------------
         ABSORPTION SPECTRUM VIA TRANSITION ELECTRIC DIPOLE MOMENTS
-----------------------------------------------------------------------------
State   Energy  Wavelength   fosc         T2         TX        TY        TZ
        (cm-1)    (nm)                  (au**2)     (au)      (au)      (au)
-----------------------------------------------------------------------------
   0   14035.7    712.5   0.027751914   0.65093   0.56224  -0.56726   0.11418
   1   15494.5    645.4   0.001200663   0.02551  -0.11379   0.11001  -0.02147
   2   15744.7    635.1   0.324550806   6.78614  -2.38912   1.03835  -0.00826
   3   16783.1    595.8   0.017708787   0.34737  -0.10609   0.26437  -0.51597
   4   16812.6    594.8   0.006777256   0.13271  -0.11035   0.02410  -0.34634
   5   16949.3    590.0   0.069667809   1.35318   0.16295  -0.18431  -1.13695
   6   20170.3    495.8   0.336354393   5.48984  -2.03299   1.15833  -0.12269
   7   20812.8    480.5   0.027752635   0.43899   0.09591   0.41783  -0.50518
   8   21754.3    459.7   0.015048696   0.22774  -0.35136   0.32015   0.04228
   9   22366.2    447.1   0.021455356   0.31580   0.08783   0.52029   0.19337
  10   22766.0    439.3   0.256228248   3.70524  -1.36574   0.06706  -1.35481
  11   23088.0    433.1   0.120627946   1.72004   0.13514   0.17098  -1.29327
  12   23611.4    423.5   0.122284619   1.70501  -0.26107   0.15880  -1.26950
  13   24289.0    411.7   0.054678743   0.74111   0.17644  -0.05429  -0.84085
  14   24552.2    407.3   0.017864422   0.23954  -0.45015  -0.19210  -0.00016
  15   24691.3    405.0   0.053843561   0.71790   0.78822  -0.22037  -0.21921
  16   24781.1    403.5   0.025139595   0.33397  -0.27147  -0.50365   0.08130
  17   25201.1    396.8   0.006761658   0.08833   0.20283   0.08194  -0.20118
  18   25355.7    394.4   0.037756847   0.49022  -0.45253   0.04549   0.53233
  19   25526.0    391.8   0.208831927   2.69334   1.29950   0.28543  -0.96082
  20   25633.6    390.1   0.005595839   0.07187  -0.16463   0.20969  -0.02818
  21   25789.5    387.8   0.076266246   0.97356  -0.91106  -0.10145   0.36502
  22   26042.8    384.0   0.054609530   0.69033  -0.19332   0.41292   0.69459
  23   26350.7    379.5   0.007914916   0.09889   0.00873  -0.03844  -0.31198
  24   26482.6    377.6   0.009016621   0.11209  -0.13064  -0.05528  -0.30326
  25   27092.2    369.1   0.091682617   1.11408  -0.48998  -0.61115  -0.70746
  26   27442.6    364.4   0.211527663   2.53757  -0.81434   0.18296   1.35681
  27   27611.6    362.2   0.014168824   0.16893   0.07616  -0.36962   0.16282
  28   27869.7    358.8   0.052388551   0.61884  -0.34128  -0.40568  -0.58120
  29   28083.9    356.1   0.177991739   2.08650   0.28564  -0.23463  -1.39637
  30   28131.6    355.5   0.034533782   0.40413  -0.06362  -0.13891  -0.61708
  31   28285.1    353.5   0.124714056   1.45155   0.56511  -0.24083  -1.03644
  32   28622.2    349.4   0.172602655   1.98527  -0.39042  -0.47220  -1.26881
  33   28725.6    348.1   0.014323733   0.16416   0.17069   0.27926  -0.23882
  34   28791.2    347.3   0.049605110   0.56721  -0.20313  -0.49722  -0.52794
  35   29172.2    342.8   0.386429826   4.36091   0.94167   0.05167  -1.86319
  36   29375.2    340.4   0.137952756   1.54605  -0.55897  -0.82390  -0.74485
  37   29544.6    338.5   0.020942022   0.23335  -0.14886   0.21500   0.40617
  38   30132.1    331.9   0.135345881   1.47874  -0.58307   0.87465   0.61135
  39   30351.2    329.5   0.008480322   0.09198  -0.20170  -0.19365  -0.11748
  40   30528.6    327.6   0.130467326   1.40693  -0.07388   0.46277   1.08964
  41   30697.6    325.8   0.170637188   1.82998   0.20812  -0.58102  -1.20378
  42   30917.1    323.4   0.107836410   1.14827   0.01200  -0.80956   0.70195
  43   31173.3    320.8   0.011110622   0.11734   0.04967  -0.33758   0.03015
  44   31287.7    319.6   0.057825790   0.60845  -0.27560  -0.51861   0.51336
  45   31632.4    316.1   0.006147455   0.06398  -0.01266  -0.22907   0.10651
  46   31878.2    313.7   0.298340413   3.08102  -0.05789  -0.03331  -1.75401
  47   31896.8    313.5   0.036757775   0.37938   0.39024   0.42355  -0.21839
  48   32021.9    312.3   0.111516141   1.14648   0.35881  -0.27205  -0.97146
  49   32245.4    310.1   0.351083313   3.58441  -0.89202   0.15842   1.66241
  50   32679.6    306.0   0.001792015   0.01805  -0.03941  -0.08688   0.09461
  51   32816.4    304.7   0.037574144   0.37694  -0.46399  -0.23332   0.32744
  52   32996.3    303.1   0.152371443   1.52025   0.83925  -0.90273  -0.03136
  53   33171.4    301.5   0.228887098   2.27161   0.39560  -0.47774  -1.37363
  54   33350.5    299.8   0.007681884   0.07583   0.03502   0.06292   0.26579
  55   33490.1    298.6   0.030577970   0.30059  -0.16366   0.12622  -0.50781
  56   33630.6    297.3   0.026837874   0.26272   0.16925   0.36336  -0.31944
  57   33810.1    295.8   0.111495787   1.08564  -0.68842   0.67851   0.38902
  58   33923.3    294.8   0.254614472   2.47093  -0.40689  -0.10198   1.51492
  59   34012.1    294.0   0.061947913   0.59961  -0.44980   0.53419  -0.33456
  60   34224.5    292.2   0.090233530   0.86797   0.06065   0.37708  -0.84977
  61   34254.6    291.9   0.005631859   0.05413  -0.10706   0.20019  -0.05088
  62   34324.4    291.3   0.066978614   0.64240  -0.36181  -0.48012   0.53008
  63   34355.5    291.1   0.017340370   0.16616  -0.37262   0.15016  -0.06907
  64   34473.7    290.1   0.004756755   0.04543  -0.00999  -0.17728   0.11789
  65   34533.8    289.6   0.004776874   0.04554   0.05880  -0.18677  -0.08483
  66   34646.8    288.6   0.021038003   0.19990   0.08494   0.06281  -0.43444
  67   34688.3    288.3   0.005833872   0.05537  -0.11747   0.17138   0.11044
  68   34812.9    287.2   0.004746314   0.04488  -0.02289   0.15736   0.13999
  69   35031.4    285.5   0.001860434   0.01748  -0.10978   0.00205   0.07367
  70   35678.2    280.3   0.083876078   0.77395   0.11766  -0.18494   0.85200
  71   35863.5    278.8   0.018659063   0.17128  -0.39315   0.05703   0.11603
  72   35897.3    278.6   0.050752688   0.46545   0.44756  -0.38566   0.34118
  73   35997.4    277.8   0.036194829   0.33102   0.47984   0.02552   0.31641
  74   36120.3    276.9   0.058911076   0.53693   0.06950  -0.41944   0.59680
  75   36210.9    276.2   0.112584755   1.02357  -0.27920   0.14991  -0.96080
  76   36416.6    274.6   0.010925624   0.09877  -0.03817  -0.07979  -0.30157
  77   36564.1    273.5   0.068769524   0.61918   0.09613   0.72557   0.28893
  78   36743.9    272.2   0.053530623   0.47962  -0.10928   0.64034  -0.24008
  79   36785.1    271.8   0.027906082   0.24975  -0.26034  -0.03219   0.42537
  80   36887.8    271.1   0.031723911   0.28313   0.10529  -0.34877   0.38782
  81   37152.2    269.2   0.019366764   0.17161  -0.06904   0.18830   0.36248
  82   37193.6    268.9   0.045695955   0.40447   0.36459  -0.33708  -0.39740
  83   37338.1    267.8   0.144229600   1.27168   0.41396  -0.80600   0.67133
  84   37442.7    267.1   0.191926234   1.68750   0.31025   0.04673  -1.26058
  85   37742.7    265.0   0.373407542   3.25706  -0.30799  -0.27994   1.75609
  86   37935.8    263.6   0.023963149   0.20796   0.32611   0.31842   0.01482
  87   38127.3    262.3   0.068961684   0.59545  -0.38194   0.53063   0.40989
  88   38377.7    260.6   0.007722637   0.06625   0.00758   0.11810   0.22856
  89   38531.7    259.5   0.020401586   0.17431   0.06369   0.15061  -0.38415
  90   38584.1    259.2   0.012641916   0.10786   0.27025   0.06781  -0.17387
  91   38729.5    258.2   0.389940087   3.31460   0.82228  -0.82673  -1.39820
  92   38757.1    258.0   0.042974194   0.36503  -0.16435   0.52908   0.24104
  93   38895.7    257.1   0.036882646   0.31217   0.34499  -0.43711   0.04568
  94   38911.1    257.0   0.359770191   3.04388  -0.86045   1.51703  -0.04629
  95   39364.4    254.0   0.002259408   0.01890  -0.01803   0.08819  -0.10389
  96   39633.9    252.3   0.013863215   0.11515   0.08249   0.17679  -0.27766
  97   39681.8    252.0   0.027488671   0.22805  -0.18458   0.05186   0.43737
  98   39807.3    251.2   0.037582354   0.31081   0.09838  -0.43978  -0.32822
  99   39907.9    250.6   0.056548606   0.46649   0.55281   0.09409  -0.38992
 100   40121.5    249.2   0.087951630   0.72168  -0.55260   0.37567  -0.52458
 101   40197.8    248.8   0.076699239   0.62815   0.05714   0.47867  -0.62910
 102   40222.8    248.6   0.127281147   1.04176  -0.11367  -0.66668   0.76444

FINAL SINGLE POINT ENERGY     -4384.784506633227

DIPOLE MOMENT
-------------
                                X             Y             Z
Electronic contribution:      2.67942      -5.56879      16.98828
Nuclear contribution   :     -2.13314       6.02729     -22.87559
                        -----------------------------------------
Total Dipole Moment    :      0.54628       0.45851      -5.88731
                        -----------------------------------------
Magnitude (a.u.)       :      5.93035
Magnitude (Debye)      :     15.07376

Rotational constants in cm-1:     0.000856     0.000429     0.000328
Rotational constants in MHz :    25.669891    12.874687     9.822915

                             ****ORCA TERMINATED NORMALLY****
TOTAL RUN TIME: 0 days 0 hours 10 minutes 34 seconds 116 msec
