                         Program Version 4.2.0 -  RELEASE  -
|  1> # ORCA input file
|  2> # SCF done       -191.249315507261          0.000733701337
|  3> ! CAM-B3LYP def2-SVP def2/J RIJCOSX Grid4 TightSCF
|  4> %maxcore 5000
|  5> %tddft
|  6>     Mode sTDDFT
|  7>     Ethresh 5.0
|  8>     maxcore 5000
|  9> end
| 10>
| 11> %pal
| 12>   nprocs 6
| 13>   end
| 14> * xyz 0 1
| 15>    C       -1.47035         7.40476         1.20255
| 16>    C       -1.00266         7.36293        -0.07965
| 17>    C       -0.83113         8.50827        -0.88679
| 18>    N       -0.65550         9.41384        -1.56833
| 19>    C       -0.75219         6.16809        -0.78845
| 20>    N       -0.61755         5.23811        -1.44662
| 21>    C       -2.03880         8.57016         1.87450
| 22>    C       -2.78477         8.13083         3.00945
| 23>    C       -3.45377         9.00472         3.82029
| 24>    C       -3.41349        10.38315         3.52417
| 25>    C       -2.68451        10.82964         2.38308
| 26>    C       -1.99313         9.90330         1.56775
| 27>    C       -2.66727        12.20821         2.08902
| 28>    C       -3.33118        13.10244         2.88442
| 29>    C       -4.03729        12.66213         4.01432
| 30>    C       -4.07793        11.33110         4.32763
| 31>    C       -2.69973         6.67358         3.11216
| 32>    O       -3.27221         5.93187         3.88105
| 33>    C       -1.71733         6.26089         2.06054
| 34>    C       -1.17313         5.02298         2.14030
| 35>    C       -0.01318         4.50630         1.49976
| 36>    N        0.94251         5.26927         1.00007
| 37>    C        1.91741         4.42378         0.59567
| 38>    C        1.56270         3.02831         0.87183
| 39>    C        2.63174         2.12170         0.43358
| 40>    O        2.69128         0.91543         0.55052
| 41>    C        3.61710         3.05040        -0.15470
| 42>    C        3.14580         4.44879        -0.01810
| 43>    N        4.04350         5.30985        -0.55549
| 44>    C        5.00803         4.55559        -1.01877
| 45>    C        4.80267         3.13211        -0.80708
| 46>    C        0.31019         3.05967         1.43748
| 47>    C       -0.55735         2.02909         1.85723
| 48>    C       -0.23029         0.70748         1.90524
| 49>    C       -1.14736        -0.25767         2.35980
| 50>    S       -2.78387         0.17879         2.78639
| 51>    C       -3.22192        -1.42884         3.31059
| 52>    C       -2.12179        -2.28137         3.14461
| 53>    C       -0.98476        -1.62430         2.59589
| 54>    N       -0.02118        -2.56586         2.48840
| 55>    N       -0.46004        -3.75577         2.92044
| 56>    C       -1.70232        -3.62090         3.31745
| 57>    C       -4.47445        -1.69778         3.87679
| 58>    N       -4.72900        -2.82363         4.54623
| 59>    C       -5.95345        -2.67149         5.06251
| 60>    C       -6.53209        -1.35789         4.71123
| 61>    C       -7.89805        -1.22077         5.26158
| 62>    O       -8.66528        -0.29425         5.14019
| 63>    C       -8.07738        -2.49793         5.97050
| 64>    C       -6.87904        -3.35115         5.82538
| 65>    N       -7.05347        -4.53301         6.45647
| 66>    C       -8.26210        -4.47240         6.97077
| 67>    C       -8.95716        -3.23514         6.70069
| 68>    C       -5.61102        -0.73930         3.92190
| 69>    C       -5.63300         0.48277         3.17784
| 70>    C       -6.00736         1.70736         3.61186
| 71>    C       -5.77937         2.81783         2.75603
| 72>    C       -5.87039         4.13648         3.07587
| 73>    C       -5.52034         5.23450         2.19808
| 74>    C       -4.69357         5.15855         1.10453
| 75>    C       -4.34579         6.26545         0.30965
| 76>    N       -4.01422         7.13975        -0.35836
| 77>    C       -3.96991         4.00499         0.74226
| 78>    N       -3.29862         3.11624         0.45987
| 79>    C       -6.05204         6.45707         2.77958
| 80>    C       -6.56060         6.15438         4.07581
| 81>    C       -6.42339         4.70511         4.33573
| 82>    O       -6.71087         4.11183         5.34839
| 83>    C       -7.07035         7.12599         4.88652
| 84>    C       -7.11021         8.46219         4.42417
| 85>    C       -6.62169         8.76681         3.12087
| 86>    C       -6.08683         7.74252         2.30774
| 87>    C       -6.67536        10.10020         2.66702
| 88>    C       -7.18819        11.08925         3.46083
| 89>    C       -7.66574        10.79035         4.74555
| 90>    C       -7.62567         9.50598         5.21756
| 91>    H       -4.00509         8.64649         4.67719
| 92>    H       -1.43643        10.27255         0.72118
| 93>    H       -2.11930        12.54413         1.22123
| 94>    H       -3.31193        14.15604         2.64940
| 95>    H       -4.54761        13.38282         4.63540
| 96>    H       -4.61927        10.98354         5.19523
| 97>    H       -1.64786         4.36472         2.86219
| 98>    H        5.86116         4.99939        -1.50171
| 99>    H        5.47343         2.35449        -1.11456
|100>    H       -1.55733         2.32176         2.14950
|101>    H        0.75807         0.37729         1.61183
|102>    H        0.91671        -2.47341         2.13191
|103>    H       -2.25840        -4.44620         3.71004
|104>    H       -8.65183        -5.30160         7.53531
|105>    H       -9.94906        -2.99089         7.02560
|106>    H       -5.24579         0.40083         2.16583
|107>    H       -6.38699         1.87123         4.60885
|108>    H       -5.46215         2.56681         1.74956
|109>    H       -7.44089         6.87993         5.87063
|110>    H       -5.72695         8.00119         1.32390
|111>    H       -6.30057        10.32523         1.67915
|112>    H       -7.22663        12.10700         3.10298
|113>    H       -8.06731        11.58258         5.35964
|114>    H       -7.99365         9.27113         6.20574
|115> *
|116>
|117>                          ****END OF INPUT****

CARTESIAN COORDINATES (ANGSTROEM)
---------------------------------
  C     -1.470350    7.404760    1.202550
  C     -1.002660    7.362930   -0.079650
  C     -0.831130    8.508270   -0.886790
  N     -0.655500    9.413840   -1.568330
  C     -0.752190    6.168090   -0.788450
  N     -0.617550    5.238110   -1.446620
  C     -2.038800    8.570160    1.874500
  C     -2.784770    8.130830    3.009450
  C     -3.453770    9.004720    3.820290
  C     -3.413490   10.383150    3.524170
  C     -2.684510   10.829640    2.383080
  C     -1.993130    9.903300    1.567750
  C     -2.667270   12.208210    2.089020
  C     -3.331180   13.102440    2.884420
  C     -4.037290   12.662130    4.014320
  C     -4.077930   11.331100    4.327630
  C     -2.699730    6.673580    3.112160
  O     -3.272210    5.931870    3.881050
  C     -1.717330    6.260890    2.060540
  C     -1.173130    5.022980    2.140300
  C     -0.013180    4.506300    1.499760
  N      0.942510    5.269270    1.000070
  C      1.917410    4.423780    0.595670
  C      1.562700    3.028310    0.871830
  C      2.631740    2.121700    0.433580
  O      2.691280    0.915430    0.550520
  C      3.617100    3.050400   -0.154700
  C      3.145800    4.448790   -0.018100
  N      4.043500    5.309850   -0.555490
  C      5.008030    4.555590   -1.018770
  C      4.802670    3.132110   -0.807080
  C      0.310190    3.059670    1.437480
  C     -0.557350    2.029090    1.857230
  C     -0.230290    0.707480    1.905240
  C     -1.147360   -0.257670    2.359800
  S     -2.783870    0.178790    2.786390
  C     -3.221920   -1.428840    3.310590
  C     -2.121790   -2.281370    3.144610
  C     -0.984760   -1.624300    2.595890
  N     -0.021180   -2.565860    2.488400
  N     -0.460040   -3.755770    2.920440
  C     -1.702320   -3.620900    3.317450
  C     -4.474450   -1.697780    3.876790
  N     -4.729000   -2.823630    4.546230
  C     -5.953450   -2.671490    5.062510
  C     -6.532090   -1.357890    4.711230
  C     -7.898050   -1.220770    5.261580
  O     -8.665280   -0.294250    5.140190
  C     -8.077380   -2.497930    5.970500
  C     -6.879040   -3.351150    5.825380
  N     -7.053470   -4.533010    6.456470
  C     -8.262100   -4.472400    6.970770
  C     -8.957160   -3.235140    6.700690
  C     -5.611020   -0.739300    3.921900
  C     -5.633000    0.482770    3.177840
  C     -6.007360    1.707360    3.611860
  C     -5.779370    2.817830    2.756030
  C     -5.870390    4.136480    3.075870
  C     -5.520340    5.234500    2.198080
  C     -4.693570    5.158550    1.104530
  C     -4.345790    6.265450    0.309650
  N     -4.014220    7.139750   -0.358360
  C     -3.969910    4.004990    0.742260
  N     -3.298620    3.116240    0.459870
  C     -6.052040    6.457070    2.779580
  C     -6.560600    6.154380    4.075810
  C     -6.423390    4.705110    4.335730
  O     -6.710870    4.111830    5.348390
  C     -7.070350    7.125990    4.886520
  C     -7.110210    8.462190    4.424170
  C     -6.621690    8.766810    3.120870
  C     -6.086830    7.742520    2.307740
  C     -6.675360   10.100200    2.667020
  C     -7.188190   11.089250    3.460830
  C     -7.665740   10.790350    4.745550
  C     -7.625670    9.505980    5.217560
  H     -4.005090    8.646490    4.677190
  H     -1.436430   10.272550    0.721180
  H     -2.119300   12.544130    1.221230
  H     -3.311930   14.156040    2.649400
  H     -4.547610   13.382820    4.635400
  H     -4.619270   10.983540    5.195230
  H     -1.647860    4.364720    2.862190
  H      5.861160    4.999390   -1.501710
  H      5.473430    2.354490   -1.114560
  H     -1.557330    2.321760    2.149500
  H      0.758070    0.377290    1.611830
  H      0.916710   -2.473410    2.131910
  H     -2.258400   -4.446200    3.710040
  H     -8.651830   -5.301600    7.535310
  H     -9.949060   -2.990890    7.025600
  H     -5.245790    0.400830    2.165830
  H     -6.386990    1.871230    4.608850
  H     -5.462150    2.566810    1.749560
  H     -7.440890    6.879930    5.870630
  H     -5.726950    8.001190    1.323900
  H     -6.300570   10.325230    1.679150
  H     -7.226630   12.107000    3.102980
  H     -8.067310   11.582580    5.359640
  H     -7.993650    9.271130    6.205740

 Total Charge           Charge          ....    0
 Multiplicity           Mult            ....    1
 Number of Electrons    NEL             ....  508
 Basis Dimension        Dim             .... 1188

ORBITAL ENERGIES
----------------

  NO   OCC          E(Eh)            E(eV)
   0   2.0000     -88.983794     -2421.3721
   1   2.0000     -19.232296      -523.3374
   2   2.0000     -19.220784      -523.0241
   3   2.0000     -19.217856      -522.9444
   4   2.0000     -19.203603      -522.5566
   5   2.0000     -14.495534      -394.4435
   6   2.0000     -14.448480      -393.1631
   7   2.0000     -14.425503      -392.5379
   8   2.0000     -14.425401      -392.5351
   9   2.0000     -14.424781      -392.5182
  10   2.0000     -14.417089      -392.3089
  11   2.0000     -14.412910      -392.1952
  12   2.0000     -14.412857      -392.1938
  13   2.0000     -14.404538      -391.9674
  14   2.0000     -14.395799      -391.7296
  15   2.0000     -10.380086      -282.4565
  16   2.0000     -10.379701      -282.4460
  17   2.0000     -10.368881      -282.1516
  18   2.0000     -10.365301      -282.0542
  19   2.0000     -10.351452      -281.6773
  20   2.0000     -10.349077      -281.6127
  21   2.0000     -10.347158      -281.5605
  22   2.0000     -10.345981      -281.5284
  23   2.0000     -10.345803      -281.5236
  24   2.0000     -10.340195      -281.3710
  25   2.0000     -10.339730      -281.3583
  26   2.0000     -10.334935      -281.2279
  27   2.0000     -10.333510      -281.1891
  28   2.0000     -10.333329      -281.1842
  29   2.0000     -10.331983      -281.1476
  30   2.0000     -10.330066      -281.0954
  31   2.0000     -10.328674      -281.0575
  32   2.0000     -10.327949      -281.0378
  33   2.0000     -10.325793      -280.9791
  34   2.0000     -10.322857      -280.8992
  35   2.0000     -10.320903      -280.8461
  36   2.0000     -10.319112      -280.7973
  37   2.0000     -10.317801      -280.7616
  38   2.0000     -10.314809      -280.6802
  39   2.0000     -10.314052      -280.6596
  40   2.0000     -10.313996      -280.6581
  41   2.0000     -10.311355      -280.5862
  42   2.0000     -10.310834      -280.5721
  43   2.0000     -10.309058      -280.5237
  44   2.0000     -10.307241      -280.4743
  45   2.0000     -10.307191      -280.4729
  46   2.0000     -10.305689      -280.4320
  47   2.0000     -10.304153      -280.3903
  48   2.0000     -10.303747      -280.3792
  49   2.0000     -10.303459      -280.3714
  50   2.0000     -10.303208      -280.3645
  51   2.0000     -10.302829      -280.3542
  52   2.0000     -10.302553      -280.3467
  53   2.0000     -10.300735      -280.2972
  54   2.0000     -10.300709      -280.2965
  55   2.0000     -10.300281      -280.2849
  56   2.0000     -10.299356      -280.2597
  57   2.0000     -10.298556      -280.2380
  58   2.0000     -10.298542      -280.2376
  59   2.0000     -10.297990      -280.2226
  60   2.0000     -10.296685      -280.1871
  61   2.0000     -10.296171      -280.1731
  62   2.0000     -10.295396      -280.1520
  63   2.0000     -10.294875      -280.1378
  64   2.0000     -10.293781      -280.1080
  65   2.0000     -10.293421      -280.0982
  66   2.0000     -10.292895      -280.0839
  67   2.0000     -10.292624      -280.0765
  68   2.0000     -10.292413      -280.0708
  69   2.0000     -10.292116      -280.0627
  70   2.0000     -10.291725      -280.0521
  71   2.0000     -10.291178      -280.0372
  72   2.0000     -10.291118      -280.0356
  73   2.0000     -10.290217      -280.0110
  74   2.0000     -10.279473      -279.7187
  75   2.0000     -10.278924      -279.7037
  76   2.0000      -8.077518      -219.8004
  77   2.0000      -6.046856      -164.5433
  78   2.0000      -6.042518      -164.4253
  79   2.0000      -6.039961      -164.3557
  80   2.0000      -1.156523       -31.4706
  81   2.0000      -1.146285       -31.1920
  82   2.0000      -1.134045       -30.8589
  83   2.0000      -1.132906       -30.8279
  84   2.0000      -1.119039       -30.4506
  85   2.0000      -1.087880       -29.6027
  86   2.0000      -1.074178       -29.2299
  87   2.0000      -1.068135       -29.0654
  88   2.0000      -1.051157       -28.6034
  89   2.0000      -1.027879       -27.9700
  90   2.0000      -1.019483       -27.7415
  91   2.0000      -1.005576       -27.3631
  92   2.0000      -1.004359       -27.3300
  93   2.0000      -1.002529       -27.2802
  94   2.0000      -1.001844       -27.2616
  95   2.0000      -0.992593       -27.0098
  96   2.0000      -0.978134       -26.6164
  97   2.0000      -0.976993       -26.5853
  98   2.0000      -0.946389       -25.7526
  99   2.0000      -0.940583       -25.5946
 100   2.0000      -0.939016       -25.5519
 101   2.0000      -0.929690       -25.2981
 102   2.0000      -0.927630       -25.2421
 103   2.0000      -0.923942       -25.1417
 104   2.0000      -0.922979       -25.1155
 105   2.0000      -0.907848       -24.7038
 106   2.0000      -0.902140       -24.5485
 107   2.0000      -0.888919       -24.1887
 108   2.0000      -0.885905       -24.1067
 109   2.0000      -0.884166       -24.0594
 110   2.0000      -0.881464       -23.9858
 111   2.0000      -0.874288       -23.7906
 112   2.0000      -0.864085       -23.5129
 113   2.0000      -0.862768       -23.4771
 114   2.0000      -0.850025       -23.1304
 115   2.0000      -0.838791       -22.8247
 116   2.0000      -0.835032       -22.7224
 117   2.0000      -0.832744       -22.6601
 118   2.0000      -0.823252       -22.4018
 119   2.0000      -0.817393       -22.2424
 120   2.0000      -0.793661       -21.5966
 121   2.0000      -0.783910       -21.3313
 122   2.0000      -0.770778       -20.9739
 123   2.0000      -0.765962       -20.8429
 124   2.0000      -0.762390       -20.7457
 125   2.0000      -0.759078       -20.6555
 126   2.0000      -0.753504       -20.5039
 127   2.0000      -0.730297       -19.8724
 128   2.0000      -0.728326       -19.8188
 129   2.0000      -0.722431       -19.6583
 130   2.0000      -0.714649       -19.4466
 131   2.0000      -0.712447       -19.3867
 132   2.0000      -0.708991       -19.2926
 133   2.0000      -0.706417       -19.2226
 134   2.0000      -0.705639       -19.2014
 135   2.0000      -0.701170       -19.0798
 136   2.0000      -0.692613       -18.8470
 137   2.0000      -0.688218       -18.7274
 138   2.0000      -0.679249       -18.4833
 139   2.0000      -0.676151       -18.3990
 140   2.0000      -0.674497       -18.3540
 141   2.0000      -0.661268       -17.9940
 142   2.0000      -0.650025       -17.6881
 143   2.0000      -0.646608       -17.5951
 144   2.0000      -0.643928       -17.5222
 145   2.0000      -0.641306       -17.4508
 146   2.0000      -0.636698       -17.3254
 147   2.0000      -0.632413       -17.2088
 148   2.0000      -0.619076       -16.8459
 149   2.0000      -0.617254       -16.7963
 150   2.0000      -0.613027       -16.6813
 151   2.0000      -0.612414       -16.6646
 152   2.0000      -0.611043       -16.6273
 153   2.0000      -0.603736       -16.4285
 154   2.0000      -0.598951       -16.2983
 155   2.0000      -0.596272       -16.2254
 156   2.0000      -0.592663       -16.1272
 157   2.0000      -0.578686       -15.7468
 158   2.0000      -0.576956       -15.6998
 159   2.0000      -0.569864       -15.5068
 160   2.0000      -0.563464       -15.3326
 161   2.0000      -0.562857       -15.3161
 162   2.0000      -0.558279       -15.1916
 163   2.0000      -0.557900       -15.1812
 164   2.0000      -0.556110       -15.1325
 165   2.0000      -0.554542       -15.0899
 166   2.0000      -0.552754       -15.0412
 167   2.0000      -0.551657       -15.0113
 168   2.0000      -0.548617       -14.9286
 169   2.0000      -0.545306       -14.8385
 170   2.0000      -0.544540       -14.8177
 171   2.0000      -0.541448       -14.7336
 172   2.0000      -0.539810       -14.6890
 173   2.0000      -0.535717       -14.5776
 174   2.0000      -0.534126       -14.5343
 175   2.0000      -0.531280       -14.4569
 176   2.0000      -0.528127       -14.3711
 177   2.0000      -0.523451       -14.2438
 178   2.0000      -0.522528       -14.2187
 179   2.0000      -0.520991       -14.1769
 180   2.0000      -0.518276       -14.1030
 181   2.0000      -0.517991       -14.0953
 182   2.0000      -0.516624       -14.0581
 183   2.0000      -0.514421       -13.9981
 184   2.0000      -0.510822       -13.9002
 185   2.0000      -0.507870       -13.8198
 186   2.0000      -0.506316       -13.7776
 187   2.0000      -0.504736       -13.7346
 188   2.0000      -0.503322       -13.6961
 189   2.0000      -0.499000       -13.5785
 190   2.0000      -0.497247       -13.5308
 191   2.0000      -0.491889       -13.3850
 192   2.0000      -0.491322       -13.3696
 193   2.0000      -0.488148       -13.2832
 194   2.0000      -0.486115       -13.2279
 195   2.0000      -0.484244       -13.1770
 196   2.0000      -0.481642       -13.1061
 197   2.0000      -0.480931       -13.0868
 198   2.0000      -0.477207       -12.9855
 199   2.0000      -0.472822       -12.8661
 200   2.0000      -0.470550       -12.8043
 201   2.0000      -0.469870       -12.7858
 202   2.0000      -0.466948       -12.7063
 203   2.0000      -0.466170       -12.6851
 204   2.0000      -0.465349       -12.6628
 205   2.0000      -0.459860       -12.5134
 206   2.0000      -0.457616       -12.4524
 207   2.0000      -0.455271       -12.3886
 208   2.0000      -0.452436       -12.3114
 209   2.0000      -0.449582       -12.2338
 210   2.0000      -0.447863       -12.1870
 211   2.0000      -0.447138       -12.1673
 212   2.0000      -0.445982       -12.1358
 213   2.0000      -0.444473       -12.0947
 214   2.0000      -0.442561       -12.0427
 215   2.0000      -0.441814       -12.0224
 216   2.0000      -0.439207       -11.9514
 217   2.0000      -0.435671       -11.8552
 218   2.0000      -0.431474       -11.7410
 219   2.0000      -0.429671       -11.6919
 220   2.0000      -0.426729       -11.6119
 221   2.0000      -0.424017       -11.5381
 222   2.0000      -0.421516       -11.4700
 223   2.0000      -0.416814       -11.3421
 224   2.0000      -0.415615       -11.3095
 225   2.0000      -0.410433       -11.1684
 226   2.0000      -0.405609       -11.0372
 227   2.0000      -0.392940       -10.6924
 228   2.0000      -0.388969       -10.5844
 229   2.0000      -0.381027       -10.3683
 230   2.0000      -0.373336       -10.1590
 231   2.0000      -0.371284       -10.1032
 232   2.0000      -0.369516       -10.0550
 233   2.0000      -0.365923        -9.9573
 234   2.0000      -0.360855        -9.8194
 235   2.0000      -0.358601        -9.7580
 236   2.0000      -0.350396        -9.5348
 237   2.0000      -0.346319        -9.4238
 238   2.0000      -0.345161        -9.3923
 239   2.0000      -0.343295        -9.3415
 240   2.0000      -0.338830        -9.2200
 241   2.0000      -0.338373        -9.2076
 242   2.0000      -0.336469        -9.1558
 243   2.0000      -0.330416        -8.9911
 244   2.0000      -0.325346        -8.8531
 245   2.0000      -0.325030        -8.8445
 246   2.0000      -0.323754        -8.8098
 247   2.0000      -0.322587        -8.7780
 248   2.0000      -0.318902        -8.6778
 249   2.0000      -0.311153        -8.4669
 250   2.0000      -0.303318        -8.2537
 251   2.0000      -0.295262        -8.0345
 252   2.0000      -0.289614        -7.8808
 253   2.0000      -0.251693        -6.8489
 254   0.0000      -0.135117        -3.6767
 255   0.0000      -0.117572        -3.1993
 256   0.0000      -0.101012        -2.7487
 257   0.0000      -0.079112        -2.1527
 258   0.0000      -0.063696        -1.7333

MULLIKEN ATOMIC CHARGES
-----------------------
   0 C :    0.274673
   1 C :   -0.258508
   2 C :   -0.175915
   3 N :    0.157412
   4 C :   -0.180047
   5 N :    0.175308
   6 C :    0.067352
   7 C :    0.012801
   8 C :   -0.054972
   9 C :    0.070774
  10 C :    0.102559
  11 C :   -0.090200
  12 C :   -0.023609
  13 C :    0.038048
  14 C :    0.022293
  15 C :    0.018373
  16 C :    0.125046
  17 O :   -0.157788
  18 C :   -0.081556
  19 C :   -0.024422
  20 C :    0.048341
  21 N :   -0.040975
  22 C :    0.095011
  23 C :   -0.169315
  24 C :    0.225569
  25 O :   -0.149796
  26 C :   -0.013281
  27 C :   -0.025815
  28 N :   -0.050242
  29 C :    0.097084
  30 C :   -0.093461
  31 C :    0.102169
  32 C :   -0.042235
  33 C :    0.008803
  34 C :   -0.109072
  35 S :    0.113646
  36 C :   -0.147886
  37 C :    0.057828
  38 C :    0.145322
  39 N :   -0.026926
  40 N :   -0.049290
  41 C :    0.010508
  42 C :    0.054205
  43 N :   -0.046925
  44 C :    0.068109
  45 C :   -0.118461
  46 C :    0.195633
  47 O :   -0.121814
  48 C :   -0.050645
  49 C :   -0.025563
  50 N :   -0.061240
  51 C :    0.086162
  52 C :   -0.089427
  53 C :    0.009282
  54 C :   -0.062510
  55 C :    0.055212
  56 C :   -0.064886
  57 C :   -0.052255
  58 C :    0.333805
  59 C :   -0.352122
  60 C :   -0.164669
  61 N :    0.136959
  62 C :   -0.198358
  63 N :    0.137179
  64 C :    0.039740
  65 C :    0.016590
  66 C :    0.165976
  67 O :   -0.130634
  68 C :   -0.088870
  69 C :    0.097299
  70 C :    0.078067
  71 C :   -0.083842
  72 C :   -0.007494
  73 C :    0.041000
  74 C :    0.030139
  75 C :   -0.024704
  76 H :   -0.013891
  77 H :   -0.006336
  78 H :   -0.007172
  79 H :   -0.003184
  80 H :   -0.008611
  81 H :   -0.020479
  82 H :    0.026580
  83 H :    0.015252
  84 H :   -0.000810
  85 H :    0.004659
  86 H :    0.002177
  87 H :    0.149812
  88 H :    0.017317
  89 H :    0.004446
  90 H :   -0.010497
  91 H :    0.040482
  92 H :    0.042172
  93 H :    0.022024
  94 H :   -0.011655
  95 H :   -0.006432
  96 H :   -0.009838
  97 H :   -0.007471
  98 H :   -0.006153
  99 H :   -0.016940
Sum of atomic charges:    0.0000000

LOEWDIN ATOMIC CHARGES
----------------------
   0 C :    0.059187
   1 C :   -0.084684
   2 C :   -0.007360
   3 N :   -0.038925
   4 C :   -0.012547
   5 N :   -0.039186
   6 C :   -0.011823
   7 C :   -0.064018
   8 C :    0.042753
   9 C :   -0.013589
  10 C :   -0.001303
  11 C :    0.017900
  12 C :   -0.008087
  13 C :   -0.010636
  14 C :   -0.018331
  15 C :    0.000386
  16 C :    0.086566
  17 O :   -0.143021
  18 C :   -0.027541
  19 C :    0.034357
  20 C :    0.062702
  21 N :   -0.072064
  22 C :    0.051156
  23 C :   -0.046362
  24 C :    0.073389
  25 O :   -0.147744
  26 C :   -0.037287
  27 C :    0.037741
  28 N :   -0.090884
  29 C :    0.083864
  30 C :   -0.027188
  31 C :   -0.014876
  32 C :   -0.014890
  33 C :   -0.008806
  34 C :   -0.163007
  35 S :    0.506233
  36 C :   -0.184077
  37 C :   -0.052641
  38 C :   -0.020768
  39 N :    0.100366
  40 N :   -0.038549
  41 C :   -0.018784
  42 C :    0.045842
  43 N :   -0.114879
  44 C :    0.041463
  45 C :   -0.020407
  46 C :    0.061639
  47 O :   -0.136843
  48 C :   -0.047888
  49 C :    0.014507
  50 N :   -0.100351
  51 C :    0.067341
  52 C :   -0.042718
  53 C :   -0.044670
  54 C :    0.002930
  55 C :    0.000791
  56 C :    0.070512
  57 C :   -0.080918
  58 C :    0.091169
  59 C :   -0.154499
  60 C :   -0.016137
  61 N :   -0.059179
  62 C :   -0.012907
  63 N :   -0.063799
  64 C :   -0.025016
  65 C :   -0.045174
  66 C :    0.089927
  67 O :   -0.129310
  68 C :    0.029765
  69 C :   -0.012225
  70 C :   -0.010415
  71 C :    0.019530
  72 C :   -0.002458
  73 C :   -0.011607
  74 C :   -0.017100
  75 C :   -0.012616
  76 H :    0.039384
  77 H :    0.040274
  78 H :    0.035743
  79 H :    0.033802
  80 H :    0.031137
  81 H :    0.031357
  82 H :    0.047582
  83 H :    0.026167
  84 H :    0.036165
  85 H :    0.019426
  86 H :    0.036415
  87 H :    0.095709
  88 H :    0.033578
  89 H :    0.021679
  90 H :    0.032483
  91 H :    0.030846
  92 H :    0.044064
  93 H :    0.042598
  94 H :    0.039891
  95 H :    0.037966
  96 H :    0.034947
  97 H :    0.032027
  98 H :    0.032366
  99 H :    0.032477

  Mayer bond orders larger than 0.100000
B(  0-C ,  1-C ) :   1.7055 B(  0-C ,  6-C ) :   0.9945 B(  0-C , 18-C ) :   0.9983
B(  1-C ,  2-C ) :   1.1415 B(  1-C ,  4-C ) :   1.1679 B(  2-C ,  3-N ) :   2.9763
B(  4-C ,  5-N ) :   2.9650 B(  6-C ,  7-C ) :   1.2082 B(  6-C , 11-C ) :   1.4541
B(  7-C ,  8-C ) :   1.4505 B(  7-C , 16-C ) :   0.9473 B(  8-C ,  9-C ) :   1.2021
B(  8-C , 76-H ) :   1.0084 B(  9-C , 10-C ) :   1.2575 B(  9-C , 15-C ) :   1.2461
B( 10-C , 11-C ) :   1.1972 B( 10-C , 12-C ) :   1.2399 B( 11-C , 77-H ) :   0.9920
B( 12-C , 13-C ) :   1.4845 B( 12-C , 78-H ) :   0.9974 B( 13-C , 14-C ) :   1.2551
B( 13-C , 79-H ) :   0.9901 B( 14-C , 15-C ) :   1.4853 B( 14-C , 80-H ) :   0.9907
B( 15-C , 81-H ) :   0.9926 B( 16-C , 17-O ) :   2.1926 B( 16-C , 18-C ) :   0.9222
B( 18-C , 19-C ) :   1.7324 B( 19-C , 20-C ) :   1.0533 B( 19-C , 82-H ) :   0.9216
B( 20-C , 21-N ) :   1.5910 B( 20-C , 22-C ) :   0.1129 B( 20-C , 31-C ) :   1.0152
B( 21-N , 22-C ) :   1.3022 B( 22-C , 23-C ) :   1.0601 B( 22-C , 27-C ) :   1.4305
B( 23-C , 24-C ) :   0.9066 B( 23-C , 31-C ) :   1.5196 B( 24-C , 25-O ) :   2.1846
B( 24-C , 26-C ) :   0.9241 B( 26-C , 27-C ) :   1.0628 B( 26-C , 30-C ) :   1.6216
B( 27-C , 28-N ) :   1.3047 B( 28-N , 29-C ) :   1.6661 B( 29-C , 30-C ) :   1.0525
B( 29-C , 83-H ) :   0.9887 B( 30-C , 84-H ) :   1.0105 B( 31-C , 32-C ) :   1.1523
B( 32-C , 33-C ) :   1.5984 B( 32-C , 85-H ) :   0.9402 B( 33-C , 34-C ) :   1.1911
B( 33-C , 86-H ) :   0.9649 B( 34-C , 35-S ) :   1.1271 B( 34-C , 36-C ) :   0.1043
B( 34-C , 38-C ) :   1.2987 B( 35-S , 36-C ) :   1.1240 B( 36-C , 37-C ) :   1.2551
B( 36-C , 42-C ) :   1.2251 B( 37-C , 38-C ) :   1.2504 B( 37-C , 41-C ) :   1.2053
B( 38-C , 39-N ) :   1.1677 B( 39-N , 40-N ) :   1.1475 B( 39-N , 87-H ) :   0.9450
B( 40-N , 41-C ) :   1.6983 B( 41-C , 88-H ) :   0.9973 B( 42-C , 43-N ) :   1.5680
B( 42-C , 44-C ) :   0.1188 B( 42-C , 53-C ) :   1.0300 B( 43-N , 44-C ) :   1.3976
B( 44-C , 45-C ) :   1.0402 B( 44-C , 49-C ) :   1.3582 B( 45-C , 46-C ) :   0.8792
B( 45-C , 53-C ) :   1.6408 B( 46-C , 47-O ) :   2.3066 B( 46-C , 48-C ) :   0.8990
B( 48-C , 49-C ) :   1.0631 B( 48-C , 52-C ) :   1.5811 B( 49-C , 50-N ) :   1.3414
B( 50-N , 51-C ) :   1.6242 B( 51-C , 52-C ) :   1.0999 B( 51-C , 89-H ) :   0.9893
B( 52-C , 90-H ) :   1.0096 B( 53-C , 54-C ) :   1.0007 B( 54-C , 55-C ) :   1.6720
B( 54-C , 91-H ) :   0.9361 B( 55-C , 56-C ) :   1.1392 B( 55-C , 92-H ) :   0.9889
B( 56-C , 57-C ) :   1.5675 B( 56-C , 93-H ) :   0.9659 B( 57-C , 58-C ) :   1.0653
B( 57-C , 66-C ) :   0.9317 B( 58-C , 59-C ) :   1.6155 B( 58-C , 64-C ) :   0.9934
B( 59-C , 60-C ) :   1.1526 B( 59-C , 62-C ) :   1.1617 B( 60-C , 61-N ) :   2.8959
B( 62-C , 63-N ) :   2.9390 B( 64-C , 65-C ) :   1.2209 B( 64-C , 71-C ) :   1.4463
B( 65-C , 66-C ) :   0.9282 B( 65-C , 68-C ) :   1.4781 B( 66-C , 67-O ) :   2.2475
B( 68-C , 69-C ) :   1.1716 B( 68-C , 94-H ) :   1.0141 B( 69-C , 70-C ) :   1.2645
B( 69-C , 75-C ) :   1.2431 B( 70-C , 71-C ) :   1.1937 B( 70-C , 72-C ) :   1.2501
B( 71-C , 95-H ) :   0.9939 B( 72-C , 73-C ) :   1.4819 B( 72-C , 96-H ) :   0.9967
B( 73-C , 74-C ) :   1.2591 B( 73-C , 97-H ) :   0.9889 B( 74-C , 75-C ) :   1.4756
B( 74-C , 98-H ) :   0.9914 B( 75-C , 99-H ) :   0.9988

-----------------------------------------------------------------------------
         ABSORPTION SPECTRUM VIA TRANSITION ELECTRIC DIPOLE MOMENTS
-----------------------------------------------------------------------------
State   Energy  Wavelength   fosc         T2         TX        TY        TZ
        (cm-1)    (nm)                  (au**2)     (au)      (au)      (au)
-----------------------------------------------------------------------------
   0   11070.3    903.3   0.221111021   6.57544   2.04341   1.13384  -1.05561
   1   14785.6    676.3   0.791589943  17.62530  -3.14099  -2.16840   1.74859
   2   17755.9    563.2   0.047544441   0.88152  -0.85499  -0.25787   0.28986
   3   18809.9    531.6   0.246744967   4.31856   1.97096   0.22534  -0.61893
   4   19791.5    505.3   0.148977385   2.47809   0.48279   1.31372  -0.72052
   5   20886.0    478.8   0.020298944   0.31996  -0.15604   0.51994  -0.15898
   6   21256.9    470.4   0.010397991   0.16104   0.11165  -0.37119  -0.10386
   7   21291.9    469.7   0.001250016   0.01933  -0.03619  -0.12973  -0.03447
   8   22540.8    443.6   0.056146023   0.82002  -0.88793  -0.02127   0.17649
   9   23147.5    432.0   0.001557731   0.02215   0.14585  -0.02825   0.00925
  10   23702.7    421.9   0.182510799   2.53494  -1.11115   1.02406   0.50157
  11   24095.7    415.0   0.090020740   1.22993   0.88490  -0.63517  -0.20842
  12   24240.5    412.5   0.059614969   0.80964  -0.79001   0.14276   0.40637
  13   24468.7    408.7   0.029642682   0.39882   0.44212  -0.37497  -0.25049
  14   24769.6    403.7   0.192514500   2.55871  -0.50508  -1.33824   0.71604
  15   25034.2    399.5   0.168599829   2.21717  -0.87821   1.20245  -0.00617
  16   25365.0    394.2   0.242826221   3.15163  -0.83472  -1.38624   0.73022
  17   25496.3    392.2   0.440625149   5.68942   1.06788   1.87120  -1.02355
  18   25766.9    388.1   0.022062837   0.28189  -0.02509   0.51485  -0.12724
  19   26273.8    380.6   0.134854652   1.68974  -0.72392   1.05932   0.20864
  20   26525.2    377.0   0.134208284   1.66570   0.84937   0.94042  -0.24468
  21   26706.6    374.4   0.017186917   0.21186  -0.07646   0.36030  -0.27605
  22   26862.7    372.3   0.000040335   0.00049  -0.00453  -0.00409  -0.02138
  23   26959.5    370.9   0.041618616   0.50822   0.40331   0.42818  -0.40278
  24   27087.2    369.2   0.215885905   2.62383  -0.65632   1.47911   0.07296
  25   27466.1    364.1   0.109322221   1.31035   0.29342  -1.08289   0.22715
  26   27863.5    358.9   0.055879517   0.66023  -0.34625   0.72828   0.09975
  27   28070.2    356.2   0.008529524   0.10004   0.11146   0.28444   0.08190
  28   28185.4    354.8   0.006012358   0.07023   0.19995   0.12345  -0.12249
  29   28432.1    351.7   0.024011517   0.27803  -0.37540   0.35446   0.10706
  30   28932.6    345.6   0.019246986   0.21900   0.34560   0.23220  -0.21366
  31   29164.6    342.9   0.020477400   0.23115  -0.01279  -0.47742   0.05533
  32   29286.0    341.5   0.009262721   0.10412   0.08815  -0.27584  -0.14236
  33   29382.0    340.3   0.083549777   0.93614  -0.19777   0.93938   0.12083
  34   29763.8    336.0   0.024976186   0.27626  -0.26907   0.41565   0.17634
  35   29819.2    335.4   0.004132069   0.04562  -0.09993   0.17881   0.06049
  36   29998.0    333.4   0.041962681   0.46052  -0.10836   0.33977   0.57735
  37   30373.3    329.2   0.032526292   0.35255  -0.06599   0.58922  -0.03189
  38   30447.6    328.4   0.089162202   0.96406   0.61307   0.71370  -0.28076
  39   30904.2    323.6   0.036305730   0.38675  -0.00717   0.62181   0.00736
  40   31010.4    322.5   0.255117166   2.70837   0.76149  -1.42380  -0.31824
  41   31079.6    321.8   0.069595096   0.73719   0.62899   0.35591  -0.46356
  42   31613.9    316.3   0.020385374   0.21228   0.21605   0.40689  -0.00646
  43   31784.2    314.6   0.003675457   0.03807   0.19328   0.01668  -0.02086
  44   31995.1    312.5   0.010945191   0.11262  -0.21691  -0.05640   0.24978
  45   32321.1    309.4   0.124241318   1.26548   0.51309  -0.84680  -0.53399
  46   32420.8    308.4   0.002379073   0.02416   0.08130  -0.09161  -0.09568
  47   32585.3    306.9   0.021422874   0.21644  -0.00562   0.34211  -0.31522
  48   32701.6    305.8   0.269960352   2.71773   0.73354  -1.37648  -0.53380
  49   32927.8    303.7   0.018402287   0.18399  -0.12287  -0.26733   0.31213
  50   32991.0    303.1   0.003439195   0.03432  -0.06018  -0.16850  -0.04801
  51   33161.7    301.6   0.019965239   0.19820  -0.08809   0.43638  -0.00468
  52   33275.6    300.5   0.180008780   1.78092   0.41235  -1.15599  -0.52399
  53   33367.6    299.7   0.022933910   0.22627  -0.26100   0.38066   0.11511
  54   33556.3    298.0   0.018431165   0.18082   0.22462  -0.35057   0.08643
  55   33832.1    295.6   0.011915742   0.11595   0.01639  -0.33805  -0.03747
  56   33955.5    294.5   0.099653267   0.96618  -0.39969   0.87488   0.20249
  57   34029.6    293.9   0.011669368   0.11289  -0.13656   0.08128   0.29604
  58   34176.6    292.6   0.027975815   0.26948   0.19279   0.32455  -0.35635
  59   34292.2    291.6   0.013149555   0.12624  -0.12411  -0.33291  -0.00179
  60   34565.8    289.3   0.115777111   1.10269  -0.46167   0.83911   0.43063
  61   34814.0    287.2   0.333576106   3.15440  -0.59446   1.44413   0.84588
  62   34888.4    286.6   0.025770404   0.24317  -0.19343   0.35068   0.28771
  63   34993.1    285.8   0.026754627   0.25170   0.37574  -0.01721  -0.33201
  64   35137.2    284.6   0.250678277   2.34869  -0.95035   0.29843   1.16467
  65   35431.9    282.2   0.012046203   0.11193   0.13921   0.22887  -0.20041
  66   35628.1    280.7   0.009107824   0.08416   0.05910   0.24714  -0.13996
  67   35858.6    278.9   0.000957044   0.00879  -0.06976  -0.03150   0.05410
  68   36205.4    276.2   0.014413976   0.13106   0.11503   0.33950   0.05074
  69   36285.8    275.6   0.086480129   0.78461   0.45737  -0.66144  -0.37137
  70   36340.8    275.2   0.072376710   0.65566   0.29061  -0.50625  -0.56117
  71   36362.3    275.0   0.022910720   0.20743   0.30879  -0.07101  -0.32716
  72   36513.5    273.9   0.011851032   0.10685  -0.11371   0.19789   0.23401
  73   37043.2    270.0   0.120902181   1.07449   0.64285  -0.26114  -0.77009
  74   37107.8    269.5   0.020744009   0.18404  -0.21165  -0.04986   0.36980
  75   37214.0    268.7   0.234954028   2.07851  -0.78659   0.43826   1.12593
  76   37302.2    268.1   0.065451168   0.57764  -0.35769   0.56347   0.36360
  77   37402.2    267.4   0.007408317   0.06521   0.18679   0.17185   0.02799
  78   37449.0    267.0   0.022515419   0.19793   0.23745   0.36818  -0.07743
  79   37652.5    265.6   0.036629518   0.32027   0.48247   0.01581  -0.29536
  80   37850.4    264.2   0.042586791   0.37041  -0.30098   0.25252   0.46481
  81   38037.7    262.9   0.008941813   0.07739   0.15534   0.15915   0.16713
  82   38189.1    261.9   0.014204194   0.12245  -0.07259   0.34142   0.02476
  83   38310.1    261.0   0.047657459   0.40954   0.19092  -0.34196  -0.50611
  84   38416.9    260.3   0.028662516   0.24562  -0.10718   0.30937  -0.37206
  85   38483.0    259.9   0.015981639   0.13672  -0.18616   0.11908   0.29645
  86   38781.7    257.9   0.086766130   0.73654   0.65858   0.13565  -0.53330
  87   38819.4    257.6   0.122184933   1.03620   0.71324   0.33142  -0.64626
  88   38945.2    256.8   0.054679964   0.46222  -0.47090  -0.07812   0.48412
  89   39062.9    256.0   0.018112493   0.15265   0.12156  -0.36709  -0.05582
  90   39200.2    255.1   0.052773735   0.44321   0.11845   0.60193  -0.25857
  91   39331.9    254.2   0.000689707   0.00577   0.04818  -0.00298   0.05867
  92   39389.3    253.9   0.049651601   0.41498  -0.42275   0.11365   0.47260
  93   39670.2    252.1   0.041226485   0.34213   0.24783  -0.52579  -0.06517
  94   39736.8    251.7   0.039853886   0.33018   0.18725  -0.46876  -0.27456
  95   39951.7    250.3   0.122769076   1.01165   0.60449  -0.40867  -0.69226
  96   40201.5    248.7   0.054628255   0.44735  -0.21290   0.60133  -0.20107
  97   40325.4    248.0   0.041946592   0.34245   0.30640  -0.08952  -0.49046

FINAL SINGLE POINT ENERGY     -3581.143306401224

DIPOLE MOMENT
-------------
                                X             Y             Z
Electronic contribution:     13.93457     -31.13157     -10.94008
Nuclear contribution   :    -14.08296      34.06612      12.39808
                        -----------------------------------------
Total Dipole Moment    :     -0.14840       2.93454       1.45800
                        -----------------------------------------
Magnitude (a.u.)       :      3.28014
Magnitude (Debye)      :      8.33746

Rotational constants in cm-1:     0.001102     0.000710     0.000455
Rotational constants in MHz :    33.030213    21.283030    13.640088

                             ****ORCA TERMINATED NORMALLY****
TOTAL RUN TIME: 0 days 0 hours 12 minutes 46 seconds 540 msec
