                         Program Version 4.2.0 -  RELEASE  -
|  1> # ORCA input file
|  2> # SCF done       -222.914859376003          0.000278065345
|  3> ! CAM-B3LYP def2-SVP def2/J RIJCOSX Grid4 TightSCF
|  4> %maxcore 5000
|  5> %tddft
|  6>     Mode sTDDFT
|  7>     Ethresh 5.0
|  8>     maxcore 5000
|  9> end
| 10>
| 11> %pal
| 12>   nprocs 6
| 13>   end
| 14> * xyz 0 1
| 15>    C        0.31756        -5.18543         7.19681
| 16>    O        1.00330        -6.14830         6.93393
| 17>    C       -0.90807        -5.15653         7.98389
| 18>    C       -1.40969        -3.86646         8.10458
| 19>    C       -2.59424        -3.81649         8.86470
| 20>    C       -2.94770        -5.06165         9.29495
| 21>    S       -1.86972        -6.31089         8.79507
| 22>    C       -0.54219        -2.95611         7.38773
| 23>    C       -0.77868        -1.61500         7.24447
| 24>    C       -1.90053        -0.99650         7.83907
| 25>    N       -2.80202        -0.46972         8.31390
| 26>    C       -0.00031        -0.69814         6.50916
| 27>    N        0.57268         0.10507         5.92143
| 28>    C        0.55275        -3.75198         6.83764
| 29>    C        1.62905        -3.21096         6.19993
| 30>    C        2.72983        -3.81588         5.55049
| 31>    C        2.98767        -5.12268         5.15989
| 32>    C        4.19702        -5.23520         4.48465
| 33>    C        4.88331        -4.00609         4.36364
| 34>    S        4.02454        -2.71612         5.05715
| 35>    C        6.10337        -4.22385         3.67711
| 36>    C        6.18102        -5.59708         3.35610
| 37>    C        4.98844        -6.27402         3.84700
| 38>    C        4.68326        -7.59522         3.71253
| 39>    C        3.47560        -8.16229         4.17586
| 40>    N        2.49680        -8.64807         4.52069
| 41>    C        5.56392        -8.49327         3.07037
| 42>    N        6.28529        -9.21733         2.55144
| 43>    C        7.33688        -5.90489         2.66248
| 44>    C        8.15013        -4.78738         2.45644
| 45>    S        7.45402        -3.32685         3.15132
| 46>    C        9.37146        -4.85088         1.74722
| 47>    C       10.35139        -3.89825         1.46269
| 48>    C       10.28098        -2.52340         1.89390
| 49>    O        9.35131        -2.04748         2.53340
| 50>    C       11.43304        -1.69863         1.49354
| 51>    C       12.51313        -2.21505         0.73186
| 52>    C       13.46173        -1.25309         0.47150
| 53>    S       13.06155         0.27576         1.14284
| 54>    C       11.60353        -0.36473         1.78449
| 55>    C       10.68799         0.52854         2.56435
| 56>    F        9.48668         0.65983         1.99585
| 57>    F       10.50265         0.10907         3.81872
| 58>    F       11.20206         1.76841         2.65239
| 59>    C       14.73510        -1.40602        -0.30258
| 60>    F       14.52755        -1.78215        -1.56759
| 61>    F       15.39481        -0.23516        -0.36050
| 62>    F       15.57566        -2.28336         0.25127
| 63>    C       12.57497        -3.62035         0.29688
| 64>    O       13.52838        -4.04457        -0.34435
| 65>    C       11.44273        -4.41992         0.69532
| 66>    C       11.29636        -5.77116         0.37516
| 67>    S        9.80998        -6.39096         1.05049
| 68>    C       12.09057        -6.67029        -0.37192
| 69>    C       11.70812        -7.99113        -0.62108
| 70>    C       12.63693        -8.67504        -1.38304
| 71>    C       13.75161        -7.87209        -1.71366
| 72>    S       13.64788        -6.28654        -1.10122
| 73>    C       14.64249        -8.65997        -2.48690
| 74>    C       14.08923        -9.94568        -2.64823
| 75>    C       12.81730       -10.00218        -1.95157
| 76>    C       11.99393       -11.08272        -1.83507
| 77>    C       10.77478       -11.02130        -1.12736
| 78>    N        9.78006       -10.95909        -0.56150
| 79>    C       12.32334       -12.32179        -2.42406
| 80>    N       12.60815       -13.31929        -2.91260
| 81>    C       14.90776       -10.80081        -3.37723
| 82>    C       16.08814       -10.18684        -3.76455
| 83>    S       16.15649        -8.50794        -3.24729
| 84>    C       17.15374       -10.71899        -4.53162
| 85>    C       17.49387       -12.01641        -4.73782
| 86>    C       18.40199       -12.33394        -5.89365
| 87>    O       19.03646       -11.53753        -6.54351
| 88>    C       18.27797       -13.77654        -6.04251
| 89>    C       17.49324       -14.32271        -5.03110
| 90>    C       17.09252       -13.26960        -4.11707
| 91>    C       16.65730       -13.48853        -2.83740
| 92>    C       16.41079       -14.79096        -2.34988
| 93>    N       16.20731       -15.84072        -1.93614
| 94>    C       16.49889       -12.49297        -1.85521
| 95>    N       16.38543       -11.72341        -1.01083
| 96>    C       17.35519       -15.71837        -5.14538
| 97>    C       18.02845       -16.18515        -6.23623
| 98>    S       18.84871       -14.96256        -7.13254
| 99>    H       -3.15365        -2.92696         9.08653
|100>    H       -3.80128        -5.32144         9.89019
|101>    H        1.67223        -2.12785         6.17726
|102>    H        2.31857        -5.93628         5.37366
|103>    H        7.60232        -6.88701         2.31236
|104>    H       10.78600        -8.40800        -0.25517
|105>    H       14.64876       -11.80582        -3.65618
|106>    H       17.75426        -9.99933        -5.08026
|107>    H       16.79042       -16.34213        -4.47787
|108>    H       18.09483       -17.20278        -6.56854
|109> *
|110>
|111>                          ****END OF INPUT****

CARTESIAN COORDINATES (ANGSTROEM)
---------------------------------
  C      0.317560   -5.185430    7.196810
  O      1.003300   -6.148300    6.933930
  C     -0.908070   -5.156530    7.983890
  C     -1.409690   -3.866460    8.104580
  C     -2.594240   -3.816490    8.864700
  C     -2.947700   -5.061650    9.294950
  S     -1.869720   -6.310890    8.795070
  C     -0.542190   -2.956110    7.387730
  C     -0.778680   -1.615000    7.244470
  C     -1.900530   -0.996500    7.839070
  N     -2.802020   -0.469720    8.313900
  C     -0.000310   -0.698140    6.509160
  N      0.572680    0.105070    5.921430
  C      0.552750   -3.751980    6.837640
  C      1.629050   -3.210960    6.199930
  C      2.729830   -3.815880    5.550490
  C      2.987670   -5.122680    5.159890
  C      4.197020   -5.235200    4.484650
  C      4.883310   -4.006090    4.363640
  S      4.024540   -2.716120    5.057150
  C      6.103370   -4.223850    3.677110
  C      6.181020   -5.597080    3.356100
  C      4.988440   -6.274020    3.847000
  C      4.683260   -7.595220    3.712530
  C      3.475600   -8.162290    4.175860
  N      2.496800   -8.648070    4.520690
  C      5.563920   -8.493270    3.070370
  N      6.285290   -9.217330    2.551440
  C      7.336880   -5.904890    2.662480
  C      8.150130   -4.787380    2.456440
  S      7.454020   -3.326850    3.151320
  C      9.371460   -4.850880    1.747220
  C     10.351390   -3.898250    1.462690
  C     10.280980   -2.523400    1.893900
  O      9.351310   -2.047480    2.533400
  C     11.433040   -1.698630    1.493540
  C     12.513130   -2.215050    0.731860
  C     13.461730   -1.253090    0.471500
  S     13.061550    0.275760    1.142840
  C     11.603530   -0.364730    1.784490
  C     10.687990    0.528540    2.564350
  F      9.486680    0.659830    1.995850
  F     10.502650    0.109070    3.818720
  F     11.202060    1.768410    2.652390
  C     14.735100   -1.406020   -0.302580
  F     14.527550   -1.782150   -1.567590
  F     15.394810   -0.235160   -0.360500
  F     15.575660   -2.283360    0.251270
  C     12.574970   -3.620350    0.296880
  O     13.528380   -4.044570   -0.344350
  C     11.442730   -4.419920    0.695320
  C     11.296360   -5.771160    0.375160
  S      9.809980   -6.390960    1.050490
  C     12.090570   -6.670290   -0.371920
  C     11.708120   -7.991130   -0.621080
  C     12.636930   -8.675040   -1.383040
  C     13.751610   -7.872090   -1.713660
  S     13.647880   -6.286540   -1.101220
  C     14.642490   -8.659970   -2.486900
  C     14.089230   -9.945680   -2.648230
  C     12.817300  -10.002180   -1.951570
  C     11.993930  -11.082720   -1.835070
  C     10.774780  -11.021300   -1.127360
  N      9.780060  -10.959090   -0.561500
  C     12.323340  -12.321790   -2.424060
  N     12.608150  -13.319290   -2.912600
  C     14.907760  -10.800810   -3.377230
  C     16.088140  -10.186840   -3.764550
  S     16.156490   -8.507940   -3.247290
  C     17.153740  -10.718990   -4.531620
  C     17.493870  -12.016410   -4.737820
  C     18.401990  -12.333940   -5.893650
  O     19.036460  -11.537530   -6.543510
  C     18.277970  -13.776540   -6.042510
  C     17.493240  -14.322710   -5.031100
  C     17.092520  -13.269600   -4.117070
  C     16.657300  -13.488530   -2.837400
  C     16.410790  -14.790960   -2.349880
  N     16.207310  -15.840720   -1.936140
  C     16.498890  -12.492970   -1.855210
  N     16.385430  -11.723410   -1.010830
  C     17.355190  -15.718370   -5.145380
  C     18.028450  -16.185150   -6.236230
  S     18.848710  -14.962560   -7.132540
  H     -3.153650   -2.926960    9.086530
  H     -3.801280   -5.321440    9.890190
  H      1.672230   -2.127850    6.177260
  H      2.318570   -5.936280    5.373660
  H      7.602320   -6.887010    2.312360
  H     10.786000   -8.408000   -0.255170
  H     14.648760  -11.805820   -3.656180
  H     17.754260   -9.999330   -5.080260
  H     16.790420  -16.342130   -4.477870
  H     18.094830  -17.202780   -6.568540

 Total Charge           Charge          ....    0
 Multiplicity           Mult            ....    1
 Number of Electrons    NEL             ....  628
 Basis Dimension        Dim             .... 1258

ORBITAL ENERGIES
----------------

  NO   OCC          E(Eh)            E(eV)
   0   2.0000     -89.023796     -2422.4607
   1   2.0000     -88.999584     -2421.8018
   2   2.0000     -88.999527     -2421.8003
   3   2.0000     -88.999172     -2421.7906
   4   2.0000     -88.998838     -2421.7815
   5   2.0000     -88.998456     -2421.7711
   6   2.0000     -88.992361     -2421.6053
   7   2.0000     -88.991647     -2421.5858
   8   2.0000     -24.818347      -675.3416
   9   2.0000     -24.818139      -675.3359
  10   2.0000     -24.810514      -675.1284
  11   2.0000     -24.810402      -675.1254
  12   2.0000     -24.810394      -675.1252
  13   2.0000     -24.810281      -675.1221
  14   2.0000     -19.241399      -523.5851
  15   2.0000     -19.240751      -523.5675
  16   2.0000     -19.226090      -523.1685
  17   2.0000     -19.223623      -523.1014
  18   2.0000     -14.435654      -392.8141
  19   2.0000     -14.434045      -392.7703
  20   2.0000     -14.433834      -392.7646
  21   2.0000     -14.430706      -392.6795
  22   2.0000     -14.424935      -392.5224
  23   2.0000     -14.424516      -392.5110
  24   2.0000     -14.419759      -392.3816
  25   2.0000     -14.419318      -392.3696
  26   2.0000     -10.543646      -286.9072
  27   2.0000     -10.543514      -286.9036
  28   2.0000     -10.399078      -282.9733
  29   2.0000     -10.398591      -282.9601
  30   2.0000     -10.384974      -282.5895
  31   2.0000     -10.381693      -282.5002
  32   2.0000     -10.370079      -282.1842
  33   2.0000     -10.369917      -282.1798
  34   2.0000     -10.363059      -281.9932
  35   2.0000     -10.362909      -281.9891
  36   2.0000     -10.359223      -281.8888
  37   2.0000     -10.359129      -281.8862
  38   2.0000     -10.357946      -281.8541
  39   2.0000     -10.357173      -281.8330
  40   2.0000     -10.353470      -281.7322
  41   2.0000     -10.352701      -281.7113
  42   2.0000     -10.351359      -281.6748
  43   2.0000     -10.350709      -281.6571
  44   2.0000     -10.346885      -281.5531
  45   2.0000     -10.344598      -281.4908
  46   2.0000     -10.343597      -281.4636
  47   2.0000     -10.342027      -281.4209
  48   2.0000     -10.335917      -281.2546
  49   2.0000     -10.333979      -281.2019
  50   2.0000     -10.333894      -281.1996
  51   2.0000     -10.333748      -281.1956
  52   2.0000     -10.333638      -281.1926
  53   2.0000     -10.333104      -281.1780
  54   2.0000     -10.333014      -281.1756
  55   2.0000     -10.332824      -281.1704
  56   2.0000     -10.332744      -281.1682
  57   2.0000     -10.331312      -281.1293
  58   2.0000     -10.329826      -281.0888
  59   2.0000     -10.328777      -281.0603
  60   2.0000     -10.327227      -281.0181
  61   2.0000     -10.326474      -280.9977
  62   2.0000     -10.325776      -280.9786
  63   2.0000     -10.324942      -280.9559
  64   2.0000     -10.322308      -280.8843
  65   2.0000     -10.321216      -280.8546
  66   2.0000     -10.320757      -280.8421
  67   2.0000     -10.320725      -280.8412
  68   2.0000     -10.320040      -280.8226
  69   2.0000     -10.319506      -280.8080
  70   2.0000     -10.317440      -280.7518
  71   2.0000     -10.317431      -280.7516
  72   2.0000     -10.317345      -280.7492
  73   2.0000     -10.315501      -280.6990
  74   2.0000     -10.315125      -280.6888
  75   2.0000     -10.314437      -280.6701
  76   2.0000     -10.312986      -280.6306
  77   2.0000     -10.312491      -280.6171
  78   2.0000     -10.312258      -280.6108
  79   2.0000     -10.310986      -280.5762
  80   2.0000     -10.310315      -280.5579
  81   2.0000     -10.308751      -280.5154
  82   2.0000     -10.302820      -280.3540
  83   2.0000     -10.302000      -280.3317
  84   2.0000      -8.118608      -220.9186
  85   2.0000      -8.094766      -220.2698
  86   2.0000      -8.093989      -220.2486
  87   2.0000      -8.093266      -220.2290
  88   2.0000      -8.091317      -220.1759
  89   2.0000      -8.090672      -220.1584
  90   2.0000      -8.087461      -220.0710
  91   2.0000      -8.086685      -220.0499
  92   2.0000      -6.087718      -165.6552
  93   2.0000      -6.083186      -165.5319
  94   2.0000      -6.081417      -165.4838
  95   2.0000      -6.064261      -165.0169
  96   2.0000      -6.063092      -164.9851
  97   2.0000      -6.062296      -164.9634
  98   2.0000      -6.060775      -164.9221
  99   2.0000      -6.060119      -164.9042
 100   2.0000      -6.059904      -164.8984
 101   2.0000      -6.058961      -164.8727
 102   2.0000      -6.058196      -164.8519
 103   2.0000      -6.056606      -164.8086
 104   2.0000      -6.056544      -164.8070
 105   2.0000      -6.056513      -164.8061
 106   2.0000      -6.056079      -164.7943
 107   2.0000      -6.055889      -164.7891
 108   2.0000      -6.055839      -164.7878
 109   2.0000      -6.055425      -164.7765
 110   2.0000      -6.053802      -164.7323
 111   2.0000      -6.053164      -164.7150
 112   2.0000      -6.052185      -164.6883
 113   2.0000      -6.051365      -164.6660
 114   2.0000      -6.050182      -164.6338
 115   2.0000      -6.049441      -164.6137
 116   2.0000      -1.405993       -38.2590
 117   2.0000      -1.405822       -38.2544
 118   2.0000      -1.308165       -35.5970
 119   2.0000      -1.307993       -35.5923
 120   2.0000      -1.305389       -35.5214
 121   2.0000      -1.305330       -35.5198
 122   2.0000      -1.162412       -31.6308
 123   2.0000      -1.159584       -31.5539
 124   2.0000      -1.143608       -31.1192
 125   2.0000      -1.140942       -31.0466
 126   2.0000      -1.053900       -28.6781
 127   2.0000      -1.052847       -28.6494
 128   2.0000      -1.046945       -28.4888
 129   2.0000      -1.034693       -28.1554
 130   2.0000      -1.033016       -28.1098
 131   2.0000      -1.032516       -28.0962
 132   2.0000      -1.026643       -27.9364
 133   2.0000      -1.024833       -27.8871
 134   2.0000      -1.015175       -27.6243
 135   2.0000      -1.015113       -27.6226
 136   2.0000      -1.012644       -27.5555
 137   2.0000      -1.009841       -27.4792
 138   2.0000      -1.007911       -27.4267
 139   2.0000      -1.002267       -27.2731
 140   2.0000      -1.000495       -27.2248
 141   2.0000      -0.998998       -27.1841
 142   2.0000      -0.973267       -26.4839
 143   2.0000      -0.971374       -26.4324
 144   2.0000      -0.965115       -26.2621
 145   2.0000      -0.963132       -26.2082
 146   2.0000      -0.939563       -25.5668
 147   2.0000      -0.931413       -25.3450
 148   2.0000      -0.922595       -25.1051
 149   2.0000      -0.916636       -24.9429
 150   2.0000      -0.911345       -24.7990
 151   2.0000      -0.907507       -24.6945
 152   2.0000      -0.898264       -24.4430
 153   2.0000      -0.887540       -24.1512
 154   2.0000      -0.885579       -24.0978
 155   2.0000      -0.884470       -24.0677
 156   2.0000      -0.869572       -23.6623
 157   2.0000      -0.865973       -23.5643
 158   2.0000      -0.864427       -23.5222
 159   2.0000      -0.862293       -23.4642
 160   2.0000      -0.858877       -23.3712
 161   2.0000      -0.857804       -23.3420
 162   2.0000      -0.832008       -22.6401
 163   2.0000      -0.821459       -22.3530
 164   2.0000      -0.818502       -22.2726
 165   2.0000      -0.802299       -21.8317
 166   2.0000      -0.794132       -21.6094
 167   2.0000      -0.783153       -21.3107
 168   2.0000      -0.779555       -21.2128
 169   2.0000      -0.777944       -21.1689
 170   2.0000      -0.770920       -20.9778
 171   2.0000      -0.769235       -20.9320
 172   2.0000      -0.763154       -20.7665
 173   2.0000      -0.751634       -20.4530
 174   2.0000      -0.734236       -19.9796
 175   2.0000      -0.730352       -19.8739
 176   2.0000      -0.729939       -19.8627
 177   2.0000      -0.711810       -19.3693
 178   2.0000      -0.710957       -19.3461
 179   2.0000      -0.701350       -19.0847
 180   2.0000      -0.696805       -18.9610
 181   2.0000      -0.693945       -18.8832
 182   2.0000      -0.690429       -18.7875
 183   2.0000      -0.688183       -18.7264
 184   2.0000      -0.687913       -18.7191
 185   2.0000      -0.687440       -18.7062
 186   2.0000      -0.687177       -18.6990
 187   2.0000      -0.682896       -18.5825
 188   2.0000      -0.679933       -18.5019
 189   2.0000      -0.672482       -18.2992
 190   2.0000      -0.671541       -18.2736
 191   2.0000      -0.663576       -18.0568
 192   2.0000      -0.653305       -17.7773
 193   2.0000      -0.649439       -17.6721
 194   2.0000      -0.644294       -17.5321
 195   2.0000      -0.639963       -17.4143
 196   2.0000      -0.636782       -17.3277
 197   2.0000      -0.630538       -17.1578
 198   2.0000      -0.630277       -17.1507
 199   2.0000      -0.625909       -17.0318
 200   2.0000      -0.625400       -17.0180
 201   2.0000      -0.616202       -16.7677
 202   2.0000      -0.615402       -16.7459
 203   2.0000      -0.610705       -16.6181
 204   2.0000      -0.605746       -16.4832
 205   2.0000      -0.604495       -16.4491
 206   2.0000      -0.594804       -16.1854
 207   2.0000      -0.583310       -15.8727
 208   2.0000      -0.579308       -15.7638
 209   2.0000      -0.577596       -15.7172
 210   2.0000      -0.573126       -15.5955
 211   2.0000      -0.572241       -15.5715
 212   2.0000      -0.567682       -15.4474
 213   2.0000      -0.564071       -15.3492
 214   2.0000      -0.561431       -15.2773
 215   2.0000      -0.559298       -15.2193
 216   2.0000      -0.557668       -15.1749
 217   2.0000      -0.555888       -15.1265
 218   2.0000      -0.555193       -15.1076
 219   2.0000      -0.554241       -15.0817
 220   2.0000      -0.549124       -14.9424
 221   2.0000      -0.547943       -14.9103
 222   2.0000      -0.546450       -14.8697
 223   2.0000      -0.541037       -14.7224
 224   2.0000      -0.537997       -14.6396
 225   2.0000      -0.534187       -14.5360
 226   2.0000      -0.533405       -14.5147
 227   2.0000      -0.529579       -14.4106
 228   2.0000      -0.529110       -14.3978
 229   2.0000      -0.526487       -14.3264
 230   2.0000      -0.523942       -14.2572
 231   2.0000      -0.520142       -14.1538
 232   2.0000      -0.519769       -14.1436
 233   2.0000      -0.518694       -14.1144
 234   2.0000      -0.516837       -14.0638
 235   2.0000      -0.515442       -14.0259
 236   2.0000      -0.512084       -13.9345
 237   2.0000      -0.510638       -13.8952
 238   2.0000      -0.509638       -13.8679
 239   2.0000      -0.508309       -13.8318
 240   2.0000      -0.506826       -13.7914
 241   2.0000      -0.505747       -13.7621
 242   2.0000      -0.504118       -13.7177
 243   2.0000      -0.500933       -13.6311
 244   2.0000      -0.499381       -13.5888
 245   2.0000      -0.498002       -13.5513
 246   2.0000      -0.497786       -13.5454
 247   2.0000      -0.496514       -13.5108
 248   2.0000      -0.494718       -13.4620
 249   2.0000      -0.492951       -13.4139
 250   2.0000      -0.490967       -13.3599
 251   2.0000      -0.489639       -13.3237
 252   2.0000      -0.486979       -13.2514
 253   2.0000      -0.484478       -13.1833
 254   2.0000      -0.484285       -13.1781
 255   2.0000      -0.480956       -13.0875
 256   2.0000      -0.479023       -13.0349
 257   2.0000      -0.478560       -13.0223
 258   2.0000      -0.476788       -12.9741
 259   2.0000      -0.474258       -12.9052
 260   2.0000      -0.472608       -12.8603
 261   2.0000      -0.465352       -12.6629
 262   2.0000      -0.462966       -12.5979
 263   2.0000      -0.462535       -12.5862
 264   2.0000      -0.462053       -12.5731
 265   2.0000      -0.458143       -12.4667
 266   2.0000      -0.457518       -12.4497
 267   2.0000      -0.457140       -12.4394
 268   2.0000      -0.454341       -12.3633
 269   2.0000      -0.453622       -12.3437
 270   2.0000      -0.452448       -12.3117
 271   2.0000      -0.450790       -12.2666
 272   2.0000      -0.446728       -12.1561
 273   2.0000      -0.446357       -12.1460
 274   2.0000      -0.444947       -12.1076
 275   2.0000      -0.443598       -12.0709
 276   2.0000      -0.442939       -12.0530
 277   2.0000      -0.442084       -12.0297
 278   2.0000      -0.441560       -12.0155
 279   2.0000      -0.437166       -11.8959
 280   2.0000      -0.435892       -11.8612
 281   2.0000      -0.435074       -11.8390
 282   2.0000      -0.434173       -11.8144
 283   2.0000      -0.433374       -11.7927
 284   2.0000      -0.432895       -11.7797
 285   2.0000      -0.429682       -11.6922
 286   2.0000      -0.428986       -11.6733
 287   2.0000      -0.426401       -11.6030
 288   2.0000      -0.418590       -11.3904
 289   2.0000      -0.418113       -11.3774
 290   2.0000      -0.416645       -11.3375
 291   2.0000      -0.414675       -11.2839
 292   2.0000      -0.402801       -10.9608
 293   2.0000      -0.391016       -10.6401
 294   2.0000      -0.379944       -10.3388
 295   2.0000      -0.378511       -10.2998
 296   2.0000      -0.365008        -9.9324
 297   2.0000      -0.364619        -9.9218
 298   2.0000      -0.363632        -9.8949
 299   2.0000      -0.363031        -9.8786
 300   2.0000      -0.356219        -9.6932
 301   2.0000      -0.354254        -9.6397
 302   2.0000      -0.352257        -9.5854
 303   2.0000      -0.350629        -9.5411
 304   2.0000      -0.349049        -9.4981
 305   2.0000      -0.345255        -9.3949
 306   2.0000      -0.340015        -9.2523
 307   2.0000      -0.329512        -8.9665
 308   2.0000      -0.327269        -8.9054
 309   2.0000      -0.322347        -8.7715
 310   2.0000      -0.317632        -8.6432
 311   2.0000      -0.313641        -8.5346
 312   2.0000      -0.282113        -7.6767
 313   2.0000      -0.260186        -7.0800
 314   0.0000      -0.117751        -3.2042
 315   0.0000      -0.112860        -3.0711
 316   0.0000      -0.094433        -2.5697
 317   0.0000      -0.093267        -2.5379
 318   0.0000      -0.084108        -2.2887

MULLIKEN ATOMIC CHARGES
-----------------------
   0 C :    0.140559
   1 O :   -0.142281
   2 C :   -0.168423
   3 C :    0.005489
   4 C :    0.023941
   5 C :   -0.057866
   6 S :    0.220585
   7 C :    0.303444
   8 C :   -0.342197
   9 C :   -0.191590
  10 N :    0.158693
  11 C :   -0.182393
  12 N :    0.157758
  13 C :   -0.096584
  14 C :    0.023801
  15 C :   -0.110982
  16 C :   -0.004363
  17 C :   -0.005066
  18 C :   -0.089107
  19 S :    0.213476
  20 C :   -0.079846
  21 C :    0.047275
  22 C :    0.311204
  23 C :   -0.295708
  24 C :   -0.189615
  25 N :    0.196299
  26 C :   -0.195728
  27 N :    0.178620
  28 C :   -0.091330
  29 C :   -0.069502
  30 S :    0.261350
  31 C :   -0.079868
  32 C :    0.008480
  33 C :    0.140952
  34 O :   -0.200249
  35 C :    0.063617
  36 C :    0.072791
  37 C :   -0.345246
  38 S :    0.293384
  39 C :   -0.343426
  40 C :    0.570220
  41 F :   -0.144612
  42 F :   -0.145094
  43 F :   -0.163858
  44 C :    0.570953
  45 F :   -0.145908
  46 F :   -0.164229
  47 F :   -0.144499
  48 C :    0.141651
  49 O :   -0.201174
  50 C :   -0.002618
  51 C :   -0.076035
  52 S :    0.145819
  53 C :   -0.073065
  54 C :   -0.088945
  55 C :    0.048095
  56 C :   -0.079196
  57 S :    0.260332
  58 C :   -0.077114
  59 C :   -0.003933
  60 C :    0.307148
  61 C :   -0.287975
  62 C :   -0.193673
  63 N :    0.183133
  64 C :   -0.183819
  65 N :    0.173067
  66 C :   -0.007138
  67 C :   -0.107657
  68 S :    0.221467
  69 C :    0.076587
  70 C :   -0.144382
  71 C :    0.114430
  72 O :   -0.138326
  73 C :   -0.151408
  74 C :   -0.019557
  75 C :    0.273881
  76 C :   -0.319151
  77 C :   -0.173542
  78 N :    0.161297
  79 C :   -0.197967
  80 N :    0.174375
  81 C :    0.035191
  82 C :   -0.061043
  83 S :    0.214264
  84 H :    0.019067
  85 H :    0.045163
  86 H :    0.008428
  87 H :    0.037207
  88 H :    0.028315
  89 H :    0.028160
  90 H :    0.024116
  91 H :    0.024201
  92 H :    0.022894
  93 H :    0.046110
Sum of atomic charges:   -0.0000000

LOEWDIN ATOMIC CHARGES
----------------------
   0 C :    0.069977
   1 O :   -0.132380
   2 C :   -0.207667
   3 C :   -0.040394
   4 C :   -0.043929
   5 C :   -0.148028
   6 S :    0.510312
   7 C :    0.076488
   8 C :   -0.136854
   9 C :   -0.016923
  10 N :   -0.049368
  11 C :   -0.024519
  12 N :   -0.046326
  13 C :   -0.087604
  14 C :    0.034288
  15 C :   -0.174885
  16 C :    0.013378
  17 C :   -0.069303
  18 C :   -0.164002
  19 S :    0.502129
  20 C :   -0.191023
  21 C :   -0.059743
  22 C :    0.074170
  23 C :   -0.094410
  24 C :   -0.022806
  25 N :   -0.015179
  26 C :   -0.017652
  27 N :   -0.025786
  28 C :   -0.023986
  29 C :   -0.193950
  30 S :    0.559164
  31 C :   -0.115001
  32 C :   -0.104982
  33 C :    0.080047
  34 O :   -0.169911
  35 C :   -0.063664
  36 C :   -0.063032
  37 C :   -0.205711
  38 S :    0.570414
  39 C :   -0.205345
  40 C :    0.144484
  41 F :   -0.043861
  42 F :   -0.044129
  43 F :   -0.065027
  44 C :    0.144673
  45 F :   -0.044985
  46 F :   -0.065277
  47 F :   -0.043675
  48 C :    0.079749
  49 O :   -0.170949
  50 C :   -0.107325
  51 C :   -0.112981
  52 S :    0.494800
  53 C :   -0.197356
  54 C :   -0.020886
  55 C :   -0.062610
  56 C :   -0.184775
  57 S :    0.560255
  58 C :   -0.163733
  59 C :   -0.060736
  60 C :    0.080998
  61 C :   -0.097875
  62 C :   -0.019511
  63 N :   -0.023772
  64 C :   -0.012935
  65 N :   -0.032142
  66 C :    0.003421
  67 C :   -0.178804
  68 S :    0.504454
  69 C :    0.035493
  70 C :   -0.081725
  71 C :    0.066447
  72 O :   -0.139200
  73 C :   -0.212737
  74 C :   -0.034248
  75 C :    0.065253
  76 C :   -0.130706
  77 C :   -0.017024
  78 N :   -0.041957
  79 C :   -0.016731
  80 N :   -0.041334
  81 C :   -0.043358
  82 C :   -0.146015
  83 S :    0.505425
  84 H :    0.043969
  85 H :    0.032095
  86 H :    0.042989
  87 H :    0.043493
  88 H :    0.033606
  89 H :    0.034093
  90 H :    0.042028
  91 H :    0.046815
  92 H :    0.045388
  93 H :    0.032450

  Mayer bond orders larger than 0.100000
B(  0-C ,  1-O ) :   2.1639 B(  0-C ,  2-C ) :   1.0663 B(  0-C , 13-C ) :   0.9257
B(  2-C ,  3-C ) :   1.4553 B(  2-C ,  6-S ) :   1.1331 B(  3-C ,  4-C ) :   1.2678
B(  3-C ,  7-C ) :   1.0031 B(  4-C ,  5-C ) :   1.5422 B(  4-C , 84-H ) :   0.9958
B(  5-C ,  6-S ) :   1.1869 B(  5-C , 85-H ) :   0.9622 B(  7-C ,  8-C ) :   1.6467
B(  7-C , 13-C ) :   1.0680 B(  8-C ,  9-C ) :   1.1485 B(  8-C , 11-C ) :   1.1322
B(  9-C , 10-N ) :   2.9893 B( 11-C , 12-N ) :   2.9720 B( 13-C , 14-C ) :   1.6539
B( 14-C , 15-C ) :   1.1833 B( 14-C , 86-H ) :   0.9124 B( 15-C , 16-C ) :   1.4169
B( 15-C , 19-S ) :   1.0867 B( 16-C , 17-C ) :   1.3067 B( 16-C , 87-H ) :   0.9724
B( 17-C , 18-C ) :   1.3905 B( 17-C , 22-C ) :   0.9965 B( 18-C , 19-S ) :   1.1632
B( 18-C , 20-C ) :   1.1932 B( 20-C , 21-C ) :   1.3870 B( 20-C , 30-S ) :   1.1014
B( 21-C , 22-C ) :   0.9829 B( 21-C , 28-C ) :   1.3622 B( 22-C , 23-C ) :   1.7189
B( 23-C , 24-C ) :   1.1335 B( 23-C , 26-C ) :   1.1365 B( 24-C , 25-N ) :   2.9979
B( 26-C , 27-N ) :   2.9849 B( 28-C , 29-C ) :   1.3678 B( 28-C , 88-H ) :   0.9776
B( 29-C , 30-S ) :   1.1118 B( 29-C , 31-C ) :   1.2264 B( 30-S , 34-O ) :   0.1023
B( 31-C , 32-C ) :   1.4606 B( 31-C , 52-S ) :   1.1334 B( 32-C , 33-C ) :   1.0374
B( 32-C , 50-C ) :   1.1365 B( 33-C , 34-O ) :   2.0432 B( 33-C , 35-C ) :   0.9671
B( 35-C , 36-C ) :   1.2303 B( 35-C , 39-C ) :   1.5685 B( 36-C , 37-C ) :   1.5660
B( 36-C , 48-C ) :   0.9680 B( 37-C , 38-S ) :   1.1947 B( 37-C , 44-C ) :   0.9297
B( 38-S , 39-C ) :   1.1953 B( 39-C , 40-C ) :   0.9289 B( 40-C , 41-F ) :   1.1859
B( 40-C , 42-F ) :   1.1853 B( 40-C , 43-F ) :   1.1521 B( 44-C , 45-F ) :   1.1846
B( 44-C , 46-F ) :   1.1514 B( 44-C , 47-F ) :   1.1858 B( 48-C , 49-O ) :   2.0421
B( 48-C , 50-C ) :   1.0377 B( 49-O , 57-S ) :   0.1026 B( 50-C , 51-C ) :   1.4592
B( 51-C , 52-S ) :   1.1340 B( 51-C , 53-C ) :   1.2299 B( 53-C , 54-C ) :   1.3680
B( 53-C , 57-S ) :   1.1078 B( 54-C , 55-C ) :   1.3643 B( 54-C , 89-H ) :   0.9781
B( 55-C , 56-C ) :   1.3868 B( 55-C , 60-C ) :   0.9839 B( 56-C , 57-S ) :   1.1085
B( 56-C , 58-C ) :   1.1868 B( 58-C , 59-C ) :   1.4204 B( 58-C , 68-S ) :   1.1495
B( 59-C , 60-C ) :   1.0013 B( 59-C , 66-C ) :   1.3431 B( 60-C , 61-C ) :   1.7195
B( 61-C , 62-C ) :   1.1340 B( 61-C , 64-C ) :   1.1339 B( 62-C , 63-N ) :   2.9892
B( 64-C , 65-N ) :   2.9834 B( 66-C , 67-C ) :   1.4142 B( 66-C , 90-H ) :   0.9811
B( 67-C , 68-S ) :   1.0999 B( 67-C , 69-C ) :   1.1048 B( 69-C , 70-C ) :   1.7291
B( 69-C , 91-H ) :   0.9266 B( 70-C , 71-C ) :   0.9393 B( 70-C , 75-C ) :   1.0165
B( 71-C , 72-O ) :   2.2408 B( 71-C , 73-C ) :   1.0333 B( 73-C , 74-C ) :   1.4499
B( 73-C , 83-S ) :   1.1281 B( 74-C , 75-C ) :   1.0204 B( 74-C , 81-C ) :   1.2765
B( 75-C , 76-C ) :   1.6691 B( 76-C , 77-C ) :   1.1255 B( 76-C , 79-C ) :   1.1649
B( 77-C , 78-N ) :   3.0001 B( 79-C , 80-N ) :   2.9998 B( 81-C , 82-C ) :   1.5377
B( 81-C , 92-H ) :   0.9947 B( 82-C , 83-S ) :   1.1917 B( 82-C , 93-H ) :   0.9624

-----------------------------------------------------------------------------
         ABSORPTION SPECTRUM VIA TRANSITION ELECTRIC DIPOLE MOMENTS
-----------------------------------------------------------------------------
State   Energy  Wavelength   fosc         T2         TX        TY        TZ
        (cm-1)    (nm)                  (au**2)     (au)      (au)      (au)
-----------------------------------------------------------------------------
   0   14531.7    688.2   0.674548575  15.28175  -2.89620   1.72507   1.97938
   1   15301.1    653.5   0.118222440   2.54362  -1.39481  -0.41276   0.65403
   2   19564.5    511.1   1.400262784  23.56221  -3.59065   2.25565   2.36252
   3   20373.5    490.8   0.416761234   6.73437  -1.52393  -2.06362   0.39175
   4   22867.7    437.3   0.039167962   0.56388  -0.49909  -0.11835   0.54843
   5   23070.8    433.4   0.028256613   0.40321   0.52714   0.20419   0.28921
   6   23608.8    423.6   0.036202081   0.50482  -0.48794   0.43491   0.27855
   7   24169.2    413.7   0.157360498   2.14343   0.84770  -1.10401  -0.45386
   8   26154.5    382.3   0.518777990   6.52996   2.03567  -0.67607  -1.38886
   9   26868.2    372.2   0.143291997   1.75573  -0.86694   0.83398   0.55555
  10   27514.8    363.4   0.023810092   0.28489   0.33442  -0.40276  -0.10409
  11   28429.1    351.8   0.060774340   0.70377   0.17126  -0.54335  -0.61580
  12   28693.6    348.5   0.047213952   0.54170   0.48870   0.46241  -0.29843
  13   28960.9    345.3   0.045596757   0.51832  -0.02376  -0.71850  -0.03884
  14   29699.1    336.7   0.184416191   2.04424  -1.11161  -0.27713   0.85543
  15   29932.2    334.1   0.014820404   0.16300  -0.11113  -0.35123  -0.16521
  16   30141.6    331.8   0.095854144   1.04694   0.76289   0.67273   0.11121
  17   30159.3    331.6   0.057311920   0.62560   0.07244   0.74308   0.26113
  18   30339.8    329.6   0.004361843   0.04733  -0.19814  -0.06366  -0.06337
  19   30629.6    326.5   0.047088251   0.50611  -0.00455   0.70647   0.08365
  20   31390.6    318.6   0.066258937   0.69490  -0.39260  -0.66150   0.32122
  21   31581.0    316.6   0.067069047   0.69915  -0.65262  -0.51694   0.07752
  22   31769.8    314.8   0.190616947   1.97525  -0.27280  -1.37505  -0.10039
  23   31956.7    312.9   0.068547218   0.70616   0.19476   0.75823   0.30549
  24   32247.3    310.1   0.038464863   0.39269   0.58218   0.13944   0.18521
  25   32768.0    305.2   0.114270803   1.14805  -0.48923   0.85866   0.41401
  26   32877.6    304.2   0.020086307   0.20113  -0.08420   0.22889   0.37636
  27   33081.1    302.3   0.389412893   3.87530  -0.94017   1.15686   1.28571
  28   33169.5    301.5   0.039019772   0.38728   0.55225  -0.28203  -0.05250
  29   33590.0    297.7   0.199279077   1.95312  -0.99158  -0.95469   0.24178
  30   33969.8    294.4   0.260560875   2.52518  -0.01740   1.55722   0.31614
  31   34329.8    291.3   0.430182202   4.12531  -1.20624  -1.56240   0.47875
  32   34541.0    289.5   0.174320573   1.66146  -0.85756  -0.95834  -0.08730
  33   35037.4    285.4   0.023818272   0.22380   0.44344   0.10309  -0.12858
  34   35233.1    283.8   0.051373726   0.48003  -0.46482   0.01962   0.51341
  35   35390.2    282.6   0.067675838   0.62954   0.02182  -0.79233  -0.03572
  36   35473.5    281.9   0.012990743   0.12056   0.28402  -0.12922  -0.15230
  37   35654.6    280.5   0.004924253   0.04547  -0.01455   0.07823   0.19783
  38   35845.8    279.0   0.108787174   0.99911   0.67963   0.53572  -0.50022
  39   35907.4    278.5   0.039646276   0.36349  -0.22906   0.55732   0.02042
  40   36234.5    276.0   0.087866496   0.79832   0.46083  -0.24133  -0.72644
  41   36368.5    275.0   0.017440798   0.15788  -0.30989   0.22962   0.09550
  42   36386.6    274.8   0.017559379   0.15887  -0.30363   0.08442   0.24403
  43   36435.6    274.5   0.017746530   0.16035   0.04280   0.37592  -0.13114
  44   36617.7    273.1   0.002410829   0.02167   0.04637   0.07438   0.11829
  45   36851.4    271.4   0.280830684   2.50880   0.70640  -0.89300  -1.10107
  46   36999.6    270.3   0.178993692   1.59263  -0.97262  -0.50631   0.62473
  47   37330.2    267.9   0.634239196   5.59331   0.83374  -1.98870  -0.97121
  48   37356.1    267.7   0.678740778   5.98161   0.44216   1.87901  -1.50180
  49   37526.4    266.5   0.038111806   0.33435   0.24695   0.05312  -0.52014
  50   37578.6    266.1   0.101932118   0.89299   0.50167   0.62448  -0.50133
  51   37930.9    263.6   0.085486279   0.74196   0.42107   0.15102  -0.73611
  52   38149.5    262.1   0.040207819   0.34697  -0.05614  -0.47843  -0.33900
  53   38456.6    260.0   0.024898970   0.21315   0.23511  -0.20280  -0.34168
  54   38656.1    258.7   0.033116089   0.28203   0.27758   0.34978  -0.28746
  55   38780.4    257.9   0.004216851   0.03580   0.06015   0.17296  -0.04757
  56   38827.4    257.5   0.056186965   0.47640  -0.51546   0.15551   0.43188
  57   38998.0    256.4   0.024186909   0.20418   0.40896  -0.07694  -0.17610
  58   39051.8    256.1   0.015153269   0.12774   0.14430   0.27423   0.17810
  59   39127.3    255.6   0.045718518   0.38467  -0.44642   0.12900   0.41078
  60   39362.5    254.0   0.004945361   0.04136  -0.12328  -0.16099  -0.01565
  61   39455.1    253.5   0.003869955   0.03229  -0.04002  -0.14232   0.10214
  62   39479.3    253.3   0.024404989   0.20351  -0.29569   0.31693   0.12505
  63   39696.8    251.9   0.041527643   0.34440   0.37458   0.43474  -0.12281
  64   39807.0    251.2   0.021048598   0.17408  -0.34242   0.11489   0.20886
  65   39888.9    250.7   0.115757609   0.95537  -0.00878   0.96585   0.14974
  66   40221.9    248.6   0.000430725   0.00353   0.04861  -0.00888   0.03291
  67   40270.3    248.3   0.013513720   0.11048  -0.02479  -0.32762   0.05029

FINAL SINGLE POINT ENERGY     -6734.204215554347

DIPOLE MOMENT
-------------
                                X             Y             Z
Electronic contribution:     31.94305      56.65188      -2.21780
Nuclear contribution   :    -30.76312     -56.14948       1.22870
                        -----------------------------------------
Total Dipole Moment    :      1.17994       0.50240      -0.98910
                        -----------------------------------------
Magnitude (a.u.)       :      1.61956
Magnitude (Debye)      :      4.11659

Rotational constants in cm-1:     0.000915     0.000206     0.000170
Rotational constants in MHz :    27.435390     6.161255     5.093416

                             ****ORCA TERMINATED NORMALLY****
TOTAL RUN TIME: 0 days 0 hours 11 minutes 10 seconds 391 msec
