                         Program Version 4.2.0 -  RELEASE  -
|  1> # ORCA input file
|  2> # SCF done       -177.076478384922          0.000846836384
|  3> ! CAM-B3LYP def2-SVP def2/J RIJCOSX Grid4 TightSCF
|  4> %maxcore 5000
|  5> %tddft
|  6>     Mode sTDDFT
|  7>     Ethresh 5.0
|  8>     maxcore 5000
|  9> end
| 10>
| 11> %pal
| 12>   nprocs 6
| 13>   end
| 14> * xyz 0 1
| 15>    C        6.16788         5.17628        -4.54355
| 16>    C        7.00861         4.90413        -5.58213
| 17>    S        7.45280         3.23963        -5.70613
| 18>    C        6.51287         2.88434        -4.32013
| 19>    C        5.87853         4.01204        -3.81217
| 20>    C        5.06785         3.62425        -2.64949
| 21>    O        4.33263         4.30253        -1.97298
| 22>    C        5.39945         2.17793        -2.43122
| 23>    C        6.14249         1.70308        -3.58799
| 24>    C        6.24948         0.41859        -4.05709
| 25>    C        6.94827         0.13440        -5.24784
| 26>    N        7.53163        -0.10191        -6.20702
| 27>    C        5.60588        -0.68697        -3.46964
| 28>    N        5.05393        -1.59624        -3.03772
| 29>    C        5.10664         1.60272        -1.23680
| 30>    C        5.66516         0.45944        -0.61683
| 31>    C        5.13855        -0.19884         0.48408
| 32>    C        5.96594        -1.22114         0.93649
| 33>    C        7.15687        -1.32722         0.19032
| 34>    S        7.24433        -0.18460        -1.06570
| 35>    C        7.95098        -2.35780         0.74824
| 36>    C        7.26794        -2.90327         1.84928
| 37>    C        5.99338        -2.21641         1.99621
| 38>    C        5.03291        -2.45426         2.93399
| 39>    C        3.83448        -1.71030         2.98521
| 40>    N        2.86174        -1.10622         3.03965
| 41>    C        5.17147        -3.45454         3.92035
| 42>    N        5.27426        -4.26046         4.72916
| 43>    C        7.98979        -3.90537         2.49456
| 44>    C        9.21307        -4.13703         1.89285
| 45>    S        9.46651        -3.09857         0.49528
| 46>    C       10.23852        -5.04942         2.30048
| 47>    C       11.33713        -5.32835         1.49929
| 48>    C       12.37951        -6.15950         1.89560
| 49>    C       12.41380        -6.76594         3.14415
| 50>    C       11.29806        -6.52598         3.99517
| 51>    C       10.20333        -5.68528         3.57667
| 52>    N        9.24438        -5.56302         4.48434
| 53>   Se        9.64803        -6.49344         5.90478
| 54>    N       11.16066        -7.03475         5.21118
| 55>    C       13.51564        -7.56125         3.59495
| 56>    C       14.59568        -8.00496         2.84877
| 57>    C       15.52085        -8.69529         3.62749
| 58>    C       15.14330        -8.77047         4.98164
| 59>    S       13.63609        -8.02483         5.28032
| 60>    C       16.16184        -9.44348         5.70201
| 61>    C       17.18223        -9.80206         4.78990
| 62>    C       16.80598        -9.35234         3.45845
| 63>    C       17.50950        -9.50371         2.29978
| 64>    C       17.03515        -9.00349         1.06916
| 65>    N       16.64626        -8.59217         0.07176
| 66>    C       18.75573       -10.16375         2.25332
| 67>    N       19.76745       -10.70065         2.20565
| 68>    C       18.24127       -10.43672         5.41203
| 69>    C       18.05602       -10.55740         6.79322
| 70>    S       16.51442        -9.87594         7.31003
| 71>    C       19.03029       -11.13944         7.62366
| 72>    C       19.06155       -11.29228         8.98168
| 73>    C       20.15909       -11.88708         9.73566
| 74>    C       21.33101       -12.43659         9.28371
| 75>    C       22.27262       -12.96301        10.19393
| 76>    N       23.04273       -13.38943        10.92958
| 77>    C       21.73019       -12.54885         7.93828
| 78>    N       22.11540       -12.66630         6.86297
| 79>    C       19.78151       -11.79339        11.12021
| 80>    C       18.53614       -11.19697        11.26474
| 81>    C       18.13373       -11.08392        12.60582
| 82>    C       19.08126       -11.59608        13.44245
| 83>    S       20.47003       -12.22195        12.62869
| 84>    C       18.01780       -10.86105         9.93572
| 85>    O       16.95234       -10.33567         9.66801
| 86>    H        5.77677         6.15090        -4.31800
| 87>    H        7.39695         5.59280        -6.30689
| 88>    H        4.39926         2.15523        -0.62470
| 89>    H        4.18522         0.05998         0.90846
| 90>    H        7.66717        -4.44913         3.36252
| 91>    H       11.39104        -4.87186         0.52137
| 92>    H       13.19812        -6.31193         1.21075
| 93>    H       14.69704        -7.83794         1.79252
| 94>    H       19.12632       -10.79803         4.91859
| 95>    H       19.89133       -11.50121         7.07332
| 96>    H       17.20516       -10.65253        12.93056
| 97>    H       19.04932       -11.64641        14.51333
| 98> *
| 99>
|100>                          ****END OF INPUT****

CARTESIAN COORDINATES (ANGSTROEM)
---------------------------------
  C      6.167880    5.176280   -4.543550
  C      7.008610    4.904130   -5.582130
  S      7.452800    3.239630   -5.706130
  C      6.512870    2.884340   -4.320130
  C      5.878530    4.012040   -3.812170
  C      5.067850    3.624250   -2.649490
  O      4.332630    4.302530   -1.972980
  C      5.399450    2.177930   -2.431220
  C      6.142490    1.703080   -3.587990
  C      6.249480    0.418590   -4.057090
  C      6.948270    0.134400   -5.247840
  N      7.531630   -0.101910   -6.207020
  C      5.605880   -0.686970   -3.469640
  N      5.053930   -1.596240   -3.037720
  C      5.106640    1.602720   -1.236800
  C      5.665160    0.459440   -0.616830
  C      5.138550   -0.198840    0.484080
  C      5.965940   -1.221140    0.936490
  C      7.156870   -1.327220    0.190320
  S      7.244330   -0.184600   -1.065700
  C      7.950980   -2.357800    0.748240
  C      7.267940   -2.903270    1.849280
  C      5.993380   -2.216410    1.996210
  C      5.032910   -2.454260    2.933990
  C      3.834480   -1.710300    2.985210
  N      2.861740   -1.106220    3.039650
  C      5.171470   -3.454540    3.920350
  N      5.274260   -4.260460    4.729160
  C      7.989790   -3.905370    2.494560
  C      9.213070   -4.137030    1.892850
  S      9.466510   -3.098570    0.495280
  C     10.238520   -5.049420    2.300480
  C     11.337130   -5.328350    1.499290
  C     12.379510   -6.159500    1.895600
  C     12.413800   -6.765940    3.144150
  C     11.298060   -6.525980    3.995170
  C     10.203330   -5.685280    3.576670
  N      9.244380   -5.563020    4.484340
  Se     9.648030   -6.493440    5.904780
  N     11.160660   -7.034750    5.211180
  C     13.515640   -7.561250    3.594950
  C     14.595680   -8.004960    2.848770
  C     15.520850   -8.695290    3.627490
  C     15.143300   -8.770470    4.981640
  S     13.636090   -8.024830    5.280320
  C     16.161840   -9.443480    5.702010
  C     17.182230   -9.802060    4.789900
  C     16.805980   -9.352340    3.458450
  C     17.509500   -9.503710    2.299780
  C     17.035150   -9.003490    1.069160
  N     16.646260   -8.592170    0.071760
  C     18.755730  -10.163750    2.253320
  N     19.767450  -10.700650    2.205650
  C     18.241270  -10.436720    5.412030
  C     18.056020  -10.557400    6.793220
  S     16.514420   -9.875940    7.310030
  C     19.030290  -11.139440    7.623660
  C     19.061550  -11.292280    8.981680
  C     20.159090  -11.887080    9.735660
  C     21.331010  -12.436590    9.283710
  C     22.272620  -12.963010   10.193930
  N     23.042730  -13.389430   10.929580
  C     21.730190  -12.548850    7.938280
  N     22.115400  -12.666300    6.862970
  C     19.781510  -11.793390   11.120210
  C     18.536140  -11.196970   11.264740
  C     18.133730  -11.083920   12.605820
  C     19.081260  -11.596080   13.442450
  S     20.470030  -12.221950   12.628690
  C     18.017800  -10.861050    9.935720
  O     16.952340  -10.335670    9.668010
  H      5.776770    6.150900   -4.318000
  H      7.396950    5.592800   -6.306890
  H      4.399260    2.155230   -0.624700
  H      4.185220    0.059980    0.908460
  H      7.667170   -4.449130    3.362520
  H     11.391040   -4.871860    0.521370
  H     13.198120   -6.311930    1.210750
  H     14.697040   -7.837940    1.792520
  H     19.126320  -10.798030    4.918590
  H     19.891330  -11.501210    7.073320
  H     17.205160  -10.652530   12.930560
  H     19.049320  -11.646410   14.513330

 Total Charge           Charge          ....    0
 Multiplicity           Mult            ....    1
 Number of Electrons    NEL             ....  540
 Basis Dimension        Dim             .... 1096

ORBITAL ENERGIES
----------------

  NO   OCC          E(Eh)            E(eV)
   0   2.0000    -453.998699    -12353.9327
   1   2.0000     -88.999711     -2421.8053
   2   2.0000     -88.996689     -2421.7230
   3   2.0000     -88.994117     -2421.6530
   4   2.0000     -88.992275     -2421.6029
   5   2.0000     -88.989947     -2421.5396
   6   2.0000     -88.989603     -2421.5302
   7   2.0000     -58.212367     -1584.0390
   8   2.0000     -52.283084     -1422.6950
   9   2.0000     -52.280733     -1422.6311
  10   2.0000     -52.280206     -1422.6167
  11   2.0000     -19.230756      -523.2955
  12   2.0000     -19.223119      -523.0877
  13   2.0000     -14.455376      -393.3508
  14   2.0000     -14.454308      -393.3217
  15   2.0000     -14.435042      -392.7975
  16   2.0000     -14.434701      -392.7882
  17   2.0000     -14.432369      -392.7247
  18   2.0000     -14.429921      -392.6581
  19   2.0000     -14.423320      -392.4785
  20   2.0000     -14.421955      -392.4413
  21   2.0000     -14.421743      -392.4356
  22   2.0000     -14.419349      -392.3704
  23   2.0000     -10.382573      -282.5242
  24   2.0000     -10.377979      -282.3992
  25   2.0000     -10.370657      -282.1999
  26   2.0000     -10.365100      -282.0487
  27   2.0000     -10.357820      -281.8506
  28   2.0000     -10.357276      -281.8358
  29   2.0000     -10.354126      -281.7501
  30   2.0000     -10.352878      -281.7161
  31   2.0000     -10.352815      -281.7144
  32   2.0000     -10.349228      -281.6168
  33   2.0000     -10.347589      -281.5722
  34   2.0000     -10.344512      -281.4885
  35   2.0000     -10.343429      -281.4590
  36   2.0000     -10.338990      -281.3382
  37   2.0000     -10.334965      -281.2287
  38   2.0000     -10.334863      -281.2259
  39   2.0000     -10.334368      -281.2125
  40   2.0000     -10.334289      -281.2103
  41   2.0000     -10.333064      -281.1770
  42   2.0000     -10.332910      -281.1728
  43   2.0000     -10.332017      -281.1485
  44   2.0000     -10.331268      -281.1281
  45   2.0000     -10.331069      -281.1227
  46   2.0000     -10.329943      -281.0920
  47   2.0000     -10.328793      -281.0608
  48   2.0000     -10.328483      -281.0523
  49   2.0000     -10.327529      -281.0264
  50   2.0000     -10.326839      -281.0076
  51   2.0000     -10.326365      -280.9947
  52   2.0000     -10.324522      -280.9445
  53   2.0000     -10.324453      -280.9427
  54   2.0000     -10.324061      -280.9320
  55   2.0000     -10.323761      -280.9238
  56   2.0000     -10.321104      -280.8515
  57   2.0000     -10.320636      -280.8388
  58   2.0000     -10.320064      -280.8232
  59   2.0000     -10.316703      -280.7318
  60   2.0000     -10.313191      -280.6362
  61   2.0000     -10.311342      -280.5859
  62   2.0000     -10.311310      -280.5850
  63   2.0000     -10.308606      -280.5114
  64   2.0000     -10.307935      -280.4932
  65   2.0000     -10.307781      -280.4890
  66   2.0000     -10.306819      -280.4628
  67   2.0000     -10.305408      -280.4244
  68   2.0000     -10.305003      -280.4134
  69   2.0000     -10.304881      -280.4101
  70   2.0000     -10.304866      -280.4097
  71   2.0000     -10.304469      -280.3989
  72   2.0000     -10.304185      -280.3911
  73   2.0000     -10.302480      -280.3447
  74   2.0000     -10.301108      -280.3074
  75   2.0000      -8.093788      -220.2432
  76   2.0000      -8.091153      -220.1715
  77   2.0000      -8.088866      -220.1092
  78   2.0000      -8.086759      -220.0519
  79   2.0000      -8.082824      -219.9448
  80   2.0000      -8.082379      -219.9327
  81   2.0000      -7.988063      -217.3662
  82   2.0000      -6.063034      -164.9835
  83   2.0000      -6.060379      -164.9113
  84   2.0000      -6.058781      -164.8678
  85   2.0000      -6.058175      -164.8513
  86   2.0000      -6.056289      -164.8000
  87   2.0000      -6.056207      -164.7978
  88   2.0000      -6.056065      -164.7939
  89   2.0000      -6.053590      -164.7266
  90   2.0000      -6.053570      -164.7260
  91   2.0000      -6.052167      -164.6878
  92   2.0000      -6.051797      -164.6778
  93   2.0000      -6.051433      -164.6679
  94   2.0000      -6.051419      -164.6675
  95   2.0000      -6.049394      -164.6124
  96   2.0000      -6.047576      -164.5629
  97   2.0000      -6.047028      -164.5480
  98   2.0000      -6.045420      -164.5042
  99   2.0000      -6.044977      -164.4922
 100   2.0000      -5.938304      -161.5895
 101   2.0000      -5.931582      -161.4066
 102   2.0000      -5.927756      -161.3024
 103   2.0000      -2.292402       -62.3794
 104   2.0000      -2.291732       -62.3612
 105   2.0000      -2.287194       -62.2377
 106   2.0000      -2.282051       -62.0978
 107   2.0000      -2.281848       -62.0922
 108   2.0000      -1.146529       -31.1986
 109   2.0000      -1.138966       -30.9929
 110   2.0000      -1.110806       -30.2266
 111   2.0000      -1.052947       -28.6522
 112   2.0000      -1.046209       -28.4688
 113   2.0000      -1.036155       -28.1952
 114   2.0000      -1.033979       -28.1360
 115   2.0000      -1.027102       -27.9489
 116   2.0000      -1.023155       -27.8415
 117   2.0000      -1.014477       -27.6053
 118   2.0000      -1.012550       -27.5529
 119   2.0000      -1.012414       -27.5492
 120   2.0000      -1.009093       -27.4588
 121   2.0000      -1.008774       -27.4501
 122   2.0000      -1.004659       -27.3382
 123   2.0000      -1.000432       -27.2231
 124   2.0000      -0.998860       -27.1804
 125   2.0000      -0.987312       -26.8661
 126   2.0000      -0.979861       -26.6634
 127   2.0000      -0.969890       -26.3920
 128   2.0000      -0.967304       -26.3217
 129   2.0000      -0.961337       -26.1593
 130   2.0000      -0.955981       -26.0136
 131   2.0000      -0.926195       -25.2031
 132   2.0000      -0.920832       -25.0571
 133   2.0000      -0.911645       -24.8071
 134   2.0000      -0.908808       -24.7299
 135   2.0000      -0.892308       -24.2809
 136   2.0000      -0.884805       -24.0768
 137   2.0000      -0.881547       -23.9881
 138   2.0000      -0.870896       -23.6983
 139   2.0000      -0.870666       -23.6920
 140   2.0000      -0.861193       -23.4342
 141   2.0000      -0.860705       -23.4210
 142   2.0000      -0.859475       -23.3875
 143   2.0000      -0.857466       -23.3328
 144   2.0000      -0.854037       -23.2395
 145   2.0000      -0.820305       -22.3216
 146   2.0000      -0.802398       -21.8344
 147   2.0000      -0.787970       -21.4417
 148   2.0000      -0.783222       -21.3126
 149   2.0000      -0.778775       -21.1916
 150   2.0000      -0.773543       -21.0492
 151   2.0000      -0.769111       -20.9286
 152   2.0000      -0.752936       -20.4884
 153   2.0000      -0.751831       -20.4584
 154   2.0000      -0.730882       -19.8883
 155   2.0000      -0.717447       -19.5227
 156   2.0000      -0.710540       -19.3348
 157   2.0000      -0.707544       -19.2532
 158   2.0000      -0.704046       -19.1581
 159   2.0000      -0.701763       -19.0959
 160   2.0000      -0.690978       -18.8025
 161   2.0000      -0.689755       -18.7692
 162   2.0000      -0.683410       -18.5965
 163   2.0000      -0.677336       -18.4313
 164   2.0000      -0.674015       -18.3409
 165   2.0000      -0.673301       -18.3215
 166   2.0000      -0.659418       -17.9437
 167   2.0000      -0.652452       -17.7541
 168   2.0000      -0.641016       -17.4429
 169   2.0000      -0.636788       -17.3279
 170   2.0000      -0.635070       -17.2811
 171   2.0000      -0.628044       -17.0899
 172   2.0000      -0.626165       -17.0388
 173   2.0000      -0.621891       -16.9225
 174   2.0000      -0.620021       -16.8716
 175   2.0000      -0.617475       -16.8023
 176   2.0000      -0.610226       -16.6051
 177   2.0000      -0.603106       -16.4113
 178   2.0000      -0.596840       -16.2408
 179   2.0000      -0.595163       -16.1952
 180   2.0000      -0.589125       -16.0309
 181   2.0000      -0.580948       -15.8084
 182   2.0000      -0.563632       -15.3372
 183   2.0000      -0.562762       -15.3135
 184   2.0000      -0.559004       -15.2113
 185   2.0000      -0.557203       -15.1623
 186   2.0000      -0.553697       -15.0669
 187   2.0000      -0.551814       -15.0156
 188   2.0000      -0.548323       -14.9206
 189   2.0000      -0.546614       -14.8741
 190   2.0000      -0.545965       -14.8565
 191   2.0000      -0.543214       -14.7816
 192   2.0000      -0.535176       -14.5629
 193   2.0000      -0.529195       -14.4001
 194   2.0000      -0.527697       -14.3594
 195   2.0000      -0.521245       -14.1838
 196   2.0000      -0.517290       -14.0762
 197   2.0000      -0.515695       -14.0328
 198   2.0000      -0.513899       -13.9839
 199   2.0000      -0.508280       -13.8310
 200   2.0000      -0.507468       -13.8089
 201   2.0000      -0.506688       -13.7877
 202   2.0000      -0.504345       -13.7239
 203   2.0000      -0.502689       -13.6789
 204   2.0000      -0.500101       -13.6084
 205   2.0000      -0.497416       -13.5354
 206   2.0000      -0.494256       -13.4494
 207   2.0000      -0.493206       -13.4208
 208   2.0000      -0.492022       -13.3886
 209   2.0000      -0.490747       -13.3539
 210   2.0000      -0.486645       -13.2423
 211   2.0000      -0.484262       -13.1774
 212   2.0000      -0.482862       -13.1394
 213   2.0000      -0.482372       -13.1260
 214   2.0000      -0.477661       -12.9978
 215   2.0000      -0.476910       -12.9774
 216   2.0000      -0.474706       -12.9174
 217   2.0000      -0.470349       -12.7988
 218   2.0000      -0.465849       -12.6764
 219   2.0000      -0.462915       -12.5966
 220   2.0000      -0.462901       -12.5962
 221   2.0000      -0.461802       -12.5663
 222   2.0000      -0.460935       -12.5427
 223   2.0000      -0.459709       -12.5093
 224   2.0000      -0.459228       -12.4962
 225   2.0000      -0.455054       -12.3826
 226   2.0000      -0.454406       -12.3650
 227   2.0000      -0.452671       -12.3178
 228   2.0000      -0.450952       -12.2710
 229   2.0000      -0.449650       -12.2356
 230   2.0000      -0.446942       -12.1619
 231   2.0000      -0.446325       -12.1451
 232   2.0000      -0.444864       -12.1054
 233   2.0000      -0.444665       -12.0999
 234   2.0000      -0.443381       -12.0650
 235   2.0000      -0.441613       -12.0169
 236   2.0000      -0.439820       -11.9681
 237   2.0000      -0.439018       -11.9463
 238   2.0000      -0.435266       -11.8442
 239   2.0000      -0.432890       -11.7795
 240   2.0000      -0.431963       -11.7543
 241   2.0000      -0.430772       -11.7219
 242   2.0000      -0.428861       -11.6699
 243   2.0000      -0.427585       -11.6352
 244   2.0000      -0.424093       -11.5401
 245   2.0000      -0.420835       -11.4515
 246   2.0000      -0.417931       -11.3725
 247   2.0000      -0.414083       -11.2678
 248   2.0000      -0.408982       -11.1290
 249   2.0000      -0.407605       -11.0915
 250   2.0000      -0.399398       -10.8682
 251   2.0000      -0.392753       -10.6874
 252   2.0000      -0.389854       -10.6085
 253   2.0000      -0.372496       -10.1361
 254   2.0000      -0.364519        -9.9191
 255   2.0000      -0.354264        -9.6400
 256   2.0000      -0.353141        -9.6094
 257   2.0000      -0.352207        -9.5841
 258   2.0000      -0.348483        -9.4827
 259   2.0000      -0.347953        -9.4683
 260   2.0000      -0.346752        -9.4356
 261   2.0000      -0.344710        -9.3800
 262   2.0000      -0.342809        -9.3283
 263   2.0000      -0.328265        -8.9326
 264   2.0000      -0.322750        -8.7825
 265   2.0000      -0.316172        -8.6035
 266   2.0000      -0.312896        -8.5143
 267   2.0000      -0.308357        -8.3908
 268   2.0000      -0.279065        -7.5938
 269   2.0000      -0.252267        -6.8645
 270   0.0000      -0.120878        -3.2893
 271   0.0000      -0.109119        -2.9693
 272   0.0000      -0.092064        -2.5052
 273   0.0000      -0.089741        -2.4420
 274   0.0000      -0.087332        -2.3764

MULLIKEN ATOMIC CHARGES
-----------------------
   0 C :    0.019366
   1 C :   -0.055730
   2 S :    0.219957
   3 C :   -0.170017
   4 C :    0.023108
   5 C :    0.150427
   6 O :   -0.132872
   7 C :   -0.141948
   8 C :    0.215130
   9 C :   -0.317587
  10 C :   -0.193537
  11 N :    0.163557
  12 C :   -0.207195
  13 N :    0.177537
  14 C :    0.039924
  15 C :   -0.089503
  16 C :    0.004176
  17 C :    0.022117
  18 C :   -0.080459
  19 S :    0.202775
  20 C :   -0.093261
  21 C :    0.028335
  22 C :    0.303252
  23 C :   -0.294579
  24 C :   -0.192271
  25 N :    0.177998
  26 C :   -0.186083
  27 N :    0.175832
  28 C :   -0.041736
  29 C :   -0.114771
  30 S :    0.176492
  31 C :    0.142548
  32 C :   -0.055145
  33 C :   -0.054275
  34 C :    0.146101
  35 C :   -0.002616
  36 C :    0.012033
  37 N :   -0.278378
  38 Se:    0.570736
  39 N :   -0.329020
  40 C :   -0.093236
  41 C :   -0.053810
  42 C :    0.023667
  43 C :   -0.092750
  44 S :    0.227761
  45 C :   -0.072076
  46 C :    0.044434
  47 C :    0.306556
  48 C :   -0.302912
  49 C :   -0.185471
  50 N :    0.168116
  51 C :   -0.195006
  52 N :    0.183284
  53 C :   -0.061900
  54 C :   -0.054993
  55 S :    0.237109
  56 C :   -0.036875
  57 C :   -0.099522
  58 C :    0.257132
  59 C :   -0.335565
  60 C :   -0.208236
  61 N :    0.165593
  62 C :   -0.181352
  63 N :    0.156319
  64 C :   -0.159022
  65 C :    0.018827
  66 C :    0.015623
  67 C :   -0.053003
  68 S :    0.225149
  69 C :    0.180003
  70 O :   -0.177543
  71 H :    0.008719
  72 H :    0.045687
  73 H :    0.034633
  74 H :    0.017635
  75 H :    0.020619
  76 H :   -0.004564
  77 H :   -0.007864
  78 H :    0.005880
  79 H :    0.026399
  80 H :    0.016172
  81 H :    0.004661
  82 H :    0.045302
Sum of atomic charges:   -0.0000000

LOEWDIN ATOMIC CHARGES
----------------------
   0 C :   -0.034425
   1 C :   -0.152461
   2 S :    0.508414
   3 C :   -0.175183
   4 C :   -0.070029
   5 C :    0.083059
   6 O :   -0.133813
   7 C :   -0.098247
   8 C :    0.046911
   9 C :   -0.148623
  10 C :   -0.035557
  11 N :   -0.042241
  12 C :   -0.041071
  13 N :   -0.043689
  14 C :    0.045221
  15 C :   -0.179802
  16 C :    0.011623
  17 C :   -0.073110
  18 C :   -0.153421
  19 S :    0.512372
  20 C :   -0.184331
  21 C :   -0.058699
  22 C :    0.080248
  23 C :   -0.096825
  24 C :   -0.017430
  25 N :   -0.027980
  26 C :   -0.015884
  27 N :   -0.030183
  28 C :   -0.018568
  29 C :   -0.150318
  30 S :    0.480894
  31 C :   -0.043075
  32 C :   -0.017342
  33 C :   -0.002316
  34 C :   -0.042569
  35 C :   -0.038593
  36 C :   -0.029547
  37 N :   -0.236746
  38 Se:    0.601727
  39 N :   -0.269325
  40 C :   -0.153678
  41 C :   -0.027054
  42 C :   -0.060365
  43 C :   -0.194832
  44 S :    0.523914
  45 C :   -0.164400
  46 C :   -0.079845
  47 C :    0.080188
  48 C :   -0.105372
  49 C :   -0.014800
  50 N :   -0.038063
  51 C :   -0.020669
  52 N :   -0.026529
  53 C :    0.009779
  54 C :   -0.187425
  55 S :    0.543035
  56 C :    0.049874
  57 C :   -0.109733
  58 C :    0.062458
  59 C :   -0.140884
  60 C :   -0.034629
  61 N :   -0.043802
  62 C :   -0.024872
  63 N :   -0.042655
  64 C :   -0.175659
  65 C :   -0.071138
  66 C :   -0.035595
  67 C :   -0.154143
  68 S :    0.514149
  69 C :    0.085186
  70 O :   -0.166665
  71 H :    0.043530
  72 H :    0.031362
  73 H :    0.055641
  74 H :    0.046930
  75 H :    0.039156
  76 H :    0.027815
  77 H :    0.038175
  78 H :    0.038168
  79 H :    0.047402
  80 H :    0.053904
  81 H :    0.042021
  82 H :    0.031057

  Mayer bond orders larger than 0.100000
B(  0-C ,  1-C ) :   1.5488 B(  0-C ,  4-C ) :   1.2762 B(  0-C , 71-H ) :   1.0074
B(  1-C ,  2-S ) :   1.1664 B(  1-C , 72-H ) :   0.9682 B(  2-S ,  3-C ) :   1.1557
B(  3-C ,  4-C ) :   1.4392 B(  3-C ,  8-C ) :   1.0930 B(  4-C ,  5-C ) :   0.9410
B(  5-C ,  6-O ) :   2.2675 B(  5-C ,  7-C ) :   0.9292 B(  7-C ,  8-C ) :   1.0295
B(  7-C , 14-C ) :   1.6734 B(  8-C ,  9-C ) :   1.6499 B(  9-C , 10-C ) :   1.1306
B(  9-C , 12-C ) :   1.1524 B( 10-C , 11-N ) :   3.0127 B( 12-C , 13-N ) :   3.0250
B( 14-C , 15-C ) :   1.1391 B( 14-C , 73-H ) :   0.9441 B( 15-C , 16-C ) :   1.4063
B( 15-C , 19-S ) :   1.0848 B( 16-C , 17-C ) :   1.3061 B( 16-C , 74-H ) :   1.0009
B( 17-C , 18-C ) :   1.3999 B( 17-C , 22-C ) :   0.9895 B( 18-C , 19-S ) :   1.1608
B( 18-C , 20-C ) :   1.2051 B( 20-C , 21-C ) :   1.4309 B( 20-C , 30-S ) :   1.1199
B( 21-C , 22-C ) :   0.9967 B( 21-C , 28-C ) :   1.2539 B( 22-C , 23-C ) :   1.7172
B( 23-C , 24-C ) :   1.1327 B( 23-C , 26-C ) :   1.1378 B( 24-C , 25-N ) :   2.9941
B( 26-C , 27-N ) :   2.9883 B( 28-C , 29-C ) :   1.4700 B( 28-C , 75-H ) :   0.9846
B( 29-C , 30-S ) :   1.1027 B( 29-C , 31-C ) :   1.1184 B( 31-C , 32-C ) :   1.4369
B( 31-C , 34-C ) :   0.1091 B( 31-C , 36-C ) :   1.1714 B( 32-C , 33-C ) :   1.2399
B( 32-C , 76-H ) :   0.9861 B( 33-C , 34-C ) :   1.4574 B( 33-C , 77-H ) :   0.9936
B( 34-C , 35-C ) :   1.1469 B( 34-C , 40-C ) :   1.0993 B( 35-C , 36-C ) :   1.1264
B( 35-C , 39-N ) :   1.5555 B( 36-C , 37-N ) :   1.5909 B( 37-N , 38-Se) :   1.2399
B( 37-N , 39-N ) :   0.1243 B( 38-Se, 39-N ) :   1.2264 B( 40-C , 41-C ) :   1.4443
B( 40-C , 44-S ) :   1.1280 B( 41-C , 42-C ) :   1.3063 B( 41-C , 78-H ) :   0.9875
B( 42-C , 43-C ) :   1.4158 B( 42-C , 47-C ) :   0.9976 B( 43-C , 44-S ) :   1.0948
B( 43-C , 45-C ) :   1.1983 B( 45-C , 46-C ) :   1.3629 B( 45-C , 55-S ) :   1.1281
B( 46-C , 47-C ) :   0.9859 B( 46-C , 53-C ) :   1.3248 B( 47-C , 48-C ) :   1.7125
B( 48-C , 49-C ) :   1.1354 B( 48-C , 51-C ) :   1.1335 B( 49-C , 50-N ) :   2.9873
B( 51-C , 52-N ) :   2.9957 B( 53-C , 54-C ) :   1.3416 B( 53-C , 79-H ) :   1.0080
B( 54-C , 55-S ) :   1.0714 B( 54-C , 56-C ) :   1.2498 B( 56-C , 57-C ) :   1.5399
B( 56-C , 80-H ) :   0.9429 B( 57-C , 58-C ) :   1.0791 B( 57-C , 69-C ) :   0.9611
B( 58-C , 59-C ) :   1.6335 B( 58-C , 64-C ) :   1.0886 B( 59-C , 60-C ) :   1.1454
B( 59-C , 62-C ) :   1.1426 B( 60-C , 61-N ) :   3.0036 B( 62-C , 63-N ) :   2.9647
B( 64-C , 65-C ) :   1.4409 B( 64-C , 68-S ) :   1.1490 B( 65-C , 66-C ) :   1.2688
B( 65-C , 69-C ) :   0.9832 B( 66-C , 67-C ) :   1.5445 B( 66-C , 81-H ) :   1.0075
B( 67-C , 68-S ) :   1.1679 B( 67-C , 82-H ) :   0.9678 B( 69-C , 70-O ) :   2.1273

-----------------------------------------------------------------------------
         ABSORPTION SPECTRUM VIA TRANSITION ELECTRIC DIPOLE MOMENTS
-----------------------------------------------------------------------------
State   Energy  Wavelength   fosc         T2         TX        TY        TZ
        (cm-1)    (nm)                  (au**2)     (au)      (au)      (au)
-----------------------------------------------------------------------------
   0   12756.5    783.9   0.771925771  19.92133  -2.80301   2.69382  -2.19267
   1   14334.8    697.6   0.121755170   2.79622   1.30956  -0.68371   0.78347
   2   17976.7    556.3   0.820884677  15.03304  -2.62646   2.25098  -1.75152
   3   20772.8    481.4   0.116156292   1.84087   0.57492   0.46726  -1.13667
   4   21287.3    469.8   0.011813807   0.18270   0.11914  -0.09866   0.39847
   5   21812.9    458.4   0.301948303   4.55716  -1.21351   0.77172  -1.57766
   6   23694.8    422.0   0.038751949   0.53841   0.46090  -0.57060   0.01986
   7   25270.9    395.7   0.362677298   4.72470   1.26139  -0.66497   1.64055
   8   26566.4    376.4   0.280020405   3.47003   0.85868  -1.02256   1.29887
   9   27160.8    368.2   0.107292437   1.30047  -0.26209   0.89775  -0.65256
  10   27727.8    360.6   0.110885705   1.31655   0.27111  -1.08469   0.25788
  11   28838.1    346.8   0.061354695   0.70042   0.01816   0.74919  -0.37256
  12   29122.0    343.4   0.048364948   0.54675  -0.62280   0.30176  -0.26040
  13   29497.5    339.0   0.019506642   0.21771   0.10832   0.38854  -0.23455
  14   29879.9    334.7   0.417946667   4.60487   1.50654  -0.07615  -1.52624
  15   30058.3    332.7   0.181686723   1.98991   0.67518   0.73475  -0.99709
  16   30811.3    324.6   0.018537925   0.19807  -0.40947   0.01231   0.17393
  17   30879.7    323.8   0.088709648   0.94574  -0.23863  -0.07699   0.93961
  18   30943.9    323.2   0.096324500   1.02479   0.17617  -0.17537  -0.98133
  19   31229.3    320.2   0.007346237   0.07744   0.22313  -0.16229  -0.03632
  20   31345.1    319.0   0.040760962   0.42810  -0.28474   0.17931   0.56114
  21   31879.7    313.7   0.590359863   6.09646   0.90528  -1.97540   1.17248
  22   32109.7    311.4   0.101412251   1.03975  -0.42026   0.30331  -0.87814
  23   32330.7    309.3   0.313459813   3.19185  -1.28252   0.76282   0.98240
  24   32654.6    306.2   0.087411558   0.88125  -0.69195  -0.60348   0.19562
  25   33093.5    302.2   0.214546988   2.13430  -0.03465  -1.44019  -0.24280
  26   33156.8    301.6   0.168803013   1.67603   0.02580   0.08729   1.29141
  27   33564.1    297.9   0.889551203   8.72513  -2.23784   0.52953   1.85385
  28   33742.9    296.4   0.340362422   3.32074  -0.75023  -0.63138   1.53598
  29   33950.8    294.5   0.018287895   0.17733  -0.17589  -0.37687  -0.06607
  30   34234.6    292.1   0.029897110   0.28750  -0.10738   0.22024  -0.47693
  31   34563.2    289.3   0.151841964   1.44628  -0.85316   0.73240  -0.42660
  32   34693.3    288.2   0.106792927   1.01338  -0.06038   0.71143   0.70965
  33   34914.7    286.4   0.127360489   1.20089   0.42473   0.56638  -0.83648
  34   35191.2    284.2   0.013169583   0.12320   0.12298  -0.13018  -0.30188
  35   35311.5    283.2   0.128784469   1.20067   0.06038   0.24864  -1.06546
  36   35426.2    282.3   0.086598892   0.80475  -0.31190   0.82758  -0.15028
  37   35871.4    278.8   0.064090402   0.58819  -0.58490   0.48570   0.10088
  38   36085.2    277.1   0.030423732   0.27756  -0.23991   0.04112   0.46724
  39   36371.6    274.9   0.046304188   0.41912   0.28479  -0.57870  -0.05585
  40   36546.8    273.6   0.033659800   0.30321  -0.15953   0.47243  -0.23360
  41   36600.1    273.2   0.070270570   0.63207  -0.04421   0.77493  -0.17205
  42   37090.4    269.6   0.025083005   0.22264  -0.13495   0.34654   0.29040
  43   37139.2    269.3   0.022388311   0.19846   0.25265  -0.01383   0.36665
  44   37396.6    267.4   0.143116464   1.25989  -0.84781   0.64476  -0.35411
  45   37487.0    266.8   0.002747794   0.02413  -0.03438  -0.07087   0.13389
  46   37673.3    265.4   0.028520867   0.24923   0.09433  -0.04558  -0.48812
  47   37799.2    264.6   0.011282544   0.09827  -0.12331  -0.14150   0.25107
  48   38120.5    262.3   0.000452263   0.00391   0.03565  -0.02833   0.04280
  49   38356.4    260.7   0.023292476   0.19992  -0.21915   0.18305  -0.34407
  50   38492.4    259.8   0.029815598   0.25500  -0.19193   0.12435  -0.45023
  51   38967.5    256.6   0.020977527   0.17723  -0.20408   0.06764   0.36194
  52   39171.4    255.3   0.021210564   0.17826  -0.03215  -0.19459   0.37331
  53   39441.9    253.5   0.020595758   0.17191   0.19199  -0.20999  -0.30159
  54   39620.2    252.4   0.035670229   0.29639   0.08907   0.29862  -0.44642
  55   39703.7    251.9   0.012613855   0.10459   0.22214  -0.16348   0.16888
  56   40047.5    249.7   0.023762577   0.19534   0.27482  -0.00547  -0.34610

FINAL SINGLE POINT ENERGY     -7472.865754924433

DIPOLE MOMENT
-------------
                                X             Y             Z
Electronic contribution:    -25.05292     -18.68182      31.89762
Nuclear contribution   :     24.13818      21.23363     -30.10849
                        -----------------------------------------
Total Dipole Moment    :     -0.91475       2.55182       1.78913
                        -----------------------------------------
Magnitude (a.u.)       :      3.24800
Magnitude (Debye)      :      8.25577

Rotational constants in cm-1:     0.001859     0.000202     0.000188
Rotational constants in MHz :    55.734229     6.060837     5.647716

                             ****ORCA TERMINATED NORMALLY****
TOTAL RUN TIME: 0 days 0 hours 9 minutes 16 seconds 228 msec
