                         Program Version 4.2.0 -  RELEASE  -
|  1> # ORCA input file
|  2> # SCF done       -185.849130029234          0.000491070686
|  3> ! CAM-B3LYP def2-SVP def2/J RIJCOSX Grid4 TightSCF
|  4> %maxcore 5000
|  5> %tddft
|  6>     Mode sTDDFT
|  7>     Ethresh 5.0
|  8>     maxcore 5000
|  9> end
| 10>
| 11> %pal
| 12>   nprocs 6
| 13>   end
| 14> * xyz 0 1
| 15>    C        7.75342       -10.43631        -0.96865
| 16>    C        7.15051       -11.65266        -0.93864
| 17>    O        6.20111       -11.69173         0.01346
| 18>    C        6.19836       -10.50530         0.61915
| 19>    C        7.12618        -9.66620         0.05518
| 20>    C        7.40887        -8.29729         0.51166
| 21>    O        7.21085        -7.94961         1.66219
| 22>    C        7.93725        -7.36766        -0.48154
| 23>    C        7.88435        -7.39718        -1.85750
| 24>    C        8.44381        -6.26659        -2.45045
| 25>    C        8.93010        -5.35813        -1.52921
| 26>    S        8.66932        -5.90577         0.09600
| 27>    C        9.57089        -4.11775        -1.79453
| 28>    C       10.06594        -3.20945        -0.87819
| 29>    C       10.63762        -2.09891        -1.49925
| 30>    C       10.57430        -2.16285        -2.90360
| 31>    S        9.81380        -3.58883        -3.45380
| 32>    C       11.17840        -1.00355        -3.44665
| 33>    C       11.62864        -0.20233        -2.37727
| 34>    C       11.30167        -0.86127        -1.12246
| 35>    C       11.56286        -0.41168         0.13827
| 36>    C       11.19702        -1.14267         1.28846
| 37>    N       10.90235        -1.73121         2.22730
| 38>    C       12.21702         0.81505         0.38066
| 39>    N       12.74742         1.80945         0.59181
| 40>    C       12.24862         0.96416        -2.80355
| 41>    C       12.27494         1.06503        -4.18945
| 42>    S       11.51370        -0.31005        -4.97241
| 43>    C       12.84004         2.11934        -4.95522
| 44>    C       12.78798         2.12240        -6.36536
| 45>    C       13.36143         3.17229        -7.15751
| 46>    N       13.26849         3.10883        -8.49993
| 47>    C       12.66919         2.10609        -9.05663
| 48>    C       12.10583         1.06643        -8.27414
| 49>    N       12.17334         1.09359        -6.98227
| 50>    F       11.49145         0.03325        -8.84460
| 51>    F       12.59778         2.08130       -10.38502
| 52>    C       14.03261         4.27522        -6.58546
| 53>    C       14.08237         4.28392        -5.17002
| 54>    C       13.49567         3.23074        -4.37191
| 55>    N       13.66457         3.45624        -3.06846
| 56>    S       14.46418         4.82953        -2.86026
| 57>    N       14.64472         5.21932        -4.40370
| 58>    C       14.61933         5.29016        -7.38560
| 59>    C       15.35856         6.38031        -6.94030
| 60>    C       15.79941         7.17487        -7.98900
| 61>    C       15.38612         6.69472        -9.24914
| 62>    S       14.47091         5.25817        -9.13606
| 63>    C       15.89012         7.57250       -10.24243
| 64>    C       16.61983         8.59586        -9.61623
| 65>    C       16.58594         8.38447        -8.18037
| 66>    C       17.16857         9.15850        -7.21993
| 67>    C       17.07375         8.85353        -5.84564
| 68>    N       17.00418         8.61545        -4.72595
| 69>    C       17.89353        10.32705        -7.53685
| 70>    N       18.46859        11.28770        -7.78535
| 71>    C       17.16984         9.50661       -10.52356
| 72>    C       16.86153         9.18375       -11.82360
| 73>    S       15.87215         7.74283       -11.94252
| 74>    C       17.25554         9.88886       -13.01089
| 75>    C       16.59917         9.95880       -14.21207
| 76>    O       17.25979        10.74655       -15.07178
| 77>    C       18.34834        11.20427       -14.44123
| 78>    C       18.41664        10.72157       -13.16467
| 79>    C       19.53289        10.86013       -12.20121
| 80>    O       19.98642         9.89668       -11.61306
| 81>    C       20.05225        12.20367       -12.01838
| 82>    C       19.55559        13.41485       -12.44201
| 83>    C       20.33714        14.49758       -12.01595
| 84>    C       21.41235        14.10174       -11.27287
| 85>    S       21.48930        12.40946       -11.06722
| 86>    H        8.56186       -10.13432        -1.60134
| 87>    H        7.30106       -12.54046        -1.52013
| 88>    H        5.49935       -10.33820         1.41430
| 89>    H        7.42954        -8.19644        -2.41377
| 90>    H        8.49760        -6.10466        -3.51281
| 91>    H       10.00452        -3.36713         0.18358
| 92>    H       12.67128         1.72208        -2.17043
| 93>    H       15.54746         6.55165        -5.89673
| 94>    H       17.75878        10.36220       -10.25098
| 95>    H       15.68449         9.50857       -14.54346
| 96>    H       19.02019        11.82710       -14.99831
| 97>    H       18.65561        13.51633       -13.02081
| 98>    H       20.11587        15.52454       -12.24483
| 99>    H       22.16504        14.72406       -10.83000
|100> *
|101>
|102>                          ****END OF INPUT****

CARTESIAN COORDINATES (ANGSTROEM)
---------------------------------
  C      7.753420  -10.436310   -0.968650
  C      7.150510  -11.652660   -0.938640
  O      6.201110  -11.691730    0.013460
  C      6.198360  -10.505300    0.619150
  C      7.126180   -9.666200    0.055180
  C      7.408870   -8.297290    0.511660
  O      7.210850   -7.949610    1.662190
  C      7.937250   -7.367660   -0.481540
  C      7.884350   -7.397180   -1.857500
  C      8.443810   -6.266590   -2.450450
  C      8.930100   -5.358130   -1.529210
  S      8.669320   -5.905770    0.096000
  C      9.570890   -4.117750   -1.794530
  C     10.065940   -3.209450   -0.878190
  C     10.637620   -2.098910   -1.499250
  C     10.574300   -2.162850   -2.903600
  S      9.813800   -3.588830   -3.453800
  C     11.178400   -1.003550   -3.446650
  C     11.628640   -0.202330   -2.377270
  C     11.301670   -0.861270   -1.122460
  C     11.562860   -0.411680    0.138270
  C     11.197020   -1.142670    1.288460
  N     10.902350   -1.731210    2.227300
  C     12.217020    0.815050    0.380660
  N     12.747420    1.809450    0.591810
  C     12.248620    0.964160   -2.803550
  C     12.274940    1.065030   -4.189450
  S     11.513700   -0.310050   -4.972410
  C     12.840040    2.119340   -4.955220
  C     12.787980    2.122400   -6.365360
  C     13.361430    3.172290   -7.157510
  N     13.268490    3.108830   -8.499930
  C     12.669190    2.106090   -9.056630
  C     12.105830    1.066430   -8.274140
  N     12.173340    1.093590   -6.982270
  F     11.491450    0.033250   -8.844600
  F     12.597780    2.081300  -10.385020
  C     14.032610    4.275220   -6.585460
  C     14.082370    4.283920   -5.170020
  C     13.495670    3.230740   -4.371910
  N     13.664570    3.456240   -3.068460
  S     14.464180    4.829530   -2.860260
  N     14.644720    5.219320   -4.403700
  C     14.619330    5.290160   -7.385600
  C     15.358560    6.380310   -6.940300
  C     15.799410    7.174870   -7.989000
  C     15.386120    6.694720   -9.249140
  S     14.470910    5.258170   -9.136060
  C     15.890120    7.572500  -10.242430
  C     16.619830    8.595860   -9.616230
  C     16.585940    8.384470   -8.180370
  C     17.168570    9.158500   -7.219930
  C     17.073750    8.853530   -5.845640
  N     17.004180    8.615450   -4.725950
  C     17.893530   10.327050   -7.536850
  N     18.468590   11.287700   -7.785350
  C     17.169840    9.506610  -10.523560
  C     16.861530    9.183750  -11.823600
  S     15.872150    7.742830  -11.942520
  C     17.255540    9.888860  -13.010890
  C     16.599170    9.958800  -14.212070
  O     17.259790   10.746550  -15.071780
  C     18.348340   11.204270  -14.441230
  C     18.416640   10.721570  -13.164670
  C     19.532890   10.860130  -12.201210
  O     19.986420    9.896680  -11.613060
  C     20.052250   12.203670  -12.018380
  C     19.555590   13.414850  -12.442010
  C     20.337140   14.497580  -12.015950
  C     21.412350   14.101740  -11.272870
  S     21.489300   12.409460  -11.067220
  H      8.561860  -10.134320   -1.601340
  H      7.301060  -12.540460   -1.520130
  H      5.499350  -10.338200    1.414300
  H      7.429540   -8.196440   -2.413770
  H      8.497600   -6.104660   -3.512810
  H     10.004520   -3.367130    0.183580
  H     12.671280    1.722080   -2.170430
  H     15.547460    6.551650   -5.896730
  H     17.758780   10.362200  -10.250980
  H     15.684490    9.508570  -14.543460
  H     19.020190   11.827100  -14.998310
  H     18.655610   13.516330  -13.020810
  H     20.115870   15.524540  -12.244830
  H     22.165040   14.724060  -10.830000

 Total Charge           Charge          ....    0
 Multiplicity           Mult            ....    1
 Number of Electrons    NEL             ....  532
 Basis Dimension        Dim             .... 1092

ORBITAL ENERGIES
----------------

  NO   OCC          E(Eh)            E(eV)
   0   2.0000     -89.041916     -2422.9537
   1   2.0000     -88.986694     -2421.4511
   2   2.0000     -88.981787     -2421.3175
   3   2.0000     -88.978939     -2421.2400
   4   2.0000     -88.977487     -2421.2005
   5   2.0000     -88.963319     -2420.8150
   6   2.0000     -88.960102     -2420.7274
   7   2.0000     -24.824688      -675.5141
   8   2.0000     -24.824081      -675.4976
   9   2.0000     -19.307331      -525.3792
  10   2.0000     -19.297829      -525.1206
  11   2.0000     -19.204057      -522.5690
  12   2.0000     -19.196003      -522.3498
  13   2.0000     -14.465800      -393.6344
  14   2.0000     -14.465596      -393.6289
  15   2.0000     -14.451009      -393.2320
  16   2.0000     -14.450317      -393.2131
  17   2.0000     -14.423723      -392.4894
  18   2.0000     -14.423386      -392.4803
  19   2.0000     -14.421092      -392.4179
  20   2.0000     -14.420821      -392.4105
  21   2.0000     -10.440861      -284.1103
  22   2.0000     -10.439901      -284.0841
  23   2.0000     -10.368089      -282.1300
  24   2.0000     -10.360273      -281.9174
  25   2.0000     -10.357813      -281.8504
  26   2.0000     -10.354471      -281.7595
  27   2.0000     -10.349539      -281.6253
  28   2.0000     -10.349002      -281.6107
  29   2.0000     -10.345161      -281.5062
  30   2.0000     -10.342016      -281.4206
  31   2.0000     -10.341935      -281.4184
  32   2.0000     -10.341850      -281.4160
  33   2.0000     -10.341736      -281.4129
  34   2.0000     -10.336440      -281.2688
  35   2.0000     -10.329151      -281.0705
  36   2.0000     -10.328128      -281.0426
  37   2.0000     -10.324321      -280.9391
  38   2.0000     -10.324081      -280.9325
  39   2.0000     -10.324039      -280.9314
  40   2.0000     -10.323783      -280.9244
  41   2.0000     -10.321674      -280.8670
  42   2.0000     -10.321656      -280.8665
  43   2.0000     -10.321408      -280.8598
  44   2.0000     -10.319938      -280.8198
  45   2.0000     -10.319773      -280.8153
  46   2.0000     -10.318825      -280.7895
  47   2.0000     -10.318808      -280.7890
  48   2.0000     -10.318201      -280.7725
  49   2.0000     -10.317912      -280.7646
  50   2.0000     -10.317629      -280.7569
  51   2.0000     -10.316029      -280.7134
  52   2.0000     -10.302876      -280.3555
  53   2.0000     -10.299574      -280.2657
  54   2.0000     -10.299086      -280.2524
  55   2.0000     -10.298193      -280.2281
  56   2.0000     -10.297543      -280.2104
  57   2.0000     -10.297395      -280.2064
  58   2.0000     -10.294274      -280.1214
  59   2.0000     -10.292799      -280.0813
  60   2.0000     -10.290105      -280.0080
  61   2.0000     -10.289230      -279.9842
  62   2.0000     -10.289204      -279.9835
  63   2.0000     -10.289194      -279.9832
  64   2.0000     -10.289058      -279.9795
  65   2.0000     -10.288058      -279.9523
  66   2.0000     -10.287260      -279.9306
  67   2.0000     -10.283848      -279.8377
  68   2.0000     -10.278317      -279.6872
  69   2.0000     -10.275050      -279.5983
  70   2.0000     -10.273431      -279.5543
  71   2.0000      -8.132997      -221.3101
  72   2.0000      -8.081251      -219.9020
  73   2.0000      -8.076520      -219.7733
  74   2.0000      -8.071783      -219.6444
  75   2.0000      -8.070438      -219.6078
  76   2.0000      -8.058396      -219.2801
  77   2.0000      -8.055771      -219.2087
  78   2.0000      -6.104101      -166.1010
  79   2.0000      -6.096170      -165.8852
  80   2.0000      -6.095860      -165.8768
  81   2.0000      -6.050513      -164.6428
  82   2.0000      -6.046341      -164.5293
  83   2.0000      -6.045737      -164.5129
  84   2.0000      -6.043599      -164.4547
  85   2.0000      -6.041569      -164.3994
  86   2.0000      -6.041271      -164.3913
  87   2.0000      -6.039919      -164.3546
  88   2.0000      -6.038960      -164.3285
  89   2.0000      -6.036555      -164.2630
  90   2.0000      -6.035199      -164.2261
  91   2.0000      -6.034261      -164.2006
  92   2.0000      -6.032916      -164.1640
  93   2.0000      -6.027723      -164.0227
  94   2.0000      -6.024907      -163.9461
  95   2.0000      -6.023373      -163.9043
  96   2.0000      -6.020657      -163.8304
  97   2.0000      -6.020478      -163.8255
  98   2.0000      -6.018423      -163.7696
  99   2.0000      -1.352452       -36.8021
 100   2.0000      -1.338446       -36.4210
 101   2.0000      -1.227598       -33.4046
 102   2.0000      -1.217839       -33.1391
 103   2.0000      -1.140165       -31.0255
 104   2.0000      -1.123929       -30.5837
 105   2.0000      -1.123224       -30.5645
 106   2.0000      -1.114742       -30.3337
 107   2.0000      -1.051419       -28.6106
 108   2.0000      -1.037465       -28.2308
 109   2.0000      -1.033796       -28.1310
 110   2.0000      -1.015513       -27.6335
 111   2.0000      -1.012402       -27.5489
 112   2.0000      -1.001975       -27.2651
 113   2.0000      -1.000224       -27.2175
 114   2.0000      -0.998629       -27.1741
 115   2.0000      -0.996395       -27.1133
 116   2.0000      -0.990123       -26.9426
 117   2.0000      -0.984807       -26.7979
 118   2.0000      -0.981331       -26.7034
 119   2.0000      -0.970993       -26.4221
 120   2.0000      -0.951393       -25.8887
 121   2.0000      -0.946900       -25.7665
 122   2.0000      -0.924780       -25.1645
 123   2.0000      -0.912169       -24.8214
 124   2.0000      -0.905225       -24.6324
 125   2.0000      -0.898857       -24.4591
 126   2.0000      -0.890207       -24.2238
 127   2.0000      -0.880786       -23.9674
 128   2.0000      -0.866631       -23.5822
 129   2.0000      -0.866108       -23.5680
 130   2.0000      -0.856004       -23.2930
 131   2.0000      -0.850341       -23.1389
 132   2.0000      -0.846131       -23.0244
 133   2.0000      -0.843776       -22.9603
 134   2.0000      -0.842126       -22.9154
 135   2.0000      -0.836538       -22.7634
 136   2.0000      -0.834115       -22.6974
 137   2.0000      -0.833123       -22.6704
 138   2.0000      -0.821495       -22.3540
 139   2.0000      -0.806335       -21.9415
 140   2.0000      -0.790469       -21.5098
 141   2.0000      -0.774685       -21.0802
 142   2.0000      -0.771634       -20.9972
 143   2.0000      -0.767829       -20.8937
 144   2.0000      -0.760806       -20.7026
 145   2.0000      -0.748162       -20.3585
 146   2.0000      -0.743689       -20.2368
 147   2.0000      -0.730674       -19.8827
 148   2.0000      -0.711514       -19.3613
 149   2.0000      -0.702871       -19.1261
 150   2.0000      -0.698587       -19.0095
 151   2.0000      -0.688657       -18.7393
 152   2.0000      -0.687190       -18.6994
 153   2.0000      -0.686057       -18.6686
 154   2.0000      -0.683680       -18.6039
 155   2.0000      -0.677473       -18.4350
 156   2.0000      -0.673667       -18.3314
 157   2.0000      -0.669236       -18.2108
 158   2.0000      -0.665918       -18.1206
 159   2.0000      -0.659489       -17.9456
 160   2.0000      -0.654314       -17.8048
 161   2.0000      -0.653412       -17.7803
 162   2.0000      -0.648481       -17.6461
 163   2.0000      -0.643441       -17.5089
 164   2.0000      -0.632856       -17.2209
 165   2.0000      -0.631541       -17.1851
 166   2.0000      -0.627731       -17.0814
 167   2.0000      -0.623658       -16.9706
 168   2.0000      -0.621554       -16.9134
 169   2.0000      -0.620446       -16.8832
 170   2.0000      -0.615380       -16.7454
 171   2.0000      -0.613821       -16.7029
 172   2.0000      -0.610953       -16.6249
 173   2.0000      -0.602658       -16.3991
 174   2.0000      -0.596643       -16.2355
 175   2.0000      -0.588421       -16.0117
 176   2.0000      -0.579708       -15.7747
 177   2.0000      -0.575217       -15.6525
 178   2.0000      -0.567677       -15.4473
 179   2.0000      -0.566204       -15.4072
 180   2.0000      -0.564009       -15.3475
 181   2.0000      -0.557008       -15.1570
 182   2.0000      -0.555927       -15.1275
 183   2.0000      -0.553086       -15.0502
 184   2.0000      -0.548926       -14.9370
 185   2.0000      -0.540788       -14.7156
 186   2.0000      -0.539733       -14.6869
 187   2.0000      -0.536399       -14.5962
 188   2.0000      -0.533725       -14.5234
 189   2.0000      -0.531052       -14.4507
 190   2.0000      -0.527351       -14.3500
 191   2.0000      -0.524519       -14.2729
 192   2.0000      -0.522974       -14.2309
 193   2.0000      -0.521267       -14.1844
 194   2.0000      -0.518545       -14.1103
 195   2.0000      -0.514055       -13.9882
 196   2.0000      -0.513872       -13.9832
 197   2.0000      -0.510962       -13.9040
 198   2.0000      -0.507462       -13.8087
 199   2.0000      -0.506347       -13.7784
 200   2.0000      -0.502151       -13.6642
 201   2.0000      -0.501521       -13.6471
 202   2.0000      -0.498693       -13.5701
 203   2.0000      -0.494930       -13.4677
 204   2.0000      -0.490802       -13.3554
 205   2.0000      -0.489651       -13.3241
 206   2.0000      -0.487026       -13.2527
 207   2.0000      -0.486436       -13.2366
 208   2.0000      -0.484860       -13.1937
 209   2.0000      -0.484047       -13.1716
 210   2.0000      -0.482013       -13.1163
 211   2.0000      -0.479105       -13.0371
 212   2.0000      -0.477017       -12.9803
 213   2.0000      -0.476295       -12.9606
 214   2.0000      -0.469630       -12.7793
 215   2.0000      -0.466218       -12.6864
 216   2.0000      -0.465761       -12.6740
 217   2.0000      -0.461257       -12.5514
 218   2.0000      -0.460575       -12.5329
 219   2.0000      -0.458160       -12.4672
 220   2.0000      -0.454874       -12.3778
 221   2.0000      -0.454734       -12.3739
 222   2.0000      -0.452775       -12.3206
 223   2.0000      -0.450919       -12.2701
 224   2.0000      -0.449836       -12.2406
 225   2.0000      -0.448118       -12.1939
 226   2.0000      -0.445526       -12.1234
 227   2.0000      -0.442393       -12.0381
 228   2.0000      -0.437685       -11.9100
 229   2.0000      -0.435745       -11.8572
 230   2.0000      -0.433893       -11.8068
 231   2.0000      -0.432596       -11.7715
 232   2.0000      -0.432085       -11.7576
 233   2.0000      -0.430861       -11.7243
 234   2.0000      -0.428971       -11.6729
 235   2.0000      -0.424376       -11.5479
 236   2.0000      -0.423518       -11.5245
 237   2.0000      -0.423288       -11.5182
 238   2.0000      -0.418696       -11.3933
 239   2.0000      -0.418131       -11.3779
 240   2.0000      -0.406699       -11.0669
 241   2.0000      -0.404282       -11.0011
 242   2.0000      -0.402736       -10.9590
 243   2.0000      -0.390307       -10.6208
 244   2.0000      -0.386204       -10.5092
 245   2.0000      -0.377068       -10.2605
 246   2.0000      -0.376008       -10.2317
 247   2.0000      -0.366473        -9.9722
 248   2.0000      -0.359051        -9.7703
 249   2.0000      -0.355117        -9.6632
 250   2.0000      -0.346932        -9.4405
 251   2.0000      -0.342645        -9.3238
 252   2.0000      -0.338967        -9.2238
 253   2.0000      -0.334900        -9.1131
 254   2.0000      -0.334411        -9.0998
 255   2.0000      -0.333300        -9.0696
 256   2.0000      -0.327606        -8.9146
 257   2.0000      -0.327231        -8.9044
 258   2.0000      -0.321358        -8.7446
 259   2.0000      -0.315339        -8.5808
 260   2.0000      -0.313081        -8.5194
 261   2.0000      -0.311528        -8.4771
 262   2.0000      -0.304400        -8.2832
 263   2.0000      -0.294306        -8.0085
 264   2.0000      -0.263829        -7.1791
 265   2.0000      -0.231169        -6.2904
 266   0.0000      -0.120014        -3.2657
 267   0.0000      -0.095272        -2.5925
 268   0.0000      -0.089499        -2.4354
 269   0.0000      -0.049151        -1.3375
 270   0.0000      -0.035245        -0.9591

MULLIKEN ATOMIC CHARGES
-----------------------
   0 C :   -0.044048
   1 C :    0.129366
   2 O :   -0.166895
   3 C :    0.111343
   4 C :   -0.056755
   5 C :    0.187726
   6 O :   -0.181837
   7 C :   -0.164876
   8 C :    0.039137
   9 C :   -0.035826
  10 C :   -0.051379
  11 S :    0.190421
  12 C :   -0.029369
  13 C :   -0.064302
  14 C :    0.015255
  15 C :   -0.105259
  16 S :    0.183836
  17 C :   -0.066483
  18 C :    0.035471
  19 C :    0.307300
  20 C :   -0.303586
  21 C :   -0.193829
  22 N :    0.175924
  23 C :   -0.186837
  24 N :    0.172102
  25 C :   -0.064099
  26 C :   -0.183718
  27 S :    0.197058
  28 C :    0.181801
  29 C :   -0.060825
  30 C :   -0.067765
  31 N :   -0.040460
  32 C :    0.145954
  33 C :    0.148949
  34 N :   -0.045823
  35 F :   -0.138585
  36 F :   -0.138402
  37 C :    0.191878
  38 C :   -0.015636
  39 C :   -0.012062
  40 N :   -0.288754
  41 S :    0.574968
  42 N :   -0.285600
  43 C :   -0.189645
  44 C :   -0.062328
  45 C :    0.033392
  46 C :   -0.064037
  47 S :    0.195283
  48 C :   -0.106495
  49 C :   -0.002734
  50 C :    0.311893
  51 C :   -0.303013
  52 C :   -0.189296
  53 N :    0.167907
  54 C :   -0.183674
  55 N :    0.166777
  56 C :   -0.011711
  57 C :   -0.094740
  58 S :    0.185484
  59 C :    0.091673
  60 C :    0.050501
  61 O :   -0.165910
  62 C :    0.085094
  63 C :   -0.063540
  64 C :    0.168625
  65 O :   -0.172358
  66 C :   -0.210234
  67 C :    0.044709
  68 C :    0.031242
  69 C :   -0.052524
  70 S :    0.188952
  71 H :   -0.003890
  72 H :    0.014349
  73 H :    0.023511
  74 H :   -0.001942
  75 H :   -0.009860
  76 H :    0.017930
  77 H :    0.020953
  78 H :    0.020067
  79 H :    0.013279
  80 H :    0.010643
  81 H :    0.019430
  82 H :   -0.001815
  83 H :   -0.004762
  84 H :    0.037336
Sum of atomic charges:   -0.0000000

LOEWDIN ATOMIC CHARGES
----------------------
   0 C :   -0.068070
   1 C :    0.030034
   2 O :    0.037238
   3 C :    0.072705
   4 C :   -0.115036
   5 C :    0.055839
   6 O :   -0.165720
   7 C :   -0.214673
   8 C :   -0.031308
   9 C :   -0.074293
  10 C :   -0.174101
  11 S :    0.490325
  12 C :   -0.178248
  13 C :   -0.030297
  14 C :   -0.066754
  15 C :   -0.177244
  16 S :    0.476328
  17 C :   -0.185105
  18 C :   -0.074707
  19 C :    0.081714
  20 C :   -0.102815
  21 C :   -0.018305
  22 N :   -0.032050
  23 C :   -0.016291
  24 N :   -0.033557
  25 C :   -0.013610
  26 C :   -0.167278
  27 S :    0.504172
  28 C :   -0.048302
  29 C :   -0.017745
  30 C :   -0.021205
  31 N :   -0.053497
  32 C :    0.059802
  33 C :    0.062487
  34 N :   -0.056075
  35 F :   -0.027620
  36 F :   -0.027803
  37 C :   -0.039697
  38 C :   -0.039747
  39 C :   -0.037853
  40 N :   -0.275410
  41 S :    0.694170
  42 N :   -0.272713
  43 C :   -0.173225
  44 C :   -0.008765
  45 C :   -0.078525
  46 C :   -0.176080
  47 S :    0.503883
  48 C :   -0.185835
  49 C :   -0.062808
  50 C :    0.083544
  51 C :   -0.104380
  52 C :   -0.016193
  53 N :   -0.036764
  54 C :   -0.015372
  55 N :   -0.035860
  56 C :   -0.020909
  57 C :   -0.154595
  58 S :    0.472879
  59 C :   -0.072986
  60 C :    0.030926
  61 O :    0.036372
  62 C :    0.052682
  63 C :   -0.092167
  64 C :    0.055564
  65 O :   -0.154765
  66 C :   -0.227810
  67 C :   -0.031703
  68 C :   -0.070873
  69 C :   -0.160620
  70 S :    0.493955
  71 H :    0.031425
  72 H :    0.023918
  73 H :    0.031221
  74 H :    0.035231
  75 H :    0.025023
  76 H :    0.038980
  77 H :    0.037348
  78 H :    0.037399
  79 H :    0.040102
  80 H :    0.023362
  81 H :    0.028041
  82 H :    0.031722
  83 H :    0.031486
  84 H :    0.027489

  Mayer bond orders larger than 0.100000
B(  0-C ,  1-C ) :   1.5773 B(  0-C ,  4-C ) :   1.2233 B(  0-C , 71-H ) :   1.0090
B(  1-C ,  2-O ) :   1.1415 B(  1-C , 72-H ) :   1.0011 B(  2-O ,  3-C ) :   1.1941
B(  3-C ,  4-C ) :   1.5279 B(  3-C , 73-H ) :   1.0075 B(  4-C ,  5-C ) :   0.9628
B(  5-C ,  6-O ) :   2.2382 B(  5-C ,  7-C ) :   0.9682 B(  7-C ,  8-C ) :   1.5181
B(  7-C , 10-C ) :   0.1102 B(  7-C , 11-S ) :   1.1237 B(  8-C ,  9-C ) :   1.2801
B(  8-C , 74-H ) :   0.9916 B(  9-C , 10-C ) :   1.4795 B(  9-C , 75-H ) :   0.9948
B( 10-C , 11-S ) :   1.1607 B( 10-C , 12-C ) :   1.1532 B( 12-C , 13-C ) :   1.4606
B( 12-C , 16-S ) :   1.1040 B( 13-C , 14-C ) :   1.2943 B( 13-C , 76-H ) :   0.9921
B( 14-C , 15-C ) :   1.4347 B( 14-C , 19-C ) :   0.9908 B( 15-C , 16-S ) :   1.1214
B( 15-C , 17-C ) :   1.1949 B( 17-C , 18-C ) :   1.4101 B( 17-C , 27-S ) :   1.0883
B( 18-C , 19-C ) :   0.9916 B( 18-C , 25-C ) :   1.2710 B( 19-C , 20-C ) :   1.7110
B( 20-C , 21-C ) :   1.1315 B( 20-C , 23-C ) :   1.1396 B( 21-C , 22-N ) :   2.9958
B( 23-C , 24-N ) :   2.9862 B( 25-C , 26-C ) :   1.4249 B( 25-C , 77-H ) :   0.9810
B( 26-C , 27-S ) :   1.0883 B( 26-C , 28-C ) :   1.1868 B( 28-C , 29-C ) :   1.3001
B( 28-C , 37-C ) :   0.1288 B( 28-C , 39-C ) :   1.1925 B( 29-C , 30-C ) :   1.1159
B( 29-C , 34-N ) :   1.3775 B( 30-C , 31-N ) :   1.3831 B( 30-C , 37-C ) :   1.2910
B( 31-N , 32-C ) :   1.6530 B( 32-C , 33-C ) :   1.1115 B( 32-C , 36-F ) :   1.1836
B( 33-C , 34-N ) :   1.6551 B( 33-C , 35-F ) :   1.1827 B( 37-C , 38-C ) :   1.1926
B( 37-C , 43-C ) :   1.1956 B( 38-C , 39-C ) :   1.1015 B( 38-C , 42-N ) :   1.5132
B( 39-C , 40-N ) :   1.5135 B( 40-N , 41-S ) :   1.2794 B( 40-N , 42-N ) :   0.1489
B( 41-S , 42-N ) :   1.2838 B( 43-C , 44-C ) :   1.4188 B( 43-C , 47-S ) :   1.0806
B( 44-C , 45-C ) :   1.2764 B( 44-C , 78-H ) :   0.9819 B( 45-C , 46-C ) :   1.4078
B( 45-C , 50-C ) :   0.9877 B( 46-C , 47-S ) :   1.0971 B( 46-C , 48-C ) :   1.1888
B( 48-C , 49-C ) :   1.4425 B( 48-C , 58-S ) :   1.1130 B( 49-C , 50-C ) :   0.9955
B( 49-C , 56-C ) :   1.2848 B( 50-C , 51-C ) :   1.7079 B( 51-C , 52-C ) :   1.1401
B( 51-C , 54-C ) :   1.1327 B( 52-C , 53-N ) :   2.9868 B( 54-C , 55-N ) :   2.9843
B( 56-C , 57-C ) :   1.5059 B( 56-C , 79-H ) :   0.9834 B( 57-C , 58-S ) :   1.1157
B( 57-C , 59-C ) :   1.0422 B( 59-C , 60-C ) :   1.5144 B( 59-C , 63-C ) :   1.2702
B( 60-C , 61-O ) :   1.1522 B( 60-C , 80-H ) :   1.0073 B( 61-O , 62-C ) :   1.1733
B( 62-C , 63-C ) :   1.5426 B( 62-C , 81-H ) :   1.0061 B( 63-C , 64-C ) :   0.9050
B( 64-C , 65-O ) :   2.2266 B( 64-C , 66-C ) :   1.0026 B( 66-C , 67-C ) :   1.5112
B( 66-C , 70-S ) :   1.1488 B( 67-C , 68-C ) :   1.2825 B( 67-C , 82-H ) :   0.9854
B( 68-C , 69-C ) :   1.5424 B( 68-C , 83-H ) :   0.9947 B( 69-C , 70-S ) :   1.2154
B( 69-C , 84-H ) :   0.9727

-----------------------------------------------------------------------------
         ABSORPTION SPECTRUM VIA TRANSITION ELECTRIC DIPOLE MOMENTS
-----------------------------------------------------------------------------
State   Energy  Wavelength   fosc         T2         TX        TY        TZ
        (cm-1)    (nm)                  (au**2)     (au)      (au)      (au)
-----------------------------------------------------------------------------
   0    9088.4   1100.3   0.752305412  27.25096   2.11601   3.87969  -2.77876
   1   12521.9    798.6   0.006154449   0.16181  -0.09734  -0.11878   0.37178
   2   13581.9    736.3   0.005524776   0.13392  -0.17551  -0.29758   0.12067
   3   17576.1    569.0   0.001273222   0.02385  -0.01261  -0.13517  -0.07360
   4   22183.5    450.8   0.011654884   0.17296   0.17118   0.32129  -0.20108
   5   23754.4    421.0   0.081248216   1.12602  -0.39981  -0.82294   0.53753
   6   24631.4    406.0   0.600599647   8.02733   1.19473   2.20584  -1.31690
   7   25500.7    392.1   0.096255843   1.24266   0.47549   0.90614  -0.44214
   8   26302.1    380.2   0.591783991   7.40710   1.16687   2.28505  -0.90778
   9   26533.2    376.9   0.095014063   1.17889   0.53429   0.89723   0.29733
  10   27108.7    368.9   0.137243128   1.66670   0.47726   0.90260  -0.79008
  11   29366.0    340.5   0.041128790   0.46108   0.24312   0.40093   0.49115
  12   29687.8    336.8   0.184461911   2.04552  -0.44731  -0.74211   1.13785
  13   30154.0    331.6   0.102082045   1.11450  -0.20797  -0.42395   0.94420
  14   30642.5    326.3   0.116967002   1.25665  -0.20857  -0.46110   1.00027
  15   30891.0    323.7   0.139087564   1.48229   0.46175   0.76052  -0.83107
  16   31081.2    321.7   0.062327825   0.66018  -0.29700  -0.42969   0.62237
  17   31374.4    318.7   0.062804385   0.65901   0.13771   0.27502   0.75127
  18   31482.6    317.6   0.195438552   2.04369   0.55759   0.96844  -0.89158
  19   31693.1    315.5   0.186864509   1.94105   0.37163   0.56006   1.22036
  20   31982.7    312.7   0.211106832   2.17302  -0.55407  -0.92659  -1.00372
  21   32101.2    311.5   0.003686212   0.03780   0.10454   0.16062  -0.03279
  22   32230.0    310.3   0.239899591   2.45044   0.63574   1.28486  -0.62882
  23   32530.1    307.4   0.500533276   5.06551   0.67511   0.93208   1.93416
  24   32701.6    305.8   0.067221245   0.67673   0.45497   0.58625   0.35502
  25   33243.1    300.8   0.018092127   0.17917  -0.27981  -0.30038   0.10318
  26   33679.2    296.9   0.022135113   0.21637   0.22125   0.30290   0.27508
  27   33951.9    294.5   0.006766222   0.06561   0.12197   0.03048   0.22316
  28   34172.2    292.6   0.238595709   2.29861   0.61358   0.93453   1.02410
  29   34500.0    289.9   0.227196876   2.16800  -0.73336  -1.26532  -0.17076
  30   34605.9    289.0   0.058127567   0.55298   0.04653   0.05541  -0.74010
  31   34710.8    288.1   0.192354725   1.82437  -0.62468  -1.15485   0.31698
  32   35375.1    282.7   0.255215983   2.37512  -0.55629  -0.81675  -1.18262
  33   35629.5    280.7   0.003481582   0.03217  -0.07603  -0.16226   0.00779
  34   35776.9    279.5   0.100305016   0.92299   0.05074  -0.07262   0.95663
  35   35863.5    278.8   0.005002433   0.04592   0.02312  -0.02700   0.21132
  36   36307.7    275.4   0.079052084   0.71679   0.25938   0.41937   0.68822
  37   36407.0    274.7   0.202043518   1.82699   0.00795   0.13212  -1.34516
  38   36581.8    273.4   0.027320700   0.24587   0.09815   0.23926  -0.42307
  39   37224.6    268.6   0.029881618   0.26427   0.01689  -0.12055   0.49945
  40   37282.3    268.2   0.020186900   0.17826  -0.00040  -0.08008   0.41454
  41   37420.5    267.2   0.013556535   0.11927  -0.05457  -0.10797   0.32347
  42   37744.3    264.9   0.307881592   2.68539   0.28061   0.43705   1.55423
  43   38101.6    262.5   0.005724584   0.04946   0.07993   0.14588   0.14762
  44   38585.1    259.2   0.000731685   0.00624  -0.01200   0.00318  -0.07803
  45   38771.1    257.9   0.006149013   0.05221   0.09266   0.16944   0.12213
  46   38855.2    257.4   0.047449387   0.40203   0.00439  -0.10031   0.62606
  47   39169.1    255.3   0.005921119   0.04977   0.01458  -0.07995   0.20775
  48   39286.2    254.5   0.004405062   0.03691   0.06782   0.10443   0.14632
  49   39517.0    253.1   0.000396167   0.00330  -0.01833  -0.04337   0.03292
  50   39757.7    251.5   0.013800444   0.11427  -0.07155  -0.23464   0.23259
  51   40016.5    249.9   0.013894969   0.11431  -0.17842  -0.25303  -0.13585
  52   40155.8    249.0   0.052845607   0.43325  -0.17050  -0.29012  -0.56569

FINAL SINGLE POINT ENERGY     -5635.156247455412

DIPOLE MOMENT
-------------
                                X             Y             Z
Electronic contribution:     -2.69217       1.73628      -3.89637
Nuclear contribution   :      2.15661      -1.61357      -0.83247
                        -----------------------------------------
Total Dipole Moment    :     -0.53557       0.12270      -4.72885
                        -----------------------------------------
Magnitude (a.u.)       :      4.76066
Magnitude (Debye)      :     12.10063

Rotational constants in cm-1:     0.002761     0.000203     0.000191
Rotational constants in MHz :    82.784979     6.078371     5.715995

                             ****ORCA TERMINATED NORMALLY****
TOTAL RUN TIME: 0 days 0 hours 8 minutes 0 seconds 650 msec
