                         Program Version 4.2.0 -  RELEASE  -
|  1> # ORCA input file
|  2> # SCF done       -197.357040415660          0.000882496798
|  3> ! CAM-B3LYP def2-SVP def2/J RIJCOSX Grid4 TightSCF
|  4> %maxcore 5000
|  5> %tddft
|  6>     Mode sTDDFT
|  7>     Ethresh 5.0
|  8>     maxcore 5000
|  9> end
| 10>
| 11> %pal
| 12>   nprocs 6
| 13>   end
| 14> * xyz 0 1
| 15>    C       -6.62840        -2.25271         4.83117
| 16>    C       -7.33615        -3.34015         5.52937
| 17>    O       -7.45162        -4.49871         5.17812
| 18>    C       -7.92635        -2.71792         6.73063
| 19>    C       -7.46604        -1.39319         6.84311
| 20>    C       -6.55234        -1.12468         5.74075
| 21>    C       -5.69148        -0.06450         5.64312
| 22>    C       -5.57301         0.93372         6.62999
| 23>    N       -5.42302         1.75600         7.41759
| 24>    C       -4.76140         0.10417         4.59544
| 25>    N       -3.97914         0.28929         3.77593
| 26>    C       -7.93194        -0.58800         7.87078
| 27>    C       -8.84576        -1.11638         8.76866
| 28>    C       -9.27474        -2.43369         8.65427
| 29>    C       -8.82028        -3.25796         7.63071
| 30>   Cl      -10.39543        -3.05455         9.79953
| 31>    C       -6.30331        -2.23107         3.50282
| 32>    C       -6.34882        -3.27847         2.56427
| 33>    C       -6.24447        -3.08434         1.18316
| 34>    C       -6.24602        -4.27717         0.48101
| 35>    C       -6.29513        -5.39919         1.34708
| 36>    S       -6.45019        -4.98453         2.98811
| 37>    C       -6.21568        -6.56390         0.56218
| 38>    C       -6.14226        -6.20321        -0.80389
| 39>    C       -6.17570        -4.74805        -0.89205
| 40>    C       -6.14816        -3.99321        -2.02873
| 41>    C       -6.08349        -4.57669        -3.31073
| 42>    N       -6.02889        -5.05244        -4.35295
| 43>    C       -6.19291        -2.58374        -1.99674
| 44>    N       -6.23811        -1.43800        -1.97749
| 45>    C       -6.00821        -7.29930        -1.64031
| 46>    C       -5.92111        -8.50183        -0.92688
| 47>    S       -6.08468        -8.23969         0.80943
| 48>    C       -5.64637        -9.76839        -1.46340
| 49>    C       -5.22293       -10.86516        -0.74470
| 50>    C       -4.79804       -12.12363        -1.23833
| 51>    C       -4.22990       -12.93887        -0.29836
| 52>    C       -4.17893       -12.36301         0.98563
| 53>    S       -4.96212       -10.80252         0.98278
| 54>    C       -3.55057       -12.74366         2.16385
| 55>    C       -2.84383       -13.89755         2.54494
| 56>    C       -2.28015       -13.80839         3.78940
| 57>    C       -2.49669       -12.57400         4.44775
| 58>    S       -3.50310       -11.55794         3.44664
| 59>    C       -1.95641       -12.17250         5.65376
| 60>    C       -2.06560       -10.90733         6.24224
| 61>    C       -2.76901        -9.77327         5.81673
| 62>    C       -2.55492        -8.67953         6.63069
| 63>    C       -1.69096        -8.94430         7.72002
| 64>    S       -1.15243       -10.57097         7.71838
| 65>    C       -1.53515        -7.76188         8.46346
| 66>    C       -2.29962        -6.73891         7.84334
| 67>    C       -2.97289        -7.28363         6.68797
| 68>    C       -3.83063        -6.63175         5.84506
| 69>    C       -4.19634        -5.28510         6.05037
| 70>    N       -4.49470        -4.18973         6.22009
| 71>    C       -4.39184        -7.24765         4.70849
| 72>    N       -4.82646        -7.72718         3.76095
| 73>    C       -2.20559        -5.52184         8.49675
| 74>    C       -1.39470        -5.58138         9.62295
| 75>    S       -0.70682        -7.19378         9.84094
| 76>    C       -1.05242        -4.54251        10.50899
| 77>    C       -1.67567        -3.33530        10.65362
| 78>    C       -0.93790        -2.19191        11.25435
| 79>    O        0.10018        -2.24174        11.87129
| 80>    C       -1.72072        -0.99247        10.87690
| 81>    C       -2.90392        -1.39156        10.22689
| 82>    C       -2.96716        -2.84978        10.22271
| 83>    C       -4.11777        -3.58514        10.08851
| 84>    C       -5.36912        -3.02931         9.76724
| 85>    N       -6.41344        -2.63659         9.49690
| 86>    C       -4.20544        -4.96957        10.33309
| 87>    N       -4.33784        -6.08955        10.54935
| 88>    C       -3.77445        -0.43403         9.73027
| 89>    C       -3.46039         0.90616         9.89621
| 90>    C       -2.29915         1.28425        10.56217
| 91>    C       -1.40877         0.33815        11.06186
| 92>   Cl       -1.95194         2.95678        10.76515
| 93>    H       -7.60849         0.43528         7.97622
| 94>    H       -9.22249        -0.50564         9.57390
| 95>    H       -9.15076        -4.28047         7.53843
| 96>    H       -6.01166        -1.27648         3.07823
| 97>    H       -6.17501        -2.10445         0.74486
| 98>    H       -5.93068        -7.25774        -2.71190
| 99>    H       -5.69104        -9.86159        -2.54044
|100>    H       -4.89375       -12.37792        -2.27931
|101>    H       -3.81696       -13.90960        -0.50781
|102>    H       -2.75919       -14.75524         1.90168
|103>    H       -1.69293       -14.58788         4.24215
|104>    H       -1.34324       -12.89665         6.17395
|105>    H       -3.40561        -9.75221         4.95411
|106>    H       -2.66013        -4.61166         8.15034
|107>    H       -0.14719        -4.67302        11.09250
|108>    H       -4.67584        -0.70799         9.20554
|109>    H       -4.11880         1.65966         9.49231
|110>    H       -0.50436         0.62780        11.57302
|111> *
|112>
|113>                          ****END OF INPUT****

CARTESIAN COORDINATES (ANGSTROEM)
---------------------------------
  C     -6.628400   -2.252710    4.831170
  C     -7.336150   -3.340150    5.529370
  O     -7.451620   -4.498710    5.178120
  C     -7.926350   -2.717920    6.730630
  C     -7.466040   -1.393190    6.843110
  C     -6.552340   -1.124680    5.740750
  C     -5.691480   -0.064500    5.643120
  C     -5.573010    0.933720    6.629990
  N     -5.423020    1.756000    7.417590
  C     -4.761400    0.104170    4.595440
  N     -3.979140    0.289290    3.775930
  C     -7.931940   -0.588000    7.870780
  C     -8.845760   -1.116380    8.768660
  C     -9.274740   -2.433690    8.654270
  C     -8.820280   -3.257960    7.630710
  Cl   -10.395430   -3.054550    9.799530
  C     -6.303310   -2.231070    3.502820
  C     -6.348820   -3.278470    2.564270
  C     -6.244470   -3.084340    1.183160
  C     -6.246020   -4.277170    0.481010
  C     -6.295130   -5.399190    1.347080
  S     -6.450190   -4.984530    2.988110
  C     -6.215680   -6.563900    0.562180
  C     -6.142260   -6.203210   -0.803890
  C     -6.175700   -4.748050   -0.892050
  C     -6.148160   -3.993210   -2.028730
  C     -6.083490   -4.576690   -3.310730
  N     -6.028890   -5.052440   -4.352950
  C     -6.192910   -2.583740   -1.996740
  N     -6.238110   -1.438000   -1.977490
  C     -6.008210   -7.299300   -1.640310
  C     -5.921110   -8.501830   -0.926880
  S     -6.084680   -8.239690    0.809430
  C     -5.646370   -9.768390   -1.463400
  C     -5.222930  -10.865160   -0.744700
  C     -4.798040  -12.123630   -1.238330
  C     -4.229900  -12.938870   -0.298360
  C     -4.178930  -12.363010    0.985630
  S     -4.962120  -10.802520    0.982780
  C     -3.550570  -12.743660    2.163850
  C     -2.843830  -13.897550    2.544940
  C     -2.280150  -13.808390    3.789400
  C     -2.496690  -12.574000    4.447750
  S     -3.503100  -11.557940    3.446640
  C     -1.956410  -12.172500    5.653760
  C     -2.065600  -10.907330    6.242240
  C     -2.769010   -9.773270    5.816730
  C     -2.554920   -8.679530    6.630690
  C     -1.690960   -8.944300    7.720020
  S     -1.152430  -10.570970    7.718380
  C     -1.535150   -7.761880    8.463460
  C     -2.299620   -6.738910    7.843340
  C     -2.972890   -7.283630    6.687970
  C     -3.830630   -6.631750    5.845060
  C     -4.196340   -5.285100    6.050370
  N     -4.494700   -4.189730    6.220090
  C     -4.391840   -7.247650    4.708490
  N     -4.826460   -7.727180    3.760950
  C     -2.205590   -5.521840    8.496750
  C     -1.394700   -5.581380    9.622950
  S     -0.706820   -7.193780    9.840940
  C     -1.052420   -4.542510   10.508990
  C     -1.675670   -3.335300   10.653620
  C     -0.937900   -2.191910   11.254350
  O      0.100180   -2.241740   11.871290
  C     -1.720720   -0.992470   10.876900
  C     -2.903920   -1.391560   10.226890
  C     -2.967160   -2.849780   10.222710
  C     -4.117770   -3.585140   10.088510
  C     -5.369120   -3.029310    9.767240
  N     -6.413440   -2.636590    9.496900
  C     -4.205440   -4.969570   10.333090
  N     -4.337840   -6.089550   10.549350
  C     -3.774450   -0.434030    9.730270
  C     -3.460390    0.906160    9.896210
  C     -2.299150    1.284250   10.562170
  C     -1.408770    0.338150   11.061860
  Cl    -1.951940    2.956780   10.765150
  H     -7.608490    0.435280    7.976220
  H     -9.222490   -0.505640    9.573900
  H     -9.150760   -4.280470    7.538430
  H     -6.011660   -1.276480    3.078230
  H     -6.175010   -2.104450    0.744860
  H     -5.930680   -7.257740   -2.711900
  H     -5.691040   -9.861590   -2.540440
  H     -4.893750  -12.377920   -2.279310
  H     -3.816960  -13.909600   -0.507810
  H     -2.759190  -14.755240    1.901680
  H     -1.692930  -14.587880    4.242150
  H     -1.343240  -12.896650    6.173950
  H     -3.405610   -9.752210    4.954110
  H     -2.660130   -4.611660    8.150340
  H     -0.147190   -4.673020   11.092500
  H     -4.675840   -0.707990    9.205540
  H     -4.118800    1.659660    9.492310
  H     -0.504360    0.627800   11.573020

 Total Charge           Charge          ....    0
 Multiplicity           Mult            ....    1
 Number of Electrons    NEL             ....  580
 Basis Dimension        Dim             .... 1214

ORBITAL ENERGIES
----------------

  NO   OCC          E(Eh)            E(eV)
   0   2.0000    -101.586841     -2764.3185
   1   2.0000    -101.584864     -2764.2647
   2   2.0000     -88.996918     -2421.7292
   3   2.0000     -88.992791     -2421.6170
   4   2.0000     -88.985517     -2421.4190
   5   2.0000     -88.982940     -2421.3489
   6   2.0000     -88.963671     -2420.8246
   7   2.0000     -88.962061     -2420.7807
   8   2.0000     -19.220475      -523.0157
   9   2.0000     -19.215835      -522.8894
  10   2.0000     -14.441671      -392.9778
  11   2.0000     -14.441004      -392.9597
  12   2.0000     -14.426560      -392.5667
  13   2.0000     -14.425250      -392.5310
  14   2.0000     -14.417711      -392.3259
  15   2.0000     -14.417572      -392.3221
  16   2.0000     -14.415975      -392.2786
  17   2.0000     -14.410549      -392.1310
  18   2.0000     -10.372145      -282.2404
  19   2.0000     -10.369263      -282.1620
  20   2.0000     -10.367426      -282.1120
  21   2.0000     -10.360606      -281.9264
  22   2.0000     -10.358983      -281.8823
  23   2.0000     -10.349765      -281.6314
  24   2.0000     -10.347815      -281.5784
  25   2.0000     -10.343349      -281.4568
  26   2.0000     -10.343230      -281.4536
  27   2.0000     -10.342149      -281.4242
  28   2.0000     -10.342137      -281.4239
  29   2.0000     -10.340707      -281.3849
  30   2.0000     -10.338045      -281.3125
  31   2.0000     -10.337314      -281.2926
  32   2.0000     -10.335678      -281.2481
  33   2.0000     -10.335586      -281.2456
  34   2.0000     -10.333945      -281.2009
  35   2.0000     -10.330329      -281.1025
  36   2.0000     -10.329173      -281.0711
  37   2.0000     -10.327323      -281.0207
  38   2.0000     -10.327156      -281.0162
  39   2.0000     -10.327032      -281.0128
  40   2.0000     -10.327006      -281.0121
  41   2.0000     -10.325737      -280.9776
  42   2.0000     -10.325632      -280.9747
  43   2.0000     -10.325449      -280.9698
  44   2.0000     -10.325339      -280.9668
  45   2.0000     -10.324343      -280.9397
  46   2.0000     -10.321905      -280.8733
  47   2.0000     -10.320458      -280.8339
  48   2.0000     -10.320135      -280.8252
  49   2.0000     -10.319373      -280.8044
  50   2.0000     -10.318243      -280.7737
  51   2.0000     -10.314402      -280.6692
  52   2.0000     -10.314304      -280.6665
  53   2.0000     -10.313539      -280.6457
  54   2.0000     -10.308607      -280.5115
  55   2.0000     -10.308233      -280.5013
  56   2.0000     -10.306230      -280.4468
  57   2.0000     -10.306136      -280.4442
  58   2.0000     -10.305577      -280.4290
  59   2.0000     -10.305089      -280.4157
  60   2.0000     -10.305023      -280.4139
  61   2.0000     -10.304876      -280.4099
  62   2.0000     -10.304705      -280.4053
  63   2.0000     -10.304520      -280.4002
  64   2.0000     -10.302606      -280.3482
  65   2.0000     -10.302313      -280.3402
  66   2.0000     -10.299204      -280.2556
  67   2.0000     -10.298806      -280.2448
  68   2.0000     -10.298215      -280.2287
  69   2.0000     -10.297132      -280.1992
  70   2.0000     -10.295608      -280.1577
  71   2.0000     -10.294494      -280.1274
  72   2.0000     -10.293562      -280.1020
  73   2.0000     -10.291862      -280.0558
  74   2.0000     -10.291708      -280.0516
  75   2.0000     -10.290430      -280.0168
  76   2.0000     -10.289599      -279.9942
  77   2.0000     -10.289381      -279.9883
  78   2.0000      -9.542007      -259.6512
  79   2.0000      -9.540004      -259.5967
  80   2.0000      -8.091547      -220.1822
  81   2.0000      -8.087402      -220.0694
  82   2.0000      -8.079727      -219.8605
  83   2.0000      -8.075331      -219.7409
  84   2.0000      -8.059552      -219.3116
  85   2.0000      -8.058792      -219.2909
  86   2.0000      -7.312194      -198.9749
  87   2.0000      -7.310141      -198.9191
  88   2.0000      -7.302295      -198.7055
  89   2.0000      -7.301721      -198.6899
  90   2.0000      -7.300316      -198.6517
  91   2.0000      -7.299774      -198.6370
  92   2.0000      -6.060744      -164.9212
  93   2.0000      -6.056692      -164.8110
  94   2.0000      -6.056603      -164.8086
  95   2.0000      -6.053951      -164.7364
  96   2.0000      -6.052632      -164.7005
  97   2.0000      -6.049562      -164.6170
  98   2.0000      -6.048881      -164.5984
  99   2.0000      -6.044643      -164.4831
 100   2.0000      -6.044552      -164.4806
 101   2.0000      -6.042255      -164.4181
 102   2.0000      -6.040023      -164.3574
 103   2.0000      -6.037950      -164.3010
 104   2.0000      -6.029280      -164.0651
 105   2.0000      -6.028507      -164.0440
 106   2.0000      -6.025042      -163.9497
 107   2.0000      -6.024231      -163.9277
 108   2.0000      -6.020697      -163.8315
 109   2.0000      -6.019714      -163.8048
 110   2.0000      -1.136220       -30.9181
 111   2.0000      -1.131195       -30.7814
 112   2.0000      -1.051821       -28.6215
 113   2.0000      -1.040965       -28.3261
 114   2.0000      -1.031609       -28.0715
 115   2.0000      -1.021456       -27.7952
 116   2.0000      -1.018717       -27.7207
 117   2.0000      -1.018157       -27.7054
 118   2.0000      -1.016958       -27.6728
 119   2.0000      -1.016353       -27.6564
 120   2.0000      -1.004357       -27.3300
 121   2.0000      -1.003486       -27.3062
 122   2.0000      -1.003160       -27.2974
 123   2.0000      -0.999686       -27.2028
 124   2.0000      -0.997582       -27.1456
 125   2.0000      -0.994580       -27.0639
 126   2.0000      -0.992491       -27.0071
 127   2.0000      -0.988156       -26.8891
 128   2.0000      -0.978814       -26.6349
 129   2.0000      -0.975296       -26.5391
 130   2.0000      -0.966353       -26.2958
 131   2.0000      -0.956283       -26.0218
 132   2.0000      -0.933496       -25.4017
 133   2.0000      -0.926479       -25.2108
 134   2.0000      -0.924744       -25.1636
 135   2.0000      -0.918340       -24.9893
 136   2.0000      -0.907029       -24.6815
 137   2.0000      -0.901310       -24.5259
 138   2.0000      -0.894714       -24.3464
 139   2.0000      -0.884007       -24.0551
 140   2.0000      -0.881118       -23.9764
 141   2.0000      -0.873587       -23.7715
 142   2.0000      -0.869824       -23.6691
 143   2.0000      -0.864271       -23.5180
 144   2.0000      -0.860548       -23.4167
 145   2.0000      -0.858687       -23.3660
 146   2.0000      -0.853432       -23.2231
 147   2.0000      -0.852335       -23.1932
 148   2.0000      -0.848336       -23.0844
 149   2.0000      -0.836525       -22.7630
 150   2.0000      -0.826576       -22.4923
 151   2.0000      -0.806057       -21.9339
 152   2.0000      -0.797625       -21.7045
 153   2.0000      -0.787055       -21.4168
 154   2.0000      -0.777985       -21.1700
 155   2.0000      -0.773380       -21.0447
 156   2.0000      -0.766147       -20.8479
 157   2.0000      -0.762598       -20.7514
 158   2.0000      -0.757154       -20.6032
 159   2.0000      -0.742583       -20.2067
 160   2.0000      -0.721820       -19.6417
 161   2.0000      -0.715453       -19.4685
 162   2.0000      -0.705529       -19.1984
 163   2.0000      -0.703028       -19.1304
 164   2.0000      -0.695983       -18.9387
 165   2.0000      -0.693780       -18.8787
 166   2.0000      -0.691217       -18.8090
 167   2.0000      -0.689129       -18.7521
 168   2.0000      -0.682122       -18.5615
 169   2.0000      -0.680220       -18.5097
 170   2.0000      -0.679362       -18.4864
 171   2.0000      -0.675040       -18.3688
 172   2.0000      -0.666020       -18.1233
 173   2.0000      -0.654101       -17.7990
 174   2.0000      -0.646911       -17.6033
 175   2.0000      -0.644128       -17.5276
 176   2.0000      -0.641632       -17.4597
 177   2.0000      -0.639803       -17.4099
 178   2.0000      -0.628646       -17.1063
 179   2.0000      -0.625300       -17.0153
 180   2.0000      -0.620795       -16.8927
 181   2.0000      -0.616849       -16.7853
 182   2.0000      -0.613027       -16.6813
 183   2.0000      -0.611779       -16.6474
 184   2.0000      -0.609848       -16.5948
 185   2.0000      -0.608568       -16.5600
 186   2.0000      -0.601766       -16.3749
 187   2.0000      -0.588567       -16.0157
 188   2.0000      -0.580473       -15.7955
 189   2.0000      -0.577944       -15.7266
 190   2.0000      -0.572333       -15.5740
 191   2.0000      -0.566345       -15.4110
 192   2.0000      -0.559579       -15.2269
 193   2.0000      -0.554866       -15.0987
 194   2.0000      -0.554090       -15.0775
 195   2.0000      -0.547600       -14.9010
 196   2.0000      -0.545605       -14.8467
 197   2.0000      -0.545033       -14.8311
 198   2.0000      -0.540330       -14.7031
 199   2.0000      -0.539479       -14.6800
 200   2.0000      -0.538477       -14.6527
 201   2.0000      -0.535796       -14.5798
 202   2.0000      -0.533407       -14.5147
 203   2.0000      -0.529144       -14.3987
 204   2.0000      -0.526099       -14.3159
 205   2.0000      -0.526063       -14.3149
 206   2.0000      -0.521462       -14.1897
 207   2.0000      -0.519054       -14.1242
 208   2.0000      -0.517772       -14.0893
 209   2.0000      -0.514309       -13.9951
 210   2.0000      -0.513059       -13.9610
 211   2.0000      -0.512197       -13.9376
 212   2.0000      -0.509968       -13.8769
 213   2.0000      -0.506581       -13.7848
 214   2.0000      -0.504058       -13.7161
 215   2.0000      -0.502666       -13.6782
 216   2.0000      -0.501105       -13.6358
 217   2.0000      -0.500446       -13.6178
 218   2.0000      -0.496685       -13.5155
 219   2.0000      -0.493677       -13.4336
 220   2.0000      -0.492816       -13.4102
 221   2.0000      -0.490628       -13.3507
 222   2.0000      -0.488068       -13.2810
 223   2.0000      -0.486665       -13.2428
 224   2.0000      -0.483578       -13.1588
 225   2.0000      -0.481532       -13.1031
 226   2.0000      -0.478138       -13.0108
 227   2.0000      -0.477070       -12.9817
 228   2.0000      -0.473933       -12.8964
 229   2.0000      -0.471554       -12.8316
 230   2.0000      -0.470095       -12.7919
 231   2.0000      -0.468057       -12.7365
 232   2.0000      -0.466109       -12.6835
 233   2.0000      -0.462008       -12.5719
 234   2.0000      -0.458400       -12.4737
 235   2.0000      -0.457527       -12.4499
 236   2.0000      -0.456956       -12.4344
 237   2.0000      -0.454783       -12.3753
 238   2.0000      -0.453023       -12.3274
 239   2.0000      -0.452249       -12.3063
 240   2.0000      -0.451138       -12.2761
 241   2.0000      -0.449991       -12.2449
 242   2.0000      -0.449546       -12.2328
 243   2.0000      -0.446977       -12.1629
 244   2.0000      -0.445259       -12.1161
 245   2.0000      -0.443854       -12.0779
 246   2.0000      -0.441036       -12.0012
 247   2.0000      -0.440496       -11.9865
 248   2.0000      -0.438413       -11.9298
 249   2.0000      -0.436378       -11.8745
 250   2.0000      -0.435952       -11.8629
 251   2.0000      -0.434638       -11.8271
 252   2.0000      -0.431838       -11.7509
 253   2.0000      -0.429914       -11.6986
 254   2.0000      -0.428889       -11.6707
 255   2.0000      -0.428286       -11.6542
 256   2.0000      -0.427906       -11.6439
 257   2.0000      -0.425000       -11.5648
 258   2.0000      -0.424381       -11.5480
 259   2.0000      -0.421811       -11.4781
 260   2.0000      -0.421072       -11.4579
 261   2.0000      -0.416131       -11.3235
 262   2.0000      -0.413488       -11.2516
 263   2.0000      -0.408999       -11.1294
 264   2.0000      -0.406426       -11.0594
 265   2.0000      -0.400710       -10.9039
 266   2.0000      -0.397365       -10.8128
 267   2.0000      -0.392528       -10.6812
 268   2.0000      -0.384374       -10.4593
 269   2.0000      -0.383162       -10.4264
 270   2.0000      -0.382421       -10.4062
 271   2.0000      -0.372548       -10.1375
 272   2.0000      -0.360121        -9.7994
 273   2.0000      -0.357844        -9.7374
 274   2.0000      -0.354026        -9.6335
 275   2.0000      -0.349195        -9.5021
 276   2.0000      -0.344098        -9.3634
 277   2.0000      -0.341245        -9.2857
 278   2.0000      -0.338673        -9.2158
 279   2.0000      -0.336740        -9.1632
 280   2.0000      -0.333636        -9.0787
 281   2.0000      -0.331265        -9.0142
 282   2.0000      -0.330592        -8.9959
 283   2.0000      -0.316493        -8.6122
 284   2.0000      -0.310642        -8.4530
 285   2.0000      -0.306027        -8.3274
 286   2.0000      -0.299745        -8.1565
 287   2.0000      -0.283914        -7.7257
 288   2.0000      -0.260927        -7.1002
 289   2.0000      -0.221321        -6.0224
 290   0.0000      -0.123652        -3.3648
 291   0.0000      -0.107130        -2.9152
 292   0.0000      -0.091856        -2.4995
 293   0.0000      -0.083947        -2.2843
 294   0.0000      -0.076910        -2.0928

MULLIKEN ATOMIC CHARGES
-----------------------
   0 C :   -0.083121
   1 C :    0.176038
   2 O :   -0.184519
   3 C :   -0.001333
   4 C :    0.043111
   5 C :    0.275715
   6 C :   -0.338849
   7 C :   -0.173384
   8 N :    0.141752
   9 C :   -0.205110
  10 N :    0.162574
  11 C :   -0.027357
  12 C :    0.063260
  13 C :    0.099828
  14 C :   -0.019020
  15 Cl:   -0.078261
  16 C :   -0.016920
  17 C :   -0.061229
  18 C :   -0.041566
  19 C :    0.029902
  20 C :   -0.069931
  21 S :    0.253472
  22 C :   -0.094360
  23 C :    0.034994
  24 C :    0.297224
  25 C :   -0.295216
  26 C :   -0.188354
  27 N :    0.166723
  28 C :   -0.194100
  29 N :    0.174391
  30 C :   -0.041026
  31 C :   -0.070234
  32 S :    0.204108
  33 C :    0.024457
  34 C :   -0.045353
  35 C :    0.042301
  36 C :    0.034835
  37 C :   -0.015690
  38 S :    0.051283
  39 C :   -0.026180
  40 C :    0.036878
  41 C :    0.031959
  42 C :   -0.025242
  43 S :    0.039228
  44 C :    0.035394
  45 C :   -0.087522
  46 C :   -0.049580
  47 C :    0.003454
  48 C :   -0.109549
  49 S :    0.188381
  50 C :   -0.066553
  51 C :   -0.022967
  52 C :    0.333847
  53 C :   -0.308733
  54 C :   -0.168777
  55 N :    0.161686
  56 C :   -0.162351
  57 N :    0.148696
  58 C :    0.002549
  59 C :   -0.120937
  60 S :    0.214170
  61 C :    0.089076
  62 C :   -0.142265
  63 C :    0.138119
  64 O :   -0.140402
  65 C :   -0.011064
  66 C :    0.025039
  67 C :    0.261328
  68 C :   -0.350654
  69 C :   -0.165244
  70 N :    0.158914
  71 C :   -0.205270
  72 N :    0.170733
  73 C :   -0.036392
  74 C :    0.055270
  75 C :    0.066067
  76 C :   -0.014660
  77 Cl:   -0.065700
  78 H :   -0.000552
  79 H :   -0.008642
  80 H :   -0.009712
  81 H :    0.028764
  82 H :    0.017090
  83 H :    0.007919
  84 H :    0.003600
  85 H :   -0.001799
  86 H :   -0.008393
  87 H :   -0.006225
  88 H :   -0.006775
  89 H :   -0.014557
  90 H :    0.033479
  91 H :    0.029799
  92 H :    0.018501
  93 H :    0.000884
  94 H :    0.008387
  95 H :   -0.003549
Sum of atomic charges:    0.0000000

LOEWDIN ATOMIC CHARGES
----------------------
   0 C :   -0.098557
   1 C :    0.091713
   2 O :   -0.167154
   3 C :   -0.030400
   4 C :   -0.016881
   5 C :    0.086806
   6 C :   -0.147966
   7 C :   -0.004535
   8 N :   -0.064557
   9 C :   -0.025022
  10 N :   -0.051992
  11 C :    0.007543
  12 C :   -0.009939
  13 C :   -0.097766
  14 C :   -0.001587
  15 Cl:    0.142383
  16 C :    0.048200
  17 C :   -0.186292
  18 C :    0.006924
  19 C :   -0.079601
  20 C :   -0.165057
  21 S :    0.561970
  22 C :   -0.191972
  23 C :   -0.058805
  24 C :    0.081533
  25 C :   -0.108018
  26 C :   -0.016049
  27 N :   -0.038644
  28 C :   -0.018577
  29 N :   -0.032456
  30 C :   -0.023338
  31 C :   -0.164991
  32 S :    0.510836
  33 C :   -0.054344
  34 C :   -0.158762
  35 C :   -0.020104
  36 C :   -0.037307
  37 C :   -0.166069
  38 S :    0.384940
  39 C :   -0.180318
  40 C :   -0.028843
  41 C :   -0.032607
  42 C :   -0.138028
  43 S :    0.408496
  44 C :   -0.086016
  45 C :   -0.147289
  46 C :   -0.047488
  47 C :   -0.048329
  48 C :   -0.200213
  49 S :    0.469915
  50 C :   -0.147341
  51 C :   -0.075355
  52 C :    0.089359
  53 C :   -0.104056
  54 C :   -0.003138
  55 N :   -0.041099
  56 C :   -0.004706
  57 N :   -0.054809
  58 C :    0.011909
  59 C :   -0.186455
  60 S :    0.494381
  61 C :    0.044561
  62 C :   -0.097806
  63 C :    0.084008
  64 O :   -0.140211
  65 C :   -0.041472
  66 C :   -0.018615
  67 C :    0.069242
  68 C :   -0.146949
  69 C :   -0.008601
  70 N :   -0.049386
  71 C :   -0.017704
  72 N :   -0.049282
  73 C :    0.006459
  74 C :   -0.009140
  75 C :   -0.106455
  76 C :   -0.006478
  77 Cl:    0.145693
  78 H :    0.038112
  79 H :    0.036490
  80 H :    0.040623
  81 H :    0.053300
  82 H :    0.045007
  83 H :    0.041149
  84 H :    0.045606
  85 H :    0.037059
  86 H :    0.034907
  87 H :    0.035714
  88 H :    0.035097
  89 H :    0.034778
  90 H :    0.021638
  91 H :    0.042631
  92 H :    0.045743
  93 H :    0.038970
  94 H :    0.038651
  95 H :    0.042583

  Mayer bond orders larger than 0.100000
B(  0-C ,  1-C ) :   0.9717 B(  0-C ,  5-C ) :   1.0607 B(  0-C , 16-C ) :   1.5376
B(  1-C ,  2-O ) :   2.1188 B(  1-C ,  3-C ) :   0.9576 B(  3-C ,  4-C ) :   1.3267
B(  3-C , 14-C ) :   1.3714 B(  4-C ,  5-C ) :   0.9994 B(  4-C , 11-C ) :   1.3695
B(  5-C ,  6-C ) :   1.6468 B(  6-C ,  7-C ) :   1.1540 B(  6-C ,  9-C ) :   1.1331
B(  7-C ,  8-N ) :   2.9330 B(  9-C , 10-N ) :   3.0103 B( 11-C , 12-C ) :   1.3666
B( 11-C , 78-H ) :   0.9844 B( 12-C , 13-C ) :   1.3922 B( 12-C , 79-H ) :   0.9853
B( 13-C , 14-C ) :   1.3285 B( 13-C , 15-Cl) :   0.9812 B( 14-C , 80-H ) :   1.0082
B( 16-C , 17-C ) :   1.2435 B( 16-C , 81-H ) :   0.9553 B( 17-C , 18-C ) :   1.3387
B( 17-C , 21-S ) :   1.0787 B( 18-C , 19-C ) :   1.3347 B( 18-C , 82-H ) :   1.0078
B( 19-C , 20-C ) :   1.3346 B( 19-C , 24-C ) :   0.9993 B( 20-C , 21-S ) :   1.1554
B( 20-C , 22-C ) :   1.2247 B( 22-C , 23-C ) :   1.3690 B( 22-C , 32-S ) :   1.1514
B( 23-C , 24-C ) :   0.9909 B( 23-C , 30-C ) :   1.3437 B( 24-C , 25-C ) :   1.7078
B( 25-C , 26-C ) :   1.1326 B( 25-C , 28-C ) :   1.1353 B( 26-C , 27-N ) :   2.9927
B( 28-C , 29-N ) :   2.9963 B( 30-C , 31-C ) :   1.3527 B( 30-C , 83-H ) :   1.0043
B( 31-C , 32-S ) :   1.0954 B( 31-C , 33-C ) :   1.2072 B( 33-C , 34-C ) :   1.5309
B( 33-C , 84-H ) :   0.9746 B( 34-C , 35-C ) :   1.1610 B( 34-C , 38-S ) :   1.0401
B( 35-C , 36-C ) :   1.5759 B( 35-C , 85-H ) :   0.9979 B( 36-C , 37-C ) :   1.2053
B( 36-C , 86-H ) :   0.9945 B( 37-C , 38-S ) :   1.0571 B( 37-C , 39-C ) :   1.4620
B( 39-C , 40-C ) :   1.2151 B( 39-C , 43-S ) :   1.0456 B( 40-C , 41-C ) :   1.5619
B( 40-C , 87-H ) :   0.9956 B( 41-C , 42-C ) :   1.1704 B( 41-C , 88-H ) :   0.9986
B( 42-C , 43-S ) :   1.0609 B( 42-C , 44-C ) :   1.5417 B( 44-C , 45-C ) :   1.2141
B( 44-C , 89-H ) :   0.9541 B( 45-C , 46-C ) :   1.3603 B( 45-C , 49-S ) :   1.1050
B( 46-C , 47-C ) :   1.3775 B( 46-C , 90-H ) :   0.9626 B( 47-C , 48-C ) :   1.4017
B( 47-C , 52-C ) :   0.9903 B( 48-C , 49-S ) :   1.0946 B( 48-C , 50-C ) :   1.2430
B( 50-C , 51-C ) :   1.3701 B( 50-C , 60-S ) :   1.1595 B( 51-C , 52-C ) :   1.0129
B( 51-C , 58-C ) :   1.3735 B( 52-C , 53-C ) :   1.6864 B( 53-C , 54-C ) :   1.1534
B( 53-C , 56-C ) :   1.1504 B( 54-C , 55-N ) :   2.9355 B( 56-C , 57-N ) :   2.9498
B( 58-C , 59-C ) :   1.3846 B( 58-C , 91-H ) :   0.9769 B( 59-C , 60-S ) :   1.0713
B( 59-C , 61-C ) :   1.1612 B( 61-C , 62-C ) :   1.6407 B( 61-C , 92-H ) :   0.9355
B( 62-C , 63-C ) :   0.9484 B( 62-C , 67-C ) :   1.0485 B( 63-C , 64-O ) :   2.2710
B( 63-C , 65-C ) :   0.9169 B( 65-C , 66-C ) :   1.3269 B( 65-C , 76-C ) :   1.3717
B( 66-C , 67-C ) :   1.0092 B( 66-C , 73-C ) :   1.3612 B( 67-C , 68-C ) :   1.6324
B( 68-C , 69-C ) :   1.1361 B( 68-C , 71-C ) :   1.1669 B( 69-C , 70-N ) :   2.9722
B( 71-C , 72-N ) :   3.0050 B( 73-C , 74-C ) :   1.3762 B( 73-C , 93-H ) :   0.9869
B( 74-C , 75-C ) :   1.3758 B( 74-C , 94-H ) :   0.9765 B( 75-C , 76-C ) :   1.3293
B( 75-C , 77-Cl) :   0.9985 B( 76-C , 95-H ) :   1.0104

-----------------------------------------------------------------------------
         ABSORPTION SPECTRUM VIA TRANSITION ELECTRIC DIPOLE MOMENTS
-----------------------------------------------------------------------------
State   Energy  Wavelength   fosc         T2         TX        TY        TZ
        (cm-1)    (nm)                  (au**2)     (au)      (au)      (au)
-----------------------------------------------------------------------------
   0    6252.8   1599.3   0.140556030   7.40035  -1.22668  -0.28685  -2.41108
   1    9813.1   1019.0   0.188717740   6.33112  -1.14027   2.09457  -0.80228
   2   13522.4    739.5   0.229122052   5.57814   0.82575   0.55267   2.14262
   3   14740.2    678.4   0.144632304   3.23025   0.04431  -1.47673  -1.02350
   4   16840.6    593.8   0.511882073  10.00662   0.93309  -2.91944  -0.78281
   5   17828.4    560.9   0.264761291   4.88897  -0.45746   2.00242   0.81854
   6   19529.6    512.0   0.944758075  15.92585  -0.59305  -1.92706  -3.44392
   7   20154.3    496.2   0.050102030   0.81839  -0.43055   0.79489  -0.03436
   8   21641.1    462.1   0.425849463   6.47818  -0.39636   2.21988   1.18035
   9   22872.0    437.2   0.206396820   2.97081   0.08512  -1.21838  -1.21619
  10   23863.3    419.1   0.241764484   3.33531   0.29025   1.30420   1.24504
  11   24036.4    416.0   0.080505877   1.10264  -0.02155  -1.04966   0.02001
  12   24539.6    407.5   0.102504907   1.37516   0.27021  -0.04007   1.14041
  13   25209.5    396.7   0.002736955   0.03574  -0.07762  -0.09648   0.14286
  14   25827.5    387.2   0.088991614   1.13434  -0.02157  -0.63608  -0.85398
  15   26509.8    377.2   0.072943848   0.90585  -0.40100  -0.75669   0.41529
  16   26779.4    373.4   0.039196235   0.48186   0.25911  -0.64366  -0.02053
  17   27266.6    366.7   0.095179497   1.14918  -0.06417   0.81772   0.69021
  18   27696.4    361.1   0.022856281   0.27168  -0.17285  -0.38923   0.30051
  19   28049.4    356.5   0.253181207   2.97155   0.30908  -1.32187   1.06240
  20   28467.9    351.3   0.097118167   1.12311   0.16021  -0.99268  -0.33471
  21   28899.6    346.0   0.224178138   2.55374   0.85943  -0.28942   1.31581
  22   29011.4    344.7   0.069100524   0.78413  -0.30462   0.78783   0.26581
  23   29373.6    340.4   0.040010565   0.44843   0.11175   0.58585  -0.30450
  24   29612.1    337.7   0.075375569   0.83799   0.67945  -0.61010  -0.06415
  25   29725.0    336.4   0.104759184   1.16023  -0.20834   0.72058  -0.77304
  26   30107.0    332.1   0.015386105   0.16824  -0.22503  -0.33566  -0.07026
  27   30184.0    331.3   0.153422125   1.67335   0.30858   0.96746  -0.80134
  28   30519.2    327.7   0.061379724   0.66211  -0.47446   0.32679   0.57463
  29   30802.5    324.6   0.393771813   4.20857  -0.57292   0.12117  -1.96613
  30   30957.6    323.0   0.095423950   1.01477   0.13963   0.80061  -0.59523
  31   31051.2    322.0   0.069792784   0.73996  -0.30022  -0.80598   0.01491
  32   31204.7    320.5   0.221450734   2.33632  -0.20816  -0.00217   1.51426
  33   31439.6    318.1   0.043690675   0.45750  -0.16663   0.06542   0.65226
  34   31745.9    315.0   0.347140548   3.59992   0.01363  -1.82964  -0.50215
  35   31967.2    312.8   0.032544842   0.33516   0.25475  -0.31194   0.41588
  36   32211.5    310.4   0.059906588   0.61226   0.24424   0.09464   0.73733
  37   32475.1    307.9   0.029591931   0.29998  -0.00276   0.51618   0.18314
  38   32538.1    307.3   0.016096594   0.16286   0.11754  -0.35749  -0.14576
  39   32674.3    306.1   0.068098051   0.68613  -0.13702  -0.67271  -0.46349
  40   32974.4    303.3   0.116666105   1.16478   0.95784  -0.47258  -0.15488
  41   33273.4    300.5   0.155309410   1.53666  -0.37776   0.88760  -0.77854
  42   33404.7    299.4   0.067304823   0.66331   0.46963   0.57840  -0.32895
  43   33509.0    298.4   0.091376248   0.89773   0.35307  -0.49894   0.72397
  44   33735.9    296.4   0.105108340   1.02570  -0.05672   0.02285  -1.01092
  45   33822.6    295.7   0.109681740   1.06759   0.99493   0.23499   0.14991
  46   34078.1    293.4   0.358429604   3.46262   0.82183   1.53737  -0.65093
  47   34179.9    292.6   0.106352233   1.02436  -0.17756   0.98742   0.13355
  48   34367.0    291.0   0.015243564   0.14602  -0.28324  -0.10776   0.23278
  49   34493.9    289.9   0.244104344   2.32975  -0.87576  -1.21648   0.28805
  50   34783.0    287.5   0.049404622   0.46760  -0.07962  -0.26652   0.62469
  51   35047.4    285.3   0.047072006   0.44216  -0.06065   0.34201  -0.56702
  52   35168.2    284.3   0.060473312   0.56609   0.19825  -0.55898  -0.46296
  53   35322.4    283.1   0.026870883   0.25044  -0.01072   0.06282  -0.49637
  54   35455.3    282.0   0.024708789   0.22943  -0.26252  -0.39710  -0.05309
  55   35508.8    281.6   0.020917504   0.19393   0.26991   0.34796  -0.00232
  56   35550.0    281.3   0.284661666   2.63612   1.27567   0.98386   0.20199
  57   35763.3    279.6   0.004611414   0.04245   0.11682  -0.07704  -0.15122
  58   36196.5    276.3   0.008995989   0.08182   0.11336   0.07181   0.25261
  59   36268.0    275.7   0.018295309   0.16607   0.26240  -0.24749   0.18965
  60   36386.9    274.8   0.175224613   1.58535  -0.67616  -1.00750   0.33630
  61   36528.8    273.8   0.010899942   0.09823  -0.28908  -0.10465  -0.06095
  62   36794.5    271.8   0.105971491   0.94816  -0.30817  -0.85178   0.35729
  63   36908.6    270.9   0.019779458   0.17643  -0.04416  -0.25169  -0.33336
  64   37154.9    269.1   0.050225375   0.44502  -0.02101  -0.20504  -0.63446
  65   37223.0    268.7   0.014673861   0.12978   0.17054   0.11946   0.29398
  66   37506.6    266.6   0.004492098   0.03943  -0.13456  -0.14327  -0.02824
  67   37872.3    264.0   0.010500905   0.09128  -0.02110  -0.00156  -0.30139
  68   38013.9    263.1   0.011533707   0.09989   0.03033   0.31316  -0.02994
  69   38127.3    262.3   0.053103867   0.45853  -0.46080  -0.38403  -0.31419
  70   38330.8    260.9   0.024185114   0.20772  -0.43599   0.04921  -0.12334
  71   38624.6    258.9   0.022787183   0.19422  -0.07470  -0.22025  -0.37435
  72   38711.9    258.3   0.052875303   0.44966  -0.14295   0.55697   0.34498
  73   38760.9    258.0   0.023637686   0.20076   0.44472   0.02797  -0.04697
  74   38896.4    257.1   0.020463633   0.17320  -0.31144   0.11586   0.25056
  75   39051.1    256.1   0.047625679   0.40150   0.07821   0.55921   0.28752
  76   39263.4    254.7   0.002007650   0.01683  -0.03521  -0.05296   0.11309
  77   39468.6    253.4   0.002275039   0.01898  -0.02335   0.03191  -0.13196
  78   39511.0    253.1   0.031012808   0.25840   0.21203   0.40255   0.22671
  79   39906.3    250.6   0.005824492   0.04805   0.02475   0.07972  -0.20269
  80   40052.5    249.7   0.007726322   0.06351  -0.05130   0.12411   0.21324
  81   40085.0    249.5   0.000828963   0.00681   0.01766  -0.07725  -0.02300

FINAL SINGLE POINT ENERGY     -6190.309639563931

DIPOLE MOMENT
-------------
                                X             Y             Z
Electronic contribution:     -5.26919      21.99676      21.31793
Nuclear contribution   :      6.27685     -27.37541     -21.47495
                        -----------------------------------------
Total Dipole Moment    :      1.00766      -5.37865      -0.15702
                        -----------------------------------------
Magnitude (a.u.)       :      5.47448
Magnitude (Debye)      :     13.91502

Rotational constants in cm-1:     0.000906     0.000500     0.000376
Rotational constants in MHz :    27.149588    14.983456    11.282597

                             ****ORCA TERMINATED NORMALLY****
TOTAL RUN TIME: 0 days 0 hours 14 minutes 34 seconds 368 msec
