                         Program Version 4.2.0 -  RELEASE  -
|  1> # ORCA input file
|  2> # SCF done       -183.590784457127          0.000318391016
|  3> ! CAM-B3LYP def2-SVP def2/J RIJCOSX Grid4 TightSCF
|  4> %maxcore 5000
|  5> %tddft
|  6>     Mode sTDDFT
|  7>     Ethresh 5.0
|  8>     maxcore 5000
|  9> end
| 10>
| 11> %pal
| 12>   nprocs 6
| 13>   end
| 14> * xyz 0 1
| 15>    C       -0.80773        -1.70840         0.92266
| 16>    S       -0.56580         0.03540         0.96447
| 17>    C       -1.82396         0.24969         2.21518
| 18>    O       -2.14156         1.30061         2.68803
| 19>    N       -2.34212        -0.97452         2.52325
| 20>    C       -1.85002        -2.09497         1.87193
| 21>    O       -2.26907        -3.20772         2.10012
| 22>    C       -3.38938        -1.08749         3.51616
| 23>    C       -0.06259        -2.46019         0.06729
| 24>    C       -0.03601        -3.84989        -0.18266
| 25>    C       -0.72379        -4.92392         0.36382
| 26>    C       -0.35887        -6.13328        -0.21810
| 27>    C        0.62041        -5.98990        -1.22606
| 28>    S        1.09047        -4.37112        -1.44617
| 29>    C        0.90678        -7.26393        -1.76156
| 30>    C        0.11859        -8.22192        -1.10110
| 31>    C       -0.69938        -7.54156        -0.10379
| 32>    C       -1.58982        -8.12220         0.74983
| 33>    C       -1.81828        -9.51514         0.74690
| 34>    N       -2.00301       -10.64690         0.74485
| 35>    C       -2.34558        -7.39872         1.69833
| 36>    N       -2.97546        -6.84990         2.48282
| 37>    C        0.32459        -9.51529        -1.57576
| 38>    C        1.26359        -9.55632        -2.59370
| 39>    S        1.90331        -7.95663        -2.96428
| 40>    C        1.70559       -10.68649        -3.33738
| 41>    C        2.65845       -10.57806        -4.32443
| 42>    C        3.11265       -11.61853        -5.12760
| 43>    C        2.65534       -12.99404        -4.88190
| 44>    C        1.72839       -13.33360        -3.95925
| 45>    S        0.93556       -12.21346        -2.93044
| 46>    C        3.38878       -13.80661        -5.78890
| 47>    C        4.23531       -13.00471        -6.55550
| 48>    C        4.98783       -13.75915        -7.48236
| 49>    C        4.70090       -15.08418        -7.39421
| 50>    S        3.51161       -15.47067        -6.19586
| 51>    C        4.06125       -11.62683        -6.17449
| 52>    C        4.75767       -10.56947        -6.80447
| 53>    C        4.48468        -9.23878        -6.71574
| 54>    C        5.24302        -8.20953        -7.31922
| 55>    C        6.35325        -8.28112        -8.15150
| 56>    C        6.82623        -7.02166        -8.50237
| 57>    C        6.08318        -5.96921        -7.93121
| 58>    S        4.78749        -6.54306        -6.97804
| 59>    C        6.65068        -4.73627        -8.31777
| 60>    C        7.76329        -5.00964        -9.15263
| 61>    C        7.90179        -6.44854        -9.29907
| 62>    C        8.83539        -7.12859       -10.02499
| 63>    C        9.84050        -6.47372       -10.76759
| 64>    N       10.66210        -5.95152       -11.37297
| 65>    C        8.85454        -8.53765       -10.07917
| 66>    N        8.86712        -9.68390       -10.12156
| 67>    C        8.39598        -3.85488        -9.57041
| 68>    C        7.79802        -2.69644        -9.05859
| 69>    S        6.40438        -3.07337        -8.04206
| 70>    C        8.29567        -1.41699        -9.34729
| 71>    C        7.88771        -0.18494        -8.90348
| 72>    C        8.48813         1.09032        -9.24790
| 73>    C        9.49291         1.32297       -10.14979
| 74>    C       10.01903         2.60055       -10.43693
| 75>    N       10.49333         3.60720       -10.71934
| 76>    C       10.14073         0.34586       -10.93495
| 77>    N       10.71310        -0.38303       -11.61345
| 78>    C        7.80224         2.11983        -8.46604
| 79>    C        6.79094         1.51011        -7.70218
| 80>    C        6.79515         0.06382        -7.95411
| 81>    O        6.04190        -0.76143        -7.46259
| 82>    C        5.97514         2.24930        -6.86739
| 83>    C        6.17731         3.61813        -6.79505
| 84>    C        7.17602         4.24233        -7.53962
| 85>    C        7.99369         3.48744        -8.38105
| 86>    C        7.39322         5.71703        -7.42251
| 87>    H       -3.03979        -0.69416         4.47048
| 88>    H       -3.63474        -2.14431         3.60847
| 89>    H       -4.26527        -0.52177         3.19878
| 90>    H        0.63721        -1.89451        -0.53847
| 91>    H       -1.45232        -4.80184         1.14448
| 92>    H       -0.17710       -10.39373        -1.21189
| 93>    H        3.08941        -9.59611        -4.45170
| 94>    H        1.40827       -14.35269        -3.80959
| 95>    H        5.70240       -13.35393        -8.17534
| 96>    H        5.11979       -15.88598        -7.97020
| 97>    H        5.57780       -10.88035        -7.43821
| 98>    H        3.62519        -8.89738        -6.16013
| 99>    H        6.78277        -9.20898        -8.48026
|100>    H        9.25834        -3.81627       -10.21255
|101>    H        9.14740        -1.43934       -10.01653
|102>    H        5.20337         1.76118        -6.29233
|103>    H        5.55139         4.21693        -6.14974
|104>    H        8.76329         3.98366        -8.94976
|105>    H        8.07895         5.92231        -6.59966
|106>    H        6.45910         6.23396        -7.21647
|107>    H        7.83244         6.11877        -8.33199
|108> *
|109>
|110>                          ****END OF INPUT****

CARTESIAN COORDINATES (ANGSTROEM)
---------------------------------
  C     -0.807730   -1.708400    0.922660
  S     -0.565800    0.035400    0.964470
  C     -1.823960    0.249690    2.215180
  O     -2.141560    1.300610    2.688030
  N     -2.342120   -0.974520    2.523250
  C     -1.850020   -2.094970    1.871930
  O     -2.269070   -3.207720    2.100120
  C     -3.389380   -1.087490    3.516160
  C     -0.062590   -2.460190    0.067290
  C     -0.036010   -3.849890   -0.182660
  C     -0.723790   -4.923920    0.363820
  C     -0.358870   -6.133280   -0.218100
  C      0.620410   -5.989900   -1.226060
  S      1.090470   -4.371120   -1.446170
  C      0.906780   -7.263930   -1.761560
  C      0.118590   -8.221920   -1.101100
  C     -0.699380   -7.541560   -0.103790
  C     -1.589820   -8.122200    0.749830
  C     -1.818280   -9.515140    0.746900
  N     -2.003010  -10.646900    0.744850
  C     -2.345580   -7.398720    1.698330
  N     -2.975460   -6.849900    2.482820
  C      0.324590   -9.515290   -1.575760
  C      1.263590   -9.556320   -2.593700
  S      1.903310   -7.956630   -2.964280
  C      1.705590  -10.686490   -3.337380
  C      2.658450  -10.578060   -4.324430
  C      3.112650  -11.618530   -5.127600
  C      2.655340  -12.994040   -4.881900
  C      1.728390  -13.333600   -3.959250
  S      0.935560  -12.213460   -2.930440
  C      3.388780  -13.806610   -5.788900
  C      4.235310  -13.004710   -6.555500
  C      4.987830  -13.759150   -7.482360
  C      4.700900  -15.084180   -7.394210
  S      3.511610  -15.470670   -6.195860
  C      4.061250  -11.626830   -6.174490
  C      4.757670  -10.569470   -6.804470
  C      4.484680   -9.238780   -6.715740
  C      5.243020   -8.209530   -7.319220
  C      6.353250   -8.281120   -8.151500
  C      6.826230   -7.021660   -8.502370
  C      6.083180   -5.969210   -7.931210
  S      4.787490   -6.543060   -6.978040
  C      6.650680   -4.736270   -8.317770
  C      7.763290   -5.009640   -9.152630
  C      7.901790   -6.448540   -9.299070
  C      8.835390   -7.128590  -10.024990
  C      9.840500   -6.473720  -10.767590
  N     10.662100   -5.951520  -11.372970
  C      8.854540   -8.537650  -10.079170
  N      8.867120   -9.683900  -10.121560
  C      8.395980   -3.854880   -9.570410
  C      7.798020   -2.696440   -9.058590
  S      6.404380   -3.073370   -8.042060
  C      8.295670   -1.416990   -9.347290
  C      7.887710   -0.184940   -8.903480
  C      8.488130    1.090320   -9.247900
  C      9.492910    1.322970  -10.149790
  C     10.019030    2.600550  -10.436930
  N     10.493330    3.607200  -10.719340
  C     10.140730    0.345860  -10.934950
  N     10.713100   -0.383030  -11.613450
  C      7.802240    2.119830   -8.466040
  C      6.790940    1.510110   -7.702180
  C      6.795150    0.063820   -7.954110
  O      6.041900   -0.761430   -7.462590
  C      5.975140    2.249300   -6.867390
  C      6.177310    3.618130   -6.795050
  C      7.176020    4.242330   -7.539620
  C      7.993690    3.487440   -8.381050
  C      7.393220    5.717030   -7.422510
  H     -3.039790   -0.694160    4.470480
  H     -3.634740   -2.144310    3.608470
  H     -4.265270   -0.521770    3.198780
  H      0.637210   -1.894510   -0.538470
  H     -1.452320   -4.801840    1.144480
  H     -0.177100  -10.393730   -1.211890
  H      3.089410   -9.596110   -4.451700
  H      1.408270  -14.352690   -3.809590
  H      5.702400  -13.353930   -8.175340
  H      5.119790  -15.885980   -7.970200
  H      5.577800  -10.880350   -7.438210
  H      3.625190   -8.897380   -6.160130
  H      6.782770   -9.208980   -8.480260
  H      9.258340   -3.816270  -10.212550
  H      9.147400   -1.439340  -10.016530
  H      5.203370    1.761180   -6.292330
  H      5.551390    4.216930   -6.149740
  H      8.763290    3.983660   -8.949760
  H      8.078950    5.922310   -6.599660
  H      6.459100    6.233960   -7.216470
  H      7.832440    6.118770   -8.331990

 Total Charge           Charge          ....    0
 Multiplicity           Mult            ....    1
 Number of Electrons    NEL             ....  536
 Basis Dimension        Dim             .... 1141

ORBITAL ENERGIES
----------------

  NO   OCC          E(Eh)            E(eV)
   0   2.0000     -89.001255     -2421.8473
   1   2.0000     -88.997705     -2421.7507
   2   2.0000     -88.989833     -2421.5365
   3   2.0000     -88.989762     -2421.5345
   4   2.0000     -88.986515     -2421.4462
   5   2.0000     -88.964146     -2420.8375
   6   2.0000     -88.956443     -2420.6279
   7   2.0000     -19.222959      -523.0833
   8   2.0000     -19.220199      -523.0082
   9   2.0000     -19.218552      -522.9634
  10   2.0000     -14.475388      -393.8953
  11   2.0000     -14.436941      -392.8491
  12   2.0000     -14.432455      -392.7271
  13   2.0000     -14.431788      -392.7089
  14   2.0000     -14.429393      -392.6437
  15   2.0000     -14.415881      -392.2761
  16   2.0000     -14.412702      -392.1896
  17   2.0000     -10.414049      -283.3807
  18   2.0000     -10.407631      -283.2060
  19   2.0000     -10.372165      -282.2410
  20   2.0000     -10.370614      -282.1988
  21   2.0000     -10.364921      -282.0438
  22   2.0000     -10.358218      -281.8614
  23   2.0000     -10.353441      -281.7315
  24   2.0000     -10.344056      -281.4761
  25   2.0000     -10.342392      -281.4308
  26   2.0000     -10.341283      -281.4006
  27   2.0000     -10.340983      -281.3925
  28   2.0000     -10.340708      -281.3850
  29   2.0000     -10.340197      -281.3711
  30   2.0000     -10.339177      -281.3433
  31   2.0000     -10.336979      -281.2835
  32   2.0000     -10.332888      -281.1722
  33   2.0000     -10.332432      -281.1598
  34   2.0000     -10.331756      -281.1414
  35   2.0000     -10.331405      -281.1318
  36   2.0000     -10.329896      -281.0908
  37   2.0000     -10.329217      -281.0723
  38   2.0000     -10.328914      -281.0640
  39   2.0000     -10.328200      -281.0446
  40   2.0000     -10.327575      -281.0276
  41   2.0000     -10.324213      -280.9361
  42   2.0000     -10.323069      -280.9050
  43   2.0000     -10.318407      -280.7781
  44   2.0000     -10.316003      -280.7127
  45   2.0000     -10.315176      -280.6902
  46   2.0000     -10.311893      -280.6009
  47   2.0000     -10.311567      -280.5920
  48   2.0000     -10.311204      -280.5821
  49   2.0000     -10.310455      -280.5617
  50   2.0000     -10.310320      -280.5581
  51   2.0000     -10.309921      -280.5472
  52   2.0000     -10.309793      -280.5437
  53   2.0000     -10.304678      -280.4046
  54   2.0000     -10.303926      -280.3841
  55   2.0000     -10.303602      -280.3753
  56   2.0000     -10.302420      -280.3431
  57   2.0000     -10.300407      -280.2883
  58   2.0000     -10.300246      -280.2839
  59   2.0000     -10.300102      -280.2800
  60   2.0000     -10.296999      -280.1956
  61   2.0000     -10.295721      -280.1608
  62   2.0000     -10.295255      -280.1481
  63   2.0000     -10.295148      -280.1452
  64   2.0000     -10.294513      -280.1279
  65   2.0000     -10.290486      -280.0184
  66   2.0000     -10.289741      -279.9981
  67   2.0000     -10.288647      -279.9683
  68   2.0000     -10.288076      -279.9528
  69   2.0000     -10.282157      -279.7917
  70   2.0000     -10.281787      -279.7817
  71   2.0000     -10.274971      -279.5962
  72   2.0000      -8.095497      -220.2897
  73   2.0000      -8.092555      -220.2096
  74   2.0000      -8.084920      -220.0019
  75   2.0000      -8.084608      -219.9934
  76   2.0000      -8.078877      -219.8374
  77   2.0000      -8.059533      -219.3110
  78   2.0000      -8.054290      -219.1684
  79   2.0000      -6.064825      -165.0323
  80   2.0000      -6.061641      -164.9456
  81   2.0000      -6.060718      -164.9205
  82   2.0000      -6.057713      -164.8388
  83   2.0000      -6.057629      -164.8365
  84   2.0000      -6.055051      -164.7663
  85   2.0000      -6.054519      -164.7518
  86   2.0000      -6.053770      -164.7315
  87   2.0000      -6.049951      -164.6275
  88   2.0000      -6.049700      -164.6207
  89   2.0000      -6.048343      -164.5838
  90   2.0000      -6.047027      -164.5480
  91   2.0000      -6.046783      -164.5413
  92   2.0000      -6.043575      -164.4540
  93   2.0000      -6.041347      -164.3934
  94   2.0000      -6.029005      -164.0576
  95   2.0000      -6.024711      -163.9407
  96   2.0000      -6.023865      -163.9177
  97   2.0000      -6.021541      -163.8545
  98   2.0000      -6.020373      -163.8227
  99   2.0000      -6.014517      -163.6633
 100   2.0000      -1.172905       -31.9164
 101   2.0000      -1.148483       -31.2518
 102   2.0000      -1.138095       -30.9691
 103   2.0000      -1.059927       -28.8421
 104   2.0000      -1.053294       -28.6616
 105   2.0000      -1.044967       -28.4350
 106   2.0000      -1.027626       -27.9631
 107   2.0000      -1.022230       -27.8163
 108   2.0000      -1.018724       -27.7209
 109   2.0000      -1.017628       -27.6911
 110   2.0000      -1.011473       -27.5236
 111   2.0000      -1.008088       -27.4315
 112   2.0000      -1.007738       -27.4219
 113   2.0000      -0.998131       -27.1605
 114   2.0000      -0.996360       -27.1123
 115   2.0000      -0.992344       -27.0030
 116   2.0000      -0.983630       -26.7659
 117   2.0000      -0.965761       -26.2797
 118   2.0000      -0.962112       -26.1804
 119   2.0000      -0.950760       -25.8715
 120   2.0000      -0.950694       -25.8697
 121   2.0000      -0.939341       -25.5608
 122   2.0000      -0.925048       -25.1718
 123   2.0000      -0.920078       -25.0366
 124   2.0000      -0.904666       -24.6172
 125   2.0000      -0.901711       -24.5368
 126   2.0000      -0.893251       -24.3066
 127   2.0000      -0.882896       -24.0248
 128   2.0000      -0.880345       -23.9554
 129   2.0000      -0.868131       -23.6230
 130   2.0000      -0.866254       -23.5720
 131   2.0000      -0.863164       -23.4879
 132   2.0000      -0.861064       -23.4307
 133   2.0000      -0.855984       -23.2925
 134   2.0000      -0.850905       -23.1543
 135   2.0000      -0.828530       -22.5455
 136   2.0000      -0.825569       -22.4649
 137   2.0000      -0.810032       -22.0421
 138   2.0000      -0.807692       -21.9784
 139   2.0000      -0.796748       -21.6806
 140   2.0000      -0.791235       -21.5306
 141   2.0000      -0.784779       -21.3549
 142   2.0000      -0.778158       -21.1748
 143   2.0000      -0.771698       -20.9990
 144   2.0000      -0.762246       -20.7418
 145   2.0000      -0.753004       -20.4903
 146   2.0000      -0.738070       -20.0839
 147   2.0000      -0.735426       -20.0120
 148   2.0000      -0.719631       -19.5821
 149   2.0000      -0.714044       -19.4301
 150   2.0000      -0.707574       -19.2541
 151   2.0000      -0.699993       -19.0478
 152   2.0000      -0.693367       -18.8675
 153   2.0000      -0.689417       -18.7600
 154   2.0000      -0.687968       -18.7206
 155   2.0000      -0.682303       -18.5664
 156   2.0000      -0.680826       -18.5262
 157   2.0000      -0.672516       -18.3001
 158   2.0000      -0.661552       -18.0018
 159   2.0000      -0.655927       -17.8487
 160   2.0000      -0.649192       -17.6654
 161   2.0000      -0.641497       -17.4560
 162   2.0000      -0.634890       -17.2762
 163   2.0000      -0.634180       -17.2569
 164   2.0000      -0.626162       -17.0387
 165   2.0000      -0.622184       -16.9305
 166   2.0000      -0.620514       -16.8851
 167   2.0000      -0.614879       -16.7317
 168   2.0000      -0.613281       -16.6882
 169   2.0000      -0.609492       -16.5851
 170   2.0000      -0.600142       -16.3307
 171   2.0000      -0.597168       -16.2498
 172   2.0000      -0.589470       -16.0403
 173   2.0000      -0.587090       -15.9755
 174   2.0000      -0.581261       -15.8169
 175   2.0000      -0.575515       -15.6606
 176   2.0000      -0.570779       -15.5317
 177   2.0000      -0.566216       -15.4075
 178   2.0000      -0.559516       -15.2252
 179   2.0000      -0.557094       -15.1593
 180   2.0000      -0.555682       -15.1209
 181   2.0000      -0.549176       -14.9438
 182   2.0000      -0.548751       -14.9323
 183   2.0000      -0.546295       -14.8655
 184   2.0000      -0.539851       -14.6901
 185   2.0000      -0.538742       -14.6599
 186   2.0000      -0.535895       -14.5824
 187   2.0000      -0.532235       -14.4829
 188   2.0000      -0.529353       -14.4044
 189   2.0000      -0.524887       -14.2829
 190   2.0000      -0.523969       -14.2579
 191   2.0000      -0.521863       -14.2006
 192   2.0000      -0.518628       -14.1126
 193   2.0000      -0.517767       -14.0891
 194   2.0000      -0.512382       -13.9426
 195   2.0000      -0.511979       -13.9316
 196   2.0000      -0.510531       -13.8923
 197   2.0000      -0.509729       -13.8704
 198   2.0000      -0.506866       -13.7925
 199   2.0000      -0.505103       -13.7446
 200   2.0000      -0.502980       -13.6868
 201   2.0000      -0.497740       -13.5442
 202   2.0000      -0.496110       -13.4998
 203   2.0000      -0.495185       -13.4747
 204   2.0000      -0.494212       -13.4482
 205   2.0000      -0.492608       -13.4045
 206   2.0000      -0.492392       -13.3987
 207   2.0000      -0.486777       -13.2459
 208   2.0000      -0.485057       -13.1991
 209   2.0000      -0.483773       -13.1641
 210   2.0000      -0.477635       -12.9971
 211   2.0000      -0.474862       -12.9216
 212   2.0000      -0.473947       -12.8968
 213   2.0000      -0.470299       -12.7975
 214   2.0000      -0.466541       -12.6952
 215   2.0000      -0.464222       -12.6321
 216   2.0000      -0.462334       -12.5808
 217   2.0000      -0.461277       -12.5520
 218   2.0000      -0.457860       -12.4590
 219   2.0000      -0.457359       -12.4454
 220   2.0000      -0.454820       -12.3763
 221   2.0000      -0.453854       -12.3500
 222   2.0000      -0.452549       -12.3145
 223   2.0000      -0.451935       -12.2978
 224   2.0000      -0.449456       -12.2303
 225   2.0000      -0.449120       -12.2212
 226   2.0000      -0.447034       -12.1644
 227   2.0000      -0.445766       -12.1299
 228   2.0000      -0.444806       -12.1038
 229   2.0000      -0.444282       -12.0895
 230   2.0000      -0.441570       -12.0157
 231   2.0000      -0.441258       -12.0073
 232   2.0000      -0.440788       -11.9945
 233   2.0000      -0.439989       -11.9727
 234   2.0000      -0.438572       -11.9341
 235   2.0000      -0.438054       -11.9201
 236   2.0000      -0.431450       -11.7403
 237   2.0000      -0.431371       -11.7382
 238   2.0000      -0.428344       -11.6558
 239   2.0000      -0.426249       -11.5988
 240   2.0000      -0.426024       -11.5927
 241   2.0000      -0.422449       -11.4954
 242   2.0000      -0.418280       -11.3820
 243   2.0000      -0.414481       -11.2786
 244   2.0000      -0.414452       -11.2778
 245   2.0000      -0.409613       -11.1461
 246   2.0000      -0.405243       -11.0272
 247   2.0000      -0.404878       -11.0173
 248   2.0000      -0.394384       -10.7317
 249   2.0000      -0.376989       -10.2584
 250   2.0000      -0.375890       -10.2285
 251   2.0000      -0.374174       -10.1818
 252   2.0000      -0.359618        -9.7857
 253   2.0000      -0.356855        -9.7105
 254   2.0000      -0.352158        -9.5827
 255   2.0000      -0.350469        -9.5367
 256   2.0000      -0.348301        -9.4777
 257   2.0000      -0.339094        -9.2272
 258   2.0000      -0.336987        -9.1699
 259   2.0000      -0.331409        -9.0181
 260   2.0000      -0.327426        -8.9097
 261   2.0000      -0.325508        -8.8575
 262   2.0000      -0.319231        -8.6867
 263   2.0000      -0.312652        -8.5077
 264   2.0000      -0.292407        -7.9568
 265   2.0000      -0.280355        -7.6288
 266   2.0000      -0.262966        -7.1557
 267   2.0000      -0.230926        -6.2838
 268   0.0000      -0.116411        -3.1677
 269   0.0000      -0.108809        -2.9608
 270   0.0000      -0.086506        -2.3539
 271   0.0000      -0.077244        -2.1019
 272   0.0000      -0.063695        -1.7332

MULLIKEN ATOMIC CHARGES
-----------------------
   0 C :   -0.207352
   1 S :    0.045789
   2 C :    0.139613
   3 O :   -0.175866
   4 N :   -0.269285
   5 C :    0.255356
   6 O :   -0.181133
   7 C :    0.122187
   8 C :    0.103625
   9 C :   -0.117605
  10 C :   -0.017297
  11 C :   -0.002241
  12 C :   -0.088138
  13 S :    0.180279
  14 C :   -0.093086
  15 C :    0.020284
  16 C :    0.308444
  17 C :   -0.296869
  18 C :   -0.190532
  19 N :    0.171208
  20 C :   -0.192256
  21 N :    0.198874
  22 C :   -0.056058
  23 C :   -0.057332
  24 S :    0.159867
  25 C :   -0.020219
  26 C :   -0.102185
  27 C :    0.057748
  28 C :    0.056708
  29 C :   -0.121368
  30 S :    0.144918
  31 C :   -0.107030
  32 C :    0.048192
  33 C :    0.009063
  34 C :   -0.065871
  35 S :    0.133706
  36 C :    0.081407
  37 C :   -0.013333
  38 C :    0.021548
  39 C :   -0.064774
  40 C :   -0.040750
  41 C :    0.016787
  42 C :   -0.116004
  43 S :    0.178336
  44 C :   -0.064765
  45 C :    0.042701
  46 C :    0.305478
  47 C :   -0.298082
  48 C :   -0.194240
  49 N :    0.185771
  50 C :   -0.183217
  51 N :    0.163084
  52 C :   -0.060069
  53 C :   -0.057403
  54 S :    0.232953
  55 C :   -0.029143
  56 C :   -0.098176
  57 C :    0.322552
  58 C :   -0.351236
  59 C :   -0.184218
  60 N :    0.150804
  61 C :   -0.195406
  62 N :    0.154499
  63 C :    0.041394
  64 C :   -0.019276
  65 C :    0.166246
  66 O :   -0.195302
  67 C :   -0.021863
  68 C :    0.005644
  69 C :   -0.036014
  70 C :   -0.068620
  71 C :    0.085022
  72 H :    0.047527
  73 H :    0.064965
  74 H :    0.046839
  75 H :    0.001465
  76 H :    0.037245
  77 H :    0.021525
  78 H :   -0.009504
  79 H :    0.042073
  80 H :   -0.008876
  81 H :    0.030850
  82 H :   -0.014732
  83 H :   -0.026716
  84 H :    0.006006
  85 H :    0.027417
  86 H :    0.014387
  87 H :   -0.009840
  88 H :   -0.016107
  89 H :   -0.010409
  90 H :    0.043882
  91 H :    0.023000
  92 H :    0.032534
Sum of atomic charges:   -0.0000000

LOEWDIN ATOMIC CHARGES
----------------------
   0 C :   -0.209073
   1 S :    0.327376
   2 C :   -0.053001
   3 O :   -0.165843
   4 N :   -0.043220
   5 C :    0.074482
   6 O :   -0.161660
   7 C :    0.041181
   8 C :   -0.021733
   9 C :   -0.172120
  10 C :   -0.000837
  11 C :   -0.072809
  12 C :   -0.172940
  13 S :    0.475986
  14 C :   -0.184093
  15 C :   -0.058299
  16 C :    0.077261
  17 C :   -0.092590
  18 C :   -0.014700
  19 N :   -0.031396
  20 C :   -0.023332
  21 N :   -0.013637
  22 C :   -0.039688
  23 C :   -0.172318
  24 S :    0.472002
  25 C :   -0.181106
  26 C :   -0.032835
  27 C :   -0.015484
  28 C :   -0.044642
  29 C :   -0.138056
  30 S :    0.469787
  31 C :   -0.204278
  32 C :   -0.037860
  33 C :   -0.063115
  34 C :   -0.159380
  35 S :    0.425976
  36 C :   -0.052315
  37 C :    0.005653
  38 C :   -0.069129
  39 C :   -0.140529
  40 C :   -0.039331
  41 C :   -0.047905
  42 C :   -0.203411
  43 S :    0.468605
  44 C :   -0.160733
  45 C :   -0.084242
  46 C :    0.080149
  47 C :   -0.103023
  48 C :   -0.020471
  49 N :   -0.025050
  50 C :   -0.014034
  51 N :   -0.037780
  52 C :    0.013431
  53 C :   -0.187826
  54 S :    0.538828
  55 C :    0.053511
  56 C :   -0.116757
  57 C :    0.077397
  58 C :   -0.140517
  59 C :   -0.017675
  60 N :   -0.054707
  61 C :   -0.022941
  62 N :   -0.048303
  63 C :   -0.008444
  64 C :   -0.052663
  65 C :    0.085795
  66 O :   -0.179524
  67 C :    0.015371
  68 C :   -0.010397
  69 C :    0.001773
  70 C :   -0.006067
  71 C :   -0.042988
  72 H :    0.035190
  73 H :    0.040593
  74 H :    0.034931
  75 H :    0.036079
  76 H :    0.042245
  77 H :    0.036281
  78 H :    0.022848
  79 H :    0.039355
  80 H :    0.032988
  81 H :    0.025518
  82 H :    0.033878
  83 H :    0.021116
  84 H :    0.038358
  85 H :    0.047631
  86 H :    0.052951
  87 H :    0.037791
  88 H :    0.030937
  89 H :    0.036910
  90 H :    0.044539
  91 H :    0.034116
  92 H :    0.037989

  Mayer bond orders larger than 0.100000
B(  0-C ,  1-S ) :   1.0333 B(  0-C ,  5-C ) :   0.9543 B(  0-C ,  8-C ) :   1.7297
B(  1-S ,  2-C ) :   0.9905 B(  2-C ,  3-O ) :   2.1346 B(  2-C ,  4-N ) :   1.0655
B(  4-N ,  5-C ) :   1.0784 B(  4-N ,  7-C ) :   0.9291 B(  5-C ,  6-O ) :   2.0681
B(  7-C , 72-H ) :   0.9766 B(  7-C , 73-H ) :   0.9575 B(  7-C , 74-H ) :   0.9771
B(  8-C ,  9-C ) :   1.1842 B(  8-C , 75-H ) :   0.9249 B(  9-C , 10-C ) :   1.4370
B(  9-C , 13-S ) :   1.0788 B( 10-C , 11-C ) :   1.2867 B( 10-C , 76-H ) :   0.9734
B( 11-C , 12-C ) :   1.4035 B( 11-C , 16-C ) :   0.9993 B( 12-C , 13-S ) :   1.1452
B( 12-C , 14-C ) :   1.1977 B( 14-C , 15-C ) :   1.4452 B( 14-C , 24-S ) :   1.1141
B( 15-C , 16-C ) :   0.9939 B( 15-C , 22-C ) :   1.3062 B( 16-C , 17-C ) :   1.7150
B( 17-C , 18-C ) :   1.1349 B( 17-C , 20-C ) :   1.1360 B( 18-C , 19-N ) :   2.9870
B( 20-C , 21-N ) :   3.0009 B( 22-C , 23-C ) :   1.4499 B( 22-C , 77-H ) :   0.9805
B( 23-C , 24-S ) :   1.1065 B( 23-C , 25-C ) :   1.1716 B( 25-C , 26-C ) :   1.5079
B( 25-C , 30-S ) :   1.0650 B( 26-C , 27-C ) :   1.2549 B( 26-C , 78-H ) :   0.9575
B( 27-C , 28-C ) :   1.0592 B( 27-C , 36-C ) :   1.3652 B( 28-C , 29-C ) :   1.6074
B( 28-C , 31-C ) :   1.1781 B( 29-C , 30-S ) :   1.1376 B( 29-C , 79-H ) :   0.9398
B( 31-C , 32-C ) :   1.4416 B( 31-C , 35-S ) :   1.0759 B( 32-C , 33-C ) :   1.2216
B( 32-C , 36-C ) :   1.0971 B( 33-C , 34-C ) :   1.5857 B( 33-C , 80-H ) :   0.9981
B( 34-C , 35-S ) :   1.1563 B( 34-C , 81-H ) :   0.9661 B( 36-C , 37-C ) :   1.1847
B( 37-C , 38-C ) :   1.6247 B( 37-C , 82-H ) :   0.9616 B( 38-C , 39-C ) :   1.1376
B( 38-C , 83-H ) :   0.9515 B( 39-C , 40-C ) :   1.4264 B( 39-C , 43-S ) :   1.1187
B( 40-C , 41-C ) :   1.3193 B( 40-C , 84-H ) :   0.9894 B( 41-C , 42-C ) :   1.4146
B( 41-C , 46-C ) :   0.9970 B( 42-C , 43-S ) :   1.0978 B( 42-C , 44-C ) :   1.2249
B( 44-C , 45-C ) :   1.3421 B( 44-C , 54-S ) :   1.1251 B( 45-C , 46-C ) :   0.9917
B( 45-C , 52-C ) :   1.3347 B( 46-C , 47-C ) :   1.7124 B( 47-C , 48-C ) :   1.1342
B( 47-C , 50-C ) :   1.1352 B( 48-C , 49-N ) :   2.9976 B( 50-C , 51-N ) :   2.9826
B( 52-C , 53-C ) :   1.3254 B( 52-C , 85-H ) :   1.0089 B( 53-C , 54-S ) :   1.0584
B( 53-C , 55-C ) :   1.2787 B( 55-C , 56-C ) :   1.4830 B( 55-C , 86-H ) :   0.9406
B( 56-C , 57-C ) :   1.0822 B( 56-C , 65-C ) :   0.9819 B( 57-C , 58-C ) :   1.6269
B( 57-C , 63-C ) :   0.9774 B( 58-C , 59-C ) :   1.1486 B( 58-C , 61-C ) :   1.1426
B( 59-C , 60-N ) :   2.9648 B( 61-C , 62-N ) :   2.9642 B( 63-C , 64-C ) :   1.3313
B( 63-C , 70-C ) :   1.3738 B( 64-C , 65-C ) :   0.9716 B( 64-C , 67-C ) :   1.3755
B( 65-C , 66-O ) :   2.1053 B( 67-C , 68-C ) :   1.3465 B( 67-C , 87-H ) :   1.0074
B( 68-C , 69-C ) :   1.3867 B( 68-C , 88-H ) :   0.9924 B( 69-C , 70-C ) :   1.3517
B( 69-C , 71-C ) :   1.0520 B( 70-C , 89-H ) :   0.9843 B( 71-C , 90-H ) :   0.9509
B( 71-C , 91-H ) :   0.9588 B( 71-C , 92-H ) :   0.9586

-----------------------------------------------------------------------------
         ABSORPTION SPECTRUM VIA TRANSITION ELECTRIC DIPOLE MOMENTS
-----------------------------------------------------------------------------
State   Energy  Wavelength   fosc         T2         TX        TY        TZ
        (cm-1)    (nm)                  (au**2)     (au)      (au)      (au)
-----------------------------------------------------------------------------
   0   10126.8    987.5   0.264798832   8.60838   1.93249   0.31953  -2.18444
   1   11313.1    883.9   0.253820108   7.38615  -0.71287  -2.59150   0.40259
   2   16160.9    618.8   0.218639668   4.45390  -1.08705  -1.47288   1.05017
   3   16873.7    592.6   0.436510533   8.51645   1.87378   0.93090  -2.03441
   4   19679.0    508.2   0.212508990   3.55509   0.74461   1.64501  -0.54276
   5   20478.0    488.3   1.107185368  17.79952  -0.23426   4.11082   0.91966
   6   22345.7    447.5   0.381339382   5.61815   0.65929  -2.01609  -1.05776
   7   23347.2    428.3   0.095557361   1.34743   0.24143   1.13355  -0.06484
   8   23865.4    419.0   0.256344376   3.53615   0.08140   1.87312   0.14471
   9   24330.4    411.0   0.113541647   1.53632  -0.34221   1.09428   0.47092
  10   25351.3    394.5   0.072987100   0.94781  -0.09973  -0.96843  -0.00073
  11   25830.9    387.1   0.428689060   5.46360  -0.23319  -2.32460  -0.07398
  12   26272.4    380.6   0.084829421   1.06297  -0.00637  -1.01899  -0.15683
  13   27141.2    368.4   0.038226218   0.46367  -0.39716   0.15399   0.53124
  14   27815.8    359.5   0.085339970   1.01004  -0.68191   0.08969   0.73279
  15   29074.2    343.9   0.044128046   0.49967  -0.43552  -0.31697   0.45773
  16   29324.5    341.0   0.091035831   1.02201  -0.18044   0.94149   0.32103
  17   29534.1    338.6   0.011150282   0.12429  -0.04568   0.28363   0.20435
  18   29711.7    336.6   0.092370304   1.02348   0.50841  -0.75544  -0.44081
  19   30193.0    331.2   0.007902013   0.08616   0.23036  -0.12877  -0.12850
  20   30909.8    323.5   0.227378013   2.42174  -1.27572  -0.02355   0.89091
  21   31234.1    320.2   0.149238352   1.57299   0.60409  -0.93581  -0.57649
  22   31290.5    319.6   0.589317735   6.20031   1.74320   0.33594  -1.74605
  23   31919.4    313.3   0.325652465   3.35873  -1.31571   0.13176   1.26897
  24   32114.7    311.4   0.159942381   1.63959  -0.04867  -1.27939  -0.01977
  25   32397.4    308.7   0.048337754   0.49119   0.29524   0.59924  -0.21198
  26   32655.3    306.2   0.403878256   4.07167  -0.04890   2.01611   0.06752
  27   32990.6    303.1   0.001906797   0.01903   0.08760  -0.10592   0.01159
  28   33105.1    302.1   0.159967796   1.59079  -0.39175  -1.17922   0.21622
  29   33714.2    296.6   0.063576261   0.62081  -0.12039   0.75846   0.17623
  30   33962.1    294.4   0.054227628   0.52566   0.17559   0.70062  -0.06288
  31   34466.9    290.1   0.042523871   0.40617   0.08681  -0.52199  -0.35519
  32   34604.1    289.0   0.469283124   4.46460   0.89306  -1.45669  -1.24302
  33   34896.6    286.6   0.005151607   0.04860   0.07779  -0.19115  -0.07751
  34   34987.5    285.8   0.061968998   0.58309   0.46335  -0.51088  -0.32773
  35   35047.4    285.3   0.196028339   1.84136   0.65613  -0.93188  -0.73652
  36   35436.4    282.2   0.029008067   0.26949  -0.34294   0.12568   0.36890
  37   35547.9    281.3   0.056399558   0.52232  -0.00005  -0.70265  -0.16915
  38   35644.8    280.5   0.078278277   0.72297   0.39727  -0.68354  -0.31292
  39   36242.4    275.9   0.246823205   2.24205   0.83254  -0.86337  -0.89639
  40   36571.6    273.4   0.026598042   0.23943  -0.25788   0.25045   0.33197
  41   36644.8    272.9   0.062229389   0.55906   0.59018   0.06645  -0.45423
  42   36903.9    271.0   0.024045973   0.21451   0.36903   0.02268  -0.27895
  43   37095.1    269.6   0.161045534   1.42925  -0.89365  -0.01688   0.79394
  44   37258.3    268.4   0.021809953   0.19271  -0.28581  -0.23740   0.23381
  45   37532.7    266.4   0.125721940   1.10275   0.77320   0.11956  -0.70044
  46   37846.8    264.2   0.048818906   0.42465  -0.15048  -0.63197   0.05120
  47   38133.5    262.2   0.134111176   1.15780  -0.73137   0.15835   0.77319
  48   38667.0    258.6   0.034255897   0.29166  -0.35048  -0.26439   0.31452
  49   38970.6    256.6   0.032462475   0.27423  -0.03935  -0.52138  -0.02911
  50   39222.3    255.0   0.007107766   0.05966  -0.03476   0.20372   0.13019
  51   39407.3    253.8   0.004574610   0.03822   0.06707   0.18278  -0.01757
  52   39547.1    252.9   0.006152224   0.05121  -0.01011  -0.22505  -0.02151
  53   39812.0    251.2   0.083414796   0.68977   0.27966   0.77147  -0.12804
  54   39945.8    250.3   0.069652927   0.57404   0.34027   0.64942  -0.19110
  55   39992.3    250.0   0.011007807   0.09061  -0.20817  -0.07000   0.20586
  56   40109.8    249.3   0.000718054   0.00589  -0.07629   0.00840  -0.00182

FINAL SINGLE POINT ENERGY     -5500.333363622860

DIPOLE MOMENT
-------------
                                X             Y             Z
Electronic contribution:     -3.23170     -32.00294      -0.22280
Nuclear contribution   :      1.28418      31.03873       1.77488
                        -----------------------------------------
Total Dipole Moment    :     -1.94752      -0.96421       1.55208
                        -----------------------------------------
Magnitude (a.u.)       :      2.67048
Magnitude (Debye)      :      6.78783

Rotational constants in cm-1:     0.000612     0.000429     0.000253
Rotational constants in MHz :    18.354420    12.852165     7.575105

                             ****ORCA TERMINATED NORMALLY****
TOTAL RUN TIME: 0 days 0 hours 13 minutes 24 seconds 283 msec
