                         Program Version 4.2.0 -  RELEASE  -
|  1> # ORCA input file
|  2> # SCF done       -214.442940082191          0.000914015320
|  3> ! CAM-B3LYP def2-SVP def2/J RIJCOSX Grid4 TightSCF
|  4> %maxcore 5000
|  5> %tddft
|  6>     Mode sTDDFT
|  7>     Ethresh 5.0
|  8>     maxcore 5000
|  9> end
| 10>
| 11> %pal
| 12>   nprocs 6
| 13>   end
| 14> * xyz 0 1
| 15>    C        0.66357         3.58871         3.76049
| 16>    C        1.53253         2.95679         2.90954
| 17>    C        2.85248         2.59480         3.25342
| 18>    N        3.93295         2.27263         3.46976
| 19>    C        1.25965         2.59615         1.57326
| 20>    N        1.11964         2.27960         0.47827
| 21>    C        0.96909         4.00046         5.12624
| 22>    C       -0.14764         4.69937         5.65230
| 23>    C       -0.16905         5.21671         6.92531
| 24>    C        0.96469         5.03289         7.72205
| 25>    C        2.07454         4.33171         7.19129
| 26>    C        2.09673         3.81144         5.90201
| 27>    S        3.35923         4.21897         8.35141
| 28>    C        2.42091         5.09264         9.51228
| 29>    C        1.20073         5.45614         9.06018
| 30>    C       -1.20602         4.74673         4.63638
| 31>    O       -2.29441         5.28781         4.74728
| 32>    C       -0.69902         4.00535         3.47511
| 33>    C       -1.41949         3.70084         2.35052
| 34>    C       -2.73513         4.04317         1.99587
| 35>    C       -3.32869         3.56494         0.82172
| 36>    C       -4.62494         4.01640         0.66104
| 37>    C       -5.02740         4.86929         1.71644
| 38>    S       -3.82811         5.08636         2.90551
| 39>    C       -6.36148         5.27194         1.46500
| 40>    C       -6.80379         4.68128         0.26781
| 41>    C       -5.72562         3.87234        -0.27871
| 42>    C       -5.75435         3.13022        -1.42229
| 43>    C       -4.65140         2.36243        -1.85302
| 44>    N       -3.76371         1.72992        -2.20739
| 45>    C       -6.89797         3.07580        -2.24674
| 46>    N       -7.82969         3.03381        -2.91388
| 47>    C       -8.11902         5.01512        -0.05046
| 48>    C       -8.67905         5.85902         0.89256
| 49>    S       -7.56193         6.24641         2.19227
| 50>    C       -9.99373         6.38910         0.90256
| 51>    C      -10.54041         7.27394         1.81413
| 52>    C      -11.87126         7.56895         1.52090
| 53>    C      -12.34133         6.89794         0.37858
| 54>    S      -11.14491         5.91367        -0.33920
| 55>    C      -13.69815         7.25136         0.17344
| 56>    C      -14.08663         8.15045         1.18127
| 57>    C      -12.95054         8.38079         2.06135
| 58>    C      -12.90694         9.18407         3.16204
| 59>    C      -11.73864         9.32216         3.94148
| 60>    N      -10.78856         9.43309         4.57345
| 61>    C      -14.02663         9.92629         3.59422
| 62>    N      -14.93642        10.52847         3.94617
| 63>    C      -15.41686         8.55292         1.06771
| 64>    C      -16.04639         7.96322        -0.01398
| 65>    S      -14.97041         6.89768        -0.90915
| 66>    C      -17.39140         8.12226        -0.43088
| 67>    C      -18.03335         7.47832        -1.47590
| 68>    C      -19.36912         7.84043        -1.62281
| 69>    C      -19.74421         8.79174        -0.66294
| 70>    S      -18.46138         9.22064         0.40193
| 71>    C      -21.08331         9.23292        -0.72544
| 72>    C      -21.86974         8.63474        -1.73109
| 73>   Si      -20.83163         7.43062        -2.72658
| 74>    C      -20.61093         7.99494        -4.49466
| 75>    C      -21.38004         5.65005        -2.54727
| 76>    C      -23.14556         9.16581        -1.75107
| 77>    C      -23.36984        10.15181        -0.78855
| 78>    S      -21.93590        10.39241         0.19570
| 79>    C      -24.52706        10.87918        -0.48617
| 80>    C      -25.68347        11.03300        -1.20983
| 81>    C      -26.91109        11.46220        -0.49651
| 82>    O      -26.99089        11.87392         0.63707
| 83>    C      -28.02053        11.23629        -1.45677
| 84>    C      -27.48450        10.80733        -2.68380
| 85>    C      -28.32991        10.47081        -3.72724
| 86>    C      -29.70713        10.58916        -3.54882
| 87>    C      -30.23085        11.03551        -2.32487
| 88>    C      -29.37827        11.36237        -1.26457
| 89>    C      -31.62642        11.19467        -2.12899
| 90>    N      -32.72808        11.38999        -1.88539
| 91>    C      -30.66584        10.18250        -4.63039
| 92>    O      -31.74121         9.71523        -4.38696
| 93>    O      -30.25059        10.36139        -5.89048
| 94>    C      -26.02140        10.82162        -2.59156
| 95>    C      -25.18662        10.89902        -3.68170
| 96>    C      -23.80706        11.16920        -3.61029
| 97>    N      -22.68419        11.40847        -3.61285
| 98>    C      -25.65114        10.82206        -5.00842
| 99>    N      -26.00765        10.75812        -6.09865
|100>    H       -1.03493         5.74464         7.29389
|101>    H        2.96586         3.28310         5.54767
|102>    H        2.84815         5.28288        10.47766
|103>    H        0.48149         6.00406         9.64164
|104>    H       -0.93138         3.08315         1.60619
|105>    H       -2.80787         2.91486         0.14091
|106>    H       -8.65506         4.67252        -0.91738
|107>    H       -9.98333         7.67353         2.64244
|108>    H      -15.91935         9.23457         1.73023
|109>    H      -17.52945         6.76343        -2.10257
|110>    H      -20.41457         9.06398        -4.55870
|111>    H      -21.50218         7.80227        -5.08884
|112>    H      -19.78589         7.48427        -4.98743
|113>    H      -21.51120         5.35799        -1.50669
|114>    H      -20.65629         4.96373        -2.98203
|115>    H      -22.32698         5.46895        -3.05168
|116>    H      -23.92029         8.81896        -2.41169
|117>    H      -24.55879        11.33642         0.49861
|118>    H      -27.93404        10.07565        -4.65092
|119>    H      -29.77499        11.70132        -0.31977
|120>    H      -29.37752        10.77092        -5.96917
|121> *
|122>
|123>                          ****END OF INPUT****

CARTESIAN COORDINATES (ANGSTROEM)
---------------------------------
  C      0.663570    3.588710    3.760490
  C      1.532530    2.956790    2.909540
  C      2.852480    2.594800    3.253420
  N      3.932950    2.272630    3.469760
  C      1.259650    2.596150    1.573260
  N      1.119640    2.279600    0.478270
  C      0.969090    4.000460    5.126240
  C     -0.147640    4.699370    5.652300
  C     -0.169050    5.216710    6.925310
  C      0.964690    5.032890    7.722050
  C      2.074540    4.331710    7.191290
  C      2.096730    3.811440    5.902010
  S      3.359230    4.218970    8.351410
  C      2.420910    5.092640    9.512280
  C      1.200730    5.456140    9.060180
  C     -1.206020    4.746730    4.636380
  O     -2.294410    5.287810    4.747280
  C     -0.699020    4.005350    3.475110
  C     -1.419490    3.700840    2.350520
  C     -2.735130    4.043170    1.995870
  C     -3.328690    3.564940    0.821720
  C     -4.624940    4.016400    0.661040
  C     -5.027400    4.869290    1.716440
  S     -3.828110    5.086360    2.905510
  C     -6.361480    5.271940    1.465000
  C     -6.803790    4.681280    0.267810
  C     -5.725620    3.872340   -0.278710
  C     -5.754350    3.130220   -1.422290
  C     -4.651400    2.362430   -1.853020
  N     -3.763710    1.729920   -2.207390
  C     -6.897970    3.075800   -2.246740
  N     -7.829690    3.033810   -2.913880
  C     -8.119020    5.015120   -0.050460
  C     -8.679050    5.859020    0.892560
  S     -7.561930    6.246410    2.192270
  C     -9.993730    6.389100    0.902560
  C    -10.540410    7.273940    1.814130
  C    -11.871260    7.568950    1.520900
  C    -12.341330    6.897940    0.378580
  S    -11.144910    5.913670   -0.339200
  C    -13.698150    7.251360    0.173440
  C    -14.086630    8.150450    1.181270
  C    -12.950540    8.380790    2.061350
  C    -12.906940    9.184070    3.162040
  C    -11.738640    9.322160    3.941480
  N    -10.788560    9.433090    4.573450
  C    -14.026630    9.926290    3.594220
  N    -14.936420   10.528470    3.946170
  C    -15.416860    8.552920    1.067710
  C    -16.046390    7.963220   -0.013980
  S    -14.970410    6.897680   -0.909150
  C    -17.391400    8.122260   -0.430880
  C    -18.033350    7.478320   -1.475900
  C    -19.369120    7.840430   -1.622810
  C    -19.744210    8.791740   -0.662940
  S    -18.461380    9.220640    0.401930
  C    -21.083310    9.232920   -0.725440
  C    -21.869740    8.634740   -1.731090
  Si   -20.831630    7.430620   -2.726580
  C    -20.610930    7.994940   -4.494660
  C    -21.380040    5.650050   -2.547270
  C    -23.145560    9.165810   -1.751070
  C    -23.369840   10.151810   -0.788550
  S    -21.935900   10.392410    0.195700
  C    -24.527060   10.879180   -0.486170
  C    -25.683470   11.033000   -1.209830
  C    -26.911090   11.462200   -0.496510
  O    -26.990890   11.873920    0.637070
  C    -28.020530   11.236290   -1.456770
  C    -27.484500   10.807330   -2.683800
  C    -28.329910   10.470810   -3.727240
  C    -29.707130   10.589160   -3.548820
  C    -30.230850   11.035510   -2.324870
  C    -29.378270   11.362370   -1.264570
  C    -31.626420   11.194670   -2.128990
  N    -32.728080   11.389990   -1.885390
  C    -30.665840   10.182500   -4.630390
  O    -31.741210    9.715230   -4.386960
  O    -30.250590   10.361390   -5.890480
  C    -26.021400   10.821620   -2.591560
  C    -25.186620   10.899020   -3.681700
  C    -23.807060   11.169200   -3.610290
  N    -22.684190   11.408470   -3.612850
  C    -25.651140   10.822060   -5.008420
  N    -26.007650   10.758120   -6.098650
  H     -1.034930    5.744640    7.293890
  H      2.965860    3.283100    5.547670
  H      2.848150    5.282880   10.477660
  H      0.481490    6.004060    9.641640
  H     -0.931380    3.083150    1.606190
  H     -2.807870    2.914860    0.140910
  H     -8.655060    4.672520   -0.917380
  H     -9.983330    7.673530    2.642440
  H    -15.919350    9.234570    1.730230
  H    -17.529450    6.763430   -2.102570
  H    -20.414570    9.063980   -4.558700
  H    -21.502180    7.802270   -5.088840
  H    -19.785890    7.484270   -4.987430
  H    -21.511200    5.357990   -1.506690
  H    -20.656290    4.963730   -2.982030
  H    -22.326980    5.468950   -3.051680
  H    -23.920290    8.818960   -2.411690
  H    -24.558790   11.336420    0.498610
  H    -27.934040   10.075650   -4.650920
  H    -29.774990   11.701320   -0.319770
  H    -29.377520   10.770920   -5.969170

 Total Charge           Charge          ....    0
 Multiplicity           Mult            ....    1
 Number of Electrons    NEL             ....  626
 Basis Dimension        Dim             .... 1327

ORBITAL ENERGIES
----------------

  NO   OCC          E(Eh)            E(eV)
   0   2.0000     -89.004981     -2421.9487
   1   2.0000     -89.003849     -2421.9179
   2   2.0000     -89.003046     -2421.8960
   3   2.0000     -88.995227     -2421.6832
   4   2.0000     -88.988715     -2421.5060
   5   2.0000     -88.988466     -2421.4993
   6   2.0000     -88.971453     -2421.0363
   7   2.0000     -66.216398     -1801.8398
   8   2.0000     -19.273800      -524.4668
   9   2.0000     -19.229312      -523.2562
  10   2.0000     -19.228880      -523.2444
  11   2.0000     -19.213211      -522.8181
  12   2.0000     -14.442616      -393.0036
  13   2.0000     -14.442153      -392.9910
  14   2.0000     -14.439094      -392.9077
  15   2.0000     -14.436302      -392.8318
  16   2.0000     -14.433013      -392.7423
  17   2.0000     -14.430430      -392.6720
  18   2.0000     -14.420088      -392.3905
  19   2.0000     -14.417437      -392.3184
  20   2.0000     -14.409842      -392.1117
  21   2.0000     -10.418795      -283.5098
  22   2.0000     -10.380463      -282.4668
  23   2.0000     -10.378019      -282.4003
  24   2.0000     -10.376815      -282.3675
  25   2.0000     -10.373177      -282.2685
  26   2.0000     -10.364678      -282.0372
  27   2.0000     -10.361227      -281.9433
  28   2.0000     -10.358745      -281.8758
  29   2.0000     -10.357711      -281.8476
  30   2.0000     -10.347103      -281.5590
  31   2.0000     -10.346778      -281.5501
  32   2.0000     -10.346025      -281.5296
  33   2.0000     -10.346013      -281.5293
  34   2.0000     -10.345408      -281.5129
  35   2.0000     -10.345379      -281.5121
  36   2.0000     -10.343668      -281.4655
  37   2.0000     -10.343254      -281.4542
  38   2.0000     -10.342659      -281.4380
  39   2.0000     -10.342078      -281.4222
  40   2.0000     -10.342028      -281.4209
  41   2.0000     -10.341925      -281.4181
  42   2.0000     -10.339556      -281.3536
  43   2.0000     -10.339453      -281.3508
  44   2.0000     -10.337714      -281.3035
  45   2.0000     -10.336710      -281.2762
  46   2.0000     -10.335877      -281.2535
  47   2.0000     -10.334910      -281.2272
  48   2.0000     -10.334198      -281.2078
  49   2.0000     -10.333484      -281.1884
  50   2.0000     -10.331560      -281.1361
  51   2.0000     -10.331414      -281.1321
  52   2.0000     -10.331313      -281.1293
  53   2.0000     -10.331110      -281.1238
  54   2.0000     -10.327913      -281.0368
  55   2.0000     -10.327213      -281.0178
  56   2.0000     -10.325313      -280.9660
  57   2.0000     -10.325226      -280.9637
  58   2.0000     -10.322525      -280.8902
  59   2.0000     -10.320342      -280.8308
  60   2.0000     -10.319274      -280.8017
  61   2.0000     -10.318469      -280.7798
  62   2.0000     -10.318094      -280.7696
  63   2.0000     -10.317337      -280.7490
  64   2.0000     -10.317254      -280.7468
  65   2.0000     -10.317125      -280.7432
  66   2.0000     -10.316808      -280.7346
  67   2.0000     -10.315011      -280.6857
  68   2.0000     -10.314896      -280.6826
  69   2.0000     -10.313429      -280.6427
  70   2.0000     -10.311152      -280.5807
  71   2.0000     -10.310877      -280.5732
  72   2.0000     -10.309412      -280.5334
  73   2.0000     -10.307722      -280.4874
  74   2.0000     -10.306422      -280.4520
  75   2.0000     -10.306308      -280.4489
  76   2.0000     -10.304869      -280.4097
  77   2.0000     -10.303829      -280.3814
  78   2.0000     -10.303315      -280.3675
  79   2.0000     -10.296044      -280.1696
  80   2.0000     -10.293502      -280.1004
  81   2.0000     -10.285310      -279.8775
  82   2.0000     -10.280661      -279.7510
  83   2.0000     -10.268947      -279.4323
  84   2.0000     -10.264630      -279.3148
  85   2.0000      -8.099406      -220.3960
  86   2.0000      -8.098328      -220.3667
  87   2.0000      -8.097485      -220.3438
  88   2.0000      -8.087337      -220.0676
  89   2.0000      -8.084076      -219.9789
  90   2.0000      -8.083944      -219.9753
  91   2.0000      -8.067550      -219.5292
  92   2.0000      -6.068691      -165.1375
  93   2.0000      -6.067615      -165.1082
  94   2.0000      -6.066761      -165.0850
  95   2.0000      -6.064536      -165.0244
  96   2.0000      -6.063453      -164.9949
  97   2.0000      -6.062600      -164.9717
  98   2.0000      -6.061673      -164.9465
  99   2.0000      -6.060621      -164.9179
 100   2.0000      -6.059766      -164.8946
 101   2.0000      -6.056790      -164.8136
 102   2.0000      -6.053193      -164.7157
 103   2.0000      -6.053146      -164.7145
 104   2.0000      -6.051978      -164.6827
 105   2.0000      -6.049938      -164.6272
 106   2.0000      -6.049183      -164.6066
 107   2.0000      -6.049172      -164.6063
 108   2.0000      -6.046361      -164.5298
 109   2.0000      -6.046052      -164.5214
 110   2.0000      -6.037057      -164.2767
 111   2.0000      -6.032738      -164.1592
 112   2.0000      -6.029298      -164.0656
 113   2.0000      -5.382840      -146.4745
 114   2.0000      -3.746505      -101.9476
 115   2.0000      -3.744969      -101.9058
 116   2.0000      -3.743610      -101.8688
 117   2.0000      -1.197619       -32.5889
 118   2.0000      -1.144609       -31.1464
 119   2.0000      -1.144573       -31.1454
 120   2.0000      -1.112891       -30.2833
 121   2.0000      -1.059117       -28.8200
 122   2.0000      -1.054156       -28.6850
 123   2.0000      -1.037582       -28.2340
 124   2.0000      -1.034590       -28.1526
 125   2.0000      -1.030198       -28.0331
 126   2.0000      -1.026920       -27.9439
 127   2.0000      -1.024686       -27.8831
 128   2.0000      -1.020074       -27.7576
 129   2.0000      -1.019653       -27.7462
 130   2.0000      -1.017356       -27.6837
 131   2.0000      -1.014857       -27.6157
 132   2.0000      -1.012707       -27.5572
 133   2.0000      -1.010462       -27.4961
 134   2.0000      -1.005678       -27.3659
 135   2.0000      -0.997430       -27.1415
 136   2.0000      -0.997199       -27.1352
 137   2.0000      -0.995042       -27.0765
 138   2.0000      -0.990072       -26.9412
 139   2.0000      -0.973523       -26.4909
 140   2.0000      -0.970863       -26.4185
 141   2.0000      -0.965393       -26.2697
 142   2.0000      -0.937876       -25.5209
 143   2.0000      -0.932561       -25.3763
 144   2.0000      -0.924800       -25.1651
 145   2.0000      -0.920873       -25.0582
 146   2.0000      -0.915651       -24.9161
 147   2.0000      -0.903763       -24.5926
 148   2.0000      -0.895674       -24.3725
 149   2.0000      -0.889360       -24.2007
 150   2.0000      -0.886138       -24.1130
 151   2.0000      -0.883844       -24.0506
 152   2.0000      -0.881956       -23.9992
 153   2.0000      -0.874416       -23.7941
 154   2.0000      -0.870548       -23.6888
 155   2.0000      -0.867542       -23.6070
 156   2.0000      -0.863112       -23.4865
 157   2.0000      -0.850436       -23.1415
 158   2.0000      -0.847818       -23.0703
 159   2.0000      -0.832740       -22.6600
 160   2.0000      -0.827971       -22.5302
 161   2.0000      -0.813945       -22.1486
 162   2.0000      -0.810055       -22.0427
 163   2.0000      -0.800805       -21.7910
 164   2.0000      -0.796816       -21.6825
 165   2.0000      -0.790169       -21.5016
 166   2.0000      -0.785387       -21.3715
 167   2.0000      -0.782804       -21.3012
 168   2.0000      -0.769687       -20.9443
 169   2.0000      -0.764056       -20.7910
 170   2.0000      -0.752078       -20.4651
 171   2.0000      -0.747984       -20.3537
 172   2.0000      -0.734264       -19.9803
 173   2.0000      -0.721248       -19.6261
 174   2.0000      -0.716869       -19.5070
 175   2.0000      -0.712264       -19.3817
 176   2.0000      -0.707335       -19.2476
 177   2.0000      -0.705915       -19.2089
 178   2.0000      -0.702576       -19.1181
 179   2.0000      -0.697822       -18.9887
 180   2.0000      -0.696322       -18.9479
 181   2.0000      -0.691679       -18.8216
 182   2.0000      -0.691278       -18.8106
 183   2.0000      -0.683459       -18.5979
 184   2.0000      -0.678774       -18.4704
 185   2.0000      -0.666840       -18.1456
 186   2.0000      -0.661161       -17.9911
 187   2.0000      -0.657451       -17.8901
 188   2.0000      -0.648197       -17.6383
 189   2.0000      -0.645449       -17.5636
 190   2.0000      -0.641296       -17.4506
 191   2.0000      -0.638510       -17.3747
 192   2.0000      -0.636196       -17.3118
 193   2.0000      -0.633171       -17.2294
 194   2.0000      -0.630304       -17.1514
 195   2.0000      -0.626479       -17.0473
 196   2.0000      -0.624353       -16.9895
 197   2.0000      -0.621793       -16.9198
 198   2.0000      -0.612272       -16.6608
 199   2.0000      -0.607029       -16.5181
 200   2.0000      -0.600530       -16.3413
 201   2.0000      -0.595290       -16.1987
 202   2.0000      -0.591596       -16.0981
 203   2.0000      -0.582549       -15.8520
 204   2.0000      -0.579619       -15.7722
 205   2.0000      -0.566478       -15.4146
 206   2.0000      -0.565184       -15.3794
 207   2.0000      -0.562853       -15.3160
 208   2.0000      -0.562002       -15.2928
 209   2.0000      -0.559056       -15.2127
 210   2.0000      -0.556905       -15.1542
 211   2.0000      -0.554137       -15.0788
 212   2.0000      -0.550595       -14.9825
 213   2.0000      -0.546926       -14.8826
 214   2.0000      -0.546374       -14.8676
 215   2.0000      -0.543527       -14.7901
 216   2.0000      -0.541874       -14.7452
 217   2.0000      -0.536004       -14.5854
 218   2.0000      -0.534991       -14.5578
 219   2.0000      -0.534434       -14.5427
 220   2.0000      -0.532585       -14.4924
 221   2.0000      -0.530104       -14.4249
 222   2.0000      -0.525636       -14.3033
 223   2.0000      -0.523502       -14.2452
 224   2.0000      -0.520857       -14.1732
 225   2.0000      -0.520219       -14.1559
 226   2.0000      -0.516768       -14.0620
 227   2.0000      -0.514529       -14.0011
 228   2.0000      -0.514261       -13.9937
 229   2.0000      -0.511779       -13.9262
 230   2.0000      -0.509868       -13.8742
 231   2.0000      -0.508660       -13.8413
 232   2.0000      -0.505542       -13.7565
 233   2.0000      -0.505185       -13.7468
 234   2.0000      -0.503715       -13.7068
 235   2.0000      -0.502080       -13.6623
 236   2.0000      -0.500827       -13.6282
 237   2.0000      -0.499497       -13.5920
 238   2.0000      -0.497378       -13.5343
 239   2.0000      -0.496980       -13.5235
 240   2.0000      -0.494743       -13.4626
 241   2.0000      -0.493208       -13.4209
 242   2.0000      -0.491171       -13.3654
 243   2.0000      -0.488056       -13.2807
 244   2.0000      -0.487484       -13.2651
 245   2.0000      -0.485922       -13.2226
 246   2.0000      -0.481107       -13.0916
 247   2.0000      -0.479832       -13.0569
 248   2.0000      -0.477495       -12.9933
 249   2.0000      -0.476762       -12.9734
 250   2.0000      -0.472913       -12.8686
 251   2.0000      -0.470678       -12.8078
 252   2.0000      -0.469420       -12.7736
 253   2.0000      -0.468737       -12.7550
 254   2.0000      -0.467678       -12.7262
 255   2.0000      -0.465766       -12.6741
 256   2.0000      -0.463716       -12.6184
 257   2.0000      -0.461106       -12.5473
 258   2.0000      -0.459929       -12.5153
 259   2.0000      -0.458343       -12.4721
 260   2.0000      -0.453926       -12.3519
 261   2.0000      -0.452793       -12.3211
 262   2.0000      -0.452263       -12.3067
 263   2.0000      -0.451715       -12.2918
 264   2.0000      -0.450098       -12.2478
 265   2.0000      -0.449030       -12.2187
 266   2.0000      -0.447680       -12.1820
 267   2.0000      -0.446724       -12.1560
 268   2.0000      -0.446529       -12.1507
 269   2.0000      -0.446198       -12.1417
 270   2.0000      -0.445740       -12.1292
 271   2.0000      -0.443366       -12.0646
 272   2.0000      -0.441906       -12.0249
 273   2.0000      -0.441462       -12.0128
 274   2.0000      -0.440270       -11.9804
 275   2.0000      -0.437449       -11.9036
 276   2.0000      -0.437037       -11.8924
 277   2.0000      -0.435880       -11.8609
 278   2.0000      -0.432767       -11.7762
 279   2.0000      -0.432403       -11.7663
 280   2.0000      -0.429753       -11.6942
 281   2.0000      -0.424174       -11.5423
 282   2.0000      -0.421682       -11.4745
 283   2.0000      -0.420498       -11.4423
 284   2.0000      -0.418937       -11.3999
 285   2.0000      -0.413571       -11.2538
 286   2.0000      -0.411473       -11.1968
 287   2.0000      -0.410056       -11.1582
 288   2.0000      -0.406984       -11.0746
 289   2.0000      -0.403727       -10.9860
 290   2.0000      -0.401615       -10.9285
 291   2.0000      -0.400862       -10.9080
 292   2.0000      -0.392806       -10.6888
 293   2.0000      -0.384779       -10.4704
 294   2.0000      -0.375562       -10.2196
 295   2.0000      -0.371799       -10.1172
 296   2.0000      -0.364849        -9.9281
 297   2.0000      -0.360407        -9.8072
 298   2.0000      -0.359332        -9.7779
 299   2.0000      -0.356861        -9.7107
 300   2.0000      -0.351602        -9.5676
 301   2.0000      -0.350625        -9.5410
 302   2.0000      -0.348788        -9.4910
 303   2.0000      -0.345576        -9.4036
 304   2.0000      -0.339090        -9.2271
 305   2.0000      -0.334283        -9.0963
 306   2.0000      -0.331233        -9.0133
 307   2.0000      -0.325884        -8.8677
 308   2.0000      -0.319235        -8.6868
 309   2.0000      -0.304121        -8.2756
 310   2.0000      -0.297177        -8.0866
 311   2.0000      -0.272804        -7.4234
 312   2.0000      -0.248796        -6.7701
 313   0.0000      -0.123013        -3.3474
 314   0.0000      -0.114291        -3.1100
 315   0.0000      -0.108724        -2.9585
 316   0.0000      -0.091939        -2.5018
 317   0.0000      -0.087767        -2.3883

MULLIKEN ATOMIC CHARGES
-----------------------
   0 C :    0.324681
   1 C :   -0.358855
   2 C :   -0.182842
   3 N :    0.152691
   4 C :   -0.192814
   5 N :    0.155485
   6 C :    0.015592
   7 C :   -0.012699
   8 C :   -0.068740
   9 C :    0.116169
  10 C :   -0.098059
  11 C :   -0.022513
  12 S :    0.145378
  13 C :   -0.047623
  14 C :    0.024051
  15 C :    0.166585
  16 O :   -0.194090
  17 C :   -0.087785
  18 C :   -0.035165
  19 C :   -0.053226
  20 C :   -0.061683
  21 C :    0.045724
  22 C :   -0.068320
  23 S :    0.246230
  24 C :   -0.105777
  25 C :    0.025005
  26 C :    0.303544
  27 C :   -0.293429
  28 C :   -0.193564
  29 N :    0.186027
  30 C :   -0.186752
  31 N :    0.169151
  32 C :   -0.068057
  33 C :   -0.044954
  34 S :    0.205237
  35 C :   -0.054846
  36 C :   -0.062120
  37 C :    0.017168
  38 C :   -0.095856
  39 S :    0.199937
  40 C :   -0.099099
  41 C :    0.015533
  42 C :    0.298729
  43 C :   -0.289155
  44 C :   -0.187249
  45 N :    0.173946
  46 C :   -0.187603
  47 N :    0.177316
  48 C :   -0.063492
  49 C :   -0.036184
  50 S :    0.189696
  51 C :   -0.046245
  52 C :   -0.063666
  53 C :   -0.104941
  54 C :   -0.087119
  55 S :    0.174767
  56 C :   -0.060550
  57 C :   -0.130165
  58 Si:    0.526342
  59 C :   -0.198900
  60 C :   -0.196733
  61 C :    0.013416
  62 C :   -0.107332
  63 S :    0.186268
  64 C :    0.097878
  65 C :   -0.158988
  66 C :    0.141816
  67 O :   -0.131995
  68 C :    0.014534
  69 C :    0.026085
  70 C :   -0.089357
  71 C :    0.008283
  72 C :   -0.077913
  73 C :   -0.035740
  74 C :   -0.157849
  75 N :    0.143050
  76 C :    0.177924
  77 O :   -0.147036
  78 O :   -0.144414
  79 C :    0.269679
  80 C :   -0.335226
  81 C :   -0.200156
  82 N :    0.175738
  83 C :   -0.178055
  84 N :    0.140132
  85 H :   -0.012158
  86 H :   -0.005773
  87 H :    0.039711
  88 H :   -0.005235
  89 H :    0.019313
  90 H :    0.028523
  91 H :    0.012288
  92 H :    0.013873
  93 H :    0.014996
  94 H :   -0.010354
  95 H :    0.071825
  96 H :    0.049091
  97 H :    0.046410
  98 H :    0.056640
  99 H :    0.047625
 100 H :    0.048609
 101 H :    0.000812
 102 H :    0.025232
 103 H :    0.004306
 104 H :    0.017211
 105 H :    0.192197
Sum of atomic charges:   -0.0000000

LOEWDIN ATOMIC CHARGES
----------------------
   0 C :    0.076675
   1 C :   -0.140853
   2 C :   -0.017956
   3 N :   -0.052027
   4 C :   -0.023287
   5 N :   -0.048058
   6 C :   -0.021159
   7 C :   -0.054559
   8 C :    0.024361
   9 C :   -0.035323
  10 C :   -0.144931
  11 C :   -0.007474
  12 S :    0.433747
  13 C :   -0.148145
  14 C :   -0.057718
  15 C :    0.086933
  16 O :   -0.177393
  17 C :   -0.109086
  18 C :    0.054621
  19 C :   -0.183928
  20 C :    0.011577
  21 C :   -0.079550
  22 C :   -0.168106
  23 S :    0.550520
  24 C :   -0.186332
  25 C :   -0.053519
  26 C :    0.078630
  27 C :   -0.099636
  28 C :   -0.020513
  29 N :   -0.021622
  30 C :   -0.015193
  31 N :   -0.034034
  32 C :   -0.042180
  33 C :   -0.169771
  34 S :    0.491065
  35 C :   -0.181914
  36 C :   -0.033420
  37 C :   -0.067957
  38 C :   -0.177029
  39 S :    0.488064
  40 C :   -0.180843
  41 C :   -0.066058
  42 C :    0.081146
  43 C :   -0.096972
  44 C :   -0.016237
  45 N :   -0.029002
  46 C :   -0.016950
  47 N :   -0.027340
  48 C :   -0.033641
  49 C :   -0.176547
  50 S :    0.480741
  51 C :   -0.174993
  52 C :   -0.063071
  53 C :   -0.177426
  54 C :   -0.200493
  55 S :    0.460783
  56 C :   -0.155213
  57 C :   -0.198533
  58 Si:    0.668549
  59 C :   -0.240122
  60 C :   -0.241950
  61 C :    0.000666
  62 C :   -0.191768
  63 S :    0.471698
  64 C :    0.056821
  65 C :   -0.117514
  66 C :    0.081689
  67 O :   -0.134621
  68 C :   -0.031776
  69 C :    0.002804
  70 C :   -0.006461
  71 C :   -0.037721
  72 C :   -0.026434
  73 C :    0.048700
  74 C :   -0.034202
  75 N :   -0.025447
  76 C :    0.079608
  77 O :   -0.120589
  78 O :   -0.016033
  79 C :    0.064477
  80 C :   -0.148519
  81 C :   -0.018173
  82 N :   -0.039678
  83 C :   -0.018545
  84 N :   -0.063090
  85 H :    0.040381
  86 H :    0.041231
  87 H :    0.030024
  88 H :    0.035687
  89 H :    0.053809
  90 H :    0.048123
  91 H :    0.035899
  92 H :    0.036805
  93 H :    0.037713
  94 H :    0.025194
  95 H :    0.049351
  96 H :    0.040503
  97 H :    0.038602
  98 H :    0.043197
  99 H :    0.039185
 100 H :    0.039323
 101 H :    0.033843
 102 H :    0.047548
 103 H :    0.035431
 104 H :    0.053327
 105 H :    0.099585

  Mayer bond orders larger than 0.100000
B(  0-C ,  1-C ) :   1.6287 B(  0-C ,  6-C ) :   1.0013 B(  0-C , 17-C ) :   1.0729
B(  1-C ,  2-C ) :   1.1456 B(  1-C ,  4-C ) :   1.1456 B(  2-C ,  3-N ) :   2.9695
B(  4-C ,  5-N ) :   2.9660 B(  6-C ,  7-C ) :   1.2668 B(  6-C , 11-C ) :   1.4168
B(  7-C ,  8-C ) :   1.4207 B(  7-C , 15-C ) :   0.9682 B(  8-C ,  9-C ) :   1.2441
B(  8-C , 85-H ) :   1.0171 B(  9-C , 10-C ) :   1.3008 B(  9-C , 14-C ) :   1.1732
B( 10-C , 11-C ) :   1.3206 B( 10-C , 12-S ) :   1.1026 B( 11-C , 86-H ) :   0.9818
B( 12-S , 13-C ) :   1.1279 B( 13-C , 14-C ) :   1.6267 B( 13-C , 87-H ) :   0.9688
B( 14-C , 88-H ) :   0.9994 B( 15-C , 16-O ) :   2.1021 B( 15-C , 17-C ) :   0.9821
B( 17-C , 18-C ) :   1.5014 B( 18-C , 19-C ) :   1.2605 B( 18-C , 89-H ) :   0.9413
B( 19-C , 20-C ) :   1.3332 B( 19-C , 23-S ) :   1.0713 B( 20-C , 21-C ) :   1.3291
B( 20-C , 90-H ) :   1.0089 B( 21-C , 22-C ) :   1.3555 B( 21-C , 26-C ) :   0.9872
B( 22-C , 23-S ) :   1.1269 B( 22-C , 24-C ) :   1.2021 B( 24-C , 25-C ) :   1.4373
B( 24-C , 34-S ) :   1.1117 B( 25-C , 26-C ) :   0.9946 B( 25-C , 32-C ) :   1.3051
B( 26-C , 27-C ) :   1.7165 B( 27-C , 28-C ) :   1.1339 B( 27-C , 30-C ) :   1.1331
B( 28-C , 29-N ) :   2.9959 B( 30-C , 31-N ) :   2.9879 B( 32-C , 33-C ) :   1.4474
B( 32-C , 91-H ) :   0.9870 B( 33-C , 34-S ) :   1.1192 B( 33-C , 35-C ) :   1.1724
B( 35-C , 36-C ) :   1.4549 B( 35-C , 39-S ) :   1.1058 B( 36-C , 37-C ) :   1.3027
B( 36-C , 92-H ) :   0.9876 B( 37-C , 38-C ) :   1.4410 B( 37-C , 42-C ) :   0.9948
B( 38-C , 39-S ) :   1.1241 B( 38-C , 40-C ) :   1.1898 B( 40-C , 41-C ) :   1.4435
B( 40-C , 50-S ) :   1.1198 B( 41-C , 42-C ) :   0.9932 B( 41-C , 48-C ) :   1.3002
B( 42-C , 43-C ) :   1.7181 B( 43-C , 44-C ) :   1.1324 B( 43-C , 46-C ) :   1.1310
B( 44-C , 45-N ) :   2.9903 B( 46-C , 47-N ) :   2.9929 B( 48-C , 49-C ) :   1.4523
B( 48-C , 93-H ) :   0.9895 B( 49-C , 50-S ) :   1.1055 B( 49-C , 51-C ) :   1.1698
B( 51-C , 52-C ) :   1.4610 B( 51-C , 55-S ) :   1.1304 B( 52-C , 53-C ) :   1.2849
B( 52-C , 94-H ) :   0.9938 B( 53-C , 54-C ) :   1.4973 B( 53-C , 58-Si) :   0.8684
B( 54-C , 55-S ) :   1.1005 B( 54-C , 56-C ) :   1.1799 B( 56-C , 57-C ) :   1.4398
B( 56-C , 63-S ) :   1.1656 B( 57-C , 58-Si) :   0.8641 B( 57-C , 61-C ) :   1.3773
B( 58-Si, 59-C ) :   1.0731 B( 58-Si, 60-C ) :   1.0627 B( 59-C , 95-H ) :   0.9452
B( 59-C , 96-H ) :   0.9507 B( 59-C , 97-H ) :   0.9519 B( 60-C , 98-H ) :   0.9482
B( 60-C , 99-H ) :   0.9529 B( 60-C ,100-H ) :   0.9527 B( 61-C , 62-C ) :   1.3525
B( 61-C ,101-H ) :   0.9865 B( 62-C , 63-S ) :   1.0723 B( 62-C , 64-C ) :   1.2205
B( 64-C , 65-C ) :   1.5645 B( 64-C ,102-H ) :   0.9267 B( 65-C , 66-C ) :   0.9661
B( 65-C , 79-C ) :   1.0878 B( 66-C , 67-O ) :   2.2698 B( 66-C , 68-C ) :   0.8968
B( 68-C , 69-C ) :   1.3474 B( 68-C , 73-C ) :   1.3628 B( 69-C , 70-C ) :   1.3892
B( 69-C , 79-C ) :   0.9850 B( 70-C , 71-C ) :   1.3209 B( 70-C ,103-H ) :   0.9686
B( 71-C , 72-C ) :   1.4000 B( 71-C , 76-C ) :   0.8704 B( 72-C , 73-C ) :   1.3607
B( 72-C , 74-C ) :   1.0688 B( 73-C ,104-H ) :   1.0153 B( 74-C , 75-N ) :   3.0396
B( 76-C , 77-O ) :   2.1712 B( 76-C , 78-O ) :   1.2556 B( 78-O ,105-H ) :   0.9443
B( 79-C , 80-C ) :   1.6162 B( 80-C , 81-C ) :   1.1686 B( 80-C , 83-C ) :   1.1343
B( 81-C , 82-N ) :   2.9907 B( 83-C , 84-N ) :   2.9848

-----------------------------------------------------------------------------
         ABSORPTION SPECTRUM VIA TRANSITION ELECTRIC DIPOLE MOMENTS
-----------------------------------------------------------------------------
State   Energy  Wavelength   fosc         T2         TX        TY        TZ
        (cm-1)    (nm)                  (au**2)     (au)      (au)      (au)
-----------------------------------------------------------------------------
   0   11074.8    902.9   0.569930633  16.94184   3.89160  -1.07998   0.79430
   1   13229.2    755.9   0.305705992   7.60754  -2.58438   0.71373  -0.64737
   2   16309.9    613.1   1.293453265  26.10811  -4.67688   1.44779  -1.46247
   3   19970.0    500.8   0.033798072   0.55717  -0.67484   0.12234  -0.29462
   4   20411.2    489.9   1.093867776  17.64293  -4.01200   0.88027  -0.87857
   5   22191.3    450.6   0.172490145   2.55892   1.46872  -0.41721  -0.47719
   6   22381.8    446.8   0.215682449   3.17246  -1.58509   0.27562  -0.76419
   7   25021.3    399.7   0.049890543   0.65642  -0.47136   0.27764  -0.59763
   8   25686.8    389.3   0.041084368   0.52655  -0.64156   0.26676   0.20927
   9   26264.8    380.7   0.018394828   0.23057  -0.35487  -0.02899  -0.32217
  10   26785.9    373.3   0.112265298   1.37980   0.75713  -0.05185   0.89658
  11   27608.0    362.2   0.029641426   0.35346   0.53527  -0.17173  -0.19353
  12   28276.3    353.7   0.077508227   0.90240  -0.59903   0.37013   0.63763
  13   28691.9    348.5   0.024396509   0.27993   0.51738   0.01499   0.10963
  14   29092.2    343.7   0.247932757   2.80565   1.27808   0.04272   1.08182
  15   29373.6    340.4   0.048783418   0.54675  -0.27080  -0.10691  -0.67970
  16   29654.8    337.2   0.009976833   0.11076   0.26550   0.03325  -0.19789
  17   30347.6    329.5   0.107652211   1.16782  -1.02013  -0.31821   0.16089
  18   30520.4    327.6   0.130238733   1.40483  -0.28188   0.78042   0.84636
  19   30731.1    325.4   0.123570834   1.32377   0.83957  -0.63190  -0.46862
  20   30925.1    323.4   0.079358888   0.84481  -0.87510   0.22709  -0.16568
  21   31381.5    318.7   0.257193861   2.69813   0.17096  -0.71754  -1.46766
  22   31510.6    317.4   0.086314282   0.90178  -0.16751   0.69347   0.62675
  23   31694.3    315.5   0.694377986   7.21257   0.35338   1.35478   2.29178
  24   32077.6    311.7   0.129640634   1.33050   0.34112  -0.41414  -1.02109
  25   32405.1    308.6   0.201360414   2.04567  -1.40007  -0.09632  -0.27607
  26   32511.0    307.6   0.313708763   3.17667   0.36519  -0.83514  -1.53161
  27   32936.4    303.6   0.194566756   1.94477  -0.25196  -0.43414  -1.30108
  28   33205.4    301.2   0.091019894   0.90241   0.41470  -0.50248  -0.69134
  29   33246.1    300.8   0.007999957   0.07922  -0.27653  -0.01562   0.05004
  30   33387.3    299.5   0.070595162   0.69610  -0.51616  -0.43019  -0.49458
  31   33421.5    299.2   0.179259029   1.76576   1.17119  -0.58315   0.23239
  32   34151.9    292.8   0.045559273   0.43917   0.08716   0.27694   0.59572
  33   34334.9    291.2   0.179097188   1.71723   1.23329  -0.19107   0.39966
  34   34434.8    290.4   0.001760148   0.01683   0.06751   0.07982   0.07681
  35   34594.8    289.1   0.295936984   2.81620   0.12335  -0.89012  -1.41728
  36   35060.5    285.2   0.217442019   2.04175   0.29781   0.61675   1.25406
  37   35207.4    284.0   0.084651516   0.79155  -0.52589   0.41763   0.58359
  38   35329.4    283.1   0.454194947   4.23234  -1.77845   0.15486   1.02249
  39   35449.4    282.1   0.071149343   0.66075  -0.40076  -0.29497  -0.64275
  40   35810.1    279.3   0.019064634   0.17527   0.35644   0.06416   0.20999
  41   35970.5    278.0   0.016810614   0.15386   0.23704   0.07233   0.30403
  42   36354.2    275.1   0.065724101   0.59518   0.64272  -0.01622   0.42641
  43   36405.3    274.7   0.009406001   0.08506   0.03014  -0.08192  -0.27828
  44   36575.7    273.4   0.057733189   0.51965   0.48112  -0.25727  -0.47115
  45   36680.0    272.6   0.011321442   0.10161   0.31502  -0.02945  -0.03885
  46   36843.7    271.4   0.016965108   0.15159  -0.18768  -0.21434  -0.26538
  47   36907.6    270.9   0.043334754   0.38654   0.53439   0.25971   0.18307
  48   37120.5    269.4   0.041559826   0.36858   0.25695  -0.45485  -0.30931
  49   37757.8    264.8   0.021656403   0.18882   0.26151  -0.02082  -0.34641
  50   37830.0    264.3   0.016194544   0.14093  -0.35272  -0.12853   0.00208
  51   38362.2    260.7   0.056563905   0.48541   0.57413  -0.24668  -0.30811
  52   38502.7    259.7   0.123016729   1.05184  -0.93792   0.41352  -0.03379
  53   38736.6    258.2   0.088370487   0.75104   0.57701  -0.00698   0.64656
  54   38957.3    256.7   0.002744220   0.02319  -0.10053   0.00964  -0.11397
  55   39198.3    255.1   0.003221594   0.02706   0.06418  -0.07421   0.13203
  56   39316.8    254.3   0.005230298   0.04379  -0.00091   0.20398   0.04677
  57   39478.7    253.3   0.017880687   0.14911  -0.08577   0.02210  -0.37585
  58   39700.9    251.9   0.052506109   0.43540   0.45684  -0.22809  -0.41793
  59   40189.8    248.8   0.029264899   0.23972   0.41797  -0.21897  -0.13067
  60   40284.5    248.2   0.026354905   0.21538  -0.44055   0.12777  -0.07046

FINAL SINGLE POINT ENERGY     -6316.748985634018

DIPOLE MOMENT
-------------
                                X             Y             Z
Electronic contribution:     35.17904       2.31099      13.69190
Nuclear contribution   :    -32.66918      -2.80151     -11.17880
                        -----------------------------------------
Total Dipole Moment    :      2.50986      -0.49052       2.51311
                        -----------------------------------------
Magnitude (a.u.)       :      3.58549
Magnitude (Debye)      :      9.11359

Rotational constants in cm-1:     0.002165     0.000105     0.000101
Rotational constants in MHz :    64.909695     3.143144     3.018593

                             ****ORCA TERMINATED NORMALLY****
TOTAL RUN TIME: 0 days 0 hours 12 minutes 14 seconds 235 msec
