                         Program Version 4.2.0 -  RELEASE  -
|  1> # ORCA input file
|  2> # SCF done       -159.765227823510          0.000785618689
|  3> ! CAM-B3LYP def2-SVP def2/J RIJCOSX Grid4 TightSCF
|  4> %maxcore 5000
|  5> %tddft
|  6>     Mode sTDDFT
|  7>     Ethresh 5.0
|  8>     maxcore 5000
|  9> end
| 10>
| 11> %pal
| 12>   nprocs 6
| 13>   end
| 14> * xyz 0 1
| 15>    C       -2.17967         3.36885         3.23157
| 16>    C       -1.40305         4.49540         3.35846
| 17>    C       -1.69352         5.56064         4.22671
| 18>    N       -1.92259         6.48848         4.86582
| 19>    C       -0.19140         4.66771         2.65907
| 20>    N        0.83822         4.80195         2.16830
| 21>    C       -3.18522         2.92429         4.19070
| 22>    C       -3.38426         1.52421         4.00933
| 23>    C       -4.23315         0.81414         4.80643
| 24>    C       -4.94425         1.48516         5.82829
| 25>    C       -4.76058         2.88663         6.00371
| 26>    C       -3.86377         3.59539         5.17042
| 27>    C       -5.48116         3.54329         7.02152
| 28>    C       -6.34004         2.85093         7.83105
| 29>    C       -6.51877         1.47062         7.65903
| 30>    C       -5.83533         0.80274         6.67926
| 31>    C       -2.56647         1.05816         2.86882
| 32>    O       -2.45755        -0.07331         2.44929
| 33>    C       -1.96262         2.28809         2.30174
| 34>    C       -1.49407         2.28345         1.01577
| 35>    C       -1.33516         3.35843         0.12926
| 36>    C       -0.76689         3.26302        -1.15526
| 37>    O       -0.25993         2.08782        -1.56036
| 38>    C        0.34903         2.04092        -2.83206
| 39>    C       -0.79409         4.46748        -1.85996
| 40>    C       -1.38500         5.49709        -1.14630
| 41>    S       -1.93351         4.97206         0.40726
| 42>    C       -1.53174         6.84776        -1.51736
| 43>    C       -1.98753         7.86685        -0.67127
| 44>    O       -2.37284         7.54201         0.57529
| 45>    C       -2.63832         8.58930         1.48628
| 46>    C       -1.96043         9.12523        -1.27412
| 47>    C       -1.50071         9.08835        -2.57927
| 48>    S       -1.08967         7.47470        -3.07596
| 49>    C       -1.34901        10.17518        -3.46325
| 50>    C       -0.88735        10.10440        -4.78670
| 51>    O       -0.56130         8.89607        -5.28695
| 52>    C       -0.10233         8.85153        -6.62248
| 53>    C       -0.83041        11.34311        -5.41818
| 54>    C       -1.23725        12.39323        -4.60815
| 55>    S       -1.71343        11.80559        -3.02543
| 56>    C       -1.33939        13.77961        -4.81736
| 57>    C       -0.99213        14.57052        -5.88287
| 58>    C       -1.17774        16.01333        -5.89264
| 59>    C       -1.90277        16.76527        -5.00281
| 60>    C       -2.04251        18.16678        -5.08724
| 61>    N       -2.19803        19.30464        -5.08837
| 62>    C       -2.64443        16.28340        -3.90387
| 63>    N       -3.29096        15.98849        -3.00063
| 64>    C       -0.49778        16.54574        -7.06811
| 65>    C        0.01491        15.45363        -7.82152
| 66>    C       -0.30304        14.18962        -7.13745
| 67>    O       -0.03132        13.07861        -7.55250
| 68>    C        0.69732        15.63614        -8.98945
| 69>    C        0.91169        16.94977        -9.46310
| 70>    C        0.41083        18.05021        -8.71001
| 71>    C       -0.29875        17.82772        -7.50709
| 72>    C        0.63644        19.35746        -9.18652
| 73>    C        1.32278        19.56944       -10.35127
| 74>    C        1.81413        18.48489       -11.09283
| 75>    C        1.61253        17.20279       -10.65842
| 76>    H       -4.36279        -0.24825         4.66207
| 77>    H       -3.74257         4.65729         5.32008
| 78>    H       -5.33787         4.60609         7.15185
| 79>    H       -6.88615         3.36341         8.60905
| 80>    H       -7.20037         0.93901         8.30632
| 81>    H       -5.96907        -0.26050         6.54214
| 82>    H       -1.31499         1.30388         0.58347
| 83>    H        0.70176         1.01845        -2.95265
| 84>    H        1.19675         2.72946        -2.89001
| 85>    H       -0.36774         2.27642        -3.62450
| 86>    H       -0.39472         4.62267        -2.84559
| 87>    H       -2.79738         8.10940         2.45046
| 88>    H       -3.53557         9.14357         1.19667
| 89>    H       -1.78949         9.27427         1.55727
| 90>    H       -2.26107        10.04369        -0.80366
| 91>    H        0.10830         7.80371        -6.82633
| 92>    H        0.80876         9.44271        -6.74699
| 93>    H       -0.86700         9.21536        -7.31406
| 94>    H       -0.50280        11.50869        -6.42768
| 95>    H       -1.74874        14.29919        -3.95921
| 96>    H        1.07214        14.78836        -9.54376
| 97>    H       -0.66121        18.68351        -6.96075
| 98>    H        0.25487        20.18917        -8.61256
| 99>    H        1.49078        20.57471       -10.70765
|100>    H        2.35375        18.67017       -12.00958
|101>    H        1.98911        16.36359       -11.22505
|102> *
|103>
|104>                          ****END OF INPUT****

CARTESIAN COORDINATES (ANGSTROEM)
---------------------------------
  C     -2.179670    3.368850    3.231570
  C     -1.403050    4.495400    3.358460
  C     -1.693520    5.560640    4.226710
  N     -1.922590    6.488480    4.865820
  C     -0.191400    4.667710    2.659070
  N      0.838220    4.801950    2.168300
  C     -3.185220    2.924290    4.190700
  C     -3.384260    1.524210    4.009330
  C     -4.233150    0.814140    4.806430
  C     -4.944250    1.485160    5.828290
  C     -4.760580    2.886630    6.003710
  C     -3.863770    3.595390    5.170420
  C     -5.481160    3.543290    7.021520
  C     -6.340040    2.850930    7.831050
  C     -6.518770    1.470620    7.659030
  C     -5.835330    0.802740    6.679260
  C     -2.566470    1.058160    2.868820
  O     -2.457550   -0.073310    2.449290
  C     -1.962620    2.288090    2.301740
  C     -1.494070    2.283450    1.015770
  C     -1.335160    3.358430    0.129260
  C     -0.766890    3.263020   -1.155260
  O     -0.259930    2.087820   -1.560360
  C      0.349030    2.040920   -2.832060
  C     -0.794090    4.467480   -1.859960
  C     -1.385000    5.497090   -1.146300
  S     -1.933510    4.972060    0.407260
  C     -1.531740    6.847760   -1.517360
  C     -1.987530    7.866850   -0.671270
  O     -2.372840    7.542010    0.575290
  C     -2.638320    8.589300    1.486280
  C     -1.960430    9.125230   -1.274120
  C     -1.500710    9.088350   -2.579270
  S     -1.089670    7.474700   -3.075960
  C     -1.349010   10.175180   -3.463250
  C     -0.887350   10.104400   -4.786700
  O     -0.561300    8.896070   -5.286950
  C     -0.102330    8.851530   -6.622480
  C     -0.830410   11.343110   -5.418180
  C     -1.237250   12.393230   -4.608150
  S     -1.713430   11.805590   -3.025430
  C     -1.339390   13.779610   -4.817360
  C     -0.992130   14.570520   -5.882870
  C     -1.177740   16.013330   -5.892640
  C     -1.902770   16.765270   -5.002810
  C     -2.042510   18.166780   -5.087240
  N     -2.198030   19.304640   -5.088370
  C     -2.644430   16.283400   -3.903870
  N     -3.290960   15.988490   -3.000630
  C     -0.497780   16.545740   -7.068110
  C      0.014910   15.453630   -7.821520
  C     -0.303040   14.189620   -7.137450
  O     -0.031320   13.078610   -7.552500
  C      0.697320   15.636140   -8.989450
  C      0.911690   16.949770   -9.463100
  C      0.410830   18.050210   -8.710010
  C     -0.298750   17.827720   -7.507090
  C      0.636440   19.357460   -9.186520
  C      1.322780   19.569440  -10.351270
  C      1.814130   18.484890  -11.092830
  C      1.612530   17.202790  -10.658420
  H     -4.362790   -0.248250    4.662070
  H     -3.742570    4.657290    5.320080
  H     -5.337870    4.606090    7.151850
  H     -6.886150    3.363410    8.609050
  H     -7.200370    0.939010    8.306320
  H     -5.969070   -0.260500    6.542140
  H     -1.314990    1.303880    0.583470
  H      0.701760    1.018450   -2.952650
  H      1.196750    2.729460   -2.890010
  H     -0.367740    2.276420   -3.624500
  H     -0.394720    4.622670   -2.845590
  H     -2.797380    8.109400    2.450460
  H     -3.535570    9.143570    1.196670
  H     -1.789490    9.274270    1.557270
  H     -2.261070   10.043690   -0.803660
  H      0.108300    7.803710   -6.826330
  H      0.808760    9.442710   -6.746990
  H     -0.867000    9.215360   -7.314060
  H     -0.502800   11.508690   -6.427680
  H     -1.748740   14.299190   -3.959210
  H      1.072140   14.788360   -9.543760
  H     -0.661210   18.683510   -6.960750
  H      0.254870   20.189170   -8.612560
  H      1.490780   20.574710  -10.707650
  H      2.353750   18.670170  -12.009580
  H      1.989110   16.363590  -11.225050

 Total Charge           Charge          ....    0
 Multiplicity           Mult            ....    1
 Number of Electrons    NEL             ....  436
 Basis Dimension        Dim             ....  996

ORBITAL ENERGIES
----------------

  NO   OCC          E(Eh)            E(eV)
   0   2.0000     -88.979762     -2421.2624
   1   2.0000     -88.972802     -2421.0730
   2   2.0000     -88.955656     -2420.6065
   3   2.0000     -19.274695      -524.4911
   4   2.0000     -19.268182      -524.3139
   5   2.0000     -19.264429      -524.2118
   6   2.0000     -19.221889      -523.0542
   7   2.0000     -19.190588      -522.2024
   8   2.0000     -14.416932      -392.3047
   9   2.0000     -14.413246      -392.2044
  10   2.0000     -14.401473      -391.8840
  11   2.0000     -14.391523      -391.6133
  12   2.0000     -10.372859      -282.2599
  13   2.0000     -10.356994      -281.8281
  14   2.0000     -10.353667      -281.7376
  15   2.0000     -10.352329      -281.7012
  16   2.0000     -10.343218      -281.4533
  17   2.0000     -10.341327      -281.4018
  18   2.0000     -10.340708      -281.3850
  19   2.0000     -10.340639      -281.3831
  20   2.0000     -10.333593      -281.1914
  21   2.0000     -10.330937      -281.1191
  22   2.0000     -10.330513      -281.1075
  23   2.0000     -10.330230      -281.0998
  24   2.0000     -10.327488      -281.0252
  25   2.0000     -10.326649      -281.0024
  26   2.0000     -10.325840      -280.9804
  27   2.0000     -10.320356      -280.8312
  28   2.0000     -10.319938      -280.8198
  29   2.0000     -10.318822      -280.7894
  30   2.0000     -10.316611      -280.7293
  31   2.0000     -10.308796      -280.5166
  32   2.0000     -10.305844      -280.4363
  33   2.0000     -10.303224      -280.3650
  34   2.0000     -10.302996      -280.3588
  35   2.0000     -10.299920      -280.2751
  36   2.0000     -10.298874      -280.2466
  37   2.0000     -10.298464      -280.2355
  38   2.0000     -10.298100      -280.2256
  39   2.0000     -10.297135      -280.1993
  40   2.0000     -10.295481      -280.1543
  41   2.0000     -10.294276      -280.1215
  42   2.0000     -10.293288      -280.0946
  43   2.0000     -10.290344      -280.0145
  44   2.0000     -10.289686      -279.9966
  45   2.0000     -10.287988      -279.9504
  46   2.0000     -10.287489      -279.9368
  47   2.0000     -10.287033      -279.9244
  48   2.0000     -10.286476      -279.9092
  49   2.0000     -10.286079      -279.8984
  50   2.0000     -10.282981      -279.8142
  51   2.0000     -10.282500      -279.8010
  52   2.0000     -10.280372      -279.7432
  53   2.0000     -10.280041      -279.7341
  54   2.0000     -10.279718      -279.7253
  55   2.0000     -10.273548      -279.5575
  56   2.0000     -10.273203      -279.5481
  57   2.0000     -10.272935      -279.5408
  58   2.0000     -10.272548      -279.5303
  59   2.0000     -10.271701      -279.5072
  60   2.0000     -10.268832      -279.4291
  61   2.0000      -8.074938      -219.7302
  62   2.0000      -8.066936      -219.5125
  63   2.0000      -8.049646      -219.0420
  64   2.0000      -6.044169      -164.4702
  65   2.0000      -6.040267      -164.3640
  66   2.0000      -6.036958      -164.2740
  67   2.0000      -6.036423      -164.2594
  68   2.0000      -6.032232      -164.1454
  69   2.0000      -6.028806      -164.0522
  70   2.0000      -6.019168      -163.7899
  71   2.0000      -6.014840      -163.6721
  72   2.0000      -6.011429      -163.5793
  73   2.0000      -1.179946       -32.1080
  74   2.0000      -1.173663       -31.9370
  75   2.0000      -1.170100       -31.8400
  76   2.0000      -1.135590       -30.9010
  77   2.0000      -1.105488       -30.0819
  78   2.0000      -1.019228       -27.7346
  79   2.0000      -1.013640       -27.5825
  80   2.0000      -1.001633       -27.2558
  81   2.0000      -0.999775       -27.2053
  82   2.0000      -0.996522       -27.1167
  83   2.0000      -0.993052       -27.0223
  84   2.0000      -0.982121       -26.7249
  85   2.0000      -0.979793       -26.6615
  86   2.0000      -0.973408       -26.4878
  87   2.0000      -0.971882       -26.4463
  88   2.0000      -0.954319       -25.9683
  89   2.0000      -0.927249       -25.2317
  90   2.0000      -0.912610       -24.8334
  91   2.0000      -0.907755       -24.7013
  92   2.0000      -0.895348       -24.3637
  93   2.0000      -0.886047       -24.1106
  94   2.0000      -0.881679       -23.9917
  95   2.0000      -0.874666       -23.8009
  96   2.0000      -0.866183       -23.5700
  97   2.0000      -0.862039       -23.4573
  98   2.0000      -0.860707       -23.4210
  99   2.0000      -0.848354       -23.0849
 100   2.0000      -0.846868       -23.0445
 101   2.0000      -0.830294       -22.5934
 102   2.0000      -0.829053       -22.5597
 103   2.0000      -0.818641       -22.2763
 104   2.0000      -0.812999       -22.1228
 105   2.0000      -0.810560       -22.0565
 106   2.0000      -0.792768       -21.5723
 107   2.0000      -0.788678       -21.4610
 108   2.0000      -0.774983       -21.0884
 109   2.0000      -0.763643       -20.7798
 110   2.0000      -0.750350       -20.4181
 111   2.0000      -0.741070       -20.1655
 112   2.0000      -0.724390       -19.7117
 113   2.0000      -0.711299       -19.3554
 114   2.0000      -0.705588       -19.2000
 115   2.0000      -0.699132       -19.0243
 116   2.0000      -0.692860       -18.8537
 117   2.0000      -0.688527       -18.7358
 118   2.0000      -0.685786       -18.6612
 119   2.0000      -0.679780       -18.4978
 120   2.0000      -0.668388       -18.1878
 121   2.0000      -0.661458       -17.9992
 122   2.0000      -0.657102       -17.8807
 123   2.0000      -0.656231       -17.8570
 124   2.0000      -0.644820       -17.5464
 125   2.0000      -0.639417       -17.3994
 126   2.0000      -0.635460       -17.2918
 127   2.0000      -0.629973       -17.1424
 128   2.0000      -0.618154       -16.8208
 129   2.0000      -0.615943       -16.7607
 130   2.0000      -0.608280       -16.5521
 131   2.0000      -0.607167       -16.5219
 132   2.0000      -0.593797       -16.1580
 133   2.0000      -0.591614       -16.0986
 134   2.0000      -0.589798       -16.0492
 135   2.0000      -0.583449       -15.8765
 136   2.0000      -0.577792       -15.7225
 137   2.0000      -0.571057       -15.5393
 138   2.0000      -0.570109       -15.5135
 139   2.0000      -0.567258       -15.4359
 140   2.0000      -0.566626       -15.4187
 141   2.0000      -0.559610       -15.2277
 142   2.0000      -0.556773       -15.1506
 143   2.0000      -0.550146       -14.9702
 144   2.0000      -0.547101       -14.8874
 145   2.0000      -0.539636       -14.6842
 146   2.0000      -0.539100       -14.6697
 147   2.0000      -0.537015       -14.6129
 148   2.0000      -0.533261       -14.5108
 149   2.0000      -0.531545       -14.4641
 150   2.0000      -0.527823       -14.3628
 151   2.0000      -0.524365       -14.2687
 152   2.0000      -0.523954       -14.2575
 153   2.0000      -0.516263       -14.0482
 154   2.0000      -0.514522       -14.0009
 155   2.0000      -0.514222       -13.9927
 156   2.0000      -0.513559       -13.9747
 157   2.0000      -0.508282       -13.8311
 158   2.0000      -0.507646       -13.8137
 159   2.0000      -0.500653       -13.6235
 160   2.0000      -0.500283       -13.6134
 161   2.0000      -0.497711       -13.5434
 162   2.0000      -0.497025       -13.5247
 163   2.0000      -0.495155       -13.4739
 164   2.0000      -0.493667       -13.4334
 165   2.0000      -0.491121       -13.3641
 166   2.0000      -0.488858       -13.3025
 167   2.0000      -0.484506       -13.1841
 168   2.0000      -0.480350       -13.0710
 169   2.0000      -0.476873       -12.9764
 170   2.0000      -0.474859       -12.9216
 171   2.0000      -0.466813       -12.7026
 172   2.0000      -0.465225       -12.6594
 173   2.0000      -0.457588       -12.4516
 174   2.0000      -0.453113       -12.3298
 175   2.0000      -0.448801       -12.2125
 176   2.0000      -0.447407       -12.1746
 177   2.0000      -0.445093       -12.1116
 178   2.0000      -0.444472       -12.0947
 179   2.0000      -0.441756       -12.0208
 180   2.0000      -0.440795       -11.9946
 181   2.0000      -0.437668       -11.9096
 182   2.0000      -0.436083       -11.8664
 183   2.0000      -0.434395       -11.8205
 184   2.0000      -0.433526       -11.7968
 185   2.0000      -0.427796       -11.6409
 186   2.0000      -0.426886       -11.6162
 187   2.0000      -0.426098       -11.5947
 188   2.0000      -0.425764       -11.5856
 189   2.0000      -0.423255       -11.5174
 190   2.0000      -0.420447       -11.4409
 191   2.0000      -0.419179       -11.4064
 192   2.0000      -0.418328       -11.3833
 193   2.0000      -0.413688       -11.2570
 194   2.0000      -0.411869       -11.2075
 195   2.0000      -0.410582       -11.1725
 196   2.0000      -0.406410       -11.0590
 197   2.0000      -0.405282       -11.0283
 198   2.0000      -0.401240       -10.9183
 199   2.0000      -0.399230       -10.8636
 200   2.0000      -0.391413       -10.6509
 201   2.0000      -0.385970       -10.5028
 202   2.0000      -0.380019       -10.3408
 203   2.0000      -0.369877       -10.0649
 204   2.0000      -0.362717        -9.8700
 205   2.0000      -0.349426        -9.5084
 206   2.0000      -0.343156        -9.3378
 207   2.0000      -0.330158        -8.9840
 208   2.0000      -0.327098        -8.9008
 209   2.0000      -0.318501        -8.6669
 210   2.0000      -0.316190        -8.6040
 211   2.0000      -0.311912        -8.4876
 212   2.0000      -0.304858        -8.2956
 213   2.0000      -0.299472        -8.1491
 214   2.0000      -0.295231        -8.0336
 215   2.0000      -0.282023        -7.6742
 216   2.0000      -0.274514        -7.4699
 217   2.0000      -0.237108        -6.4520
 218   0.0000      -0.105839        -2.8800
 219   0.0000      -0.074800        -2.0354
 220   0.0000      -0.060638        -1.6500
 221   0.0000      -0.040992        -1.1155
 222   0.0000      -0.032929        -0.8960

MULLIKEN ATOMIC CHARGES
-----------------------
   0 C :    0.253729
   1 C :   -0.339098
   2 C :   -0.143273
   3 N :    0.105408
   4 C :   -0.215754
   5 N :    0.155193
   6 C :    0.047012
   7 C :    0.006617
   8 C :   -0.087569
   9 C :    0.094774
  10 C :    0.096937
  11 C :   -0.089981
  12 C :   -0.021868
  13 C :    0.033523
  14 C :    0.032747
  15 C :   -0.017951
  16 C :    0.139507
  17 O :   -0.156898
  18 C :   -0.147275
  19 C :    0.059051
  20 C :   -0.165935
  21 C :    0.285449
  22 O :   -0.285218
  23 C :    0.174487
  24 C :   -0.136491
  25 C :   -0.004518
  26 S :    0.168644
  27 C :   -0.109957
  28 C :    0.253885
  29 O :   -0.314755
  30 C :    0.167410
  31 C :   -0.128121
  32 C :   -0.026315
  33 S :    0.179512
  34 C :   -0.097260
  35 C :    0.228371
  36 O :   -0.323337
  37 C :    0.176863
  38 C :   -0.084075
  39 C :   -0.089511
  40 S :    0.164865
  41 C :    0.057541
  42 C :   -0.091840
  43 C :    0.318193
  44 C :   -0.357849
  45 C :   -0.183029
  46 N :    0.145063
  47 C :   -0.191686
  48 N :    0.149754
  49 C :    0.043529
  50 C :    0.004023
  51 C :    0.163803
  52 O :   -0.167862
  53 C :   -0.083606
  54 C :    0.098867
  55 C :    0.094283
  56 C :   -0.079828
  57 C :   -0.017611
  58 C :    0.035223
  59 C :    0.036895
  60 C :   -0.016195
  61 H :   -0.016446
  62 H :   -0.012873
  63 H :   -0.015140
  64 H :   -0.010302
  65 H :   -0.010227
  66 H :   -0.020400
  67 H :    0.022959
  68 H :    0.047849
  69 H :    0.033539
  70 H :    0.027848
  71 H :   -0.023862
  72 H :    0.059160
  73 H :    0.029291
  74 H :    0.035499
  75 H :   -0.008492
  76 H :    0.042236
  77 H :    0.039566
  78 H :    0.037521
  79 H :    0.006551
  80 H :    0.004045
  81 H :   -0.017422
  82 H :   -0.008948
  83 H :   -0.008802
  84 H :   -0.004875
  85 H :   -0.005405
  86 H :   -0.019363
Sum of atomic charges:   -0.0000000

LOEWDIN ATOMIC CHARGES
----------------------
   0 C :    0.064660
   1 C :   -0.167953
   2 C :   -0.013475
   3 N :   -0.080983
   4 C :   -0.041886
   5 N :   -0.064141
   6 C :   -0.019498
   7 C :   -0.052560
   8 C :    0.025436
   9 C :   -0.010909
  10 C :   -0.007591
  11 C :    0.007657
  12 C :   -0.009738
  13 C :   -0.018466
  14 C :   -0.018655
  15 C :   -0.011480
  16 C :    0.079915
  17 O :   -0.158589
  18 C :   -0.123571
  19 C :    0.064138
  20 C :   -0.232310
  21 C :    0.065082
  22 O :   -0.076965
  23 C :    0.082971
  24 C :   -0.123643
  25 C :   -0.130761
  26 S :    0.512463
  27 C :   -0.232373
  28 C :    0.034032
  29 O :   -0.090040
  30 C :    0.085281
  31 C :   -0.093572
  32 C :   -0.165641
  33 S :    0.477822
  34 C :   -0.193308
  35 C :    0.012537
  36 O :   -0.100340
  37 C :    0.085259
  38 C :   -0.049764
  39 C :   -0.170067
  40 S :    0.469168
  41 C :    0.044388
  42 C :   -0.097858
  43 C :    0.076819
  44 C :   -0.144371
  45 C :   -0.016876
  46 N :   -0.056382
  47 C :   -0.025093
  48 N :   -0.054143
  49 C :   -0.025926
  50 C :   -0.055081
  51 C :    0.090153
  52 O :   -0.153978
  53 C :    0.030426
  54 C :   -0.008949
  55 C :   -0.006317
  56 C :    0.019660
  57 C :   -0.004813
  58 C :   -0.013410
  59 C :   -0.012564
  60 C :   -0.010333
  61 H :    0.037135
  62 H :    0.036108
  63 H :    0.032116
  64 H :    0.030717
  65 H :    0.030445
  66 H :    0.030342
  67 H :    0.050124
  68 H :    0.033450
  69 H :    0.020990
  70 H :    0.018129
  71 H :    0.024483
  72 H :    0.037290
  73 H :    0.019005
  74 H :    0.022481
  75 H :    0.030172
  76 H :    0.031462
  77 H :    0.023887
  78 H :    0.023227
  79 H :    0.033222
  80 H :    0.043282
  81 H :    0.037246
  82 H :    0.039060
  83 H :    0.035014
  84 H :    0.033228
  85 H :    0.032704
  86 H :    0.031186

  Mayer bond orders larger than 0.100000
B(  0-C ,  1-C ) :   1.5992 B(  0-C ,  6-C ) :   1.0109 B(  0-C , 18-C ) :   1.0772
B(  1-C ,  2-C ) :   1.1518 B(  1-C ,  4-C ) :   1.1461 B(  2-C ,  3-N ) :   2.9106
B(  4-C ,  5-N ) :   3.0338 B(  6-C ,  7-C ) :   1.2145 B(  6-C , 11-C ) :   1.4686
B(  7-C ,  8-C ) :   1.4888 B(  7-C , 16-C ) :   0.9150 B(  8-C ,  9-C ) :   1.1784
B(  8-C , 61-H ) :   1.0140 B(  9-C , 10-C ) :   1.2604 B(  9-C , 15-C ) :   1.2488
B( 10-C , 11-C ) :   1.1956 B( 10-C , 12-C ) :   1.2449 B( 11-C , 62-H ) :   0.9925
B( 12-C , 13-C ) :   1.4878 B( 12-C , 63-H ) :   0.9960 B( 13-C , 14-C ) :   1.2625
B( 13-C , 64-H ) :   0.9885 B( 14-C , 15-C ) :   1.4872 B( 14-C , 65-H ) :   0.9888
B( 15-C , 66-H ) :   0.9963 B( 16-C , 17-O ) :   2.2606 B( 16-C , 18-C ) :   0.9623
B( 18-C , 19-C ) :   1.5164 B( 19-C , 20-C ) :   1.2499 B( 19-C , 67-H ) :   0.9506
B( 20-C , 21-C ) :   1.3527 B( 20-C , 26-S ) :   1.0421 B( 21-C , 22-O ) :   1.2235
B( 21-C , 24-C ) :   1.2637 B( 22-O , 23-C ) :   0.9464 B( 23-C , 68-H ) :   0.9801
B( 23-C , 69-H ) :   0.9705 B( 23-C , 70-H ) :   0.9707 B( 24-C , 25-C ) :   1.3782
B( 24-C , 71-H ) :   1.0000 B( 25-C , 26-S ) :   1.1852 B( 25-C , 27-C ) :   1.2169
B( 27-C , 28-C ) :   1.3994 B( 27-C , 32-C ) :   0.1005 B( 27-C , 33-S ) :   1.0740
B( 28-C , 29-O ) :   1.1703 B( 28-C , 31-C ) :   1.2488 B( 29-O , 30-C ) :   0.9296
B( 30-C , 72-H ) :   0.9739 B( 30-C , 73-H ) :   0.9729 B( 30-C , 74-H ) :   0.9712
B( 31-C , 32-C ) :   1.4061 B( 31-C , 75-H ) :   1.0048 B( 32-C , 33-S ) :   1.1454
B( 32-C , 34-C ) :   1.2029 B( 34-C , 35-C ) :   1.3806 B( 34-C , 39-C ) :   0.1020
B( 34-C , 40-S ) :   1.1517 B( 35-C , 36-O ) :   1.1533 B( 35-C , 38-C ) :   1.2382
B( 36-O , 37-C ) :   0.9383 B( 37-C , 76-H ) :   0.9783 B( 37-C , 77-H ) :   0.9723
B( 37-C , 78-H ) :   0.9726 B( 38-C , 39-C ) :   1.3892 B( 38-C , 79-H ) :   0.9769
B( 39-C , 40-S ) :   1.0981 B( 39-C , 41-C ) :   1.2456 B( 41-C , 42-C ) :   1.5609
B( 41-C , 80-H ) :   0.9106 B( 42-C , 43-C ) :   1.0865 B( 42-C , 51-C ) :   0.9431
B( 43-C , 44-C ) :   1.6147 B( 43-C , 49-C ) :   0.9792 B( 44-C , 45-C ) :   1.1517
B( 44-C , 47-C ) :   1.1381 B( 45-C , 46-N ) :   2.9613 B( 47-C , 48-N ) :   2.9707
B( 49-C , 50-C ) :   1.2165 B( 49-C , 56-C ) :   1.4517 B( 50-C , 51-C ) :   0.9589
B( 50-C , 53-C ) :   1.4674 B( 51-C , 52-O ) :   2.1421 B( 52-O , 79-H ) :   0.1104
B( 53-C , 54-C ) :   1.1765 B( 53-C , 81-H ) :   1.0165 B( 54-C , 55-C ) :   1.2589
B( 54-C , 60-C ) :   1.2430 B( 55-C , 56-C ) :   1.2031 B( 55-C , 57-C ) :   1.2406
B( 56-C , 82-H ) :   0.9898 B( 57-C , 58-C ) :   1.4881 B( 57-C , 83-H ) :   0.9976
B( 58-C , 59-C ) :   1.2600 B( 58-C , 84-H ) :   0.9890 B( 59-C , 60-C ) :   1.4879
B( 59-C , 85-H ) :   0.9888 B( 60-C , 86-H ) :   0.9979

-----------------------------------------------------------------------------
         ABSORPTION SPECTRUM VIA TRANSITION ELECTRIC DIPOLE MOMENTS
-----------------------------------------------------------------------------
State   Energy  Wavelength   fosc         T2         TX        TY        TZ
        (cm-1)    (nm)                  (au**2)     (au)      (au)      (au)
-----------------------------------------------------------------------------
   0   14484.6    690.4   1.728236678  39.27997  -0.54635  -4.87267   3.90366
   1   20074.7    498.1   0.199086917   3.26489   0.16141  -1.47683  -1.02850
   2   23503.9    425.5   0.205788820   2.88242   0.12880   1.63561  -0.43659
   3   25413.4    393.5   0.001985973   0.02573   0.06113  -0.11942   0.08792
   4   26121.3    382.8   0.057760695   0.72797   0.64326  -0.35720  -0.43197
   5   26389.7    378.9   0.282718641   3.52692   0.65324   1.38018  -1.09330
   6   27553.1    362.9   0.094940548   1.13437  -0.54370  -0.74722   0.52955
   7   28276.8    353.6   0.018454892   0.21486  -0.11628   0.15851   0.41978
   8   28433.4    351.7   0.058495835   0.67728   0.38933   0.20290  -0.69609
   9   28566.2    350.1   0.049950367   0.57565   0.12747   0.72095   0.19909
  10   28975.5    345.1   0.038370819   0.43596  -0.25298   0.17829   0.58324
  11   29791.3    335.7   0.027670045   0.30577   0.22887  -0.37272  -0.33833
  12   30066.6    332.6   0.037890588   0.41488   0.16660  -0.32200  -0.53239
  13   30444.7    328.5   0.055626867   0.60152   0.36458   0.59958  -0.33030
  14   31052.8    322.0   0.024630533   0.26112   0.34150  -0.11697  -0.36169
  15   31205.1    320.5   0.096919779   1.02250  -0.25059   0.97894   0.03710
  16   32272.7    309.9   0.039541381   0.40336   0.55919   0.23632  -0.18660
  17   32837.9    304.5   0.836406676   8.38527   1.74271   0.80099  -2.16948
  18   32927.4    303.7   0.208149195   2.08110  -0.53969   0.08257   1.33530
  19   33603.3    297.6   0.036103705   0.35371  -0.41452  -0.26916   0.33081
  20   33750.6    296.3   0.040175101   0.39188   0.20012   0.47134  -0.36009
  21   34333.4    291.3   0.000174934   0.00168  -0.03940  -0.01102  -0.00190
  22   34629.6    288.8   0.073920878   0.70274  -0.39045  -0.12914   0.73049
  23   35016.9    285.6   0.166320619   1.56367   0.73943   0.71984  -0.70622
  24   35316.5    283.2   0.139350911   1.29900   0.72154   0.19887  -0.85955
  25   36271.8    275.7   0.104385718   0.94743  -0.59965  -0.72578   0.24719
  26   36777.3    271.9   0.326175373   2.91976   1.17938   0.82252  -0.92319
  27   37755.5    264.9   0.012214060   0.10650  -0.04808   0.11118   0.30303
  28   38258.3    261.4   0.142383649   1.22521  -0.76231   0.08421   0.79812
  29   38621.4    258.9   0.053667024   0.45746   0.00745  -0.58713  -0.33569
  30   39154.9    255.4   0.008157840   0.06859  -0.17372   0.11243   0.16053
  31   39254.9    254.7   0.034574150   0.28996   0.03825   0.24569   0.47763
  32   39623.6    252.4   0.221390695   1.83942  -0.42280   1.24263   0.34135
  33   40106.7    249.3   0.025891240   0.21253  -0.08468   0.45227  -0.02844

FINAL SINGLE POINT ENERGY     -3668.994770509375

DIPOLE MOMENT
-------------
                                X             Y             Z
Electronic contribution:     -1.40153       6.41578       7.38978
Nuclear contribution   :      1.81167      -6.33669     -11.19466
                        -----------------------------------------
Total Dipole Moment    :      0.41014       0.07910      -3.80487
                        -----------------------------------------
Magnitude (a.u.)       :      3.82773
Magnitude (Debye)      :      9.72932

Rotational constants in cm-1:     0.003261     0.000340     0.000314
Rotational constants in MHz :    97.766185    10.182197     9.409615

                             ****ORCA TERMINATED NORMALLY****
TOTAL RUN TIME: 0 days 0 hours 7 minutes 57 seconds 43 msec
