                         Program Version 4.2.0 -  RELEASE  -
|  1> # ORCA input file
|  2> # SCF done       -212.095494094963          0.000450032256
|  3> ! CAM-B3LYP def2-SVP def2/J RIJCOSX Grid4 TightSCF
|  4> %maxcore 5000
|  5> %tddft
|  6>     Mode sTDDFT
|  7>     Ethresh 5.0
|  8>     maxcore 5000
|  9> end
| 10>
| 11> %pal
| 12>   nprocs 6
| 13>   end
| 14> * xyz 0 1
| 15>    C       -3.46520         1.94227        -0.38373
| 16>    C       -4.58084         2.41388        -1.02628
| 17>    C       -5.74012         1.64594        -1.26314
| 18>    N       -6.71629         1.08241        -1.48252
| 19>    C       -4.75600         3.72081        -1.52588
| 20>    N       -4.98800         4.76299        -1.95016
| 21>    C       -3.30167         0.58598         0.13199
| 22>    C       -2.02553         0.48688         0.75561
| 23>    C       -1.58027        -0.67513         1.31529
| 24>    C       -2.40697        -1.82071         1.27237
| 25>    C       -3.68714        -1.73076         0.65434
| 26>    C       -4.12144        -0.51028         0.08631
| 27>    C       -4.50450        -2.87867         0.61720
| 28>    C       -4.07895        -4.05974         1.16186
| 29>    C       -2.81738        -4.14732         1.76871
| 30>    C       -1.99905        -3.05156         1.82244
| 31>    C       -1.33533         1.78310         0.65723
| 32>    O       -0.27052         2.08088         1.16410
| 33>    C       -2.23062         2.65853        -0.12874
| 34>    C       -1.95175         3.94070        -0.50988
| 35>    C       -0.72552         4.63532        -0.45297
| 36>    S       -0.89827         6.36238        -0.31547
| 37>    C        0.79117         6.61686        -0.11593
| 38>    C        1.48665         5.39441        -0.14900
| 39>    C        0.63496         4.27769        -0.44969
| 40>    C        1.23646         3.02456        -0.74247
| 41>    C        0.51446         1.92013        -1.39214
| 42>    O       -0.52983         2.01464        -1.99605
| 43>    O        1.16299         0.74575        -1.31437
| 44>    C        2.59265         2.87468        -0.51455
| 45>    C        3.37741         3.90516        -0.01276
| 46>    C        2.85340         5.16808         0.17031
| 47>    O        3.66494         6.11383         0.67832
| 48>    C        1.29145         7.95176        -0.06724
| 49>    C        2.45867         8.44382        -0.63017
| 50>    C        2.57016         9.82581        -0.48029
| 51>    C        1.47846        10.39742         0.19691
| 52>    S        0.30892         9.23404         0.64048
| 53>    C        1.69009        11.79664         0.29480
| 54>    C        2.91520        12.10457        -0.32354
| 55>    C        3.51442        10.87729        -0.82191
| 56>    C        4.71557        10.74159        -1.45218
| 57>    C        5.18405         9.49039        -1.90718
| 58>    N        5.55842         8.47333        -2.28099
| 59>    C        5.58220        11.83594        -1.66575
| 60>    N        6.30321        12.71465        -1.81201
| 61>    C        3.21485        13.46380        -0.29347
| 62>    C        2.22916        14.19770         0.34462
| 63>    S        0.92129        13.18405         0.93049
| 64>    C        2.25702        15.59516         0.59684
| 65>    S        1.63698        16.23905         2.07023
| 66>    C        2.27850        17.82086         1.75716
| 67>    C        3.01897        17.81616         0.56330
| 68>    C        2.91502        16.58589        -0.15159
| 69>    C        3.43700        16.49501        -1.46825
| 70>    C        3.05626        15.45980        -2.45306
| 71>    O        3.74572        15.09136        -3.36850
| 72>    O        1.79250        15.02407        -2.29550
| 73>    C        4.22795        17.52433        -1.92876
| 74>    C        4.50558        18.64197        -1.13984
| 75>    C        3.90941        18.81743         0.08980
| 76>    O        4.20106        19.87182         0.87821
| 77>    C        1.99206        18.85314         2.67099
| 78>    C        1.90092        20.18555         2.37169
| 79>    C        1.82734        21.27323         3.32194
| 80>    C        2.02941        21.18834         4.67689
| 81>    C        1.98528        22.29213         5.55275
| 82>    N        1.96030        23.14831         6.31772
| 83>    C        2.32834        20.00383         5.38043
| 84>    N        2.58607        19.08493         6.01997
| 85>    C        1.59586        22.50508         2.57518
| 86>    C        1.52994        22.18784         1.18878
| 87>    C        1.69531        20.73457         1.00719
| 88>    O        1.57676        20.12200        -0.03524
| 89>    C        1.33022        23.14604         0.23793
| 90>    C        1.19655        24.49556         0.63603
| 91>    C        1.25765        24.82112         2.02141
| 92>    C        1.45525        23.80426         2.98447
| 93>    C        1.12012        26.16950         2.40835
| 94>    C        0.93386        27.15107         1.47311
| 95>    C        0.87459        26.82936         0.10914
| 96>    C        1.00342        25.52975        -0.30045
| 97>    H       -0.60551        -0.72145         1.77840
| 98>    H       -5.09496        -0.47860        -0.37611
| 99>    H       -5.47491        -2.80636         0.14835
|100>    H       -4.71244        -4.93345         1.12769
|101>    H       -2.49707        -5.08700         2.19352
|102>    H       -1.02657        -3.11256         2.28906
|103>    H       -2.77892         4.54374        -0.86530
|104>    H        0.65825         0.06812        -1.79017
|105>    H        3.04859         1.91987        -0.72054
|106>    H        4.41579         3.74465         0.22638
|107>    H        3.18572         6.93248         0.86156
|108>    H        3.16037         7.83326        -1.17032
|109>    H        4.11477        13.90481        -0.68189
|110>    H        1.56313        14.42606        -3.02431
|111>    H        4.63589        17.45550        -2.92533
|112>    H        5.17902        19.39979        -1.51563
|113>    H        4.81996        20.45832         0.42257
|114>    H        1.77462        18.53222         3.68235
|115>    H        1.27937        22.87898        -0.80747
|116>    H        1.48746        24.08271         4.02576
|117>    H        1.16715        26.41227         3.45980
|118>    H        0.83109        28.18123         1.77958
|119>    H        0.72592        27.61596        -0.61549
|120>    H        0.95757        25.27598        -1.34957
|121> *
|122>
|123>                          ****END OF INPUT****

CARTESIAN COORDINATES (ANGSTROEM)
---------------------------------
  C     -3.465200    1.942270   -0.383730
  C     -4.580840    2.413880   -1.026280
  C     -5.740120    1.645940   -1.263140
  N     -6.716290    1.082410   -1.482520
  C     -4.756000    3.720810   -1.525880
  N     -4.988000    4.762990   -1.950160
  C     -3.301670    0.585980    0.131990
  C     -2.025530    0.486880    0.755610
  C     -1.580270   -0.675130    1.315290
  C     -2.406970   -1.820710    1.272370
  C     -3.687140   -1.730760    0.654340
  C     -4.121440   -0.510280    0.086310
  C     -4.504500   -2.878670    0.617200
  C     -4.078950   -4.059740    1.161860
  C     -2.817380   -4.147320    1.768710
  C     -1.999050   -3.051560    1.822440
  C     -1.335330    1.783100    0.657230
  O     -0.270520    2.080880    1.164100
  C     -2.230620    2.658530   -0.128740
  C     -1.951750    3.940700   -0.509880
  C     -0.725520    4.635320   -0.452970
  S     -0.898270    6.362380   -0.315470
  C      0.791170    6.616860   -0.115930
  C      1.486650    5.394410   -0.149000
  C      0.634960    4.277690   -0.449690
  C      1.236460    3.024560   -0.742470
  C      0.514460    1.920130   -1.392140
  O     -0.529830    2.014640   -1.996050
  O      1.162990    0.745750   -1.314370
  C      2.592650    2.874680   -0.514550
  C      3.377410    3.905160   -0.012760
  C      2.853400    5.168080    0.170310
  O      3.664940    6.113830    0.678320
  C      1.291450    7.951760   -0.067240
  C      2.458670    8.443820   -0.630170
  C      2.570160    9.825810   -0.480290
  C      1.478460   10.397420    0.196910
  S      0.308920    9.234040    0.640480
  C      1.690090   11.796640    0.294800
  C      2.915200   12.104570   -0.323540
  C      3.514420   10.877290   -0.821910
  C      4.715570   10.741590   -1.452180
  C      5.184050    9.490390   -1.907180
  N      5.558420    8.473330   -2.280990
  C      5.582200   11.835940   -1.665750
  N      6.303210   12.714650   -1.812010
  C      3.214850   13.463800   -0.293470
  C      2.229160   14.197700    0.344620
  S      0.921290   13.184050    0.930490
  C      2.257020   15.595160    0.596840
  S      1.636980   16.239050    2.070230
  C      2.278500   17.820860    1.757160
  C      3.018970   17.816160    0.563300
  C      2.915020   16.585890   -0.151590
  C      3.437000   16.495010   -1.468250
  C      3.056260   15.459800   -2.453060
  O      3.745720   15.091360   -3.368500
  O      1.792500   15.024070   -2.295500
  C      4.227950   17.524330   -1.928760
  C      4.505580   18.641970   -1.139840
  C      3.909410   18.817430    0.089800
  O      4.201060   19.871820    0.878210
  C      1.992060   18.853140    2.670990
  C      1.900920   20.185550    2.371690
  C      1.827340   21.273230    3.321940
  C      2.029410   21.188340    4.676890
  C      1.985280   22.292130    5.552750
  N      1.960300   23.148310    6.317720
  C      2.328340   20.003830    5.380430
  N      2.586070   19.084930    6.019970
  C      1.595860   22.505080    2.575180
  C      1.529940   22.187840    1.188780
  C      1.695310   20.734570    1.007190
  O      1.576760   20.122000   -0.035240
  C      1.330220   23.146040    0.237930
  C      1.196550   24.495560    0.636030
  C      1.257650   24.821120    2.021410
  C      1.455250   23.804260    2.984470
  C      1.120120   26.169500    2.408350
  C      0.933860   27.151070    1.473110
  C      0.874590   26.829360    0.109140
  C      1.003420   25.529750   -0.300450
  H     -0.605510   -0.721450    1.778400
  H     -5.094960   -0.478600   -0.376110
  H     -5.474910   -2.806360    0.148350
  H     -4.712440   -4.933450    1.127690
  H     -2.497070   -5.087000    2.193520
  H     -1.026570   -3.112560    2.289060
  H     -2.778920    4.543740   -0.865300
  H      0.658250    0.068120   -1.790170
  H      3.048590    1.919870   -0.720540
  H      4.415790    3.744650    0.226380
  H      3.185720    6.932480    0.861560
  H      3.160370    7.833260   -1.170320
  H      4.114770   13.904810   -0.681890
  H      1.563130   14.426060   -3.024310
  H      4.635890   17.455500   -2.925330
  H      5.179020   19.399790   -1.515630
  H      4.819960   20.458320    0.422570
  H      1.774620   18.532220    3.682350
  H      1.279370   22.878980   -0.807470
  H      1.487460   24.082710    4.025760
  H      1.167150   26.412270    3.459800
  H      0.831090   28.181230    1.779580
  H      0.725920   27.615960   -0.615490
  H      0.957570   25.275980   -1.349570

 Total Charge           Charge          ....    0
 Multiplicity           Mult            ....    1
 Number of Electrons    NEL             ....  578
 Basis Dimension        Dim             .... 1284

ORBITAL ENERGIES
----------------

  NO   OCC          E(Eh)            E(eV)
   0   2.0000     -89.007241     -2422.0102
   1   2.0000     -89.003889     -2421.9190
   2   2.0000     -88.993535     -2421.6372
   3   2.0000     -88.988657     -2421.5045
   4   2.0000     -19.276181      -524.5316
   5   2.0000     -19.267661      -524.2997
   6   2.0000     -19.266893      -524.2788
   7   2.0000     -19.255709      -523.9745
   8   2.0000     -19.210807      -522.7526
   9   2.0000     -19.209366      -522.7134
  10   2.0000     -19.205809      -522.6166
  11   2.0000     -19.198283      -522.4118
  12   2.0000     -14.439955      -392.9311
  13   2.0000     -14.437577      -392.8664
  14   2.0000     -14.414454      -392.2372
  15   2.0000     -14.412949      -392.1963
  16   2.0000     -14.407895      -392.0588
  17   2.0000     -14.405051      -391.9814
  18   2.0000     -10.411247      -283.3044
  19   2.0000     -10.398299      -282.9521
  20   2.0000     -10.377316      -282.3811
  21   2.0000     -10.366962      -282.0994
  22   2.0000     -10.364139      -282.0226
  23   2.0000     -10.362490      -281.9777
  24   2.0000     -10.362233      -281.9707
  25   2.0000     -10.354127      -281.7501
  26   2.0000     -10.350787      -281.6592
  27   2.0000     -10.348969      -281.6098
  28   2.0000     -10.347882      -281.5802
  29   2.0000     -10.344907      -281.4992
  30   2.0000     -10.343700      -281.4664
  31   2.0000     -10.341804      -281.4148
  32   2.0000     -10.339470      -281.3513
  33   2.0000     -10.339238      -281.3450
  34   2.0000     -10.338230      -281.3175
  35   2.0000     -10.336549      -281.2718
  36   2.0000     -10.330801      -281.1154
  37   2.0000     -10.330094      -281.0961
  38   2.0000     -10.327640      -281.0294
  39   2.0000     -10.321322      -280.8574
  40   2.0000     -10.320333      -280.8305
  41   2.0000     -10.320240      -280.8280
  42   2.0000     -10.319010      -280.7946
  43   2.0000     -10.317519      -280.7540
  44   2.0000     -10.317034      -280.7408
  45   2.0000     -10.316123      -280.7160
  46   2.0000     -10.313767      -280.6519
  47   2.0000     -10.312657      -280.6217
  48   2.0000     -10.311183      -280.5815
  49   2.0000     -10.310301      -280.5576
  50   2.0000     -10.309370      -280.5322
  51   2.0000     -10.309106      -280.5250
  52   2.0000     -10.308559      -280.5102
  53   2.0000     -10.307342      -280.4770
  54   2.0000     -10.302260      -280.3387
  55   2.0000     -10.300403      -280.2882
  56   2.0000     -10.298291      -280.2307
  57   2.0000     -10.298227      -280.2290
  58   2.0000     -10.297821      -280.2179
  59   2.0000     -10.297535      -280.2102
  60   2.0000     -10.296702      -280.1875
  61   2.0000     -10.296418      -280.1798
  62   2.0000     -10.294210      -280.1197
  63   2.0000     -10.292445      -280.0717
  64   2.0000     -10.292056      -280.0611
  65   2.0000     -10.291208      -280.0380
  66   2.0000     -10.290650      -280.0228
  67   2.0000     -10.288810      -279.9728
  68   2.0000     -10.288656      -279.9686
  69   2.0000     -10.288259      -279.9578
  70   2.0000     -10.287664      -279.9416
  71   2.0000     -10.287109      -279.9265
  72   2.0000     -10.286648      -279.9139
  73   2.0000     -10.286553      -279.9113
  74   2.0000     -10.286050      -279.8976
  75   2.0000     -10.285751      -279.8895
  76   2.0000     -10.281341      -279.7695
  77   2.0000     -10.280622      -279.7499
  78   2.0000     -10.280268      -279.7403
  79   2.0000     -10.280207      -279.7386
  80   2.0000     -10.279668      -279.7240
  81   2.0000     -10.274994      -279.5968
  82   2.0000      -8.101865      -220.4630
  83   2.0000      -8.098469      -220.3705
  84   2.0000      -8.088937      -220.1112
  85   2.0000      -8.084210      -219.9825
  86   2.0000      -6.071182      -165.2052
  87   2.0000      -6.067745      -165.1117
  88   2.0000      -6.066920      -165.0893
  89   2.0000      -6.064120      -165.0131
  90   2.0000      -6.063526      -164.9969
  91   2.0000      -6.060806      -164.9229
  92   2.0000      -6.057794      -164.8410
  93   2.0000      -6.053801      -164.7323
  94   2.0000      -6.053108      -164.7135
  95   2.0000      -6.051767      -164.6769
  96   2.0000      -6.048982      -164.6012
  97   2.0000      -6.047025      -164.5479
  98   2.0000      -1.195524       -32.5319
  99   2.0000      -1.184984       -32.2451
 100   2.0000      -1.175078       -31.9755
 101   2.0000      -1.166542       -31.7432
 102   2.0000      -1.125848       -30.6359
 103   2.0000      -1.120942       -30.5024
 104   2.0000      -1.098887       -29.9022
 105   2.0000      -1.086608       -29.5681
 106   2.0000      -1.059260       -28.8239
 107   2.0000      -1.031848       -28.0780
 108   2.0000      -1.029135       -28.0042
 109   2.0000      -1.020153       -27.7598
 110   2.0000      -1.016348       -27.6562
 111   2.0000      -1.015647       -27.6372
 112   2.0000      -1.008933       -27.4545
 113   2.0000      -1.003602       -27.3094
 114   2.0000      -0.997652       -27.1475
 115   2.0000      -0.992168       -26.9983
 116   2.0000      -0.990347       -26.9487
 117   2.0000      -0.984903       -26.8006
 118   2.0000      -0.971987       -26.4491
 119   2.0000      -0.970765       -26.4159
 120   2.0000      -0.963459       -26.2171
 121   2.0000      -0.954477       -25.9726
 122   2.0000      -0.947053       -25.7706
 123   2.0000      -0.932263       -25.3682
 124   2.0000      -0.924110       -25.1463
 125   2.0000      -0.917479       -24.9659
 126   2.0000      -0.909188       -24.7403
 127   2.0000      -0.900114       -24.4933
 128   2.0000      -0.890786       -24.2395
 129   2.0000      -0.884645       -24.0724
 130   2.0000      -0.881205       -23.9788
 131   2.0000      -0.878424       -23.9031
 132   2.0000      -0.873587       -23.7715
 133   2.0000      -0.872379       -23.7387
 134   2.0000      -0.866851       -23.5882
 135   2.0000      -0.857350       -23.3297
 136   2.0000      -0.856949       -23.3188
 137   2.0000      -0.851796       -23.1786
 138   2.0000      -0.845836       -23.0164
 139   2.0000      -0.828542       -22.5458
 140   2.0000      -0.828056       -22.5326
 141   2.0000      -0.821278       -22.3481
 142   2.0000      -0.806769       -21.9533
 143   2.0000      -0.791760       -21.5449
 144   2.0000      -0.788411       -21.4538
 145   2.0000      -0.772373       -21.0173
 146   2.0000      -0.762673       -20.7534
 147   2.0000      -0.760218       -20.6866
 148   2.0000      -0.753661       -20.5082
 149   2.0000      -0.751892       -20.4600
 150   2.0000      -0.741243       -20.1702
 151   2.0000      -0.732080       -19.9209
 152   2.0000      -0.724189       -19.7062
 153   2.0000      -0.717950       -19.5364
 154   2.0000      -0.711906       -19.3719
 155   2.0000      -0.706665       -19.2293
 156   2.0000      -0.704136       -19.1605
 157   2.0000      -0.702085       -19.1047
 158   2.0000      -0.697407       -18.9774
 159   2.0000      -0.696628       -18.9562
 160   2.0000      -0.692852       -18.8534
 161   2.0000      -0.690425       -18.7874
 162   2.0000      -0.677154       -18.4263
 163   2.0000      -0.676090       -18.3974
 164   2.0000      -0.669689       -18.2232
 165   2.0000      -0.665195       -18.1009
 166   2.0000      -0.659597       -17.9485
 167   2.0000      -0.654877       -17.8201
 168   2.0000      -0.641690       -17.4613
 169   2.0000      -0.639594       -17.4042
 170   2.0000      -0.636037       -17.3074
 171   2.0000      -0.631906       -17.1950
 172   2.0000      -0.629457       -17.1284
 173   2.0000      -0.628171       -17.0934
 174   2.0000      -0.617478       -16.8024
 175   2.0000      -0.612987       -16.6802
 176   2.0000      -0.611326       -16.6350
 177   2.0000      -0.606650       -16.5078
 178   2.0000      -0.603168       -16.4130
 179   2.0000      -0.599609       -16.3162
 180   2.0000      -0.586681       -15.9644
 181   2.0000      -0.582752       -15.8575
 182   2.0000      -0.581160       -15.8142
 183   2.0000      -0.572941       -15.5905
 184   2.0000      -0.570730       -15.5304
 185   2.0000      -0.568083       -15.4583
 186   2.0000      -0.564160       -15.3516
 187   2.0000      -0.561064       -15.2673
 188   2.0000      -0.559891       -15.2354
 189   2.0000      -0.559213       -15.2170
 190   2.0000      -0.553074       -15.0499
 191   2.0000      -0.552197       -15.0260
 192   2.0000      -0.547042       -14.8858
 193   2.0000      -0.545325       -14.8391
 194   2.0000      -0.544755       -14.8235
 195   2.0000      -0.542649       -14.7662
 196   2.0000      -0.540573       -14.7097
 197   2.0000      -0.539622       -14.6839
 198   2.0000      -0.536025       -14.5860
 199   2.0000      -0.534007       -14.5311
 200   2.0000      -0.533350       -14.5132
 201   2.0000      -0.530765       -14.4428
 202   2.0000      -0.528875       -14.3914
 203   2.0000      -0.525178       -14.2908
 204   2.0000      -0.522191       -14.2095
 205   2.0000      -0.518728       -14.1153
 206   2.0000      -0.517031       -14.0691
 207   2.0000      -0.515468       -14.0266
 208   2.0000      -0.513436       -13.9713
 209   2.0000      -0.511463       -13.9176
 210   2.0000      -0.510752       -13.8983
 211   2.0000      -0.509645       -13.8681
 212   2.0000      -0.506898       -13.7934
 213   2.0000      -0.506283       -13.7767
 214   2.0000      -0.504581       -13.7304
 215   2.0000      -0.502283       -13.6678
 216   2.0000      -0.499851       -13.6016
 217   2.0000      -0.496456       -13.5092
 218   2.0000      -0.494928       -13.4677
 219   2.0000      -0.494139       -13.4462
 220   2.0000      -0.492431       -13.3997
 221   2.0000      -0.488801       -13.3009
 222   2.0000      -0.487385       -13.2624
 223   2.0000      -0.485631       -13.2147
 224   2.0000      -0.483544       -13.1579
 225   2.0000      -0.480014       -13.0618
 226   2.0000      -0.478138       -13.0108
 227   2.0000      -0.474217       -12.9041
 228   2.0000      -0.471018       -12.8171
 229   2.0000      -0.469165       -12.7666
 230   2.0000      -0.467880       -12.7316
 231   2.0000      -0.466796       -12.7022
 232   2.0000      -0.464654       -12.6439
 233   2.0000      -0.464276       -12.6336
 234   2.0000      -0.460566       -12.5326
 235   2.0000      -0.458184       -12.4678
 236   2.0000      -0.456987       -12.4352
 237   2.0000      -0.453478       -12.3398
 238   2.0000      -0.447865       -12.1870
 239   2.0000      -0.447621       -12.1804
 240   2.0000      -0.447296       -12.1715
 241   2.0000      -0.446675       -12.1546
 242   2.0000      -0.443585       -12.0706
 243   2.0000      -0.443307       -12.0630
 244   2.0000      -0.441836       -12.0230
 245   2.0000      -0.440924       -11.9981
 246   2.0000      -0.440042       -11.9741
 247   2.0000      -0.437029       -11.8922
 248   2.0000      -0.434556       -11.8249
 249   2.0000      -0.433801       -11.8043
 250   2.0000      -0.433596       -11.7988
 251   2.0000      -0.431147       -11.7321
 252   2.0000      -0.428710       -11.6658
 253   2.0000      -0.427205       -11.6248
 254   2.0000      -0.425846       -11.5879
 255   2.0000      -0.424124       -11.5410
 256   2.0000      -0.423711       -11.5298
 257   2.0000      -0.418783       -11.3957
 258   2.0000      -0.418072       -11.3763
 259   2.0000      -0.413390       -11.2489
 260   2.0000      -0.410098       -11.1593
 261   2.0000      -0.408907       -11.1269
 262   2.0000      -0.406971       -11.0742
 263   2.0000      -0.403764       -10.9870
 264   2.0000      -0.401853       -10.9350
 265   2.0000      -0.398119       -10.8334
 266   2.0000      -0.392492       -10.6803
 267   2.0000      -0.384964       -10.4754
 268   2.0000      -0.379231       -10.3194
 269   2.0000      -0.374012       -10.1774
 270   2.0000      -0.367463        -9.9992
 271   2.0000      -0.363254        -9.8846
 272   2.0000      -0.361717        -9.8428
 273   2.0000      -0.356366        -9.6972
 274   2.0000      -0.346579        -9.4309
 275   2.0000      -0.345788        -9.4094
 276   2.0000      -0.337576        -9.1859
 277   2.0000      -0.335457        -9.1282
 278   2.0000      -0.334083        -9.0909
 279   2.0000      -0.328190        -8.9305
 280   2.0000      -0.321746        -8.7551
 281   2.0000      -0.314323        -8.5532
 282   2.0000      -0.309554        -8.4234
 283   2.0000      -0.306555        -8.3418
 284   2.0000      -0.297760        -8.1025
 285   2.0000      -0.294418        -8.0115
 286   2.0000      -0.287905        -7.8343
 287   2.0000      -0.265886        -7.2351
 288   2.0000      -0.248517        -6.7625
 289   0.0000      -0.122733        -3.3397
 290   0.0000      -0.102756        -2.7961
 291   0.0000      -0.095379        -2.5954
 292   0.0000      -0.064569        -1.7570
 293   0.0000      -0.059968        -1.6318

MULLIKEN ATOMIC CHARGES
-----------------------
   0 C :    0.333254
   1 C :   -0.362217
   2 C :   -0.184266
   3 N :    0.139522
   4 C :   -0.185279
   5 N :    0.145029
   6 C :    0.052069
   7 C :   -0.001807
   8 C :   -0.096081
   9 C :    0.096944
  10 C :    0.093635
  11 C :   -0.087971
  12 C :   -0.016686
  13 C :    0.032523
  14 C :    0.036693
  15 C :   -0.017631
  16 C :    0.107494
  17 O :   -0.153968
  18 C :   -0.026077
  19 C :    0.018933
  20 C :   -0.171881
  21 S :    0.195759
  22 C :   -0.123155
  23 C :    0.077542
  24 C :    0.154769
  25 C :    0.004663
  26 C :    0.095481
  27 O :   -0.201287
  28 O :   -0.175092
  29 C :    0.026619
  30 C :   -0.021982
  31 C :    0.090004
  32 O :   -0.159318
  33 C :   -0.161235
  34 C :   -0.057632
  35 C :   -0.003521
  36 C :   -0.091602
  37 S :    0.214001
  38 C :   -0.099856
  39 C :   -0.012993
  40 C :    0.307694
  41 C :   -0.287673
  42 C :   -0.191254
  43 N :    0.186057
  44 C :   -0.187571
  45 N :    0.189531
  46 C :   -0.013235
  47 C :   -0.089753
  48 S :    0.207228
  49 C :   -0.126446
  50 S :    0.207166
  51 C :   -0.163965
  52 C :    0.130010
  53 C :    0.130424
  54 C :   -0.037456
  55 C :    0.083533
  56 O :   -0.184467
  57 O :   -0.179998
  58 C :    0.022445
  59 C :   -0.058429
  60 C :    0.138873
  61 O :   -0.164678
  62 C :    0.014882
  63 C :   -0.069611
  64 C :    0.307686
  65 C :   -0.350991
  66 C :   -0.183703
  67 N :    0.146740
  68 C :   -0.199593
  69 N :    0.152871
  70 C :    0.056592
  71 C :   -0.014911
  72 C :    0.137335
  73 O :   -0.157611
  74 C :   -0.090525
  75 C :    0.098740
  76 C :    0.094163
  77 C :   -0.087927
  78 C :   -0.018670
  79 C :    0.036324
  80 C :    0.034352
  81 C :   -0.019174
  82 H :   -0.018073
  83 H :   -0.011349
  84 H :   -0.011120
  85 H :   -0.006572
  86 H :   -0.008423
  87 H :   -0.020970
  88 H :    0.007084
  89 H :    0.189276
  90 H :    0.005691
  91 H :   -0.010206
  92 H :    0.189065
  93 H :    0.033182
  94 H :    0.030984
  95 H :    0.191686
  96 H :    0.009479
  97 H :   -0.027761
  98 H :    0.191360
  99 H :    0.021720
 100 H :   -0.017322
 101 H :   -0.008827
 102 H :   -0.008349
 103 H :   -0.005256
 104 H :   -0.004511
 105 H :   -0.019189
Sum of atomic charges:    0.0000000

LOEWDIN ATOMIC CHARGES
----------------------
   0 C :    0.083011
   1 C :   -0.142859
   2 C :   -0.016277
   3 N :   -0.061210
   4 C :   -0.018332
   5 N :   -0.059788
   6 C :   -0.021958
   7 C :   -0.052068
   8 C :    0.022823
   9 C :   -0.010163
  10 C :   -0.008371
  11 C :    0.018024
  12 C :   -0.005614
  13 C :   -0.016774
  14 C :   -0.014742
  15 C :   -0.012398
  16 C :    0.071390
  17 O :   -0.143105
  18 C :   -0.081401
  19 C :    0.033572
  20 C :   -0.171493
  21 S :    0.508060
  22 C :   -0.180390
  23 C :   -0.075075
  24 C :    0.002342
  25 C :   -0.083293
  26 C :    0.080774
  27 O :   -0.184115
  28 O :   -0.037438
  29 C :    0.047181
  30 C :   -0.063888
  31 C :    0.082193
  32 O :   -0.021704
  33 C :   -0.206969
  34 C :   -0.033657
  35 C :   -0.071282
  36 C :   -0.171289
  37 S :    0.481852
  38 C :   -0.187752
  39 C :   -0.063037
  40 C :    0.074532
  41 C :   -0.088986
  42 C :   -0.018276
  43 N :   -0.021179
  44 C :   -0.019091
  45 N :   -0.015001
  46 C :   -0.020763
  47 C :   -0.177697
  48 S :    0.483285
  49 C :   -0.173369
  50 S :    0.508799
  51 C :   -0.174147
  52 C :   -0.032785
  53 C :   -0.023029
  54 C :   -0.086042
  55 C :    0.075888
  56 O :   -0.173994
  57 O :   -0.036808
  58 C :    0.036051
  59 C :   -0.071853
  60 C :    0.081441
  61 O :   -0.017341
  62 C :    0.032871
  63 C :   -0.084186
  64 C :    0.074621
  65 C :   -0.142253
  66 C :   -0.017803
  67 N :   -0.057053
  68 C :   -0.022408
  69 N :   -0.055562
  70 C :   -0.025198
  71 C :   -0.054222
  72 C :    0.074453
  73 O :   -0.151245
  74 C :    0.025136
  75 C :   -0.009451
  76 C :   -0.007489
  77 C :    0.017719
  78 C :   -0.005537
  79 C :   -0.014431
  80 C :   -0.013269
  81 C :   -0.011634
  82 H :    0.036972
  83 H :    0.038392
  84 H :    0.034238
  85 H :    0.032205
  86 H :    0.031455
  87 H :    0.030540
  88 H :    0.039381
  89 H :    0.098941
  90 H :    0.039567
  91 H :    0.038837
  92 H :    0.080965
  93 H :    0.046328
  94 H :    0.045981
  95 H :    0.100019
  96 H :    0.043615
  97 H :    0.031231
  98 H :    0.103919
  99 H :    0.042685
 100 H :    0.036830
 101 H :    0.038808
 102 H :    0.034848
 103 H :    0.033011
 104 H :    0.032736
 105 H :    0.031019

  Mayer bond orders larger than 0.100000
B(  0-C ,  1-C ) :   1.6130 B(  0-C ,  6-C ) :   0.9825 B(  0-C , 18-C ) :   1.0949
B(  1-C ,  2-C ) :   1.1461 B(  1-C ,  4-C ) :   1.1503 B(  2-C ,  3-N ) :   2.9594
B(  4-C ,  5-N ) :   2.9567 B(  6-C ,  7-C ) :   1.2140 B(  6-C , 11-C ) :   1.4494
B(  7-C ,  8-C ) :   1.4722 B(  7-C , 16-C ) :   0.9385 B(  8-C ,  9-C ) :   1.1690
B(  8-C , 82-H ) :   1.0171 B(  9-C , 10-C ) :   1.2623 B(  9-C , 15-C ) :   1.2444
B( 10-C , 11-C ) :   1.2014 B( 10-C , 12-C ) :   1.2424 B( 11-C , 83-H ) :   0.9881
B( 12-C , 13-C ) :   1.4872 B( 12-C , 84-H ) :   0.9963 B( 13-C , 14-C ) :   1.2625
B( 13-C , 85-H ) :   0.9884 B( 14-C , 15-C ) :   1.4875 B( 14-C , 86-H ) :   0.9882
B( 15-C , 87-H ) :   0.9971 B( 16-C , 17-O ) :   2.1980 B( 16-C , 18-C ) :   0.9517
B( 18-C , 19-C ) :   1.5857 B( 19-C , 20-C ) :   1.2094 B( 19-C , 88-H ) :   0.9051
B( 20-C , 21-S ) :   1.1199 B( 20-C , 22-C ) :   0.1170 B( 20-C , 24-C ) :   1.3433
B( 21-S , 22-C ) :   1.2214 B( 22-C , 23-C ) :   1.3407 B( 22-C , 33-C ) :   1.0861
B( 23-C , 24-C ) :   1.2288 B( 23-C , 31-C ) :   1.1157 B( 24-C , 25-C ) :   1.2269
B( 25-C , 26-C ) :   0.9449 B( 25-C , 29-C ) :   1.4545 B( 26-C , 27-O ) :   2.1056
B( 26-C , 28-O ) :   1.2808 B( 28-O , 89-H ) :   0.9419 B( 29-C , 30-C ) :   1.2343
B( 29-C , 90-H ) :   0.9861 B( 30-C , 31-C ) :   1.4626 B( 30-C , 91-H ) :   0.9933
B( 31-C , 32-O ) :   1.2881 B( 32-O , 92-H ) :   0.9439 B( 33-C , 34-C ) :   1.4430
B( 33-C , 37-S ) :   1.1051 B( 34-C , 35-C ) :   1.2945 B( 34-C , 93-H ) :   0.9933
B( 35-C , 36-C ) :   1.4448 B( 35-C , 40-C ) :   0.9918 B( 36-C , 37-S ) :   1.1210
B( 36-C , 38-C ) :   1.1989 B( 38-C , 39-C ) :   1.4363 B( 38-C , 48-S ) :   1.1170
B( 39-C , 40-C ) :   0.9898 B( 39-C , 46-C ) :   1.3361 B( 40-C , 41-C ) :   1.7245
B( 41-C , 42-C ) :   1.1334 B( 41-C , 44-C ) :   1.1342 B( 42-C , 43-N ) :   2.9906
B( 44-C , 45-N ) :   2.9873 B( 46-C , 47-C ) :   1.4716 B( 46-C , 94-H ) :   0.9666
B( 47-C , 48-S ) :   1.1115 B( 47-C , 49-C ) :   1.1005 B( 49-C , 50-S ) :   1.2036
B( 49-C , 51-C ) :   0.1123 B( 49-C , 53-C ) :   1.3675 B( 50-S , 51-C ) :   1.1279
B( 51-C , 52-C ) :   1.3175 B( 51-C , 62-C ) :   1.2031 B( 52-C , 53-C ) :   1.2715
B( 52-C , 60-C ) :   1.1802 B( 53-C , 54-C ) :   1.1568 B( 54-C , 55-C ) :   0.9287
B( 54-C , 58-C ) :   1.5474 B( 55-C , 56-O ) :   2.1644 B( 55-C , 57-O ) :   1.2317
B( 57-O , 95-H ) :   0.9440 B( 58-C , 59-C ) :   1.2166 B( 58-C , 96-H ) :   0.9857
B( 59-C , 60-C ) :   1.4371 B( 59-C , 97-H ) :   0.9858 B( 60-C , 61-O ) :   1.2440
B( 61-O , 98-H ) :   0.9499 B( 62-C , 63-C ) :   1.5793 B( 62-C , 99-H ) :   0.9272
B( 63-C , 64-C ) :   1.1021 B( 63-C , 72-C ) :   0.9382 B( 64-C , 65-C ) :   1.6192
B( 64-C , 70-C ) :   0.9831 B( 65-C , 66-C ) :   1.1480 B( 65-C , 68-C ) :   1.1456
B( 66-C , 67-N ) :   2.9632 B( 68-C , 69-N ) :   2.9792 B( 70-C , 71-C ) :   1.2151
B( 70-C , 77-C ) :   1.4501 B( 71-C , 72-C ) :   0.9392 B( 71-C , 74-C ) :   1.4719
B( 72-C , 73-O ) :   2.2140 B( 74-C , 75-C ) :   1.1747 B( 74-C ,100-H ) :   1.0178
B( 75-C , 76-C ) :   1.2608 B( 75-C , 81-C ) :   1.2427 B( 76-C , 77-C ) :   1.2001
B( 76-C , 78-C ) :   1.2420 B( 77-C ,101-H ) :   0.9907 B( 78-C , 79-C ) :   1.4868
B( 78-C ,102-H ) :   0.9977 B( 79-C , 80-C ) :   1.2619 B( 79-C ,103-H ) :   0.9888
B( 80-C , 81-C ) :   1.4883 B( 80-C ,104-H ) :   0.9883 B( 81-C ,105-H ) :   0.9981

-----------------------------------------------------------------------------
         ABSORPTION SPECTRUM VIA TRANSITION ELECTRIC DIPOLE MOMENTS
-----------------------------------------------------------------------------
State   Energy  Wavelength   fosc         T2         TX        TY        TZ
        (cm-1)    (nm)                  (au**2)     (au)      (au)      (au)
-----------------------------------------------------------------------------
   0   11448.3    873.5   0.559561359  16.09093  -0.73310  -3.89545  -0.61558
   1   16355.5    611.4   1.288445328  25.93455  -0.67557  -4.84686  -1.40928
   2   17130.6    583.7   0.167220756   3.21360  -1.51366  -0.89085   0.35891
   3   18503.9    540.4   0.388463785   6.91134  -2.28689  -1.05341   0.75618
   4   22468.1    445.1   0.017165292   0.25151   0.24294   0.40896  -0.15889
   5   23027.2    434.3   0.014314835   0.20465  -0.03414   0.43084  -0.13365
   6   23325.9    428.7   0.002056823   0.02903  -0.12761  -0.00055   0.11290
   7   23826.9    419.7   0.023808688   0.32896  -0.04035  -0.23121   0.52333
   8   24512.3    408.0   0.125015874   1.67903   0.49040  -1.11305   0.44682
   9   24709.4    404.7   0.014944342   0.19911  -0.17903   0.40357  -0.06472
  10   25292.1    395.4   0.032297082   0.42039  -0.48378   0.42994  -0.03880
  11   25771.7    388.0   0.032257116   0.41206  -0.04867   0.36543  -0.52550
  12   26166.4    382.2   0.066026293   0.83071  -0.10994   0.85881  -0.28471
  13   26784.5    373.3   0.047020003   0.57793   0.37264   0.65209  -0.11765
  14   27545.5    363.0   0.066011888   0.78895   0.00182  -0.71163  -0.53153
  15   28240.3    354.1   0.008985836   0.10475  -0.30953  -0.02664  -0.09076
  16   28701.0    348.4   0.202331542   2.32083  -0.27757   1.44986  -0.37642
  17   29143.7    343.1   0.022770025   0.25721  -0.32733   0.35165   0.16251
  18   29297.4    341.3   0.019525927   0.21941   0.05906   0.44357   0.13845
  19   29650.6    337.3   0.028816766   0.31995   0.14438   0.47932   0.26335
  20   29947.1    333.9   0.035429061   0.38948  -0.06640   0.41241  -0.46366
  21   30478.5    328.1   0.081543330   0.88079   0.67105   0.35694  -0.55052
  22   30649.8    326.3   0.050455975   0.54195   0.40018  -0.55286  -0.27595
  23   30939.5    323.2   0.226789805   2.41316   1.41985  -0.38635  -0.49790
  24   31256.7    319.9   0.010215669   0.10760   0.32116  -0.02043   0.06353
  25   31442.4    318.0   0.054304112   0.56858  -0.49971  -0.01883   0.56437
  26   31698.2    315.5   0.110069540   1.14316   0.40460   0.98967  -0.00278
  27   31881.7    313.7   0.034549771   0.35676  -0.52760  -0.27792  -0.03406
  28   32110.5    311.4   0.075336430   0.77239  -0.42652   0.25634   0.72440
  29   32304.2    309.6   0.106438276   1.08471   0.93545  -0.42708  -0.16506
  30   32387.1    308.8   0.236756701   2.40661   0.42285  -1.45737   0.32231
  31   32566.3    307.1   0.480056306   4.85288  -0.01764  -1.87669   1.15352
  32   32921.3    303.8   0.240009584   2.40008  -0.16383   1.47115  -0.45714
  33   33147.8    301.7   0.026359948   0.26180   0.30670  -0.39471  -0.10925
  34   33545.6    298.1   0.018396636   0.18054   0.29780   0.30307   0.00256
  35   33773.0    296.1   0.096365592   0.93935   0.33216  -0.67741   0.60839
  36   33926.6    294.8   0.164651904   1.59772  -0.50650  -1.11329   0.31901
  37   34156.6    292.8   0.182398391   1.75801  -0.10984  -1.14091   0.66653
  38   34275.9    291.7   0.058265832   0.55963  -0.46226  -0.45041  -0.37825
  39   34629.9    288.8   0.013125231   0.12478  -0.30793   0.15756  -0.07164
  40   34883.8    286.7   0.357000925   3.36916   0.79186  -1.54698   0.59075
  41   35002.4    285.7   0.004603101   0.04329  -0.16499  -0.01194  -0.12622
  42   35169.3    284.3   0.007574044   0.07090  -0.23419   0.09045   0.08873
  43   35299.9    283.3   0.187078133   1.74472   0.79632   0.74284  -0.74752
  44   35634.7    280.6   0.115591191   1.06789  -0.05748   0.56916  -0.86060
  45   35751.2    279.7   0.066523850   0.61258   0.21758  -0.60121   0.45143
  46   35809.1    279.3   0.093777232   0.86214  -0.55325   0.67408   0.31887
  47   36029.1    277.6   0.024257176   0.22165   0.11462   0.34127   0.30339
  48   36738.5    272.2   0.121129852   1.08544  -0.89671   0.03587  -0.52920
  49   36881.1    271.1   0.117428201   1.04820  -0.76743   0.53893   0.41087
  50   37219.0    268.7   0.079694124   0.70492  -0.36422  -0.24939  -0.71419
  51   37371.3    267.6   0.007015201   0.06180   0.20091  -0.00188  -0.14639
  52   37543.3    266.4   0.028878248   0.25323  -0.28475   0.11095   0.39980
  53   37587.5    266.0   0.012517767   0.10964  -0.23176  -0.19836   0.12875
  54   37835.9    264.3   0.180125101   1.56728  -0.75511  -0.23739   0.96991
  55   38137.7    262.2   0.056610223   0.48867  -0.64719   0.24993  -0.08570
  56   38215.1    261.7   0.022013387   0.18964   0.22933   0.18286   0.32189
  57   38496.2    259.8   0.063782458   0.54545  -0.03751  -0.38262   0.63059
  58   38539.7    259.5   0.021618107   0.18467   0.22069  -0.30242   0.21096
  59   38803.1    257.7   0.039214619   0.33270  -0.51960   0.11943   0.22013
  60   38979.2    256.5   0.219058896   1.85013  -1.17612   0.24033  -0.63963
  61   39085.4    255.8   0.118675526   0.99959  -0.66980   0.64792  -0.36216
  62   39186.2    255.2   0.036101974   0.30330   0.27621  -0.20783   0.42873
  63   39445.7    253.5   0.127023720   1.06014  -0.72183   0.01477   0.73408
  64   39555.3    252.8   0.001987821   0.01654   0.04763  -0.11920   0.00821
  65   39724.3    251.7   0.076079599   0.63050   0.25245  -0.75232   0.02794
  66   39846.9    251.0   0.045306496   0.37432   0.00775   0.25975   0.55389
  67   40193.2    248.8   0.033543851   0.27475  -0.23240  -0.16009  -0.44171

FINAL SINGLE POINT ENERGY     -4971.538477417421

DIPOLE MOMENT
-------------
                                X             Y             Z
Electronic contribution:      1.39201       1.23395       2.46791
Nuclear contribution   :     -0.26277       0.18166      -2.93599
                        -----------------------------------------
Total Dipole Moment    :      1.12924       1.41562      -0.46808
                        -----------------------------------------
Magnitude (a.u.)       :      1.87036
Magnitude (Debye)      :      4.75407

Rotational constants in cm-1:     0.001861     0.000186     0.000179
Rotational constants in MHz :    55.791399     5.568504     5.372478

                             ****ORCA TERMINATED NORMALLY****
TOTAL RUN TIME: 0 days 0 hours 12 minutes 18 seconds 122 msec
