                         Program Version 4.2.0 -  RELEASE  -
|  1> # ORCA input file
|  2> # SCF done       -174.896060928312          0.000958760509
|  3> ! CAM-B3LYP def2-SVP def2/J RIJCOSX Grid4 TightSCF
|  4> %maxcore 5000
|  5> %tddft
|  6>     Mode sTDDFT
|  7>     Ethresh 5.0
|  8>     maxcore 5000
|  9> end
| 10>
| 11> %pal
| 12>   nprocs 6
| 13>   end
| 14> * xyz 0 1
| 15>    C        3.40071         1.56299         2.61586
| 16>    C        3.18217         0.27199         2.99940
| 17>    C        3.26068        -0.55303         1.82513
| 18>    C        3.54186         0.30169         0.69027
| 19>    O        3.69729         0.06974        -0.48621
| 20>    N        3.60975         1.58264         1.26854
| 21>    C        3.04765        -1.84906         2.22263
| 22>    O        2.83818        -1.89534         3.57019
| 23>    C        2.90643        -0.60545         4.11952
| 24>    O        2.75355        -0.41672         5.28996
| 25>    C        3.02998        -3.04343         1.47538
| 26>    C        3.21840        -3.17026         0.10430
| 27>    C        3.15519        -4.50095        -0.29046
| 28>    C        2.91850        -5.38271         0.78909
| 29>    S        2.76725        -4.57787         2.28223
| 30>    C        2.89588        -6.70722         0.29137
| 31>    C        3.12001        -6.67201        -1.09597
| 32>    C        3.27707        -5.28469        -1.51022
| 33>    C        3.48285        -4.83499        -2.77970
| 34>    C        3.57795        -5.72415        -3.87279
| 35>    N        3.65492        -6.44706        -4.75934
| 36>    C        3.60764        -3.46819        -3.11448
| 37>    N        3.70767        -2.37158        -3.43046
| 38>    C        3.13771        -7.93959        -1.67465
| 39>    C        2.92576        -8.93771        -0.73947
| 40>    S        2.69629        -8.29926         0.88078
| 41>    C        2.90100       -10.33683        -0.96595
| 42>    C        2.64046       -11.33746        -0.04666
| 43>    C        2.72472       -12.60537        -0.61993
| 44>    C        3.05668       -12.56742        -1.98562
| 45>    S        3.25349       -10.97413        -2.56616
| 46>    C        3.13747       -13.89746        -2.46859
| 47>    C        2.85114       -14.77729        -1.40973
| 48>    C        2.57755       -13.99484        -0.21435
| 49>    C        2.25252       -14.46483         1.02354
| 50>    C        2.13740       -15.84536         1.29213
| 51>    N        2.04686       -16.96764         1.50762
| 52>    C        2.01043       -13.60105         2.11293
| 53>    N        1.81220       -12.89525         2.99424
| 54>    C        2.92051       -16.11795        -1.78476
| 55>    C        3.26193       -16.26445        -3.11744
| 56>    S        3.49339       -14.71800        -3.92227
| 57>    C        3.44173       -17.47258        -3.83618
| 58>    C        3.82922       -17.61535        -5.15748
| 59>    C        3.92030       -18.95445        -5.53219
| 60>    C        3.59570       -19.83632        -4.48710
| 61>    S        3.18127       -19.01756        -3.04369
| 62>    C        3.72016       -21.16159        -4.96271
| 63>    C        4.12713       -21.12652        -6.31383
| 64>    C        4.26730       -19.73383        -6.71332
| 65>    C        4.64715       -19.24153        -7.92508
| 66>    C        4.97805       -20.05198        -9.03445
| 67>    N        5.25639       -20.66845        -9.95881
| 68>    C        4.73911       -17.85154        -8.15940
| 69>    N        4.81944       -16.72390        -8.34950
| 70>    C        4.27795       -22.39309        -6.86875
| 71>    C        3.98807       -23.39226        -5.94955
| 72>    S        3.52314       -22.74743        -4.37736
| 73>    C        4.03880       -24.78501        -6.17566
| 74>    C        4.37950       -25.46260        -7.33028
| 75>    C        4.28511       -26.87514        -7.07328
| 76>    C        3.86259       -27.05051        -5.68382
| 77>    O        3.64857       -28.02729        -5.01469
| 78>    N        3.73875       -25.73338        -5.22086
| 79>    C        4.62590       -27.50186        -8.22449
| 80>    O        4.92835       -26.61423        -9.19138
| 81>    C        4.79522       -25.30582        -8.69877
| 82>    O        5.01197       -24.33944        -9.37953
| 83>    H        3.42275         2.46253         3.20131
| 84>    H        3.79567         2.41139         0.72477
| 85>    H        3.39316        -2.32143        -0.53456
| 86>    H        3.29636        -8.14461        -2.71810
| 87>    H        2.40421       -11.13540         0.98269
| 88>    H        2.74031       -16.95482        -1.13399
| 89>    H        4.03320       -16.77529        -5.79666
| 90>    H        4.57965       -22.61291        -7.87893
| 91>    H        3.45604       -25.51805        -4.27645
| 92>    H        4.69249       -28.54158        -8.48560
| 93> *
| 94>
| 95>                          ****END OF INPUT****

CARTESIAN COORDINATES (ANGSTROEM)
---------------------------------
  C      3.400710    1.562990    2.615860
  C      3.182170    0.271990    2.999400
  C      3.260680   -0.553030    1.825130
  C      3.541860    0.301690    0.690270
  O      3.697290    0.069740   -0.486210
  N      3.609750    1.582640    1.268540
  C      3.047650   -1.849060    2.222630
  O      2.838180   -1.895340    3.570190
  C      2.906430   -0.605450    4.119520
  O      2.753550   -0.416720    5.289960
  C      3.029980   -3.043430    1.475380
  C      3.218400   -3.170260    0.104300
  C      3.155190   -4.500950   -0.290460
  C      2.918500   -5.382710    0.789090
  S      2.767250   -4.577870    2.282230
  C      2.895880   -6.707220    0.291370
  C      3.120010   -6.672010   -1.095970
  C      3.277070   -5.284690   -1.510220
  C      3.482850   -4.834990   -2.779700
  C      3.577950   -5.724150   -3.872790
  N      3.654920   -6.447060   -4.759340
  C      3.607640   -3.468190   -3.114480
  N      3.707670   -2.371580   -3.430460
  C      3.137710   -7.939590   -1.674650
  C      2.925760   -8.937710   -0.739470
  S      2.696290   -8.299260    0.880780
  C      2.901000  -10.336830   -0.965950
  C      2.640460  -11.337460   -0.046660
  C      2.724720  -12.605370   -0.619930
  C      3.056680  -12.567420   -1.985620
  S      3.253490  -10.974130   -2.566160
  C      3.137470  -13.897460   -2.468590
  C      2.851140  -14.777290   -1.409730
  C      2.577550  -13.994840   -0.214350
  C      2.252520  -14.464830    1.023540
  C      2.137400  -15.845360    1.292130
  N      2.046860  -16.967640    1.507620
  C      2.010430  -13.601050    2.112930
  N      1.812200  -12.895250    2.994240
  C      2.920510  -16.117950   -1.784760
  C      3.261930  -16.264450   -3.117440
  S      3.493390  -14.718000   -3.922270
  C      3.441730  -17.472580   -3.836180
  C      3.829220  -17.615350   -5.157480
  C      3.920300  -18.954450   -5.532190
  C      3.595700  -19.836320   -4.487100
  S      3.181270  -19.017560   -3.043690
  C      3.720160  -21.161590   -4.962710
  C      4.127130  -21.126520   -6.313830
  C      4.267300  -19.733830   -6.713320
  C      4.647150  -19.241530   -7.925080
  C      4.978050  -20.051980   -9.034450
  N      5.256390  -20.668450   -9.958810
  C      4.739110  -17.851540   -8.159400
  N      4.819440  -16.723900   -8.349500
  C      4.277950  -22.393090   -6.868750
  C      3.988070  -23.392260   -5.949550
  S      3.523140  -22.747430   -4.377360
  C      4.038800  -24.785010   -6.175660
  C      4.379500  -25.462600   -7.330280
  C      4.285110  -26.875140   -7.073280
  C      3.862590  -27.050510   -5.683820
  O      3.648570  -28.027290   -5.014690
  N      3.738750  -25.733380   -5.220860
  C      4.625900  -27.501860   -8.224490
  O      4.928350  -26.614230   -9.191380
  C      4.795220  -25.305820   -8.698770
  O      5.011970  -24.339440   -9.379530
  H      3.422750    2.462530    3.201310
  H      3.795670    2.411390    0.724770
  H      3.393160   -2.321430   -0.534560
  H      3.296360   -8.144610   -2.718100
  H      2.404210  -11.135400    0.982690
  H      2.740310  -16.954820   -1.133990
  H      4.033200  -16.775290   -5.796660
  H      4.579650  -22.612910   -7.878930
  H      3.456040  -25.518050   -4.276450
  H      4.692490  -28.541580   -8.485600

 Total Charge           Charge          ....    0
 Multiplicity           Mult            ....    1
 Number of Electrons    NEL             ....  498
 Basis Dimension        Dim             .... 1026

ORBITAL ENERGIES
----------------

  NO   OCC          E(Eh)            E(eV)
   0   2.0000     -89.008621     -2422.0477
   1   2.0000     -89.004276     -2421.9295
   2   2.0000     -89.004149     -2421.9260
   3   2.0000     -89.003401     -2421.9057
   4   2.0000     -89.001756     -2421.8609
   5   2.0000     -89.001450     -2421.8526
   6   2.0000     -19.289404      -524.8914
   7   2.0000     -19.282514      -524.7039
   8   2.0000     -19.213817      -522.8346
   9   2.0000     -19.209837      -522.7262
  10   2.0000     -19.204627      -522.5845
  11   2.0000     -19.203094      -522.5427
  12   2.0000     -14.473202      -393.8359
  13   2.0000     -14.471023      -393.7766
  14   2.0000     -14.442307      -392.9952
  15   2.0000     -14.441856      -392.9829
  16   2.0000     -14.439933      -392.9306
  17   2.0000     -14.437480      -392.8638
  18   2.0000     -14.433586      -392.7578
  19   2.0000     -14.431899      -392.7119
  20   2.0000     -10.414693      -283.3982
  21   2.0000     -10.407125      -283.1923
  22   2.0000     -10.397122      -282.9201
  23   2.0000     -10.391348      -282.7630
  24   2.0000     -10.382281      -282.5162
  25   2.0000     -10.377371      -282.3826
  26   2.0000     -10.376319      -282.3540
  27   2.0000     -10.372807      -282.2584
  28   2.0000     -10.369597      -282.1711
  29   2.0000     -10.364230      -282.0250
  30   2.0000     -10.361618      -281.9540
  31   2.0000     -10.361485      -281.9503
  32   2.0000     -10.358949      -281.8813
  33   2.0000     -10.352583      -281.7081
  34   2.0000     -10.350380      -281.6481
  35   2.0000     -10.346312      -281.5375
  36   2.0000     -10.345870      -281.5254
  37   2.0000     -10.345678      -281.5202
  38   2.0000     -10.344817      -281.4968
  39   2.0000     -10.343826      -281.4698
  40   2.0000     -10.343003      -281.4474
  41   2.0000     -10.342633      -281.4373
  42   2.0000     -10.342470      -281.4329
  43   2.0000     -10.342167      -281.4247
  44   2.0000     -10.341925      -281.4181
  45   2.0000     -10.341502      -281.4066
  46   2.0000     -10.339730      -281.3584
  47   2.0000     -10.339550      -281.3535
  48   2.0000     -10.337550      -281.2990
  49   2.0000     -10.333344      -281.1846
  50   2.0000     -10.331623      -281.1378
  51   2.0000     -10.330432      -281.1053
  52   2.0000     -10.319571      -280.8098
  53   2.0000     -10.317271      -280.7472
  54   2.0000     -10.316814      -280.7348
  55   2.0000     -10.316696      -280.7316
  56   2.0000     -10.316528      -280.7270
  57   2.0000     -10.316497      -280.7261
  58   2.0000     -10.316209      -280.7183
  59   2.0000     -10.315148      -280.6895
  60   2.0000     -10.314930      -280.6835
  61   2.0000     -10.314053      -280.6596
  62   2.0000     -10.313040      -280.6321
  63   2.0000     -10.312737      -280.6238
  64   2.0000     -10.283511      -279.8286
  65   2.0000     -10.283267      -279.8219
  66   2.0000     -10.282473      -279.8003
  67   2.0000     -10.281736      -279.7803
  68   2.0000      -8.103178      -220.4987
  69   2.0000      -8.098714      -220.3772
  70   2.0000      -8.098549      -220.3727
  71   2.0000      -8.097798      -220.3523
  72   2.0000      -8.096217      -220.3093
  73   2.0000      -8.095706      -220.2954
  74   2.0000      -6.072373      -165.2377
  75   2.0000      -6.068305      -165.1270
  76   2.0000      -6.068040      -165.1198
  77   2.0000      -6.067829      -165.1140
  78   2.0000      -6.067089      -165.0939
  79   2.0000      -6.065595      -165.0532
  80   2.0000      -6.065533      -165.0515
  81   2.0000      -6.064897      -165.0343
  82   2.0000      -6.063892      -165.0069
  83   2.0000      -6.063673      -165.0009
  84   2.0000      -6.062918      -164.9804
  85   2.0000      -6.061366      -164.9382
  86   2.0000      -6.060893      -164.9253
  87   2.0000      -6.060821      -164.9233
  88   2.0000      -6.060671      -164.9192
  89   2.0000      -6.060075      -164.9030
  90   2.0000      -6.058421      -164.8580
  91   2.0000      -6.058212      -164.8523
  92   2.0000      -1.218107       -33.1464
  93   2.0000      -1.211847       -32.9760
  94   2.0000      -1.146109       -31.1872
  95   2.0000      -1.141352       -31.0578
  96   2.0000      -1.124953       -30.6115
  97   2.0000      -1.118462       -30.4349
  98   2.0000      -1.077008       -29.3069
  99   2.0000      -1.068497       -29.0753
 100   2.0000      -1.059443       -28.8289
 101   2.0000      -1.056508       -28.7491
 102   2.0000      -1.053768       -28.6745
 103   2.0000      -1.034189       -28.1417
 104   2.0000      -1.030166       -28.0322
 105   2.0000      -1.027948       -27.9719
 106   2.0000      -1.021160       -27.7872
 107   2.0000      -1.019140       -27.7322
 108   2.0000      -1.013220       -27.5711
 109   2.0000      -1.011721       -27.5303
 110   2.0000      -1.010101       -27.4862
 111   2.0000      -1.000663       -27.2294
 112   2.0000      -0.975976       -26.5577
 113   2.0000      -0.967424       -26.3250
 114   2.0000      -0.963887       -26.2287
 115   2.0000      -0.933759       -25.4089
 116   2.0000      -0.926762       -25.2185
 117   2.0000      -0.919800       -25.0290
 118   2.0000      -0.918911       -25.0048
 119   2.0000      -0.913321       -24.8527
 120   2.0000      -0.887279       -24.1441
 121   2.0000      -0.885370       -24.0921
 122   2.0000      -0.882138       -24.0042
 123   2.0000      -0.874437       -23.7946
 124   2.0000      -0.872769       -23.7493
 125   2.0000      -0.867392       -23.6029
 126   2.0000      -0.861842       -23.4519
 127   2.0000      -0.861116       -23.4322
 128   2.0000      -0.838006       -22.8033
 129   2.0000      -0.821505       -22.3543
 130   2.0000      -0.813069       -22.1247
 131   2.0000      -0.802552       -21.8386
 132   2.0000      -0.792579       -21.5672
 133   2.0000      -0.786900       -21.4126
 134   2.0000      -0.781377       -21.2624
 135   2.0000      -0.768616       -20.9151
 136   2.0000      -0.766781       -20.8652
 137   2.0000      -0.765717       -20.8362
 138   2.0000      -0.744771       -20.2662
 139   2.0000      -0.724100       -19.7038
 140   2.0000      -0.715762       -19.4769
 141   2.0000      -0.712049       -19.3758
 142   2.0000      -0.706814       -19.2334
 143   2.0000      -0.703933       -19.1550
 144   2.0000      -0.701155       -19.0794
 145   2.0000      -0.696912       -18.9640
 146   2.0000      -0.690334       -18.7850
 147   2.0000      -0.685467       -18.6525
 148   2.0000      -0.679031       -18.4774
 149   2.0000      -0.668407       -18.1883
 150   2.0000      -0.644582       -17.5400
 151   2.0000      -0.643228       -17.5031
 152   2.0000      -0.637644       -17.3512
 153   2.0000      -0.632838       -17.2204
 154   2.0000      -0.629953       -17.1419
 155   2.0000      -0.629478       -17.1290
 156   2.0000      -0.626415       -17.0456
 157   2.0000      -0.621626       -16.9153
 158   2.0000      -0.618286       -16.8244
 159   2.0000      -0.617228       -16.7956
 160   2.0000      -0.604281       -16.4433
 161   2.0000      -0.601443       -16.3661
 162   2.0000      -0.593819       -16.1586
 163   2.0000      -0.592809       -16.1311
 164   2.0000      -0.591245       -16.0886
 165   2.0000      -0.585408       -15.9298
 166   2.0000      -0.583408       -15.8753
 167   2.0000      -0.577787       -15.7224
 168   2.0000      -0.577377       -15.7112
 169   2.0000      -0.562424       -15.3043
 170   2.0000      -0.559602       -15.2276
 171   2.0000      -0.558633       -15.2012
 172   2.0000      -0.554859       -15.0985
 173   2.0000      -0.553689       -15.0667
 174   2.0000      -0.541641       -14.7388
 175   2.0000      -0.538048       -14.6410
 176   2.0000      -0.533820       -14.5260
 177   2.0000      -0.531900       -14.4737
 178   2.0000      -0.529055       -14.3963
 179   2.0000      -0.525308       -14.2944
 180   2.0000      -0.521164       -14.1816
 181   2.0000      -0.519988       -14.1496
 182   2.0000      -0.518926       -14.1207
 183   2.0000      -0.518078       -14.0976
 184   2.0000      -0.516977       -14.0677
 185   2.0000      -0.511976       -13.9316
 186   2.0000      -0.511742       -13.9252
 187   2.0000      -0.510255       -13.8847
 188   2.0000      -0.508678       -13.8418
 189   2.0000      -0.507160       -13.8005
 190   2.0000      -0.504224       -13.7206
 191   2.0000      -0.501187       -13.6380
 192   2.0000      -0.498214       -13.5571
 193   2.0000      -0.494131       -13.4460
 194   2.0000      -0.492666       -13.4061
 195   2.0000      -0.489612       -13.3230
 196   2.0000      -0.485683       -13.2161
 197   2.0000      -0.483522       -13.1573
 198   2.0000      -0.481365       -13.0986
 199   2.0000      -0.479360       -13.0440
 200   2.0000      -0.472809       -12.8658
 201   2.0000      -0.471997       -12.8437
 202   2.0000      -0.469426       -12.7737
 203   2.0000      -0.468935       -12.7604
 204   2.0000      -0.467696       -12.7267
 205   2.0000      -0.466736       -12.7005
 206   2.0000      -0.461214       -12.5503
 207   2.0000      -0.460837       -12.5400
 208   2.0000      -0.460309       -12.5256
 209   2.0000      -0.458657       -12.4807
 210   2.0000      -0.455523       -12.3954
 211   2.0000      -0.454306       -12.3623
 212   2.0000      -0.452449       -12.3118
 213   2.0000      -0.451877       -12.2962
 214   2.0000      -0.451008       -12.2725
 215   2.0000      -0.449632       -12.2351
 216   2.0000      -0.447294       -12.1715
 217   2.0000      -0.445614       -12.1258
 218   2.0000      -0.444926       -12.1070
 219   2.0000      -0.443931       -12.0800
 220   2.0000      -0.443210       -12.0604
 221   2.0000      -0.440190       -11.9782
 222   2.0000      -0.437359       -11.9011
 223   2.0000      -0.431429       -11.7398
 224   2.0000      -0.431224       -11.7342
 225   2.0000      -0.429714       -11.6931
 226   2.0000      -0.428434       -11.6583
 227   2.0000      -0.418266       -11.3816
 228   2.0000      -0.416649       -11.3376
 229   2.0000      -0.403110       -10.9692
 230   2.0000      -0.392362       -10.6767
 231   2.0000      -0.375081       -10.2065
 232   2.0000      -0.370461       -10.0807
 233   2.0000      -0.368308       -10.0222
 234   2.0000      -0.367230        -9.9928
 235   2.0000      -0.364996        -9.9320
 236   2.0000      -0.362154        -9.8547
 237   2.0000      -0.360975        -9.8226
 238   2.0000      -0.357313        -9.7230
 239   2.0000      -0.347618        -9.4592
 240   2.0000      -0.347322        -9.4511
 241   2.0000      -0.335609        -9.1324
 242   2.0000      -0.334229        -9.0948
 243   2.0000      -0.331381        -9.0173
 244   2.0000      -0.329613        -8.9692
 245   2.0000      -0.303946        -8.2708
 246   2.0000      -0.280821        -7.6415
 247   2.0000      -0.262776        -7.1505
 248   2.0000      -0.246483        -6.7071
 249   0.0000      -0.122907        -3.3445
 250   0.0000      -0.115439        -3.1413
 251   0.0000      -0.112561        -3.0629
 252   0.0000      -0.077745        -2.1156
 253   0.0000      -0.075187        -2.0459

MULLIKEN ATOMIC CHARGES
-----------------------
   0 C :    0.053636
   1 C :   -0.066800
   2 C :   -0.100958
   3 C :    0.158167
   4 O :   -0.163103
   5 N :   -0.125819
   6 C :    0.175063
   7 O :   -0.263946
   8 C :    0.234362
   9 O :   -0.123987
  10 C :   -0.134332
  11 C :   -0.040626
  12 C :    0.012638
  13 C :   -0.087545
  14 S :    0.247908
  15 C :   -0.104373
  16 C :    0.021655
  17 C :    0.304100
  18 C :   -0.292007
  19 C :   -0.191899
  20 N :    0.175022
  21 C :   -0.201572
  22 N :    0.207591
  23 C :   -0.068858
  24 C :   -0.045502
  25 S :    0.201795
  26 C :   -0.053940
  27 C :   -0.061897
  28 C :    0.015194
  29 C :   -0.098774
  30 S :    0.204384
  31 C :   -0.095060
  32 C :    0.015867
  33 C :    0.298346
  34 C :   -0.288966
  35 C :   -0.187151
  36 N :    0.173487
  37 C :   -0.188981
  38 N :    0.177678
  39 C :   -0.062275
  40 C :   -0.054865
  41 S :    0.204992
  42 C :   -0.044124
  43 C :   -0.068242
  44 C :    0.023817
  45 C :   -0.099779
  46 S :    0.199264
  47 C :   -0.088181
  48 C :    0.022639
  49 C :    0.303017
  50 C :   -0.288913
  51 C :   -0.203842
  52 N :    0.217585
  53 C :   -0.189175
  54 N :    0.172458
  55 C :   -0.049578
  56 C :   -0.105824
  57 S :    0.183133
  58 C :    0.142300
  59 C :   -0.163528
  60 C :   -0.020020
  61 C :    0.166909
  62 O :   -0.146875
  63 N :   -0.140737
  64 C :    0.093238
  65 O :   -0.237717
  66 C :    0.232152
  67 O :   -0.142479
  68 H :    0.028631
  69 H :    0.138774
  70 H :    0.031740
  71 H :    0.014270
  72 H :    0.013390
  73 H :    0.013130
  74 H :    0.014801
  75 H :    0.032335
  76 H :    0.131000
  77 H :    0.035782
Sum of atomic charges:   -0.0000000

LOEWDIN ATOMIC CHARGES
----------------------
   0 C :    0.090509
   1 C :   -0.137930
   2 C :   -0.128873
   3 C :    0.072326
   4 O :   -0.177813
   5 N :    0.033210
   6 C :    0.090002
   7 O :   -0.069483
   8 C :    0.108443
   9 O :   -0.130214
  10 C :   -0.197409
  11 C :    0.013891
  12 C :   -0.072140
  13 C :   -0.167078
  14 S :    0.512992
  15 C :   -0.186486
  16 C :   -0.056670
  17 C :    0.075747
  18 C :   -0.091368
  19 C :   -0.014233
  20 N :   -0.031464
  21 C :   -0.026477
  22 N :   -0.007302
  23 C :   -0.039950
  24 C :   -0.174094
  25 S :    0.487032
  26 C :   -0.179120
  27 C :   -0.035562
  28 C :   -0.066650
  29 C :   -0.179707
  30 S :    0.491858
  31 C :   -0.176780
  32 C :   -0.067949
  33 C :    0.081778
  34 C :   -0.098065
  35 C :   -0.015994
  36 N :   -0.030219
  37 C :   -0.016699
  38 N :   -0.028394
  39 C :   -0.034617
  40 C :   -0.181941
  41 S :    0.491917
  42 C :   -0.171121
  43 C :   -0.040820
  44 C :   -0.054389
  45 C :   -0.190166
  46 S :    0.484804
  47 C :   -0.163793
  48 C :   -0.070697
  49 C :    0.073794
  50 C :   -0.086282
  51 C :   -0.028321
  52 N :   -0.000293
  53 C :   -0.013644
  54 N :   -0.028741
  55 C :    0.015953
  56 C :   -0.190824
  57 S :    0.471026
  58 C :    0.065174
  59 C :   -0.142552
  60 C :   -0.123082
  61 C :    0.083101
  62 O :   -0.165972
  63 N :    0.015999
  64 C :    0.124226
  65 O :   -0.045129
  66 C :    0.100625
  67 O :   -0.143099
  68 H :    0.037846
  69 H :    0.094429
  70 H :    0.048419
  71 H :    0.036124
  72 H :    0.036626
  73 H :    0.036332
  74 H :    0.036396
  75 H :    0.049156
  76 H :    0.083012
  77 H :    0.036860

  Mayer bond orders larger than 0.100000
B(  0-C ,  1-C ) :   1.5035 B(  0-C ,  5-N ) :   1.2034 B(  0-C , 68-H ) :   0.9827
B(  1-C ,  2-C ) :   1.1520 B(  1-C ,  8-C ) :   0.9611 B(  2-C ,  3-C ) :   0.9518
B(  2-C ,  6-C ) :   1.4722 B(  3-C ,  4-O ) :   2.1503 B(  3-C ,  5-N ) :   1.0739
B(  5-N , 69-H ) :   0.9274 B(  6-C ,  7-O ) :   1.1814 B(  6-C , 10-C ) :   1.1788
B(  7-O ,  8-C ) :   0.9673 B(  8-C ,  9-O ) :   2.2798 B( 10-C , 11-C ) :   1.4469
B( 10-C , 14-S ) :   1.0698 B( 11-C , 12-C ) :   1.3089 B( 11-C , 70-H ) :   0.9763
B( 12-C , 13-C ) :   1.4023 B( 12-C , 17-C ) :   0.9891 B( 13-C , 14-S ) :   1.1431
B( 13-C , 15-C ) :   1.2028 B( 15-C , 16-C ) :   1.4438 B( 15-C , 25-S ) :   1.1109
B( 16-C , 17-C ) :   0.9935 B( 16-C , 23-C ) :   1.3069 B( 17-C , 18-C ) :   1.7217
B( 18-C , 19-C ) :   1.1351 B( 18-C , 21-C ) :   1.1347 B( 19-C , 20-N ) :   2.9887
B( 21-C , 22-N ) :   3.0074 B( 23-C , 24-C ) :   1.4499 B( 23-C , 71-H ) :   0.9854
B( 24-C , 25-S ) :   1.1151 B( 24-C , 26-C ) :   1.1703 B( 26-C , 27-C ) :   1.4550
B( 26-C , 30-S ) :   1.1101 B( 27-C , 28-C ) :   1.3055 B( 27-C , 72-H ) :   0.9865
B( 28-C , 29-C ) :   1.4413 B( 28-C , 33-C ) :   0.9941 B( 29-C , 30-S ) :   1.1226
B( 29-C , 31-C ) :   1.1883 B( 31-C , 32-C ) :   1.4413 B( 31-C , 41-S ) :   1.1252
B( 32-C , 33-C ) :   0.9947 B( 32-C , 39-C ) :   1.3061 B( 33-C , 34-C ) :   1.7179
B( 34-C , 35-C ) :   1.1313 B( 34-C , 37-C ) :   1.1323 B( 35-C , 36-N ) :   2.9911
B( 37-C , 38-N ) :   2.9926 B( 39-C , 40-C ) :   1.4540 B( 39-C , 73-H ) :   0.9861
B( 40-C , 41-S ) :   1.1074 B( 40-C , 42-C ) :   1.1728 B( 42-C , 43-C ) :   1.4496
B( 42-C , 46-S ) :   1.1167 B( 43-C , 44-C ) :   1.3064 B( 43-C , 74-H ) :   0.9853
B( 44-C , 45-C ) :   1.4429 B( 44-C , 49-C ) :   0.9930 B( 45-C , 46-S ) :   1.1058
B( 45-C , 47-C ) :   1.2012 B( 47-C , 48-C ) :   1.4089 B( 47-C , 57-S ) :   1.1472
B( 48-C , 49-C ) :   0.9847 B( 48-C , 55-C ) :   1.2913 B( 49-C , 50-C ) :   1.7245
B( 50-C , 51-C ) :   1.1347 B( 50-C , 53-C ) :   1.1348 B( 51-C , 52-N ) :   3.0090
B( 53-C , 54-N ) :   2.9858 B( 55-C , 56-C ) :   1.4533 B( 55-C , 75-H ) :   0.9744
B( 56-C , 57-S ) :   1.0501 B( 56-C , 58-C ) :   1.1614 B( 58-C , 59-C ) :   1.4423
B( 58-C , 63-N ) :   1.2138 B( 59-C , 60-C ) :   1.1474 B( 59-C , 66-C ) :   1.0091
B( 60-C , 61-C ) :   0.9078 B( 60-C , 64-C ) :   1.5509 B( 61-C , 62-O ) :   2.2639
B( 61-C , 63-N ) :   1.0322 B( 63-N , 76-H ) :   0.9178 B( 64-C , 65-O ) :   1.1446
B( 64-C , 77-H ) :   1.0007 B( 65-O , 66-C ) :   1.0098 B( 66-C , 67-O ) :   2.1533

-----------------------------------------------------------------------------
         ABSORPTION SPECTRUM VIA TRANSITION ELECTRIC DIPOLE MOMENTS
-----------------------------------------------------------------------------
State   Energy  Wavelength   fosc         T2         TX        TY        TZ
        (cm-1)    (nm)                  (au**2)     (au)      (au)      (au)
-----------------------------------------------------------------------------
   0   10967.9    911.8   0.575579796  17.27661   0.20106  -3.90041  -1.42231
   1   12221.0    818.3   0.137007760   3.69074   0.14455  -1.75845  -0.76005
   2   12426.4    804.7   0.023386631   0.61958  -0.17540  -0.76714   0.01748
   3   18795.3    532.0   0.051309633   0.89872  -0.06349  -0.93558  -0.13923
   4   19511.2    512.5   0.269169268   4.54169   0.17888  -1.94715  -0.84753
   5   20657.2    484.1   0.097060622   1.54685   0.05879   1.21065   0.27878
   6   21724.6    460.3   1.916044883  29.03551  -0.19509   5.07252   1.80749
   7   23234.2    430.4   0.080571873   1.14164  -0.51941  -0.42706   0.83035
   8   23874.8    418.9   0.246724386   3.40211  -0.24402   1.59234   0.89834
   9   24373.7    410.3   0.118743362   1.60385   0.00513  -1.19987  -0.40513
  10   25082.2    398.7   0.005765231   0.07567  -0.02670  -0.26032  -0.08481
  11   27392.4    365.1   0.162854405   1.95725   0.13086  -1.31599  -0.45640
  12   27714.3    360.8   0.009167664   0.10890  -0.01600   0.32550  -0.05188
  13   28688.0    348.6   0.000641628   0.00736  -0.04028   0.05540   0.05169
  14   29268.2    341.7   0.000597548   0.00672  -0.01498  -0.01571   0.07906
  15   29684.5    336.9   0.008450695   0.09372  -0.05365  -0.22358   0.20212
  16   30550.1    327.3   0.033532864   0.36135  -0.11161   0.58783   0.05787
  17   31190.8    320.6   0.114847571   1.21219  -0.18716  -0.00919   1.08493
  18   31402.5    318.4   1.225843503  12.85129   0.89400   1.14422  -3.27762
  19   31437.6    318.1   0.060856449   0.63728  -0.00238  -0.40424  -0.68838
  20   31997.4    312.5   0.109262014   1.12416   0.07657  -1.05530  -0.06812
  21   32137.1    311.2   0.000294086   0.00301   0.05135  -0.00556   0.01858
  22   32536.9    307.3   0.611212295   6.18431   0.52507   0.91319  -2.25271
  23   32807.7    304.8   0.000332096   0.00333   0.02763  -0.03238   0.03900
  24   33175.2    301.4   0.085429657   0.84776  -0.15082   0.70873   0.56808
  25   33356.1    299.8   0.046621932   0.46014   0.08553   0.37362  -0.55967
  26   33580.0    297.8   0.184744655   1.81120   0.00049  -1.23250  -0.54049
  27   33769.7    296.1   0.070855801   0.69075  -0.06406  -0.81760  -0.13482
  28   34053.7    293.7   0.117370864   1.13468  -0.22848  -0.78344   0.68462
  29   34270.5    291.8   0.063933746   0.61417  -0.04549  -0.77274  -0.12232
  30   34664.7    288.5   0.003225893   0.03064   0.02148  -0.01488  -0.17307
  31   34814.7    287.2   0.104973469   0.99264   0.15469   0.91909  -0.35213
  32   35185.5    284.2   0.042508782   0.39773  -0.10651   0.59572   0.17749
  33   35405.9    282.4   0.171186297   1.59173   0.17507  -0.88239  -0.88457
  34   35843.0    279.0   0.062478984   0.57386   0.01249   0.75740   0.00645
  35   36481.9    274.1   0.109622262   0.98923  -0.09923  -0.94447   0.29556
  36   36621.1    273.1   0.011504099   0.10342  -0.02338  -0.30632   0.09506
  37   36821.5    271.6   0.000106908   0.00096  -0.02878   0.00291  -0.01092
  38   37087.7    269.6   0.016859081   0.14965  -0.00570  -0.19753  -0.33257
  39   37862.8    264.1   0.050451445   0.43867   0.06469   0.64936  -0.11321
  40   38396.5    260.4   0.240926307   2.06570  -0.22682   0.00765   1.41923
  41   38710.3    258.3   0.004981497   0.04237  -0.01893  -0.07319   0.19144
  42   38750.3    258.1   0.154829490   1.31539   0.22913   0.68303  -0.89239
  43   38877.9    257.2   0.049649933   0.42043   0.06328  -0.16271  -0.62446
  44   39122.2    255.6   0.000169005   0.00142  -0.03598  -0.00078  -0.01125
  45   39204.6    255.1   0.021697173   0.18220   0.12346   0.31207  -0.26375
  46   39304.2    254.4   0.014838600   0.12429   0.08290   0.18755  -0.28677
  47   39576.9    252.7   0.016324329   0.13579   0.03087  -0.18909  -0.31478
  48   39864.3    250.9   0.027254940   0.22508   0.07915   0.18990  -0.42750
  49   40112.8    249.3   0.011386130   0.09345  -0.04889  -0.19493   0.23035
  50   40196.9    248.8   0.010623260   0.08700  -0.07154   0.09431   0.27017
  51   40297.4    248.2   0.019102660   0.15606  -0.05113  -0.38482   0.07319

FINAL SINGLE POINT ENERGY     -5109.372550578664

DIPOLE MOMENT
-------------
                                X             Y             Z
Electronic contribution:     -1.77303      -2.75753       2.90068
Nuclear contribution   :      1.37417       3.87429      -0.99546
                        -----------------------------------------
Total Dipole Moment    :     -0.39886       1.11676       1.90523
                        -----------------------------------------
Magnitude (a.u.)       :      2.24413
Magnitude (Debye)      :      5.70413

Rotational constants in cm-1:     0.003156     0.000201     0.000190
Rotational constants in MHz :    94.623913     6.040144     5.687649

                             ****ORCA TERMINATED NORMALLY****
TOTAL RUN TIME: 0 days 0 hours 6 minutes 42 seconds 512 msec
