                         Program Version 4.2.0 -  RELEASE  -
|  1> # ORCA input file
|  2> # SCF done       -178.621619275363          0.000429592162
|  3> ! CAM-B3LYP def2-SVP def2/J RIJCOSX Grid4 TightSCF
|  4> %maxcore 5000
|  5> %tddft
|  6>     Mode sTDDFT
|  7>     Ethresh 5.0
|  8>     maxcore 5000
|  9> end
| 10>
| 11> %pal
| 12>   nprocs 6
| 13>   end
| 14> * xyz 0 1
| 15>    C        2.61709         1.42990         0.05429
| 16>    C        2.29620         2.88094        -0.07791
| 17>    O        2.32714         3.69852         0.81523
| 18>    C        1.99818         3.08148        -1.50663
| 19>    C        1.99249         1.84716        -2.15719
| 20>    C        2.22274         0.78669        -1.17925
| 21>    C        1.87007        -0.52809        -1.33599
| 22>    C        1.86310        -1.46508        -0.28264
| 23>    N        1.80489        -2.25564         0.54738
| 24>    C        1.38354        -1.08105        -2.53849
| 25>    N        0.99781        -1.58813        -3.49320
| 26>    C        1.76428         1.76931        -3.53698
| 27>    C        1.53908         2.92843        -4.23306
| 28>    C        1.52227         4.19180        -3.60240
| 29>    C        1.75958         4.28382        -2.19984
| 30>    C        1.74617         5.54715        -1.57431
| 31>    C        1.50365         6.67468        -2.30922
| 32>    C        1.26743         6.58998        -3.69087
| 33>    C        1.27702         5.37760        -4.32425
| 34>    C        3.24963         0.99737         1.17693
| 35>    C        3.97985        -0.19336         1.39872
| 36>    C        4.57342        -1.05050         0.48864
| 37>    C        5.26861        -2.07846         1.11588
| 38>    C        5.20740        -2.02704         2.51736
| 39>    S        4.30887        -0.66869         3.05863
| 40>    C        5.90103        -3.08257         3.11334
| 41>    C        6.49702        -3.93019         2.17119
| 42>    S        6.19615        -3.43109         0.53040
| 43>    C        7.21037        -4.98670         2.73996
| 44>    C        7.16153        -4.95735         4.11607
| 45>    S        6.22002        -3.60446         4.72277
| 46>    C        7.78015        -5.86377         5.03413
| 47>    C        7.61426        -5.75421         6.41305
| 48>    N        8.17075        -6.53362         7.32317
| 49>    C        8.96897        -7.53162         6.98049
| 50>    C        9.22446        -7.78317         5.60434
| 51>    C        8.61619        -6.93238         4.61653
| 52>    N        8.95533        -7.29443         3.37973
| 53>    S        9.93110        -8.56891         3.45623
| 54>    N        9.98041        -8.72969         5.05397
| 55>    C        9.54031        -8.29403         8.04244
| 56>    C       10.42791        -9.34734         7.98569
| 57>    C       10.76178        -9.79503         9.26269
| 58>    C       10.12391        -9.08388        10.29157
| 59>    S        9.09989        -7.84460         9.67276
| 60>    C       10.49143        -9.54869        11.55720
| 61>    C       11.40645       -10.61143        11.49074
| 62>    S       11.82066       -11.04440         9.85628
| 63>    C       11.78509       -11.10312        12.73483
| 64>    C       11.16861       -10.42370        13.77141
| 65>    S       10.12053        -9.14132        13.18257
| 66>    C       11.32580       -10.56643        15.16968
| 67>    C       11.83699       -11.60062        15.88862
| 68>    C       12.29191       -11.34544        17.28693
| 69>    O       12.03681       -10.36280        17.94736
| 70>    C       13.13423       -12.50233        17.63604
| 71>    C       13.08021       -13.44305        16.60694
| 72>    C       12.15658       -12.97582        15.57594
| 73>    C       11.52169       -13.77215        14.65923
| 74>    C       10.44104       -13.33616        13.86560
| 75>    N        9.53563       -13.03801        13.22648
| 76>    C       11.80633       -15.13909        14.46271
| 77>    N       12.00850       -16.24780        14.24484
| 78>    C       13.82413       -14.62742        16.68404
| 79>    C       14.59821       -14.84727        17.79372
| 80>    C       14.66247       -13.92323        18.85964
| 81>    C       13.91590       -12.71101        18.78871
| 82>    C       13.98687       -11.78806        19.85200
| 83>    C       14.76415       -12.05761        20.94444
| 84>    C       15.49946       -13.25149        21.02119
| 85>    C       15.45136       -14.16368        20.00301
| 86>    H        1.77723         0.81952        -4.04659
| 87>    H        1.36694         2.88693        -5.29891
| 88>    H        1.92925         5.59954        -0.51271
| 89>    H        1.49213         7.64201        -1.82964
| 90>    H        1.07790         7.49340        -4.25144
| 91>    H        1.09527         5.31007        -5.38715
| 92>    H        3.24852         1.70710         1.99926
| 93>    H        4.54020        -0.90823        -0.57601
| 94>    H        7.74202        -5.74241         2.19301
| 95>    H        6.98408        -4.97096         6.81436
| 96>    H       10.80130        -9.74995         7.06292
| 97>    H       12.50829       -11.88488        12.87751
| 98>    H       11.06503        -9.69285        15.76041
| 99>    H       13.80022       -15.34833        15.88299
|100>    H       15.18203       -15.75346        17.86709
|101>    H       13.41752       -10.87475        19.78167
|102>    H       14.81774       -11.35093        21.75903
|103>    H       16.10596       -13.44395        21.89383
|104>    H       16.01609       -15.08300        20.06013
|105> *
|106>
|107>                          ****END OF INPUT****

CARTESIAN COORDINATES (ANGSTROEM)
---------------------------------
  C      2.617090    1.429900    0.054290
  C      2.296200    2.880940   -0.077910
  O      2.327140    3.698520    0.815230
  C      1.998180    3.081480   -1.506630
  C      1.992490    1.847160   -2.157190
  C      2.222740    0.786690   -1.179250
  C      1.870070   -0.528090   -1.335990
  C      1.863100   -1.465080   -0.282640
  N      1.804890   -2.255640    0.547380
  C      1.383540   -1.081050   -2.538490
  N      0.997810   -1.588130   -3.493200
  C      1.764280    1.769310   -3.536980
  C      1.539080    2.928430   -4.233060
  C      1.522270    4.191800   -3.602400
  C      1.759580    4.283820   -2.199840
  C      1.746170    5.547150   -1.574310
  C      1.503650    6.674680   -2.309220
  C      1.267430    6.589980   -3.690870
  C      1.277020    5.377600   -4.324250
  C      3.249630    0.997370    1.176930
  C      3.979850   -0.193360    1.398720
  C      4.573420   -1.050500    0.488640
  C      5.268610   -2.078460    1.115880
  C      5.207400   -2.027040    2.517360
  S      4.308870   -0.668690    3.058630
  C      5.901030   -3.082570    3.113340
  C      6.497020   -3.930190    2.171190
  S      6.196150   -3.431090    0.530400
  C      7.210370   -4.986700    2.739960
  C      7.161530   -4.957350    4.116070
  S      6.220020   -3.604460    4.722770
  C      7.780150   -5.863770    5.034130
  C      7.614260   -5.754210    6.413050
  N      8.170750   -6.533620    7.323170
  C      8.968970   -7.531620    6.980490
  C      9.224460   -7.783170    5.604340
  C      8.616190   -6.932380    4.616530
  N      8.955330   -7.294430    3.379730
  S      9.931100   -8.568910    3.456230
  N      9.980410   -8.729690    5.053970
  C      9.540310   -8.294030    8.042440
  C     10.427910   -9.347340    7.985690
  C     10.761780   -9.795030    9.262690
  C     10.123910   -9.083880   10.291570
  S      9.099890   -7.844600    9.672760
  C     10.491430   -9.548690   11.557200
  C     11.406450  -10.611430   11.490740
  S     11.820660  -11.044400    9.856280
  C     11.785090  -11.103120   12.734830
  C     11.168610  -10.423700   13.771410
  S     10.120530   -9.141320   13.182570
  C     11.325800  -10.566430   15.169680
  C     11.836990  -11.600620   15.888620
  C     12.291910  -11.345440   17.286930
  O     12.036810  -10.362800   17.947360
  C     13.134230  -12.502330   17.636040
  C     13.080210  -13.443050   16.606940
  C     12.156580  -12.975820   15.575940
  C     11.521690  -13.772150   14.659230
  C     10.441040  -13.336160   13.865600
  N      9.535630  -13.038010   13.226480
  C     11.806330  -15.139090   14.462710
  N     12.008500  -16.247800   14.244840
  C     13.824130  -14.627420   16.684040
  C     14.598210  -14.847270   17.793720
  C     14.662470  -13.923230   18.859640
  C     13.915900  -12.711010   18.788710
  C     13.986870  -11.788060   19.852000
  C     14.764150  -12.057610   20.944440
  C     15.499460  -13.251490   21.021190
  C     15.451360  -14.163680   20.003010
  H      1.777230    0.819520   -4.046590
  H      1.366940    2.886930   -5.298910
  H      1.929250    5.599540   -0.512710
  H      1.492130    7.642010   -1.829640
  H      1.077900    7.493400   -4.251440
  H      1.095270    5.310070   -5.387150
  H      3.248520    1.707100    1.999260
  H      4.540200   -0.908230   -0.576010
  H      7.742020   -5.742410    2.193010
  H      6.984080   -4.970960    6.814360
  H     10.801300   -9.749950    7.062920
  H     12.508290  -11.884880   12.877510
  H     11.065030   -9.692850   15.760410
  H     13.800220  -15.348330   15.882990
  H     15.182030  -15.753460   17.867090
  H     13.417520  -10.874750   19.781670
  H     14.817740  -11.350930   21.759030
  H     16.105960  -13.443950   21.893830
  H     16.016090  -15.083000   20.060130

 Total Charge           Charge          ....    0
 Multiplicity           Mult            ....    1
 Number of Electrons    NEL             ....  526
 Basis Dimension        Dim             .... 1117

ORBITAL ENERGIES
----------------

  NO   OCC          E(Eh)            E(eV)
   0   2.0000     -89.043576     -2422.9989
   1   2.0000     -88.970904     -2421.0214
   2   2.0000     -88.970504     -2421.0105
   3   2.0000     -88.967984     -2420.9419
   4   2.0000     -88.964761     -2420.8542
   5   2.0000     -88.964585     -2420.8494
   6   2.0000     -88.964020     -2420.8341
   7   2.0000     -19.216626      -522.9110
   8   2.0000     -19.216007      -522.8941
   9   2.0000     -14.460762      -393.4973
  10   2.0000     -14.455093      -393.3431
  11   2.0000     -14.423235      -392.4762
  12   2.0000     -14.414874      -392.2487
  13   2.0000     -14.414127      -392.2283
  14   2.0000     -14.413578      -392.2134
  15   2.0000     -14.412789      -392.1919
  16   2.0000     -10.367102      -282.1032
  17   2.0000     -10.366455      -282.0856
  18   2.0000     -10.343875      -281.4712
  19   2.0000     -10.343454      -281.4597
  20   2.0000     -10.343033      -281.4482
  21   2.0000     -10.343029      -281.4481
  22   2.0000     -10.341517      -281.4070
  23   2.0000     -10.340830      -281.3883
  24   2.0000     -10.340011      -281.3660
  25   2.0000     -10.322461      -280.8884
  26   2.0000     -10.319931      -280.8196
  27   2.0000     -10.319475      -280.8072
  28   2.0000     -10.318651      -280.7848
  29   2.0000     -10.318602      -280.7834
  30   2.0000     -10.318059      -280.7687
  31   2.0000     -10.318041      -280.7682
  32   2.0000     -10.317624      -280.7568
  33   2.0000     -10.317009      -280.7401
  34   2.0000     -10.316910      -280.7374
  35   2.0000     -10.314433      -280.6700
  36   2.0000     -10.313975      -280.6575
  37   2.0000     -10.313768      -280.6519
  38   2.0000     -10.313061      -280.6327
  39   2.0000     -10.312350      -280.6133
  40   2.0000     -10.312062      -280.6055
  41   2.0000     -10.311385      -280.5871
  42   2.0000     -10.311340      -280.5858
  43   2.0000     -10.310790      -280.5709
  44   2.0000     -10.310205      -280.5550
  45   2.0000     -10.308537      -280.5096
  46   2.0000     -10.307981      -280.4944
  47   2.0000     -10.302154      -280.3359
  48   2.0000     -10.301850      -280.3276
  49   2.0000     -10.295983      -280.1680
  50   2.0000     -10.295754      -280.1617
  51   2.0000     -10.295555      -280.1563
  52   2.0000     -10.295143      -280.1451
  53   2.0000     -10.294714      -280.1334
  54   2.0000     -10.294665      -280.1321
  55   2.0000     -10.294536      -280.1286
  56   2.0000     -10.294363      -280.1239
  57   2.0000     -10.294153      -280.1182
  58   2.0000     -10.293852      -280.1099
  59   2.0000     -10.291570      -280.0479
  60   2.0000     -10.291098      -280.0350
  61   2.0000     -10.290510      -280.0190
  62   2.0000     -10.287111      -279.9265
  63   2.0000     -10.283224      -279.8208
  64   2.0000     -10.282967      -279.8138
  65   2.0000     -10.282713      -279.8068
  66   2.0000     -10.282435      -279.7993
  67   2.0000     -10.280920      -279.7580
  68   2.0000     -10.280467      -279.7457
  69   2.0000     -10.276825      -279.6466
  70   2.0000     -10.276485      -279.6374
  71   2.0000      -8.135216      -221.3705
  72   2.0000      -8.066122      -219.4903
  73   2.0000      -8.065803      -219.4817
  74   2.0000      -8.063055      -219.4069
  75   2.0000      -8.059763      -219.3173
  76   2.0000      -8.059243      -219.3031
  77   2.0000      -8.059214      -219.3024
  78   2.0000      -6.106439      -166.1646
  79   2.0000      -6.098535      -165.9496
  80   2.0000      -6.097748      -165.9282
  81   2.0000      -6.035574      -164.2363
  82   2.0000      -6.035302      -164.2289
  83   2.0000      -6.032670      -164.1573
  84   2.0000      -6.031565      -164.1272
  85   2.0000      -6.031224      -164.1179
  86   2.0000      -6.029524      -164.0717
  87   2.0000      -6.028982      -164.0569
  88   2.0000      -6.028803      -164.0521
  89   2.0000      -6.028544      -164.0450
  90   2.0000      -6.027803      -164.0249
  91   2.0000      -6.027430      -164.0147
  92   2.0000      -6.025655      -163.9664
  93   2.0000      -6.025153      -163.9527
  94   2.0000      -6.024609      -163.9380
  95   2.0000      -6.024560      -163.9366
  96   2.0000      -6.020904      -163.8371
  97   2.0000      -6.020681      -163.8311
  98   2.0000      -6.020126      -163.8160
  99   2.0000      -1.143781       -31.1239
 100   2.0000      -1.131790       -30.7976
 101   2.0000      -1.131079       -30.7782
 102   2.0000      -1.060502       -28.8577
 103   2.0000      -1.027896       -27.9705
 104   2.0000      -1.026511       -27.9328
 105   2.0000      -1.017737       -27.6940
 106   2.0000      -1.017258       -27.6810
 107   2.0000      -1.000603       -27.2278
 108   2.0000      -0.998248       -27.1637
 109   2.0000      -0.997656       -27.1476
 110   2.0000      -0.993051       -27.0223
 111   2.0000      -0.992360       -27.0035
 112   2.0000      -0.985618       -26.8200
 113   2.0000      -0.984774       -26.7971
 114   2.0000      -0.967644       -26.3309
 115   2.0000      -0.967248       -26.3202
 116   2.0000      -0.942159       -25.6374
 117   2.0000      -0.935656       -25.4605
 118   2.0000      -0.921015       -25.0621
 119   2.0000      -0.920498       -25.0480
 120   2.0000      -0.912447       -24.8290
 121   2.0000      -0.902739       -24.5648
 122   2.0000      -0.902046       -24.5459
 123   2.0000      -0.889979       -24.2175
 124   2.0000      -0.887402       -24.1474
 125   2.0000      -0.887225       -24.1426
 126   2.0000      -0.867792       -23.6138
 127   2.0000      -0.862625       -23.4732
 128   2.0000      -0.854847       -23.2616
 129   2.0000      -0.850181       -23.1346
 130   2.0000      -0.843663       -22.9572
 131   2.0000      -0.843159       -22.9435
 132   2.0000      -0.837438       -22.7878
 133   2.0000      -0.836221       -22.7547
 134   2.0000      -0.815832       -22.1999
 135   2.0000      -0.801343       -21.8057
 136   2.0000      -0.799784       -21.7632
 137   2.0000      -0.787795       -21.4370
 138   2.0000      -0.780966       -21.2512
 139   2.0000      -0.772834       -21.0299
 140   2.0000      -0.770703       -20.9719
 141   2.0000      -0.757053       -20.6005
 142   2.0000      -0.755139       -20.5484
 143   2.0000      -0.733703       -19.9651
 144   2.0000      -0.726848       -19.7785
 145   2.0000      -0.713543       -19.4165
 146   2.0000      -0.712907       -19.3992
 147   2.0000      -0.712147       -19.3785
 148   2.0000      -0.707265       -19.2456
 149   2.0000      -0.702188       -19.1075
 150   2.0000      -0.689437       -18.7605
 151   2.0000      -0.677412       -18.4333
 152   2.0000      -0.675315       -18.3762
 153   2.0000      -0.668031       -18.1780
 154   2.0000      -0.664073       -18.0703
 155   2.0000      -0.657268       -17.8852
 156   2.0000      -0.652509       -17.7557
 157   2.0000      -0.642316       -17.4783
 158   2.0000      -0.641243       -17.4491
 159   2.0000      -0.636815       -17.3286
 160   2.0000      -0.635140       -17.2830
 161   2.0000      -0.628864       -17.1123
 162   2.0000      -0.627720       -17.0811
 163   2.0000      -0.621480       -16.9113
 164   2.0000      -0.611249       -16.6329
 165   2.0000      -0.601241       -16.3606
 166   2.0000      -0.595598       -16.2070
 167   2.0000      -0.594609       -16.1801
 168   2.0000      -0.591111       -16.0850
 169   2.0000      -0.587687       -15.9918
 170   2.0000      -0.587226       -15.9792
 171   2.0000      -0.576585       -15.6897
 172   2.0000      -0.573931       -15.6175
 173   2.0000      -0.570575       -15.5261
 174   2.0000      -0.569651       -15.5010
 175   2.0000      -0.567908       -15.4536
 176   2.0000      -0.557568       -15.1722
 177   2.0000      -0.556336       -15.1387
 178   2.0000      -0.548275       -14.9193
 179   2.0000      -0.545714       -14.8496
 180   2.0000      -0.536252       -14.5922
 181   2.0000      -0.535888       -14.5823
 182   2.0000      -0.534523       -14.5451
 183   2.0000      -0.531600       -14.4656
 184   2.0000      -0.527109       -14.3434
 185   2.0000      -0.526980       -14.3399
 186   2.0000      -0.524961       -14.2849
 187   2.0000      -0.523261       -14.2386
 188   2.0000      -0.521871       -14.2008
 189   2.0000      -0.513245       -13.9661
 190   2.0000      -0.512076       -13.9343
 191   2.0000      -0.509753       -13.8711
 192   2.0000      -0.507927       -13.8214
 193   2.0000      -0.505147       -13.7457
 194   2.0000      -0.504884       -13.7386
 195   2.0000      -0.502226       -13.6663
 196   2.0000      -0.498964       -13.5775
 197   2.0000      -0.498379       -13.5616
 198   2.0000      -0.494981       -13.4691
 199   2.0000      -0.493690       -13.4340
 200   2.0000      -0.491132       -13.3644
 201   2.0000      -0.488316       -13.2877
 202   2.0000      -0.484648       -13.1879
 203   2.0000      -0.482841       -13.1388
 204   2.0000      -0.479611       -13.0509
 205   2.0000      -0.477170       -12.9845
 206   2.0000      -0.475132       -12.9290
 207   2.0000      -0.474222       -12.9042
 208   2.0000      -0.471184       -12.8216
 209   2.0000      -0.469485       -12.7753
 210   2.0000      -0.467655       -12.7255
 211   2.0000      -0.462793       -12.5932
 212   2.0000      -0.462036       -12.5727
 213   2.0000      -0.453722       -12.3464
 214   2.0000      -0.453283       -12.3345
 215   2.0000      -0.449281       -12.2256
 216   2.0000      -0.448012       -12.1910
 217   2.0000      -0.444745       -12.1021
 218   2.0000      -0.440557       -11.9882
 219   2.0000      -0.439747       -11.9661
 220   2.0000      -0.438302       -11.9268
 221   2.0000      -0.437203       -11.8969
 222   2.0000      -0.433030       -11.7834
 223   2.0000      -0.432476       -11.7683
 224   2.0000      -0.431083       -11.7304
 225   2.0000      -0.429839       -11.6965
 226   2.0000      -0.429131       -11.6773
 227   2.0000      -0.428945       -11.6722
 228   2.0000      -0.425819       -11.5871
 229   2.0000      -0.425247       -11.5716
 230   2.0000      -0.422006       -11.4834
 231   2.0000      -0.420170       -11.4334
 232   2.0000      -0.419657       -11.4194
 233   2.0000      -0.418744       -11.3946
 234   2.0000      -0.415119       -11.2960
 235   2.0000      -0.413347       -11.2478
 236   2.0000      -0.409399       -11.1403
 237   2.0000      -0.404778       -11.0146
 238   2.0000      -0.404320       -11.0021
 239   2.0000      -0.395453       -10.7608
 240   2.0000      -0.395193       -10.7537
 241   2.0000      -0.386623       -10.5205
 242   2.0000      -0.378384       -10.2963
 243   2.0000      -0.377324       -10.2675
 244   2.0000      -0.371271       -10.1028
 245   2.0000      -0.365836        -9.9549
 246   2.0000      -0.361810        -9.8453
 247   2.0000      -0.353736        -9.6256
 248   2.0000      -0.350019        -9.5245
 249   2.0000      -0.340572        -9.2674
 250   2.0000      -0.339126        -9.2281
 251   2.0000      -0.338338        -9.2066
 252   2.0000      -0.334064        -9.0904
 253   2.0000      -0.331263        -9.0141
 254   2.0000      -0.318743        -8.6734
 255   2.0000      -0.314621        -8.5613
 256   2.0000      -0.304960        -8.2984
 257   2.0000      -0.293525        -7.9872
 258   2.0000      -0.292701        -7.9648
 259   2.0000      -0.289807        -7.8860
 260   2.0000      -0.288301        -7.8451
 261   2.0000      -0.269040        -7.3209
 262   2.0000      -0.244215        -6.6454
 263   0.0000      -0.101898        -2.7728
 264   0.0000      -0.085606        -2.3295
 265   0.0000      -0.079536        -2.1643
 266   0.0000      -0.068559        -1.8656
 267   0.0000      -0.065635        -1.7860

MULLIKEN ATOMIC CHARGES
-----------------------
   0 C :   -0.124186
   1 C :    0.115679
   2 O :   -0.150445
   3 C :    0.012115
   4 C :   -0.010910
   5 C :    0.257474
   6 C :   -0.340498
   7 C :   -0.207347
   8 N :    0.181624
   9 C :   -0.178944
  10 N :    0.159481
  11 C :   -0.022543
  12 C :    0.003905
  13 C :    0.080265
  14 C :    0.034819
  15 C :   -0.026148
  16 C :    0.038271
  17 C :    0.037897
  18 C :   -0.021372
  19 C :    0.078428
  20 C :   -0.115025
  21 C :    0.011459
  22 C :   -0.042609
  23 C :   -0.056256
  24 S :    0.173820
  25 C :   -0.065285
  26 C :   -0.008976
  27 S :    0.170287
  28 C :   -0.055317
  29 C :   -0.091724
  30 S :    0.134382
  31 C :    0.083725
  32 C :   -0.055743
  33 N :   -0.051908
  34 C :    0.037707
  35 C :   -0.001092
  36 C :    0.041032
  37 N :   -0.286229
  38 S :    0.534884
  39 N :   -0.263412
  40 C :   -0.112755
  41 C :   -0.046126
  42 C :   -0.021349
  43 C :   -0.063205
  44 S :    0.200912
  45 C :   -0.064850
  46 C :   -0.038696
  47 S :    0.167250
  48 C :    0.007887
  49 C :   -0.112511
  50 S :    0.176620
  51 C :    0.081107
  52 C :   -0.127484
  53 C :    0.117781
  54 O :   -0.151518
  55 C :    0.013646
  56 C :   -0.011961
  57 C :    0.260493
  58 C :   -0.333612
  59 C :   -0.208736
  60 N :    0.178509
  61 C :   -0.176907
  62 N :    0.158075
  63 C :   -0.024125
  64 C :    0.005763
  65 C :    0.078507
  66 C :    0.033573
  67 C :   -0.026464
  68 C :    0.037602
  69 C :    0.037654
  70 C :   -0.018888
  71 H :    0.000023
  72 H :   -0.012229
  73 H :    0.000915
  74 H :   -0.007376
  75 H :   -0.007147
  76 H :   -0.020780
  77 H :    0.022926
  78 H :    0.001821
  79 H :    0.000460
  80 H :    0.015521
  81 H :   -0.001351
  82 H :    0.002498
  83 H :    0.022266
  84 H :    0.001763
  85 H :   -0.013234
  86 H :    0.000089
  87 H :   -0.005698
  88 H :   -0.006645
  89 H :   -0.021300
Sum of atomic charges:   -0.0000000

LOEWDIN ATOMIC CHARGES
----------------------
   0 C :   -0.092825
   1 C :    0.086956
   2 O :   -0.143197
   3 C :   -0.033404
   4 C :   -0.005071
   5 C :    0.065761
   6 C :   -0.139370
   7 C :   -0.020463
   8 N :   -0.038116
   9 C :   -0.022054
  10 N :   -0.050678
  11 C :   -0.018037
  12 C :    0.018017
  13 C :   -0.009596
  14 C :   -0.002907
  15 C :   -0.002218
  16 C :   -0.012474
  17 C :   -0.012979
  18 C :   -0.012790
  19 C :    0.042606
  20 C :   -0.177934
  21 C :   -0.025039
  22 C :   -0.188309
  23 C :   -0.197821
  24 S :    0.450734
  25 C :   -0.216475
  26 C :   -0.181413
  27 S :    0.415754
  28 C :   -0.054868
  29 C :   -0.149812
  30 S :    0.431501
  31 C :   -0.068436
  32 C :    0.013254
  33 N :   -0.077340
  34 C :    0.000361
  35 C :   -0.059760
  36 C :   -0.029549
  37 N :   -0.281966
  38 S :    0.663035
  39 N :   -0.268418
  40 C :   -0.169500
  41 C :   -0.044196
  42 C :   -0.185325
  43 C :   -0.212712
  44 S :    0.468804
  45 C :   -0.199958
  46 C :   -0.185531
  47 S :    0.412788
  48 C :   -0.025565
  49 C :   -0.176069
  50 S :    0.453421
  51 C :    0.042586
  52 C :   -0.091659
  53 C :    0.087492
  54 O :   -0.142947
  55 C :   -0.033243
  56 C :   -0.005094
  57 C :    0.065929
  58 C :   -0.138925
  59 C :   -0.020818
  60 N :   -0.037070
  61 C :   -0.022040
  62 N :   -0.050113
  63 C :   -0.018299
  64 C :    0.018380
  65 C :   -0.009589
  66 C :   -0.002841
  67 C :   -0.002141
  68 C :   -0.012435
  69 C :   -0.012939
  70 C :   -0.012596
  71 H :    0.039243
  72 H :    0.035554
  73 H :    0.035574
  74 H :    0.032423
  75 H :    0.031809
  76 H :    0.030285
  77 H :    0.045577
  78 H :    0.037430
  79 H :    0.034737
  80 H :    0.020354
  81 H :    0.035914
  82 H :    0.037450
  83 H :    0.045710
  84 H :    0.039434
  85 H :    0.035529
  86 H :    0.035531
  87 H :    0.032720
  88 H :    0.031967
  89 H :    0.030303

  Mayer bond orders larger than 0.100000
B(  0-C ,  1-C ) :   0.9597 B(  0-C ,  5-C ) :   1.0328 B(  0-C , 19-C ) :   1.6809
B(  1-C ,  2-O ) :   2.1932 B(  1-C ,  3-C ) :   0.9374 B(  3-C ,  4-C ) :   1.4196
B(  3-C , 14-C ) :   1.2371 B(  4-C ,  5-C ) :   0.9998 B(  4-C , 11-C ) :   1.2583
B(  5-C ,  6-C ) :   1.6464 B(  6-C ,  7-C ) :   1.1651 B(  6-C ,  9-C ) :   1.1274
B(  7-C ,  8-N ) :   3.0132 B(  9-C , 10-N ) :   2.9973 B( 11-C , 12-C ) :   1.4675
B( 11-C , 71-H ) :   0.9877 B( 12-C , 13-C ) :   1.2259 B( 12-C , 72-H ) :   0.9936
B( 13-C , 14-C ) :   1.2392 B( 13-C , 18-C ) :   1.2393 B( 14-C , 15-C ) :   1.2755
B( 15-C , 16-C ) :   1.4757 B( 15-C , 73-H ) :   0.9864 B( 16-C , 17-C ) :   1.2531
B( 16-C , 74-H ) :   0.9881 B( 17-C , 18-C ) :   1.4970 B( 17-C , 75-H ) :   0.9893
B( 18-C , 76-H ) :   0.9972 B( 19-C , 20-C ) :   1.1311 B( 19-C , 77-H ) :   0.9246
B( 20-C , 21-C ) :   1.4581 B( 20-C , 24-S ) :   1.0793 B( 21-C , 22-C ) :   1.3338
B( 21-C , 78-H ) :   0.9896 B( 22-C , 23-C ) :   1.4314 B( 22-C , 27-S ) :   1.0461
B( 23-C , 24-S ) :   1.0960 B( 23-C , 25-C ) :   1.3069 B( 25-C , 26-C ) :   1.4580
B( 25-C , 30-S ) :   1.0678 B( 26-C , 27-S ) :   1.0559 B( 26-C , 28-C ) :   1.2299
B( 28-C , 29-C ) :   1.5404 B( 28-C , 79-H ) :   0.9910 B( 29-C , 30-S ) :   1.0888
B( 29-C , 31-C ) :   1.1216 B( 31-C , 32-C ) :   1.4117 B( 31-C , 34-C ) :   0.1075
B( 31-C , 36-C ) :   1.2118 B( 32-C , 33-N ) :   1.4563 B( 32-C , 80-H ) :   0.9735
B( 33-N , 34-C ) :   1.6626 B( 34-C , 35-C ) :   1.1689 B( 34-C , 40-C ) :   1.1336
B( 35-C , 36-C ) :   1.1867 B( 35-C , 39-N ) :   1.5437 B( 36-C , 37-N ) :   1.5149
B( 37-N , 38-S ) :   1.2631 B( 37-N , 39-N ) :   0.1472 B( 38-S , 39-N ) :   1.2776
B( 40-C , 41-C ) :   1.5269 B( 40-C , 44-S ) :   1.0910 B( 41-C , 42-C ) :   1.2518
B( 41-C , 81-H ) :   0.9899 B( 42-C , 43-C ) :   1.4483 B( 42-C , 47-S ) :   1.0499
B( 43-C , 44-S ) :   1.0652 B( 43-C , 45-C ) :   1.3108 B( 45-C , 46-C ) :   1.4333
B( 45-C , 50-S ) :   1.0962 B( 46-C , 47-S ) :   1.0480 B( 46-C , 48-C ) :   1.3337
B( 48-C , 49-C ) :   1.4554 B( 48-C , 82-H ) :   0.9893 B( 49-C , 50-S ) :   1.0823
B( 49-C , 51-C ) :   1.1319 B( 51-C , 52-C ) :   1.6831 B( 51-C , 83-H ) :   0.9238
B( 52-C , 53-C ) :   0.9602 B( 52-C , 57-C ) :   1.0307 B( 53-C , 54-O ) :   2.1904
B( 53-C , 55-C ) :   0.9383 B( 55-C , 56-C ) :   1.4184 B( 55-C , 66-C ) :   1.2377
B( 56-C , 57-C ) :   0.9989 B( 56-C , 63-C ) :   1.2612 B( 57-C , 58-C ) :   1.6480
B( 58-C , 59-C ) :   1.1620 B( 58-C , 61-C ) :   1.1245 B( 59-C , 60-N ) :   3.0111
B( 61-C , 62-N ) :   2.9961 B( 63-C , 64-C ) :   1.4683 B( 63-C , 84-H ) :   0.9859
B( 64-C , 65-C ) :   1.2249 B( 64-C , 85-H ) :   0.9933 B( 65-C , 66-C ) :   1.2414
B( 65-C , 70-C ) :   1.2399 B( 66-C , 67-C ) :   1.2741 B( 67-C , 68-C ) :   1.4776
B( 67-C , 86-H ) :   0.9861 B( 68-C , 69-C ) :   1.2550 B( 68-C , 87-H ) :   0.9867
B( 69-C , 70-C ) :   1.4971 B( 69-C , 88-H ) :   0.9885 B( 70-C , 89-H ) :   0.9969

-----------------------------------------------------------------------------
         ABSORPTION SPECTRUM VIA TRANSITION ELECTRIC DIPOLE MOMENTS
-----------------------------------------------------------------------------
State   Energy  Wavelength   fosc         T2         TX        TY        TZ
        (cm-1)    (nm)                  (au**2)     (au)      (au)      (au)
-----------------------------------------------------------------------------
   0   15891.4    629.3   2.259807748  46.81492  -2.76772   3.86438  -4.92150
   1   19973.7    500.7   0.072893668   1.20145  -0.97252   0.31643   0.39437
   2   21080.5    474.4   0.096056891   1.50011  -0.39501   0.69341  -0.92912
   3   23590.4    423.9   0.075261011   1.05029  -0.11099   0.24146   0.98978
   4   24610.3    406.3   0.444947125   5.95206   1.23529  -1.69416   1.24738
   5   24957.7    400.7   0.058996585   0.77821   0.52132  -0.66856  -0.24385
   6   25163.2    397.4   0.192716877   2.52133   0.36613  -0.65781   1.39806
   7   26000.8    384.6   0.067714759   0.85738  -0.04342   0.17675   0.90788
   8   27623.3    362.0   0.214113002   2.55178   0.83401  -0.05596   1.36128
   9   27720.6    360.7   0.200807217   2.38480   0.03841  -1.51324   0.30566
  10   28378.8    352.4   0.022289899   0.25858  -0.09052   0.46099  -0.19461
  11   28672.9    348.8   0.015613063   0.17926   0.26747   0.07774   0.31887
  12   29276.2    341.6   0.000199260   0.00224  -0.04027   0.02483   0.00144
  13   29998.4    333.4   0.015697336   0.17227   0.38329   0.09385  -0.12863
  14   30433.7    328.6   0.029675799   0.32101  -0.07887   0.55358   0.09135
  15   30483.4    328.0   0.001683280   0.01818   0.06706  -0.11532   0.01955
  16   30657.1    326.2   0.124708208   1.33918  -0.36815  -0.65614  -0.87928
  17   30746.4    325.2   0.071595191   0.76659  -0.22170   0.79370  -0.29579
  18   30772.3    325.0   0.015991233   0.17108  -0.13015   0.14672   0.36416
  19   31445.9    318.0   0.017390513   0.18206  -0.10823   0.37278   0.17716
  20   31863.0    313.8   0.215174454   2.22321   0.57610   0.37459   1.32326
  21   31998.2    312.5   0.274932455   2.82863   0.27867  -1.65546   0.10205
  22   32842.5    304.5   0.311662377   3.12409  -1.01367   0.46193  -1.37229
  23   32996.3    303.1   0.302024964   3.01338  -0.02585  -1.60122   0.66992
  24   33184.1    301.3   0.218231969   2.16503  -0.87716   0.03802  -1.18075
  25   33436.3    299.1   0.092947447   0.91516   0.12764   0.88117  -0.34987
  26   33656.7    297.1   0.037693460   0.36870   0.18848  -0.54333   0.19484
  27   34255.7    291.9   0.241376356   2.31973   0.32750   0.98380   1.11562
  28   34586.9    289.1   0.295034646   2.80826   0.58449  -1.21565   0.99439
  29   34731.6    287.9   0.093520450   0.88646  -0.25674  -0.65869  -0.62183
  30   35264.1    283.6   0.000265477   0.00248   0.01329   0.02334  -0.04192
  31   35717.5    280.0   0.012389043   0.11419   0.31580  -0.06864   0.09875
  32   35892.9    278.6   0.051071634   0.46843  -0.11943   0.58403  -0.33628
  33   36122.0    276.8   0.066391706   0.60509  -0.09652  -0.76976   0.05699
  34   36212.6    276.1   0.192437531   1.74947  -0.48710  -0.23145  -1.20774
  35   36376.0    274.9   0.030104880   0.27246  -0.51194  -0.06639   0.07723
  36   36698.6    272.5   0.021617491   0.19392  -0.13712   0.41757   0.02754
  37   37118.8    269.4   0.033245555   0.29486   0.27966  -0.46035   0.06872
  38   37452.3    267.0   0.031511823   0.27699   0.21521  -0.20001   0.43667
  39   37740.4    265.0   0.019602618   0.17099  -0.28720   0.29591   0.03086
  40   38059.3    262.7   0.015099195   0.13061   0.10859   0.13695  -0.31632
  41   39368.8    254.0   0.012782573   0.10689  -0.05450   0.32022  -0.03714
  42   39591.3    252.6   0.010849621   0.09022  -0.00717  -0.27193  -0.12736
  43   39793.6    251.3   0.023270339   0.19252   0.18396   0.31659   0.24175
  44   39821.0    251.1   0.021691692   0.17933  -0.12928   0.29047  -0.27972
  45   40093.7    249.4   0.035935118   0.29507   0.02394   0.53536  -0.08878

FINAL SINGLE POINT ENERGY     -5424.085041946500

DIPOLE MOMENT
-------------
                                X             Y             Z
Electronic contribution:     -2.40114     -16.65974     -10.46951
Nuclear contribution   :      5.32053      18.29491      10.06158
                        -----------------------------------------
Total Dipole Moment    :      2.91939       1.63517      -0.40794
                        -----------------------------------------
Magnitude (a.u.)       :      3.37091
Magnitude (Debye)      :      8.56817

Rotational constants in cm-1:     0.003179     0.000154     0.000149
Rotational constants in MHz :    95.308033     4.611854     4.469571

                             ****ORCA TERMINATED NORMALLY****
TOTAL RUN TIME: 0 days 0 hours 19 minutes 18 seconds 524 msec
