                         Program Version 4.2.0 -  RELEASE  -
|  1> # ORCA input file
|  2> # SCF done       -157.693686108399          0.000791507998
|  3> ! CAM-B3LYP def2-SVP def2/J RIJCOSX Grid4 TightSCF
|  4> %maxcore 5000
|  5> %tddft
|  6>     Mode sTDDFT
|  7>     Ethresh 5.0
|  8>     maxcore 5000
|  9> end
| 10>
| 11> %pal
| 12>   nprocs 6
| 13>   end
| 14> * xyz 0 1
| 15>    C        6.31020         3.91400        -0.70162
| 16>    C        6.51521         5.25568        -0.78989
| 17>    S        8.19059         5.61906        -0.99514
| 18>    C        8.62498         3.92483        -0.96605
| 19>   Cl       10.23752         3.42706        -1.12420
| 20>    C        7.51714         3.15116        -0.79965
| 21>    C        7.21535         1.71702        -0.69082
| 22>    O        7.99905         0.79946        -0.78573
| 23>    C        5.73375         1.65362        -0.51616
| 24>    C        5.19336         3.00448        -0.54225
| 25>    C        3.88694         3.40528        -0.42020
| 26>    C        3.53610         4.77113        -0.43936
| 27>    N        3.22734         5.87644        -0.45147
| 28>    C        2.76330         2.56841        -0.28144
| 29>    N        1.79806         1.95231        -0.18176
| 30>    C        4.96462         0.52645        -0.49079
| 31>    C        5.36987        -0.83664        -0.35575
| 32>    C        6.46264        -1.19872         0.40848
| 33>    C        6.86684        -2.53078         0.55045
| 34>    C        6.18055        -3.55424        -0.05681
| 35>    C        4.95752        -3.27999        -0.73585
| 36>    C        4.03626        -4.22952        -1.12882
| 37>   Si        3.01202        -3.34514        -2.40262
| 38>    C        3.33907        -1.72039        -1.55029
| 39>    C        4.54390        -1.88294        -0.91649
| 40>    C        6.68822        -4.93186         0.02153
| 41>    C        7.02633        -5.52461         1.23794
| 42>    F        6.84104        -4.84521         2.37951
| 43>    C        7.51724        -6.81917         1.30227
| 44>    F        7.76968        -7.35375         2.51078
| 45>    C        7.71496        -7.59001         0.15563
| 46>    C        7.37377        -6.99873        -1.06141
| 47>    C        6.87849        -5.70447        -1.12472
| 48>    F        6.59449        -5.17847        -2.32751
| 49>    F        7.53638        -7.68231        -2.19998
| 50>    C        8.20318        -8.97427         0.24254
| 51>    C        7.49631        -9.98757        -0.35666
| 52>    C        7.89852       -11.32207        -0.23460
| 53>    C        9.02107       -11.69504         0.47879
| 54>    C        9.77237       -10.67495         1.16674
| 55>    C       10.88353       -10.86871         1.94974
| 56>   Si       11.15407        -9.23760         2.82159
| 57>    C       10.29884        -8.34239         1.44137
| 58>    C        9.39349        -9.27281         0.96773
| 59>    C        9.39160       -13.07832         0.45997
| 60>    C       10.61448       -13.67390         0.46768
| 61>    C       10.68960       -15.13961         0.75693
| 62>    O        9.76028       -15.90986         0.81324
| 63>    C       12.11529       -15.39446         1.00150
| 64>    C       12.89632       -16.44312         1.38136
| 65>    S       14.57459       -15.95894         1.47041
| 66>    C       14.19821       -14.34465         0.98133
| 67>    C       12.86417       -14.19317         0.77111
| 68>    C       11.95830       -13.15084         0.32484
| 69>    C       12.35346       -11.96907        -0.25013
| 70>    C       13.70629       -11.57721        -0.25687
| 71>    N       14.80006       -11.22930        -0.23173
| 72>    C       11.51029       -11.09753        -0.96484
| 73>    N       10.88504       -10.38983        -1.61739
| 74>   Cl       12.41817       -18.02905         1.73969
| 75>    H        5.80586         6.05813        -0.75147
| 76>    H        3.89835         0.67368        -0.60201
| 77>    H        7.01774        -0.44117         0.93578
| 78>    H        7.75626        -2.74266         1.12400
| 79>    H        4.26468        -5.28199        -1.07604
| 80>    H        2.93900        -0.75357        -1.80391
| 81>    H        6.60798        -9.76260        -0.92704
| 82>    H        7.33962       -12.07910        -0.76473
| 83>    H       11.17354       -11.84919         2.29037
| 84>    H       10.10080        -7.28544         1.36737
| 85>    H        8.56280       -13.78142         0.44789
| 86>    H       14.98741       -13.62516         0.89086
| 87> *
| 88>
| 89>                          ****END OF INPUT****

CARTESIAN COORDINATES (ANGSTROEM)
---------------------------------
  C      6.310200    3.914000   -0.701620
  C      6.515210    5.255680   -0.789890
  S      8.190590    5.619060   -0.995140
  C      8.624980    3.924830   -0.966050
  Cl    10.237520    3.427060   -1.124200
  C      7.517140    3.151160   -0.799650
  C      7.215350    1.717020   -0.690820
  O      7.999050    0.799460   -0.785730
  C      5.733750    1.653620   -0.516160
  C      5.193360    3.004480   -0.542250
  C      3.886940    3.405280   -0.420200
  C      3.536100    4.771130   -0.439360
  N      3.227340    5.876440   -0.451470
  C      2.763300    2.568410   -0.281440
  N      1.798060    1.952310   -0.181760
  C      4.964620    0.526450   -0.490790
  C      5.369870   -0.836640   -0.355750
  C      6.462640   -1.198720    0.408480
  C      6.866840   -2.530780    0.550450
  C      6.180550   -3.554240   -0.056810
  C      4.957520   -3.279990   -0.735850
  C      4.036260   -4.229520   -1.128820
  Si     3.012020   -3.345140   -2.402620
  C      3.339070   -1.720390   -1.550290
  C      4.543900   -1.882940   -0.916490
  C      6.688220   -4.931860    0.021530
  C      7.026330   -5.524610    1.237940
  F      6.841040   -4.845210    2.379510
  C      7.517240   -6.819170    1.302270
  F      7.769680   -7.353750    2.510780
  C      7.714960   -7.590010    0.155630
  C      7.373770   -6.998730   -1.061410
  C      6.878490   -5.704470   -1.124720
  F      6.594490   -5.178470   -2.327510
  F      7.536380   -7.682310   -2.199980
  C      8.203180   -8.974270    0.242540
  C      7.496310   -9.987570   -0.356660
  C      7.898520  -11.322070   -0.234600
  C      9.021070  -11.695040    0.478790
  C      9.772370  -10.674950    1.166740
  C     10.883530  -10.868710    1.949740
  Si    11.154070   -9.237600    2.821590
  C     10.298840   -8.342390    1.441370
  C      9.393490   -9.272810    0.967730
  C      9.391600  -13.078320    0.459970
  C     10.614480  -13.673900    0.467680
  C     10.689600  -15.139610    0.756930
  O      9.760280  -15.909860    0.813240
  C     12.115290  -15.394460    1.001500
  C     12.896320  -16.443120    1.381360
  S     14.574590  -15.958940    1.470410
  C     14.198210  -14.344650    0.981330
  C     12.864170  -14.193170    0.771110
  C     11.958300  -13.150840    0.324840
  C     12.353460  -11.969070   -0.250130
  C     13.706290  -11.577210   -0.256870
  N     14.800060  -11.229300   -0.231730
  C     11.510290  -11.097530   -0.964840
  N     10.885040  -10.389830   -1.617390
  Cl    12.418170  -18.029050    1.739690
  H      5.805860    6.058130   -0.751470
  H      3.898350    0.673680   -0.602010
  H      7.017740   -0.441170    0.935780
  H      7.756260   -2.742660    1.124000
  H      4.264680   -5.281990   -1.076040
  H      2.939000   -0.753570   -1.803910
  H      6.607980   -9.762600   -0.927040
  H      7.339620  -12.079100   -0.764730
  H     11.173540  -11.849190    2.290370
  H     10.100800   -7.285440    1.367370
  H      8.562800  -13.781420    0.447890
  H     14.987410  -13.625160    0.890860

 Total Charge           Charge          ....    0
 Multiplicity           Mult            ....    1
 Number of Electrons    NEL             ....  450
 Basis Dimension        Dim             ....  924

ORBITAL ENERGIES
----------------

  NO   OCC          E(Eh)            E(eV)
   0   2.0000    -101.618712     -2765.1857
   1   2.0000    -101.616704     -2765.1311
   2   2.0000     -88.994917     -2421.6748
   3   2.0000     -88.991855     -2421.5915
   4   2.0000     -66.208141     -1801.6151
   5   2.0000     -66.204860     -1801.5258
   6   2.0000     -24.809282      -675.0949
   7   2.0000     -24.808416      -675.0713
   8   2.0000     -24.807136      -675.0365
   9   2.0000     -24.806975      -675.0321
  10   2.0000     -19.223148      -523.0885
  11   2.0000     -19.219543      -522.9903
  12   2.0000     -14.423159      -392.4741
  13   2.0000     -14.421429      -392.4270
  14   2.0000     -14.420332      -392.3972
  15   2.0000     -14.416327      -392.2882
  16   2.0000     -10.390399      -282.7371
  17   2.0000     -10.389978      -282.7257
  18   2.0000     -10.389928      -282.7243
  19   2.0000     -10.389286      -282.7068
  20   2.0000     -10.381137      -282.4851
  21   2.0000     -10.377565      -282.3879
  22   2.0000     -10.375547      -282.3330
  23   2.0000     -10.375250      -282.3249
  24   2.0000     -10.350202      -281.6433
  25   2.0000     -10.348307      -281.5917
  26   2.0000     -10.347806      -281.5781
  27   2.0000     -10.344649      -281.4922
  28   2.0000     -10.331084      -281.1231
  29   2.0000     -10.327500      -281.0256
  30   2.0000     -10.326435      -280.9966
  31   2.0000     -10.326366      -280.9947
  32   2.0000     -10.325551      -280.9725
  33   2.0000     -10.323393      -280.9138
  34   2.0000     -10.323117      -280.9063
  35   2.0000     -10.322706      -280.8951
  36   2.0000     -10.319566      -280.8097
  37   2.0000     -10.319509      -280.8081
  38   2.0000     -10.319217      -280.8002
  39   2.0000     -10.319057      -280.7958
  40   2.0000     -10.313700      -280.6501
  41   2.0000     -10.312144      -280.6077
  42   2.0000     -10.311429      -280.5882
  43   2.0000     -10.309491      -280.5355
  44   2.0000     -10.308342      -280.5043
  45   2.0000     -10.308239      -280.5014
  46   2.0000     -10.307045      -280.4690
  47   2.0000     -10.306952      -280.4664
  48   2.0000     -10.306123      -280.4439
  49   2.0000     -10.304982      -280.4128
  50   2.0000     -10.304567      -280.4015
  51   2.0000     -10.303222      -280.3649
  52   2.0000     -10.302478      -280.3447
  53   2.0000     -10.301420      -280.3159
  54   2.0000     -10.301142      -280.3083
  55   2.0000     -10.299268      -280.2573
  56   2.0000     -10.267627      -279.3963
  57   2.0000     -10.264682      -279.3162
  58   2.0000     -10.263395      -279.2812
  59   2.0000     -10.259380      -279.1719
  60   2.0000      -9.573488      -260.5079
  61   2.0000      -9.571486      -260.4534
  62   2.0000      -8.090665      -220.1582
  63   2.0000      -8.087550      -220.0734
  64   2.0000      -7.344129      -199.8439
  65   2.0000      -7.342099      -199.7887
  66   2.0000      -7.333517      -199.5552
  67   2.0000      -7.332989      -199.5408
  68   2.0000      -7.331537      -199.5013
  69   2.0000      -7.331005      -199.4868
  70   2.0000      -6.060047      -164.9023
  71   2.0000      -6.056946      -164.8179
  72   2.0000      -6.055441      -164.7769
  73   2.0000      -6.052893      -164.7076
  74   2.0000      -6.052381      -164.6937
  75   2.0000      -6.049742      -164.6218
  76   2.0000      -5.377235      -146.3220
  77   2.0000      -5.374181      -146.2389
  78   2.0000      -3.744450      -101.8917
  79   2.0000      -3.741491      -101.8112
  80   2.0000      -3.736435      -101.6736
  81   2.0000      -3.734547      -101.6222
  82   2.0000      -3.733393      -101.5908
  83   2.0000      -3.731382      -101.5361
  84   2.0000      -1.331370       -36.2284
  85   2.0000      -1.330094       -36.1937
  86   2.0000      -1.315055       -35.7845
  87   2.0000      -1.313985       -35.7553
  88   2.0000      -1.140109       -31.0239
  89   2.0000      -1.135802       -30.9067
  90   2.0000      -1.039598       -28.2889
  91   2.0000      -1.036974       -28.2175
  92   2.0000      -1.019141       -27.7322
  93   2.0000      -1.017403       -27.6849
  94   2.0000      -1.009282       -27.4640
  95   2.0000      -1.000077       -27.2135
  96   2.0000      -0.999626       -27.2012
  97   2.0000      -0.993427       -27.0325
  98   2.0000      -0.989533       -26.9266
  99   2.0000      -0.986912       -26.8552
 100   2.0000      -0.981611       -26.7110
 101   2.0000      -0.956215       -26.0199
 102   2.0000      -0.953247       -25.9392
 103   2.0000      -0.932993       -25.3880
 104   2.0000      -0.918052       -24.9815
 105   2.0000      -0.912088       -24.8192
 106   2.0000      -0.905216       -24.6322
 107   2.0000      -0.904725       -24.6188
 108   2.0000      -0.903254       -24.5788
 109   2.0000      -0.880836       -23.9688
 110   2.0000      -0.862732       -23.4761
 111   2.0000      -0.859822       -23.3969
 112   2.0000      -0.842292       -22.9199
 113   2.0000      -0.834078       -22.6964
 114   2.0000      -0.831375       -22.6229
 115   2.0000      -0.804860       -21.9014
 116   2.0000      -0.802147       -21.8275
 117   2.0000      -0.797829       -21.7100
 118   2.0000      -0.778422       -21.1819
 119   2.0000      -0.765899       -20.8412
 120   2.0000      -0.762019       -20.7356
 121   2.0000      -0.756273       -20.5792
 122   2.0000      -0.753376       -20.5004
 123   2.0000      -0.747195       -20.3322
 124   2.0000      -0.739592       -20.1253
 125   2.0000      -0.705360       -19.1938
 126   2.0000      -0.699974       -19.0473
 127   2.0000      -0.692289       -18.8381
 128   2.0000      -0.683930       -18.6107
 129   2.0000      -0.682824       -18.5806
 130   2.0000      -0.678430       -18.4610
 131   2.0000      -0.676199       -18.4003
 132   2.0000      -0.674637       -18.3578
 133   2.0000      -0.662342       -18.0232
 134   2.0000      -0.654790       -17.8177
 135   2.0000      -0.649931       -17.6855
 136   2.0000      -0.641297       -17.4506
 137   2.0000      -0.639317       -17.3967
 138   2.0000      -0.626282       -17.0420
 139   2.0000      -0.623311       -16.9612
 140   2.0000      -0.621719       -16.9178
 141   2.0000      -0.617559       -16.8046
 142   2.0000      -0.612250       -16.6602
 143   2.0000      -0.609606       -16.5882
 144   2.0000      -0.607669       -16.5355
 145   2.0000      -0.600221       -16.3328
 146   2.0000      -0.596791       -16.2395
 147   2.0000      -0.592327       -16.1180
 148   2.0000      -0.589069       -16.0294
 149   2.0000      -0.584123       -15.8948
 150   2.0000      -0.569377       -15.4935
 151   2.0000      -0.568592       -15.4722
 152   2.0000      -0.558725       -15.2037
 153   2.0000      -0.554431       -15.0868
 154   2.0000      -0.552788       -15.0421
 155   2.0000      -0.551787       -15.0149
 156   2.0000      -0.547439       -14.8966
 157   2.0000      -0.540188       -14.6993
 158   2.0000      -0.535704       -14.5773
 159   2.0000      -0.534890       -14.5551
 160   2.0000      -0.532157       -14.4807
 161   2.0000      -0.529986       -14.4217
 162   2.0000      -0.528141       -14.3714
 163   2.0000      -0.525780       -14.3072
 164   2.0000      -0.524895       -14.2831
 165   2.0000      -0.524352       -14.2683
 166   2.0000      -0.523207       -14.2372
 167   2.0000      -0.516662       -14.0591
 168   2.0000      -0.513417       -13.9708
 169   2.0000      -0.511771       -13.9260
 170   2.0000      -0.510218       -13.8837
 171   2.0000      -0.506621       -13.7859
 172   2.0000      -0.504400       -13.7254
 173   2.0000      -0.500475       -13.6186
 174   2.0000      -0.498321       -13.5600
 175   2.0000      -0.494638       -13.4598
 176   2.0000      -0.493961       -13.4414
 177   2.0000      -0.490197       -13.3389
 178   2.0000      -0.485938       -13.2230
 179   2.0000      -0.484098       -13.1730
 180   2.0000      -0.481025       -13.0894
 181   2.0000      -0.478857       -13.0304
 182   2.0000      -0.469569       -12.7776
 183   2.0000      -0.466828       -12.7030
 184   2.0000      -0.458474       -12.4757
 185   2.0000      -0.455868       -12.4048
 186   2.0000      -0.454523       -12.3682
 187   2.0000      -0.452844       -12.3225
 188   2.0000      -0.449375       -12.2281
 189   2.0000      -0.448606       -12.2072
 190   2.0000      -0.446219       -12.1422
 191   2.0000      -0.445625       -12.1261
 192   2.0000      -0.443810       -12.0767
 193   2.0000      -0.440202       -11.9785
 194   2.0000      -0.437529       -11.9058
 195   2.0000      -0.434622       -11.8267
 196   2.0000      -0.433483       -11.7957
 197   2.0000      -0.432699       -11.7743
 198   2.0000      -0.429150       -11.6778
 199   2.0000      -0.421968       -11.4823
 200   2.0000      -0.418572       -11.3899
 201   2.0000      -0.416730       -11.3398
 202   2.0000      -0.408508       -11.1161
 203   2.0000      -0.404821       -11.0157
 204   2.0000      -0.402933       -10.9644
 205   2.0000      -0.401458       -10.9242
 206   2.0000      -0.398589       -10.8462
 207   2.0000      -0.395261       -10.7556
 208   2.0000      -0.390926       -10.6376
 209   2.0000      -0.383305       -10.4303
 210   2.0000      -0.377790       -10.2802
 211   2.0000      -0.352903        -9.6030
 212   2.0000      -0.344378        -9.3710
 213   2.0000      -0.343903        -9.3581
 214   2.0000      -0.340755        -9.2724
 215   2.0000      -0.337797        -9.1919
 216   2.0000      -0.330205        -8.9853
 217   2.0000      -0.328707        -8.9446
 218   2.0000      -0.326679        -8.8894
 219   2.0000      -0.310054        -8.4370
 220   2.0000      -0.304559        -8.2875
 221   2.0000      -0.294320        -8.0089
 222   2.0000      -0.292144        -7.9497
 223   2.0000      -0.269141        -7.3237
 224   2.0000      -0.261726        -7.1219
 225   0.0000      -0.122083        -3.3220
 226   0.0000      -0.115933        -3.1547
 227   0.0000      -0.087482        -2.3805
 228   0.0000      -0.082079        -2.2335
 229   0.0000      -0.053798        -1.4639

MULLIKEN ATOMIC CHARGES
-----------------------
   0 C :    0.029321
   1 C :   -0.129020
   2 S :    0.186941
   3 C :   -0.173042
   4 Cl:   -0.001347
   5 C :    0.077151
   6 C :    0.135692
   7 O :   -0.132150
   8 C :   -0.088981
   9 C :    0.285762
  10 C :   -0.330692
  11 C :   -0.194794
  12 N :    0.154138
  13 C :   -0.186282
  14 N :    0.159107
  15 C :   -0.051037
  16 C :    0.095628
  17 C :    0.046096
  18 C :   -0.005454
  19 C :    0.081929
  20 C :    0.003035
  21 C :   -0.196901
  22 Si:    0.388047
  23 C :   -0.226107
  24 C :    0.031369
  25 C :   -0.131367
  26 C :    0.197326
  27 F :   -0.164477
  28 C :    0.197673
  29 F :   -0.167992
  30 C :   -0.136359
  31 C :    0.199035
  32 C :    0.200625
  33 F :   -0.164536
  34 F :   -0.156919
  35 C :    0.106634
  36 C :    0.006750
  37 C :    0.019182
  38 C :    0.079131
  39 C :    0.006668
  40 C :   -0.201639
  41 Si:    0.392711
  42 C :   -0.189545
  43 C :    0.007954
  44 C :   -0.005255
  45 C :   -0.133925
  46 C :    0.130443
  47 O :   -0.129813
  48 C :    0.092471
  49 C :   -0.174238
  50 S :    0.181668
  51 C :   -0.136236
  52 C :    0.025560
  53 C :    0.248389
  54 C :   -0.304000
  55 C :   -0.202337
  56 N :    0.153571
  57 C :   -0.187494
  58 N :    0.172942
  59 Cl:   -0.001363
  60 H :    0.055658
  61 H :    0.026290
  62 H :    0.000383
  63 H :   -0.003235
  64 H :    0.012784
  65 H :    0.012222
  66 H :   -0.005534
  67 H :    0.000394
  68 H :    0.013375
  69 H :    0.015949
  70 H :    0.029955
  71 H :    0.052114
Sum of atomic charges:    0.0000000

LOEWDIN ATOMIC CHARGES
----------------------
   0 C :   -0.060226
   1 C :   -0.148233
   2 S :    0.475648
   3 C :   -0.272220
   4 Cl:    0.190277
   5 C :   -0.116743
   6 C :    0.078026
   7 O :   -0.132327
   8 C :   -0.088209
   9 C :    0.075413
  10 C :   -0.138796
  11 C :   -0.015022
  12 N :   -0.052625
  13 C :   -0.024656
  14 N :   -0.046504
  15 C :    0.085789
  16 C :   -0.039639
  17 C :    0.054305
  18 C :   -0.000826
  19 C :    0.010332
  20 C :   -0.013276
  21 C :   -0.209145
  22 Si:    0.440496
  23 C :   -0.221645
  24 C :   -0.004170
  25 C :   -0.059209
  26 C :    0.061813
  27 F :   -0.045362
  28 C :    0.062468
  29 F :   -0.047017
  30 C :   -0.059758
  31 C :    0.064115
  32 C :    0.063560
  33 F :   -0.043994
  34 F :   -0.038235
  35 C :    0.016961
  36 C :   -0.001755
  37 C :    0.041395
  38 C :   -0.032764
  39 C :   -0.012299
  40 C :   -0.221454
  41 Si:    0.441027
  42 C :   -0.196340
  43 C :   -0.007275
  44 C :    0.070338
  45 C :   -0.089294
  46 C :    0.081481
  47 O :   -0.134248
  48 C :   -0.119237
  49 C :   -0.271380
  50 S :    0.469903
  51 C :   -0.155341
  52 C :   -0.056321
  53 C :    0.058363
  54 C :   -0.124830
  55 C :   -0.014911
  56 N :   -0.054243
  57 C :   -0.013753
  58 N :   -0.048622
  59 Cl:    0.190213
  60 H :    0.037866
  61 H :    0.044713
  62 H :    0.037658
  63 H :    0.037481
  64 H :    0.018292
  65 H :    0.021107
  66 H :    0.036279
  67 H :    0.039544
  68 H :    0.021193
  69 H :    0.020167
  70 H :    0.048971
  71 H :    0.036709

  Mayer bond orders larger than 0.100000
B(  0-C ,  1-C ) :   1.5470 B(  0-C ,  5-C ) :   1.2169 B(  0-C ,  9-C ) :   0.9974
B(  1-C ,  2-S ) :   1.1614 B(  1-C , 60-H ) :   0.9530 B(  2-S ,  3-C ) :   1.1491
B(  3-C ,  4-Cl) :   1.1259 B(  3-C ,  5-C ) :   1.4820 B(  5-C ,  6-C ) :   0.9471
B(  6-C ,  7-O ) :   2.2453 B(  6-C ,  8-C ) :   0.9243 B(  8-C ,  9-C ) :   1.0684
B(  8-C , 15-C ) :   1.6428 B(  9-C , 10-C ) :   1.6479 B( 10-C , 11-C ) :   1.1503
B( 10-C , 13-C ) :   1.1375 B( 11-C , 12-N ) :   2.9879 B( 13-C , 14-N ) :   2.9703
B( 15-C , 16-C ) :   1.1046 B( 15-C , 61-H ) :   0.9376 B( 16-C , 17-C ) :   1.5406
B( 16-C , 24-C ) :   1.0518 B( 17-C , 18-C ) :   1.1571 B( 17-C , 62-H ) :   0.9800
B( 18-C , 19-C ) :   1.6069 B( 18-C , 63-H ) :   0.9937 B( 19-C , 20-C ) :   1.1189
B( 19-C , 25-C ) :   0.9361 B( 20-C , 21-C ) :   1.6910 B( 20-C , 22-Si) :   0.1206
B( 20-C , 24-C ) :   1.0022 B( 21-C , 22-Si) :   0.9530 B( 21-C , 23-C ) :   0.1096
B( 21-C , 64-H ) :   0.9339 B( 22-Si, 23-C ) :   0.9542 B( 22-Si, 24-C ) :   0.1094
B( 23-C , 24-C ) :   1.7315 B( 23-C , 65-H ) :   0.9288 B( 25-C , 26-C ) :   1.3414
B( 25-C , 30-C ) :   0.1339 B( 25-C , 32-C ) :   1.3397 B( 26-C , 27-F ) :   1.1724
B( 26-C , 28-C ) :   1.2819 B( 28-C , 29-F ) :   1.1562 B( 28-C , 30-C ) :   1.3382
B( 30-C , 31-C ) :   1.3399 B( 30-C , 35-C ) :   0.9376 B( 31-C , 32-C ) :   1.2776
B( 31-C , 34-F ) :   1.1795 B( 32-C , 33-F ) :   1.1638 B( 35-C , 36-C ) :   1.6069
B( 35-C , 43-C ) :   1.1247 B( 36-C , 37-C ) :   1.1404 B( 36-C , 66-H ) :   0.9897
B( 37-C , 38-C ) :   1.5298 B( 37-C , 67-H ) :   0.9937 B( 38-C , 39-C ) :   1.0799
B( 38-C , 44-C ) :   1.0715 B( 39-C , 40-C ) :   1.7395 B( 39-C , 41-Si) :   0.1054
B( 39-C , 43-C ) :   1.0032 B( 40-C , 41-Si) :   0.9347 B( 40-C , 68-H ) :   0.9104
B( 41-Si, 42-C ) :   0.9681 B( 41-Si, 43-C ) :   0.1271 B( 42-C , 43-C ) :   1.6765
B( 42-C , 69-H ) :   0.9333 B( 44-C , 45-C ) :   1.6899 B( 44-C , 70-H ) :   0.9402
B( 45-C , 46-C ) :   0.9315 B( 45-C , 53-C ) :   1.0398 B( 46-C , 47-O ) :   2.2742
B( 46-C , 48-C ) :   0.9261 B( 48-C , 49-C ) :   1.4862 B( 48-C , 52-C ) :   1.2181
B( 49-C , 50-S ) :   1.1489 B( 49-C , 59-Cl) :   1.1267 B( 50-S , 51-C ) :   1.1521
B( 51-C , 52-C ) :   1.5542 B( 51-C , 71-H ) :   0.9555 B( 52-C , 53-C ) :   1.0148
B( 53-C , 54-C ) :   1.6441 B( 54-C , 55-C ) :   1.1470 B( 54-C , 57-C ) :   1.1666
B( 55-C , 56-N ) :   2.9944 B( 57-C , 58-N ) :   2.9860

-----------------------------------------------------------------------------
         ABSORPTION SPECTRUM VIA TRANSITION ELECTRIC DIPOLE MOMENTS
-----------------------------------------------------------------------------
State   Energy  Wavelength   fosc         T2         TX        TY        TZ
        (cm-1)    (nm)                  (au**2)     (au)      (au)      (au)
-----------------------------------------------------------------------------
   0   11460.2    872.6   0.193297716   5.55275  -0.72137   2.23924  -0.13489
   1   11575.5    863.9   0.007525004   0.21401  -0.31171  -0.33500   0.06803
   2   15997.3    625.1   0.075881708   1.56159   0.81970   0.55570   0.76216
   3   16453.8    607.8   0.112319350   2.24732  -1.23230  -0.57189  -0.63380
   4   18618.9    537.1   0.268462179   4.74684  -0.50377   2.11795  -0.08559
   5   19504.2    512.7   0.046455823   0.78413   0.07598   0.88207   0.01769
   6   20244.0    494.0   0.175834384   2.85945  -1.11392   1.26172   0.16343
   7   21148.7    472.8   0.024062643   0.37457   0.55351  -0.26101  -0.00854
   8   21503.6    465.0   0.011512866   0.17626  -0.39146  -0.00555   0.15160
   9   24789.6    403.4   0.076810163   1.02006  -0.51887   0.86150  -0.09302
  10   25845.7    386.9   0.014345263   0.18272  -0.23206   0.31946   0.16376
  11   25960.7    385.2   0.031065851   0.39395   0.48845  -0.33231  -0.21199
  12   26645.2    375.3   0.086570393   1.06961  -0.50618   0.90186   0.00617
  13   26728.4    374.1   0.025279781   0.31137  -0.25188   0.34199  -0.36189
  14   27026.6    370.0   0.006604271   0.08045  -0.16078   0.23143  -0.03219
  15   27067.9    369.4   0.070368377   0.85585   0.60937  -0.68717   0.11099
  16   27368.8    365.4   0.003847749   0.04628  -0.20569   0.01938   0.06001
  17   28070.7    356.2   0.001591868   0.01867  -0.02191   0.09331   0.09738
  18   28144.8    355.3   0.011065054   0.12943   0.05683   0.32677  -0.13936
  19   28188.0    354.8   0.001444286   0.01687  -0.09504  -0.08844  -0.00356
  20   28710.1    348.3   0.119357995   1.36865   0.29390  -1.12541   0.12539
  21   28870.4    346.4   0.070017516   0.79842  -0.39303  -0.79742   0.08977
  22   29642.3    337.4   0.061535840   0.68343  -0.71420   0.34539   0.23248
  23   29751.3    336.1   0.007314953   0.08094  -0.07379  -0.27218  -0.03763
  24   30077.3    332.5   0.014845438   0.16249  -0.08237   0.39117  -0.05191
  25   30452.0    328.4   0.009196556   0.09942   0.05054   0.30955   0.03239
  26   31265.1    319.8   0.075635324   0.79642   0.48653   0.55432  -0.50244
  27   31670.0    315.8   0.026264435   0.27302   0.39040   0.32226  -0.12944
  28   31894.5    313.5   0.069312435   0.71544   0.80605  -0.21984  -0.13188
  29   32378.7    308.8   0.002490686   0.02532   0.04739   0.07108   0.13426
  30   33289.4    300.4   0.200392571   1.98176  -0.68633   1.22034  -0.14654
  31   33458.9    298.9   0.035010610   0.34448   0.23822  -0.53077   0.07753
  32   33902.5    295.0   0.038412692   0.37301  -0.34131  -0.47229   0.18291
  33   34179.9    292.6   0.002967311   0.02858  -0.03311   0.16561  -0.00759
  34   34248.8    292.0   0.008800671   0.08460   0.23231  -0.16111   0.06836
  35   34662.9    288.5   0.074417289   0.70678   0.68519   0.48457   0.04993
  36   34720.5    288.0   0.156769771   1.48646  -0.12718  -1.20939   0.08750
  37   35065.8    285.2   0.009915823   0.09309  -0.26398  -0.15080  -0.02579
  38   35161.5    284.4   0.001048109   0.00981  -0.06424  -0.02787   0.07007
  39   35451.8    282.1   0.004410422   0.04096   0.13880  -0.13683   0.05449
  40   35709.2    280.0   0.006086805   0.05612   0.10200   0.04229   0.20958
  41   36137.8    276.7   0.351285597   3.20018   0.32050  -1.71671   0.38779
  42   36294.0    275.5   0.160559331   1.45638   0.71010   0.95439  -0.20315
  43   36522.0    273.8   0.005965413   0.05377  -0.10829   0.13768  -0.15195
  44   36590.6    273.3   0.021851589   0.19660   0.37033   0.12417   0.20986
  45   36681.0    272.6   0.024792617   0.22251   0.05034  -0.44486   0.14859
  46   36913.0    270.9   0.145187813   1.29487  -1.12952  -0.07386   0.11662
  47   36949.3    270.6   0.066502085   0.59252   0.74838  -0.14071  -0.11248
  48   37086.1    269.6   0.041553750   0.36887   0.56324  -0.07478  -0.21458
  49   37543.6    266.4   0.041014961   0.35965  -0.40357  -0.43528  -0.08554
  50   38086.0    262.6   0.042993590   0.37163  -0.44096  -0.32708   0.26497
  51   38182.9    261.9   0.020656561   0.17810   0.13017   0.39632   0.06390
  52   38272.2    261.3   0.016045795   0.13802   0.15294   0.24036  -0.23845
  53   38325.7    260.9   0.036287675   0.31171  -0.37577   0.40602  -0.07519
  54   38585.7    259.2   0.281075287   2.39812   1.41603   0.59584  -0.19480
  55   38841.5    257.5   0.596224254   5.05347   0.71077  -2.00137   0.73674
  56   39312.1    254.4   0.006649198   0.05568  -0.15364   0.17826   0.01736
  57   39412.6    253.7   0.000980795   0.00819   0.05099  -0.07438   0.00770
  58   39495.9    253.2   0.002143921   0.01787  -0.02961  -0.12339   0.04204
  59   39676.8    252.0   0.016286186   0.13513   0.31454  -0.03996   0.18601
  60   39761.5    251.5   0.010494801   0.08689  -0.25906   0.14018  -0.01134
  61   39812.3    251.2   0.066668330   0.55129  -0.60011  -0.37282   0.22839
  62   39975.6    250.2   0.006534899   0.05382  -0.21366  -0.07528   0.04998
  63   40259.5    248.4   0.048520369   0.39676  -0.25896   0.00566   0.57417

FINAL SINGLE POINT ENERGY     -4744.423602263822

DIPOLE MOMENT
-------------
                                X             Y             Z
Electronic contribution:     14.06876      -5.60298       1.06545
Nuclear contribution   :    -13.04328       4.79984      -0.29917
                        -----------------------------------------
Total Dipole Moment    :      1.02548      -0.80314       0.76628
                        -----------------------------------------
Magnitude (a.u.)       :      1.51123
Magnitude (Debye)      :      3.84124

Rotational constants in cm-1:     0.003147     0.000325     0.000306
Rotational constants in MHz :    94.331805     9.737773     9.161095

                             ****ORCA TERMINATED NORMALLY****
TOTAL RUN TIME: 0 days 0 hours 8 minutes 5 seconds 746 msec
