                         Program Version 4.2.0 -  RELEASE  -
|  1> # ORCA input file
|  2> # SCF done       -163.171540712525          0.000380703641
|  3> ! CAM-B3LYP def2-SVP def2/J RIJCOSX Grid4 TightSCF
|  4> %maxcore 5000
|  5> %tddft
|  6>     Mode sTDDFT
|  7>     Ethresh 5.0
|  8>     maxcore 5000
|  9> end
| 10>
| 11> %pal
| 12>   nprocs 6
| 13>   end
| 14> * xyz 0 1
| 15>    C        1.24154        -7.37768        -0.53632
| 16>   Si        2.08054        -5.69366        -0.28570
| 17>    C        2.97812        -5.03934        -1.82580
| 18>    C        3.15529        -5.62795         1.27366
| 19>    C        4.28581        -6.24879         1.78445
| 20>    C        4.63575        -5.81249         3.05544
| 21>    C        5.67503        -6.20290         3.92737
| 22>    C        6.63064        -7.15240         3.74017
| 23>    S        6.79236        -8.12637         2.27990
| 24>    C        8.16422        -9.00701         2.90201
| 25>    C        8.76018        -9.97745         2.13312
| 26>    C        8.26662       -10.26238         0.84451
| 27>    N        7.85403       -10.48453        -0.20341
| 28>    C        9.86562       -10.75359         2.51692
| 29>    N       10.76675       -11.41909         2.77283
| 30>    C        8.49907        -8.55915         4.22747
| 31>    C        9.52748        -9.03534         5.03927
| 32>    C        9.70308        -8.48867         6.29380
| 33>    C        8.86702        -7.47305         6.74814
| 34>    C        7.84531        -6.99145         5.95615
| 35>    C        7.64935        -7.53000         4.68605
| 36>    S        3.52102        -4.57743         3.61839
| 37>    C        2.62177        -4.69225         2.16058
| 38>    C        1.44441        -4.03226         1.74354
| 39>    S        0.48309        -2.84594         2.53961
| 40>    C       -0.63165        -2.84288         1.19654
| 41>    C       -1.79389        -2.03084         1.20189
| 42>    S       -2.99076        -2.15594        -0.05719
| 43>    C       -4.01163        -0.94372         0.66455
| 44>    C       -5.25546        -0.57516         0.08785
| 45>    C       -6.13637         0.40766         0.50596
| 46>    C       -7.28294         0.48685        -0.27726
| 47>    C       -7.27775        -0.45124        -1.30618
| 48>    S       -5.85618        -1.42440        -1.31555
| 49>    C       -8.41252        -0.47010        -2.14671
| 50>    S       -8.80446        -1.46810        -3.48755
| 51>    C      -10.34503        -0.64639        -3.67796
| 52>    C      -11.19481        -1.08428        -4.71662
| 53>    C      -12.43021        -0.62755        -5.05555
| 54>    S      -13.26960         0.68133        -4.22579
| 55>    C      -14.66849         0.57209        -5.26334
| 56>    C      -15.73358         1.41769        -5.06767
| 57>    C      -15.70103         2.36995        -4.02957
| 58>    N      -15.66193         3.14221        -3.18128
| 59>    C      -16.91117         1.43190        -5.83252
| 60>    N      -17.89644         1.49320        -6.42061
| 61>    C      -14.49509        -0.46457        -6.24569
| 62>    C      -15.39968        -0.84069        -7.23743
| 63>    C      -15.06740        -1.86674        -8.09786
| 64>    C      -13.84491        -2.52168        -7.98190
| 65>    C      -12.93917        -2.15982        -7.00633
| 66>    C      -13.25444        -1.12631        -6.12656
| 67>    C      -10.49282         0.34980        -2.72193
| 68>    C       -9.41372         0.45688        -1.85639
| 69>   Si       -8.88276         1.50233        -0.36608
| 70>    C      -10.00220         1.26706         1.14804
| 71>    C       -8.57084         3.31660        -0.83104
| 72>    C       -3.42014        -0.47471         1.82165
| 73>    F       -3.96852         0.46839         2.60118
| 74>    C       -2.19278        -1.08142         2.12147
| 75>    F       -1.46947        -0.76623         3.20471
| 76>    C       -0.23777        -3.72107         0.20111
| 77>    C        0.93870        -4.39796         0.49753
| 78>    H        1.97375        -8.13143        -0.80674
| 79>    H        0.50915        -7.32705        -1.33535
| 80>    H        0.73345        -7.71267         0.36268
| 81>    H        3.75771        -5.72780        -2.13521
| 82>    H        3.43872        -4.07334        -1.64279
| 83>    H        2.28725        -4.92830        -2.65523
| 84>    H        4.83538        -6.99946         1.24782
| 85>    H        5.69543        -5.67831         4.87377
| 86>    H       10.17710        -9.82190         4.69213
| 87>    H       10.49635        -8.85376         6.92741
| 88>    H        9.01898        -7.05735         7.73276
| 89>    H        7.20385        -6.20444         6.32056
| 90>    H       -5.94295         1.03912         1.35307
| 91>    H      -10.80071        -1.89634        -5.31376
| 92>    H      -16.34759        -0.33681        -7.33120
| 93>    H      -15.76348        -2.16297        -8.86707
| 94>    H      -13.60196        -3.32288        -8.66344
| 95>    H      -11.99491        -2.67547        -6.92744
| 96>    H      -11.36158         0.97792        -2.65656
| 97>    H      -10.15799         0.21705         1.37589
| 98>    H      -10.97350         1.72026         0.97873
| 99>    H       -9.56613         1.73774         2.02314
|100>    H       -7.92737         3.40357        -1.70127
|101>    H       -8.09813         3.84783        -0.01149
|102>    H       -9.50583         3.81962        -1.05534
|103>    H       -0.80708        -3.84829        -0.70271
|104> *
|105>
|106>                          ****END OF INPUT****

CARTESIAN COORDINATES (ANGSTROEM)
---------------------------------
  C      1.241540   -7.377680   -0.536320
  Si     2.080540   -5.693660   -0.285700
  C      2.978120   -5.039340   -1.825800
  C      3.155290   -5.627950    1.273660
  C      4.285810   -6.248790    1.784450
  C      4.635750   -5.812490    3.055440
  C      5.675030   -6.202900    3.927370
  C      6.630640   -7.152400    3.740170
  S      6.792360   -8.126370    2.279900
  C      8.164220   -9.007010    2.902010
  C      8.760180   -9.977450    2.133120
  C      8.266620  -10.262380    0.844510
  N      7.854030  -10.484530   -0.203410
  C      9.865620  -10.753590    2.516920
  N     10.766750  -11.419090    2.772830
  C      8.499070   -8.559150    4.227470
  C      9.527480   -9.035340    5.039270
  C      9.703080   -8.488670    6.293800
  C      8.867020   -7.473050    6.748140
  C      7.845310   -6.991450    5.956150
  C      7.649350   -7.530000    4.686050
  S      3.521020   -4.577430    3.618390
  C      2.621770   -4.692250    2.160580
  C      1.444410   -4.032260    1.743540
  S      0.483090   -2.845940    2.539610
  C     -0.631650   -2.842880    1.196540
  C     -1.793890   -2.030840    1.201890
  S     -2.990760   -2.155940   -0.057190
  C     -4.011630   -0.943720    0.664550
  C     -5.255460   -0.575160    0.087850
  C     -6.136370    0.407660    0.505960
  C     -7.282940    0.486850   -0.277260
  C     -7.277750   -0.451240   -1.306180
  S     -5.856180   -1.424400   -1.315550
  C     -8.412520   -0.470100   -2.146710
  S     -8.804460   -1.468100   -3.487550
  C    -10.345030   -0.646390   -3.677960
  C    -11.194810   -1.084280   -4.716620
  C    -12.430210   -0.627550   -5.055550
  S    -13.269600    0.681330   -4.225790
  C    -14.668490    0.572090   -5.263340
  C    -15.733580    1.417690   -5.067670
  C    -15.701030    2.369950   -4.029570
  N    -15.661930    3.142210   -3.181280
  C    -16.911170    1.431900   -5.832520
  N    -17.896440    1.493200   -6.420610
  C    -14.495090   -0.464570   -6.245690
  C    -15.399680   -0.840690   -7.237430
  C    -15.067400   -1.866740   -8.097860
  C    -13.844910   -2.521680   -7.981900
  C    -12.939170   -2.159820   -7.006330
  C    -13.254440   -1.126310   -6.126560
  C    -10.492820    0.349800   -2.721930
  C     -9.413720    0.456880   -1.856390
  Si    -8.882760    1.502330   -0.366080
  C    -10.002200    1.267060    1.148040
  C     -8.570840    3.316600   -0.831040
  C     -3.420140   -0.474710    1.821650
  F     -3.968520    0.468390    2.601180
  C     -2.192780   -1.081420    2.121470
  F     -1.469470   -0.766230    3.204710
  C     -0.237770   -3.721070    0.201110
  C      0.938700   -4.397960    0.497530
  H      1.973750   -8.131430   -0.806740
  H      0.509150   -7.327050   -1.335350
  H      0.733450   -7.712670    0.362680
  H      3.757710   -5.727800   -2.135210
  H      3.438720   -4.073340   -1.642790
  H      2.287250   -4.928300   -2.655230
  H      4.835380   -6.999460    1.247820
  H      5.695430   -5.678310    4.873770
  H     10.177100   -9.821900    4.692130
  H     10.496350   -8.853760    6.927410
  H      9.018980   -7.057350    7.732760
  H      7.203850   -6.204440    6.320560
  H     -5.942950    1.039120    1.353070
  H    -10.800710   -1.896340   -5.313760
  H    -16.347590   -0.336810   -7.331200
  H    -15.763480   -2.162970   -8.867070
  H    -13.601960   -3.322880   -8.663440
  H    -11.994910   -2.675470   -6.927440
  H    -11.361580    0.977920   -2.656560
  H    -10.157990    0.217050    1.375890
  H    -10.973500    1.720260    0.978730
  H     -9.566130    1.737740    2.023140
  H     -7.927370    3.403570   -1.701270
  H     -8.098130    3.847830   -0.011490
  H     -9.505830    3.819620   -1.055340
  H     -0.807080   -3.848290   -0.702710

 Total Charge           Charge          ....    0
 Multiplicity           Mult            ....    1
 Number of Electrons    NEL             ....  500
 Basis Dimension        Dim             .... 1048

ORBITAL ENERGIES
----------------

  NO   OCC          E(Eh)            E(eV)
   0   2.0000     -88.979364     -2421.2516
   1   2.0000     -88.972953     -2421.0771
   2   2.0000     -88.972142     -2421.0551
   3   2.0000     -88.972107     -2421.0541
   4   2.0000     -88.971447     -2421.0361
   5   2.0000     -88.971364     -2421.0339
   6   2.0000     -88.971122     -2421.0273
   7   2.0000     -66.207897     -1801.6085
   8   2.0000     -66.207892     -1801.6083
   9   2.0000     -24.805725      -674.9981
  10   2.0000     -24.804966      -674.9775
  11   2.0000     -14.408681      -392.0801
  12   2.0000     -14.408164      -392.0661
  13   2.0000     -14.406490      -392.0205
  14   2.0000     -14.406149      -392.0112
  15   2.0000     -10.375609      -282.3347
  16   2.0000     -10.375225      -282.3242
  17   2.0000     -10.356215      -281.8069
  18   2.0000     -10.355664      -281.7919
  19   2.0000     -10.335731      -281.2495
  20   2.0000     -10.335136      -281.2334
  21   2.0000     -10.327711      -281.0313
  22   2.0000     -10.327487      -281.0252
  23   2.0000     -10.323298      -280.9112
  24   2.0000     -10.322513      -280.8899
  25   2.0000     -10.320983      -280.8482
  26   2.0000     -10.320659      -280.8394
  27   2.0000     -10.319784      -280.8156
  28   2.0000     -10.318929      -280.7923
  29   2.0000     -10.315605      -280.7019
  30   2.0000     -10.314394      -280.6689
  31   2.0000     -10.313411      -280.6422
  32   2.0000     -10.313081      -280.6332
  33   2.0000     -10.312724      -280.6235
  34   2.0000     -10.312266      -280.6110
  35   2.0000     -10.310346      -280.5588
  36   2.0000     -10.309688      -280.5409
  37   2.0000     -10.309242      -280.5287
  38   2.0000     -10.308635      -280.5122
  39   2.0000     -10.308554      -280.5100
  40   2.0000     -10.308276      -280.5025
  41   2.0000     -10.305118      -280.4165
  42   2.0000     -10.304484      -280.3993
  43   2.0000     -10.295270      -280.1485
  44   2.0000     -10.294629      -280.1311
  45   2.0000     -10.294398      -280.1248
  46   2.0000     -10.293832      -280.1094
  47   2.0000     -10.293751      -280.1072
  48   2.0000     -10.293234      -280.0931
  49   2.0000     -10.289552      -279.9929
  50   2.0000     -10.288848      -279.9738
  51   2.0000     -10.288035      -279.9517
  52   2.0000     -10.287420      -279.9349
  53   2.0000     -10.287086      -279.9258
  54   2.0000     -10.284983      -279.8686
  55   2.0000     -10.266279      -279.3596
  56   2.0000     -10.266232      -279.3584
  57   2.0000     -10.266007      -279.3522
  58   2.0000     -10.265242      -279.3314
  59   2.0000     -10.257897      -279.1316
  60   2.0000     -10.257571      -279.1227
  61   2.0000     -10.257486      -279.1204
  62   2.0000     -10.257109      -279.1101
  63   2.0000      -8.074517      -219.7188
  64   2.0000      -8.068514      -219.5554
  65   2.0000      -8.067699      -219.5333
  66   2.0000      -8.067407      -219.5253
  67   2.0000      -8.066775      -219.5081
  68   2.0000      -8.066686      -219.5057
  69   2.0000      -8.066455      -219.4994
  70   2.0000      -6.044091      -164.4681
  71   2.0000      -6.040237      -164.3632
  72   2.0000      -6.037762      -164.2958
  73   2.0000      -6.037171      -164.2798
  74   2.0000      -6.036794      -164.2695
  75   2.0000      -6.036544      -164.2627
  76   2.0000      -6.035786      -164.2421
  77   2.0000      -6.035771      -164.2417
  78   2.0000      -6.035736      -164.2407
  79   2.0000      -6.033758      -164.1869
  80   2.0000      -6.032938      -164.1646
  81   2.0000      -6.032918      -164.1641
  82   2.0000      -6.032273      -164.1465
  83   2.0000      -6.031917      -164.1368
  84   2.0000      -6.031618      -164.1287
  85   2.0000      -6.030573      -164.1002
  86   2.0000      -6.029929      -164.0827
  87   2.0000      -6.028914      -164.0551
  88   2.0000      -6.028568      -164.0457
  89   2.0000      -6.028494      -164.0437
  90   2.0000      -6.027859      -164.0264
  91   2.0000      -5.372761      -146.2003
  92   2.0000      -5.372760      -146.2002
  93   2.0000      -3.736403      -101.6727
  94   2.0000      -3.736384      -101.6722
  95   2.0000      -3.734989      -101.6342
  96   2.0000      -3.734987      -101.6342
  97   2.0000      -3.733710      -101.5994
  98   2.0000      -3.733689      -101.5988
  99   2.0000      -1.323419       -36.0121
 100   2.0000      -1.311788       -35.6956
 101   2.0000      -1.022032       -27.8109
 102   2.0000      -1.021423       -27.7943
 103   2.0000      -1.018929       -27.7265
 104   2.0000      -1.008384       -27.4395
 105   2.0000      -1.003139       -27.2968
 106   2.0000      -0.997800       -27.1515
 107   2.0000      -0.996999       -27.1297
 108   2.0000      -0.985973       -26.8297
 109   2.0000      -0.985557       -26.8184
 110   2.0000      -0.984601       -26.7924
 111   2.0000      -0.977151       -26.5896
 112   2.0000      -0.949543       -25.8384
 113   2.0000      -0.948933       -25.8218
 114   2.0000      -0.928480       -25.2652
 115   2.0000      -0.927198       -25.2304
 116   2.0000      -0.903373       -24.5820
 117   2.0000      -0.891751       -24.2658
 118   2.0000      -0.875294       -23.8180
 119   2.0000      -0.868070       -23.6214
 120   2.0000      -0.860408       -23.4129
 121   2.0000      -0.856586       -23.3089
 122   2.0000      -0.852326       -23.1930
 123   2.0000      -0.850927       -23.1549
 124   2.0000      -0.847157       -23.0523
 125   2.0000      -0.845800       -23.0154
 126   2.0000      -0.841482       -22.8979
 127   2.0000      -0.833247       -22.6738
 128   2.0000      -0.830809       -22.6074
 129   2.0000      -0.829751       -22.5787
 130   2.0000      -0.798073       -21.7167
 131   2.0000      -0.797366       -21.6974
 132   2.0000      -0.795729       -21.6529
 133   2.0000      -0.780476       -21.2378
 134   2.0000      -0.774477       -21.0746
 135   2.0000      -0.774068       -21.0635
 136   2.0000      -0.763289       -20.7702
 137   2.0000      -0.746476       -20.3126
 138   2.0000      -0.727272       -19.7901
 139   2.0000      -0.724956       -19.7270
 140   2.0000      -0.719487       -19.5782
 141   2.0000      -0.708748       -19.2860
 142   2.0000      -0.700722       -19.0676
 143   2.0000      -0.700025       -19.0486
 144   2.0000      -0.692766       -18.8511
 145   2.0000      -0.685642       -18.6573
 146   2.0000      -0.678260       -18.4564
 147   2.0000      -0.677873       -18.4459
 148   2.0000      -0.668590       -18.1933
 149   2.0000      -0.657540       -17.8926
 150   2.0000      -0.654314       -17.8048
 151   2.0000      -0.637391       -17.3443
 152   2.0000      -0.636046       -17.3077
 153   2.0000      -0.632115       -17.2007
 154   2.0000      -0.629920       -17.1410
 155   2.0000      -0.625160       -17.0115
 156   2.0000      -0.622902       -16.9500
 157   2.0000      -0.613170       -16.6852
 158   2.0000      -0.609269       -16.5790
 159   2.0000      -0.600062       -16.3285
 160   2.0000      -0.589910       -16.0523
 161   2.0000      -0.589487       -16.0408
 162   2.0000      -0.579451       -15.7677
 163   2.0000      -0.577469       -15.7137
 164   2.0000      -0.570816       -15.5327
 165   2.0000      -0.568051       -15.4575
 166   2.0000      -0.563568       -15.3355
 167   2.0000      -0.558677       -15.2024
 168   2.0000      -0.553340       -15.0571
 169   2.0000      -0.550181       -14.9712
 170   2.0000      -0.546401       -14.8683
 171   2.0000      -0.535630       -14.5752
 172   2.0000      -0.535047       -14.5594
 173   2.0000      -0.531370       -14.4593
 174   2.0000      -0.530057       -14.4236
 175   2.0000      -0.528203       -14.3731
 176   2.0000      -0.527611       -14.3570
 177   2.0000      -0.527295       -14.3484
 178   2.0000      -0.520924       -14.1751
 179   2.0000      -0.514058       -13.9882
 180   2.0000      -0.512693       -13.9511
 181   2.0000      -0.512048       -13.9335
 182   2.0000      -0.509594       -13.8668
 183   2.0000      -0.500778       -13.6269
 184   2.0000      -0.500184       -13.6107
 185   2.0000      -0.494849       -13.4655
 186   2.0000      -0.493529       -13.4296
 187   2.0000      -0.492170       -13.3926
 188   2.0000      -0.492019       -13.3885
 189   2.0000      -0.490683       -13.3521
 190   2.0000      -0.488141       -13.2830
 191   2.0000      -0.486975       -13.2513
 192   2.0000      -0.483860       -13.1665
 193   2.0000      -0.483572       -13.1587
 194   2.0000      -0.480466       -13.0741
 195   2.0000      -0.479097       -13.0369
 196   2.0000      -0.476986       -12.9794
 197   2.0000      -0.476919       -12.9776
 198   2.0000      -0.476228       -12.9588
 199   2.0000      -0.473744       -12.8912
 200   2.0000      -0.466163       -12.6849
 201   2.0000      -0.462874       -12.5954
 202   2.0000      -0.460026       -12.5180
 203   2.0000      -0.456973       -12.4349
 204   2.0000      -0.455018       -12.3817
 205   2.0000      -0.454551       -12.3690
 206   2.0000      -0.450082       -12.2473
 207   2.0000      -0.449639       -12.2353
 208   2.0000      -0.444304       -12.0901
 209   2.0000      -0.442238       -12.0339
 210   2.0000      -0.440120       -11.9763
 211   2.0000      -0.438876       -11.9424
 212   2.0000      -0.438046       -11.9198
 213   2.0000      -0.436162       -11.8686
 214   2.0000      -0.435761       -11.8577
 215   2.0000      -0.435285       -11.8447
 216   2.0000      -0.434286       -11.8175
 217   2.0000      -0.430502       -11.7146
 218   2.0000      -0.429836       -11.6964
 219   2.0000      -0.421297       -11.4641
 220   2.0000      -0.420045       -11.4300
 221   2.0000      -0.419410       -11.4127
 222   2.0000      -0.412631       -11.2283
 223   2.0000      -0.412416       -11.2224
 224   2.0000      -0.412071       -11.2130
 225   2.0000      -0.405330       -11.0296
 226   2.0000      -0.403700       -10.9852
 227   2.0000      -0.403235       -10.9726
 228   2.0000      -0.397447       -10.8151
 229   2.0000      -0.397305       -10.8112
 230   2.0000      -0.389105       -10.5881
 231   2.0000      -0.389004       -10.5853
 232   2.0000      -0.386188       -10.5087
 233   2.0000      -0.382855       -10.4180
 234   2.0000      -0.382619       -10.4116
 235   2.0000      -0.365637        -9.9495
 236   2.0000      -0.344832        -9.3833
 237   2.0000      -0.339923        -9.2498
 238   2.0000      -0.339291        -9.2326
 239   2.0000      -0.337808        -9.1922
 240   2.0000      -0.335085        -9.1181
 241   2.0000      -0.334529        -9.1030
 242   2.0000      -0.333388        -9.0719
 243   2.0000      -0.327360        -8.9079
 244   2.0000      -0.326796        -8.8926
 245   2.0000      -0.317147        -8.6300
 246   2.0000      -0.300893        -8.1877
 247   2.0000      -0.279277        -7.5995
 248   2.0000      -0.250107        -6.8057
 249   2.0000      -0.228928        -6.2294
 250   0.0000      -0.089158        -2.4261
 251   0.0000      -0.081163        -2.2086
 252   0.0000      -0.056329        -1.5328
 253   0.0000      -0.039481        -1.0743
 254   0.0000      -0.022336        -0.6078

MULLIKEN ATOMIC CHARGES
-----------------------
   0 C :   -0.207502
   1 Si:    0.546280
   2 C :   -0.204224
   3 C :   -0.139848
   4 C :   -0.035021
   5 C :   -0.106307
   6 C :    0.036384
   7 C :   -0.050237
   8 S :    0.097200
   9 C :    0.092113
  10 C :   -0.287211
  11 C :   -0.208822
  12 N :    0.145136
  13 C :   -0.176168
  14 N :    0.147273
  15 C :    0.033255
  16 C :   -0.021571
  17 C :    0.027479
  18 C :    0.051964
  19 C :   -0.060900
  20 C :    0.157264
  21 S :    0.146804
  22 C :   -0.079044
  23 C :   -0.088309
  24 S :    0.176053
  25 C :   -0.040597
  26 C :   -0.124612
  27 S :    0.149760
  28 C :   -0.101560
  29 C :   -0.044761
  30 C :   -0.057615
  31 C :   -0.120561
  32 C :   -0.080524
  33 S :    0.140790
  34 C :   -0.078414
  35 S :    0.143725
  36 C :   -0.108277
  37 C :    0.032737
  38 C :   -0.049010
  39 S :    0.098492
  40 C :    0.092554
  41 C :   -0.287828
  42 C :   -0.209791
  43 N :    0.144333
  44 C :   -0.176095
  45 N :    0.149997
  46 C :    0.031937
  47 C :   -0.018225
  48 C :    0.026211
  49 C :    0.049499
  50 C :   -0.056591
  51 C :    0.155268
  52 C :   -0.030965
  53 C :   -0.141764
  54 Si:    0.548144
  55 C :   -0.205443
  56 C :   -0.203301
  57 C :    0.187022
  58 F :   -0.174993
  59 C :    0.188973
  60 F :   -0.173813
  61 C :   -0.064176
  62 C :   -0.117960
  63 H :    0.052042
  64 H :    0.045918
  65 H :    0.056523
  66 H :    0.051197
  67 H :    0.055776
  68 H :    0.044884
  69 H :    0.004023
  70 H :   -0.014455
  71 H :    0.005529
  72 H :   -0.001865
  73 H :   -0.003506
  74 H :   -0.018180
  75 H :   -0.009918
  76 H :   -0.013524
  77 H :    0.005038
  78 H :   -0.001658
  79 H :   -0.002737
  80 H :   -0.018968
  81 H :    0.004904
  82 H :    0.057078
  83 H :    0.050865
  84 H :    0.047016
  85 H :    0.056091
  86 H :    0.046832
  87 H :    0.050903
  88 H :   -0.014423
Sum of atomic charges:   -0.0000000

LOEWDIN ATOMIC CHARGES
----------------------
   0 C :   -0.241722
   1 Si:    0.682027
   2 C :   -0.240985
   3 C :   -0.203187
   4 C :   -0.048661
   5 C :   -0.183890
   6 C :   -0.040806
   7 C :   -0.160339
   8 S :    0.435298
   9 C :   -0.062673
  10 C :   -0.175197
  11 C :   -0.038362
  12 N :   -0.052156
  13 C :   -0.023731
  14 N :   -0.058032
  15 C :   -0.054781
  16 C :    0.010812
  17 C :   -0.018199
  18 C :    0.003166
  19 C :   -0.016584
  20 C :   -0.011951
  21 S :    0.439983
  22 C :   -0.182499
  23 C :   -0.199776
  24 S :    0.454451
  25 C :   -0.186651
  26 C :   -0.212525
  27 S :    0.445468
  28 C :   -0.214270
  29 C :   -0.185974
  30 C :   -0.049385
  31 C :   -0.196039
  32 C :   -0.195614
  33 S :    0.428835
  34 C :   -0.183621
  35 S :    0.437900
  36 C :   -0.183368
  37 C :   -0.041697
  38 C :   -0.159860
  39 S :    0.435384
  40 C :   -0.062709
  41 C :   -0.174664
  42 C :   -0.038348
  43 N :   -0.051578
  44 C :   -0.023762
  45 N :   -0.057426
  46 C :   -0.054583
  47 C :    0.011051
  48 C :   -0.018017
  49 C :    0.003018
  50 C :   -0.016522
  51 C :   -0.012151
  52 C :   -0.048478
  53 C :   -0.202107
  54 Si:    0.683183
  55 C :   -0.241031
  56 C :   -0.240475
  57 C :    0.024979
  58 F :   -0.048306
  59 C :    0.017122
  60 F :   -0.051200
  61 C :   -0.060872
  62 C :   -0.196094
  63 H :    0.038729
  64 H :    0.036041
  65 H :    0.041477
  66 H :    0.038190
  67 H :    0.041346
  68 H :    0.035775
  69 H :    0.018924
  70 H :    0.035051
  71 H :    0.041191
  72 H :    0.035119
  73 H :    0.034481
  74 H :    0.029940
  75 H :    0.029503
  76 H :    0.034967
  77 H :    0.041141
  78 H :    0.035214
  79 H :    0.034591
  80 H :    0.029750
  81 H :    0.019347
  82 H :    0.041691
  83 H :    0.038549
  84 H :    0.036932
  85 H :    0.041450
  86 H :    0.036518
  87 H :    0.038137
  88 H :    0.024131

  Mayer bond orders larger than 0.100000
B(  0-C ,  1-Si) :   1.0526 B(  0-C , 63-H ) :   0.9551 B(  0-C , 64-H ) :   0.9547
B(  0-C , 65-H ) :   0.9515 B(  1-Si,  2-C ) :   1.0535 B(  1-Si,  3-C ) :   0.8702
B(  1-Si, 62-C ) :   0.8709 B(  2-C , 66-H ) :   0.9549 B(  2-C , 67-H ) :   0.9511
B(  2-C , 68-H ) :   0.9554 B(  3-C ,  4-C ) :   1.3098 B(  3-C , 22-C ) :   1.5021
B(  4-C ,  5-C ) :   1.4391 B(  4-C , 69-H ) :   0.9812 B(  5-C ,  6-C ) :   1.1633
B(  5-C , 21-S ) :   1.0900 B(  6-C ,  7-C ) :   1.6934 B(  6-C , 70-H ) :   0.9398
B(  7-C ,  8-S ) :   0.9888 B(  7-C , 20-C ) :   1.0714 B(  8-S ,  9-C ) :   1.1055
B(  9-C , 10-C ) :   1.6115 B(  9-C , 15-C ) :   1.0892 B( 10-C , 11-C ) :   1.1350
B( 10-C , 13-C ) :   1.1676 B( 11-C , 12-N ) :   3.0319 B( 13-C , 14-N ) :   2.9681
B( 15-C , 16-C ) :   1.3360 B( 15-C , 20-C ) :   1.3168 B( 16-C , 17-C ) :   1.4187
B( 16-C , 71-H ) :   0.9829 B( 17-C , 18-C ) :   1.3380 B( 17-C , 72-H ) :   0.9880
B( 18-C , 19-C ) :   1.4212 B( 18-C , 73-H ) :   0.9861 B( 19-C , 20-C ) :   1.3403
B( 19-C , 74-H ) :   0.9916 B( 21-S , 22-C ) :   1.1292 B( 22-C , 23-C ) :   1.1638
B( 23-C , 24-S ) :   1.0949 B( 23-C , 62-C ) :   1.5184 B( 24-S , 25-C ) :   1.1187
B( 25-C , 26-C ) :   1.1695 B( 25-C , 61-C ) :   1.4691 B( 26-C , 27-S ) :   1.1005
B( 26-C , 28-C ) :   0.1314 B( 26-C , 59-C ) :   1.4597 B( 27-S , 28-C ) :   1.0918
B( 28-C , 29-C ) :   1.1275 B( 28-C , 57-C ) :   1.4876 B( 29-C , 30-C ) :   1.5011
B( 29-C , 32-C ) :   0.1034 B( 29-C , 33-S ) :   1.1027 B( 30-C , 31-C ) :   1.2504
B( 30-C , 75-H ) :   1.0030 B( 31-C , 32-C ) :   1.5231 B( 31-C , 54-Si) :   0.8682
B( 32-C , 33-S ) :   1.1053 B( 32-C , 34-C ) :   1.1613 B( 34-C , 35-S ) :   1.1266
B( 34-C , 53-C ) :   1.5030 B( 35-S , 36-C ) :   1.0909 B( 36-C , 37-C ) :   1.1608
B( 36-C , 52-C ) :   1.4410 B( 37-C , 38-C ) :   1.6930 B( 37-C , 76-H ) :   0.9407
B( 38-C , 39-S ) :   0.9898 B( 38-C , 51-C ) :   1.0720 B( 39-S , 40-C ) :   1.1055
B( 40-C , 41-C ) :   1.6116 B( 40-C , 46-C ) :   1.0893 B( 41-C , 42-C ) :   1.1348
B( 41-C , 44-C ) :   1.1691 B( 42-C , 43-N ) :   3.0327 B( 44-C , 45-N ) :   2.9688
B( 46-C , 47-C ) :   1.3399 B( 46-C , 51-C ) :   1.3153 B( 47-C , 48-C ) :   1.4195
B( 47-C , 77-H ) :   0.9810 B( 48-C , 49-C ) :   1.3378 B( 48-C , 78-H ) :   0.9878
B( 49-C , 50-C ) :   1.4209 B( 49-C , 79-H ) :   0.9871 B( 50-C , 51-C ) :   1.3415
B( 50-C , 80-H ) :   0.9905 B( 52-C , 53-C ) :   1.3111 B( 52-C , 81-H ) :   0.9800
B( 53-C , 54-Si) :   0.8664 B( 54-Si, 55-C ) :   1.0542 B( 54-Si, 56-C ) :   1.0560
B( 55-C , 82-H ) :   0.9509 B( 55-C , 83-H ) :   0.9552 B( 55-C , 84-H ) :   0.9548
B( 56-C , 85-H ) :   0.9506 B( 56-C , 86-H ) :   0.9549 B( 56-C , 87-H ) :   0.9547
B( 57-C , 58-F ) :   1.1364 B( 57-C , 59-C ) :   1.2154 B( 59-C , 60-F ) :   1.1487
B( 61-C , 62-C ) :   1.2797 B( 61-C , 88-H ) :   0.9948

-----------------------------------------------------------------------------
         ABSORPTION SPECTRUM VIA TRANSITION ELECTRIC DIPOLE MOMENTS
-----------------------------------------------------------------------------
State   Energy  Wavelength   fosc         T2         TX        TY        TZ
        (cm-1)    (nm)                  (au**2)     (au)      (au)      (au)
-----------------------------------------------------------------------------
   0   16749.8    597.0   3.242689858  63.73419   6.97853  -2.80153   2.68061
   1   19591.8    510.4   0.228931955   3.84688   0.16641   1.60994   1.10782
   2   24124.0    414.5   0.012293435   0.16776   0.23748   0.05565   0.32904
   3   24397.1    409.9   0.054449160   0.73473   0.38616   0.46641   0.60669
   4   27138.0    368.5   0.376729938   4.57013  -1.81373   1.10633  -0.23779
   5   27486.4    363.8   0.041699283   0.49944   0.15099  -0.62572  -0.29175
   6   30262.8    330.4   0.114048057   1.24066   0.03568  -0.67701  -0.88377
   7   30834.7    324.3   0.038102984   0.40681   0.41649   0.03377   0.48188
   8   31136.6    321.2   0.026246638   0.27751   0.39752  -0.05073   0.34193
   9   32079.5    311.7   0.010057832   0.10322   0.21642  -0.12656   0.20091
  10   32955.3    303.4   0.001137589   0.01136  -0.10647   0.00320   0.00418
  11   34304.2    291.5   0.597146126   5.73072  -0.34863   1.52350   1.81332
  12   34830.4    287.1   0.020752700   0.19615  -0.29874   0.31004   0.10382
  13   35042.8    285.4   0.006320939   0.05938   0.02221  -0.21789   0.10683
  14   35152.7    284.5   0.028347125   0.26548   0.41481  -0.22385   0.20810
  15   35226.7    283.9   0.001239181   0.01158  -0.00628  -0.00280   0.10739
  16   36508.4    273.9   0.126676424   1.14229   0.21235  -0.78276  -0.69605
  17   36606.2    273.2   0.259738806   2.33592  -0.12879  -0.73545  -1.33358
  18   37374.3    267.6   0.029775962   0.26228   0.24902  -0.19635   0.40214
  19   38033.5    262.9   0.146865720   1.27125  -0.93091   0.63222  -0.07043
  20   38402.6    260.4   0.004989970   0.04278   0.01633   0.00248  -0.20617
  21   38618.8    258.9   0.059162714   0.50434   0.56774  -0.12648   0.40745
  22   39102.6    255.7   0.069210010   0.58269   0.14391  -0.47458  -0.58031
  23   39421.1    253.7   0.017874842   0.14928  -0.22194  -0.03077  -0.31476
  24   39684.3    252.0   0.062382176   0.51751  -0.40246   0.52987   0.27345
  25   39963.8    250.2   0.042007486   0.34605  -0.08618   0.31311   0.49049

FINAL SINGLE POINT ENERGY     -5625.873867111237

DIPOLE MOMENT
-------------
                                X             Y             Z
Electronic contribution:      4.32144       6.83718      12.96195
Nuclear contribution   :     -3.62503      -6.58435     -12.18601
                        -----------------------------------------
Total Dipole Moment    :      0.69642       0.25283       0.77594
                        -----------------------------------------
Magnitude (a.u.)       :      1.07284
Magnitude (Debye)      :      2.72695

Rotational constants in cm-1:     0.002856     0.000191     0.000180
Rotational constants in MHz :    85.618945     5.724388     5.407523

                             ****ORCA TERMINATED NORMALLY****
TOTAL RUN TIME: 0 days 0 hours 10 minutes 24 seconds 283 msec
