                         Program Version 4.2.0 -  RELEASE  -
|  1> # ORCA input file
|  2> # SCF done       -164.057071747770          0.000437359730
|  3> ! CAM-B3LYP def2-SVP def2/J RIJCOSX Grid4 TightSCF
|  4> %maxcore 5000
|  5> %tddft
|  6>     Mode sTDDFT
|  7>     Ethresh 5.0
|  8>     maxcore 5000
|  9> end
| 10>
| 11> %pal
| 12>   nprocs 6
| 13>   end
| 14> * xyz 0 1
| 15>    C        5.48705         2.12433        -5.86329
| 16>    C        5.60413         1.43720        -7.04690
| 17>    C        5.97154         0.07664        -7.04142
| 18>    N        6.26989        -1.03159        -7.01977
| 19>    C        5.38575         1.97643        -8.32511
| 20>    N        5.22222         2.35980        -9.39586
| 21>    C        5.12692         3.49830        -5.63508
| 22>    C        5.10985         3.83763        -4.26535
| 23>    C        4.77886         5.13595        -3.88294
| 24>    C        4.47460         6.07212        -4.84960
| 25>    C        4.49432         5.73528        -6.19977
| 26>    C        4.81754         4.45513        -6.60037
| 27>    C        5.46244         2.74772        -3.39175
| 28>    S        5.79814         1.30896        -4.35237
| 29>    C        5.54399         2.80004        -2.03470
| 30>    C        5.91623         1.77935        -1.13472
| 31>    C        6.28757         0.45688        -1.35174
| 32>    C        6.61607        -0.20008        -0.17866
| 33>    C        6.49784         0.60744         0.95666
| 34>    S        5.97203         2.19087         0.57786
| 35>    C        6.87832        -0.13899         2.09360
| 36>    C        7.24376        -1.42526         1.68965
| 37>    C        7.09583        -1.58244         0.19492
| 38>    C        8.43744        -1.90323        -0.46931
| 39>    C        6.05165        -2.64692        -0.15381
| 40>    C        7.65998        -2.22013         2.74592
| 41>    C        7.61331        -1.54601         3.95746
| 42>    S        7.03666         0.09856         3.78524
| 43>    C        7.99986        -2.05898         5.21985
| 44>    C        7.96900        -1.44754         6.45823
| 45>    F        7.51316        -0.20166         6.64313
| 46>    C        8.46003        -2.24365         7.50099
| 47>    F        8.51237        -1.81864         8.77095
| 48>    C        8.88811        -3.49571         7.10021
| 49>    S        8.65367        -3.66516         5.38318
| 50>    C        9.46192        -4.53169         7.88079
| 51>    C        9.72822        -4.52390         9.24181
| 52>    C       10.32621        -5.70321         9.66275
| 53>    C       10.51678        -6.61808         8.62595
| 54>    S        9.95424        -6.02987         7.11513
| 55>    C       11.14664        -7.77231         9.14000
| 56>    C       11.36377        -7.59932        10.51024
| 57>    C       10.84702        -6.25605        10.96837
| 58>    C        9.72312        -6.41296        11.99654
| 59>    C       11.97639        -5.38827        11.53044
| 60>    C       12.00053        -8.67744        11.10087
| 61>    C       12.28130        -9.69249        10.19290
| 62>    S       11.72400        -9.27968         8.57294
| 63>    C       12.92600       -10.93673        10.35709
| 64>    C       13.48880       -11.46058        11.47933
| 65>    C       14.15283       -12.73498        11.58239
| 66>    C       14.66392       -13.00846        12.86903
| 67>    C       14.40469       -11.94892        13.80719
| 68>    C       14.74580       -11.85542        15.13433
| 69>    C       15.44818       -12.82849        15.86388
| 70>    N       16.01953       -13.58584        16.51197
| 71>    C       14.39028       -10.71178        15.87735
| 72>    N       14.09238        -9.77417        16.46859
| 73>    S       13.52736       -10.64861        13.04287
| 74>    C       15.33801       -14.20272        13.11850
| 75>    C       15.49741       -15.11249        12.09342
| 76>    C       14.99285       -14.84620        10.82412
| 77>    C       14.32412       -13.66819        10.56207
| 78>    H        4.76054         5.41019        -2.83985
| 79>    H        4.21907         7.07860        -4.55464
| 80>    H        4.25525         6.48092        -6.94194
| 81>    H        4.83168         4.19887        -7.64698
| 82>    H        5.30773         3.74971        -1.57265
| 83>    H        6.31762         0.00300        -2.32410
| 84>    H        8.31940        -1.93547        -1.54932
| 85>    H        8.80199        -2.86801        -0.12613
| 86>    H        9.17442        -1.14284        -0.22090
| 87>    H        5.10057        -2.41433         0.31987
| 88>    H        6.38447        -3.62233         0.19167
| 89>    H        5.90557        -2.68566        -1.23019
| 90>    H        7.99125        -3.24052         2.67336
| 91>    H        9.49579        -3.68990         9.87702
| 92>    H        9.31436        -5.43885        12.25227
| 93>    H       10.10751        -6.88123        12.89899
| 94>    H        8.92458        -7.03216        11.59400
| 95>    H       12.77289        -5.28155        10.79742
| 96>    H       12.38605        -5.84577        12.42727
| 97>    H       11.59770        -4.40071        11.78066
| 98>    H       12.25135        -8.73089        12.14332
| 99>    H       12.98460       -11.53987         9.46042
|100>    H       15.73024       -14.41337        14.09982
|101>    H       16.01839       -16.03862        12.27995
|102>    H       15.12634       -15.56990        10.03437
|103>    H       13.93780       -13.47413         9.57378
|104> *
|105>
|106>                          ****END OF INPUT****

CARTESIAN COORDINATES (ANGSTROEM)
---------------------------------
  C      5.487050    2.124330   -5.863290
  C      5.604130    1.437200   -7.046900
  C      5.971540    0.076640   -7.041420
  N      6.269890   -1.031590   -7.019770
  C      5.385750    1.976430   -8.325110
  N      5.222220    2.359800   -9.395860
  C      5.126920    3.498300   -5.635080
  C      5.109850    3.837630   -4.265350
  C      4.778860    5.135950   -3.882940
  C      4.474600    6.072120   -4.849600
  C      4.494320    5.735280   -6.199770
  C      4.817540    4.455130   -6.600370
  C      5.462440    2.747720   -3.391750
  S      5.798140    1.308960   -4.352370
  C      5.543990    2.800040   -2.034700
  C      5.916230    1.779350   -1.134720
  C      6.287570    0.456880   -1.351740
  C      6.616070   -0.200080   -0.178660
  C      6.497840    0.607440    0.956660
  S      5.972030    2.190870    0.577860
  C      6.878320   -0.138990    2.093600
  C      7.243760   -1.425260    1.689650
  C      7.095830   -1.582440    0.194920
  C      8.437440   -1.903230   -0.469310
  C      6.051650   -2.646920   -0.153810
  C      7.659980   -2.220130    2.745920
  C      7.613310   -1.546010    3.957460
  S      7.036660    0.098560    3.785240
  C      7.999860   -2.058980    5.219850
  C      7.969000   -1.447540    6.458230
  F      7.513160   -0.201660    6.643130
  C      8.460030   -2.243650    7.500990
  F      8.512370   -1.818640    8.770950
  C      8.888110   -3.495710    7.100210
  S      8.653670   -3.665160    5.383180
  C      9.461920   -4.531690    7.880790
  C      9.728220   -4.523900    9.241810
  C     10.326210   -5.703210    9.662750
  C     10.516780   -6.618080    8.625950
  S      9.954240   -6.029870    7.115130
  C     11.146640   -7.772310    9.140000
  C     11.363770   -7.599320   10.510240
  C     10.847020   -6.256050   10.968370
  C      9.723120   -6.412960   11.996540
  C     11.976390   -5.388270   11.530440
  C     12.000530   -8.677440   11.100870
  C     12.281300   -9.692490   10.192900
  S     11.724000   -9.279680    8.572940
  C     12.926000  -10.936730   10.357090
  C     13.488800  -11.460580   11.479330
  C     14.152830  -12.734980   11.582390
  C     14.663920  -13.008460   12.869030
  C     14.404690  -11.948920   13.807190
  C     14.745800  -11.855420   15.134330
  C     15.448180  -12.828490   15.863880
  N     16.019530  -13.585840   16.511970
  C     14.390280  -10.711780   15.877350
  N     14.092380   -9.774170   16.468590
  S     13.527360  -10.648610   13.042870
  C     15.338010  -14.202720   13.118500
  C     15.497410  -15.112490   12.093420
  C     14.992850  -14.846200   10.824120
  C     14.324120  -13.668190   10.562070
  H      4.760540    5.410190   -2.839850
  H      4.219070    7.078600   -4.554640
  H      4.255250    6.480920   -6.941940
  H      4.831680    4.198870   -7.646980
  H      5.307730    3.749710   -1.572650
  H      6.317620    0.003000   -2.324100
  H      8.319400   -1.935470   -1.549320
  H      8.801990   -2.868010   -0.126130
  H      9.174420   -1.142840   -0.220900
  H      5.100570   -2.414330    0.319870
  H      6.384470   -3.622330    0.191670
  H      5.905570   -2.685660   -1.230190
  H      7.991250   -3.240520    2.673360
  H      9.495790   -3.689900    9.877020
  H      9.314360   -5.438850   12.252270
  H     10.107510   -6.881230   12.898990
  H      8.924580   -7.032160   11.594000
  H     12.772890   -5.281550   10.797420
  H     12.386050   -5.845770   12.427270
  H     11.597700   -4.400710   11.780660
  H     12.251350   -8.730890   12.143320
  H     12.984600  -11.539870    9.460420
  H     15.730240  -14.413370   14.099820
  H     16.018390  -16.038620   12.279950
  H     15.126340  -15.569900   10.034370
  H     13.937800  -13.474130    9.573780

 Total Charge           Charge          ....    0
 Multiplicity           Mult            ....    1
 Number of Electrons    NEL             ....  484
 Basis Dimension        Dim             .... 1040

ORBITAL ENERGIES
----------------

  NO   OCC          E(Eh)            E(eV)
   0   2.0000     -88.981050     -2421.2975
   1   2.0000     -88.976453     -2421.1724
   2   2.0000     -88.975091     -2421.1353
   3   2.0000     -88.974442     -2421.1176
   4   2.0000     -88.974141     -2421.1095
   5   2.0000     -88.972698     -2421.0702
   6   2.0000     -88.972401     -2421.0621
   7   2.0000     -24.807877      -675.0567
   8   2.0000     -24.807128      -675.0363
   9   2.0000     -14.408837      -392.0844
  10   2.0000     -14.408616      -392.0784
  11   2.0000     -14.406787      -392.0286
  12   2.0000     -14.406722      -392.0268
  13   2.0000     -10.377558      -282.3877
  14   2.0000     -10.377174      -282.3773
  15   2.0000     -10.356467      -281.8138
  16   2.0000     -10.356173      -281.8058
  17   2.0000     -10.336074      -281.2589
  18   2.0000     -10.335746      -281.2499
  19   2.0000     -10.329799      -281.0881
  20   2.0000     -10.329358      -281.0761
  21   2.0000     -10.324893      -280.9546
  22   2.0000     -10.324409      -280.9415
  23   2.0000     -10.323754      -280.9236
  24   2.0000     -10.323171      -280.9078
  25   2.0000     -10.317760      -280.7605
  26   2.0000     -10.317440      -280.7518
  27   2.0000     -10.317022      -280.7404
  28   2.0000     -10.316578      -280.7284
  29   2.0000     -10.313815      -280.6532
  30   2.0000     -10.312865      -280.6273
  31   2.0000     -10.312685      -280.6224
  32   2.0000     -10.311214      -280.5824
  33   2.0000     -10.311116      -280.5797
  34   2.0000     -10.310712      -280.5687
  35   2.0000     -10.309518      -280.5362
  36   2.0000     -10.309182      -280.5271
  37   2.0000     -10.308820      -280.5173
  38   2.0000     -10.308807      -280.5169
  39   2.0000     -10.305339      -280.4225
  40   2.0000     -10.304971      -280.4125
  41   2.0000     -10.302946      -280.3574
  42   2.0000     -10.302757      -280.3523
  43   2.0000     -10.295393      -280.1519
  44   2.0000     -10.295099      -280.1439
  45   2.0000     -10.294626      -280.1310
  46   2.0000     -10.294214      -280.1198
  47   2.0000     -10.294034      -280.1149
  48   2.0000     -10.293684      -280.1054
  49   2.0000     -10.292209      -280.0653
  50   2.0000     -10.291563      -280.0477
  51   2.0000     -10.290680      -280.0237
  52   2.0000     -10.288479      -279.9638
  53   2.0000     -10.288147      -279.9547
  54   2.0000     -10.287765      -279.9443
  55   2.0000     -10.285704      -279.8882
  56   2.0000     -10.285522      -279.8833
  57   2.0000     -10.285104      -279.8719
  58   2.0000     -10.284398      -279.8527
  59   2.0000     -10.271722      -279.5078
  60   2.0000     -10.271608      -279.5047
  61   2.0000     -10.271047      -279.4894
  62   2.0000     -10.270835      -279.4836
  63   2.0000      -8.076293      -219.7671
  64   2.0000      -8.071400      -219.6340
  65   2.0000      -8.070079      -219.5980
  66   2.0000      -8.069228      -219.5748
  67   2.0000      -8.069078      -219.5708
  68   2.0000      -8.067952      -219.5401
  69   2.0000      -8.067631      -219.5314
  70   2.0000      -6.045874      -164.5166
  71   2.0000      -6.042023      -164.4118
  72   2.0000      -6.040853      -164.3800
  73   2.0000      -6.039378      -164.3398
  74   2.0000      -6.038575      -164.3180
  75   2.0000      -6.038521      -164.3165
  76   2.0000      -6.037716      -164.2946
  77   2.0000      -6.037497      -164.2887
  78   2.0000      -6.037400      -164.2860
  79   2.0000      -6.036733      -164.2678
  80   2.0000      -6.035391      -164.2313
  81   2.0000      -6.034534      -164.2080
  82   2.0000      -6.034334      -164.2026
  83   2.0000      -6.033468      -164.1790
  84   2.0000      -6.033312      -164.1748
  85   2.0000      -6.033144      -164.1702
  86   2.0000      -6.032168      -164.1436
  87   2.0000      -6.031272      -164.1192
  88   2.0000      -6.030961      -164.1108
  89   2.0000      -6.029049      -164.0588
  90   2.0000      -6.028737      -164.0503
  91   2.0000      -1.325724       -36.0748
  92   2.0000      -1.314159       -35.7601
  93   2.0000      -1.027362       -27.9560
  94   2.0000      -1.024749       -27.8848
  95   2.0000      -1.021956       -27.8088
  96   2.0000      -1.021139       -27.7866
  97   2.0000      -1.012798       -27.5596
  98   2.0000      -0.998424       -27.1685
  99   2.0000      -0.998064       -27.1587
 100   2.0000      -0.988107       -26.8877
 101   2.0000      -0.986241       -26.8370
 102   2.0000      -0.986079       -26.8326
 103   2.0000      -0.981271       -26.7017
 104   2.0000      -0.950369       -25.8609
 105   2.0000      -0.949839       -25.8464
 106   2.0000      -0.942220       -25.6391
 107   2.0000      -0.937410       -25.5082
 108   2.0000      -0.922301       -25.0971
 109   2.0000      -0.921412       -25.0729
 110   2.0000      -0.892226       -24.2787
 111   2.0000      -0.884440       -24.0668
 112   2.0000      -0.876658       -23.8551
 113   2.0000      -0.868421       -23.6309
 114   2.0000      -0.861336       -23.4382
 115   2.0000      -0.856692       -23.3118
 116   2.0000      -0.849231       -23.1088
 117   2.0000      -0.848306       -23.0836
 118   2.0000      -0.846904       -23.0454
 119   2.0000      -0.841445       -22.8969
 120   2.0000      -0.838769       -22.8241
 121   2.0000      -0.835346       -22.7309
 122   2.0000      -0.832813       -22.6620
 123   2.0000      -0.830863       -22.6089
 124   2.0000      -0.797899       -21.7119
 125   2.0000      -0.783411       -21.3177
 126   2.0000      -0.782727       -21.2991
 127   2.0000      -0.782638       -21.2967
 128   2.0000      -0.767957       -20.8972
 129   2.0000      -0.747962       -20.3531
 130   2.0000      -0.728617       -19.8267
 131   2.0000      -0.725607       -19.7448
 132   2.0000      -0.721850       -19.6425
 133   2.0000      -0.716842       -19.5063
 134   2.0000      -0.711441       -19.3593
 135   2.0000      -0.707973       -19.2649
 136   2.0000      -0.698900       -19.0180
 137   2.0000      -0.698197       -18.9989
 138   2.0000      -0.689664       -18.7667
 139   2.0000      -0.682170       -18.5628
 140   2.0000      -0.673129       -18.3168
 141   2.0000      -0.659316       -17.9409
 142   2.0000      -0.656159       -17.8550
 143   2.0000      -0.643084       -17.4992
 144   2.0000      -0.641971       -17.4689
 145   2.0000      -0.639161       -17.3924
 146   2.0000      -0.637976       -17.3602
 147   2.0000      -0.636450       -17.3187
 148   2.0000      -0.635146       -17.2832
 149   2.0000      -0.631226       -17.1765
 150   2.0000      -0.629054       -17.1174
 151   2.0000      -0.611118       -16.6294
 152   2.0000      -0.600873       -16.3506
 153   2.0000      -0.591746       -16.1022
 154   2.0000      -0.589961       -16.0537
 155   2.0000      -0.584691       -15.9102
 156   2.0000      -0.579138       -15.7591
 157   2.0000      -0.569455       -15.4957
 158   2.0000      -0.567233       -15.4352
 159   2.0000      -0.565399       -15.3853
 160   2.0000      -0.559491       -15.2245
 161   2.0000      -0.559224       -15.2173
 162   2.0000      -0.555681       -15.1209
 163   2.0000      -0.555643       -15.1198
 164   2.0000      -0.548683       -14.9304
 165   2.0000      -0.537125       -14.6159
 166   2.0000      -0.536831       -14.6079
 167   2.0000      -0.534548       -14.5458
 168   2.0000      -0.533968       -14.5300
 169   2.0000      -0.533369       -14.5137
 170   2.0000      -0.528743       -14.3878
 171   2.0000      -0.527774       -14.3615
 172   2.0000      -0.527482       -14.3535
 173   2.0000      -0.526837       -14.3360
 174   2.0000      -0.523788       -14.2530
 175   2.0000      -0.521384       -14.1876
 176   2.0000      -0.517551       -14.0833
 177   2.0000      -0.510847       -13.9009
 178   2.0000      -0.504907       -13.7392
 179   2.0000      -0.497519       -13.5382
 180   2.0000      -0.495192       -13.4749
 181   2.0000      -0.493915       -13.4401
 182   2.0000      -0.490907       -13.3582
 183   2.0000      -0.490522       -13.3478
 184   2.0000      -0.489127       -13.3098
 185   2.0000      -0.487483       -13.2651
 186   2.0000      -0.485054       -13.1990
 187   2.0000      -0.481558       -13.1039
 188   2.0000      -0.480634       -13.0787
 189   2.0000      -0.479925       -13.0594
 190   2.0000      -0.474142       -12.9021
 191   2.0000      -0.470562       -12.8046
 192   2.0000      -0.469085       -12.7645
 193   2.0000      -0.462771       -12.5926
 194   2.0000      -0.461845       -12.5674
 195   2.0000      -0.455076       -12.3832
 196   2.0000      -0.454648       -12.3716
 197   2.0000      -0.454602       -12.3703
 198   2.0000      -0.450709       -12.2644
 199   2.0000      -0.450379       -12.2554
 200   2.0000      -0.446332       -12.1453
 201   2.0000      -0.443331       -12.0636
 202   2.0000      -0.441761       -12.0209
 203   2.0000      -0.439852       -11.9690
 204   2.0000      -0.439494       -11.9592
 205   2.0000      -0.439349       -11.9553
 206   2.0000      -0.436461       -11.8767
 207   2.0000      -0.436162       -11.8686
 208   2.0000      -0.434872       -11.8335
 209   2.0000      -0.431990       -11.7551
 210   2.0000      -0.431388       -11.7387
 211   2.0000      -0.431215       -11.7340
 212   2.0000      -0.430617       -11.7177
 213   2.0000      -0.426871       -11.6158
 214   2.0000      -0.420019       -11.4293
 215   2.0000      -0.419764       -11.4224
 216   2.0000      -0.413711       -11.2577
 217   2.0000      -0.413335       -11.2474
 218   2.0000      -0.412859       -11.2345
 219   2.0000      -0.412694       -11.2300
 220   2.0000      -0.412084       -11.2134
 221   2.0000      -0.410742       -11.1769
 222   2.0000      -0.408484       -11.1154
 223   2.0000      -0.403863       -10.9897
 224   2.0000      -0.403698       -10.9852
 225   2.0000      -0.403355       -10.9758
 226   2.0000      -0.388176       -10.5628
 227   2.0000      -0.366984        -9.9861
 228   2.0000      -0.346412        -9.4263
 229   2.0000      -0.340664        -9.2699
 230   2.0000      -0.339853        -9.2479
 231   2.0000      -0.338613        -9.2141
 232   2.0000      -0.336503        -9.1567
 233   2.0000      -0.333680        -9.0799
 234   2.0000      -0.331831        -9.0296
 235   2.0000      -0.328103        -8.9281
 236   2.0000      -0.327043        -8.8993
 237   2.0000      -0.317822        -8.6484
 238   2.0000      -0.301262        -8.1978
 239   2.0000      -0.280563        -7.6345
 240   2.0000      -0.249406        -6.7867
 241   2.0000      -0.227377        -6.1872
 242   0.0000      -0.090672        -2.4673
 243   0.0000      -0.081616        -2.2209
 244   0.0000      -0.056159        -1.5282
 245   0.0000      -0.037289        -1.0147
 246   0.0000      -0.022681        -0.6172

MULLIKEN ATOMIC CHARGES
-----------------------
   0 C :    0.093144
   1 C :   -0.289075
   2 C :   -0.209332
   3 N :    0.144354
   4 C :   -0.174262
   5 N :    0.148464
   6 C :    0.035902
   7 C :    0.158673
   8 C :   -0.060923
   9 C :    0.052827
  10 C :    0.027651
  11 C :   -0.025499
  12 C :   -0.051196
  13 S :    0.092447
  14 C :    0.026377
  15 C :   -0.111632
  16 C :   -0.034945
  17 C :   -0.009329
  18 C :   -0.076920
  19 S :    0.149732
  20 C :   -0.097715
  21 C :    0.030133
  22 C :   -0.114043
  23 C :    0.102559
  24 C :    0.105723
  25 C :   -0.078550
  26 C :   -0.039156
  27 S :    0.180556
  28 C :   -0.134592
  29 C :    0.189741
  30 F :   -0.172769
  31 C :    0.189241
  32 F :   -0.174343
  33 C :   -0.114924
  34 S :    0.149194
  35 C :   -0.045497
  36 C :   -0.064931
  37 C :    0.019170
  38 C :   -0.087616
  39 S :    0.145957
  40 C :   -0.077289
  41 C :   -0.010765
  42 C :   -0.111707
  43 C :    0.105872
  44 C :    0.103443
  45 C :   -0.031114
  46 C :   -0.112569
  47 S :    0.147834
  48 C :    0.022897
  49 C :   -0.047925
  50 C :    0.156387
  51 C :    0.033526
  52 C :    0.094486
  53 C :   -0.290903
  54 C :   -0.174512
  55 N :    0.151135
  56 C :   -0.207981
  57 N :    0.142716
  58 S :    0.093955
  59 C :   -0.020980
  60 C :    0.029207
  61 C :    0.049133
  62 C :   -0.058030
  63 H :   -0.018298
  64 H :   -0.003531
  65 H :   -0.001242
  66 H :    0.006955
  67 H :   -0.013132
  68 H :    0.002071
  69 H :    0.020801
  70 H :    0.011625
  71 H :    0.022965
  72 H :    0.021742
  73 H :    0.011907
  74 H :    0.019185
  75 H :   -0.014765
  76 H :   -0.009704
  77 H :    0.014564
  78 H :    0.018711
  79 H :    0.021214
  80 H :    0.022298
  81 H :    0.019579
  82 H :    0.014526
  83 H :    0.001980
  84 H :   -0.013451
  85 H :    0.005660
  86 H :   -0.002186
  87 H :   -0.001922
  88 H :   -0.018964
Sum of atomic charges:   -0.0000000

LOEWDIN ATOMIC CHARGES
----------------------
   0 C :   -0.062775
   1 C :   -0.174976
   2 C :   -0.038490
   3 N :   -0.051859
   4 C :   -0.023777
   5 N :   -0.057696
   6 C :   -0.054805
   7 C :   -0.012031
   8 C :   -0.016748
   9 C :    0.003277
  10 C :   -0.018327
  11 C :    0.010697
  12 C :   -0.161276
  13 S :    0.434943
  14 C :   -0.041930
  15 C :   -0.177993
  16 C :   -0.048424
  17 C :   -0.037251
  18 C :   -0.185137
  19 S :    0.441290
  20 C :   -0.202389
  21 C :   -0.029234
  22 C :   -0.035016
  23 C :   -0.023325
  24 C :   -0.022658
  25 C :   -0.059897
  26 C :   -0.180730
  27 S :    0.456451
  28 C :   -0.212214
  29 C :    0.017446
  30 F :   -0.050066
  31 C :    0.024910
  32 F :   -0.047425
  33 C :   -0.214368
  34 S :    0.445082
  35 C :   -0.180107
  36 C :   -0.048089
  37 C :   -0.029826
  38 C :   -0.198324
  39 S :    0.430896
  40 C :   -0.186106
  41 C :   -0.036179
  42 C :   -0.034645
  43 C :   -0.022432
  44 C :   -0.022666
  45 C :   -0.048116
  46 C :   -0.177265
  47 S :    0.440010
  48 C :   -0.042943
  49 C :   -0.160479
  50 C :   -0.012320
  51 C :   -0.054590
  52 C :   -0.062775
  53 C :   -0.174556
  54 C :   -0.023783
  55 N :   -0.057200
  56 C :   -0.038412
  57 N :   -0.051183
  58 S :    0.435132
  59 C :    0.011087
  60 C :   -0.017906
  61 C :    0.002943
  62 C :   -0.016414
  63 H :    0.029888
  64 H :    0.034452
  65 H :    0.035284
  66 H :    0.041381
  67 H :    0.035274
  68 H :    0.020435
  69 H :    0.027518
  70 H :    0.024352
  71 H :    0.030720
  72 H :    0.030478
  73 H :    0.024469
  74 H :    0.027152
  75 H :    0.026466
  76 H :    0.032002
  77 H :    0.025608
  78 H :    0.027011
  79 H :    0.030333
  80 H :    0.030527
  81 H :    0.027245
  82 H :    0.025598
  83 H :    0.020748
  84 H :    0.035130
  85 H :    0.041229
  86 H :    0.035151
  87 H :    0.034743
  88 H :    0.029779

  Mayer bond orders larger than 0.100000
B(  0-C ,  1-C ) :   1.6124 B(  0-C ,  6-C ) :   1.0901 B(  0-C , 13-S ) :   1.1060
B(  1-C ,  2-C ) :   1.1350 B(  1-C ,  4-C ) :   1.1678 B(  2-C ,  3-N ) :   3.0318
B(  4-C ,  5-N ) :   2.9685 B(  6-C ,  7-C ) :   1.3175 B(  6-C , 11-C ) :   1.3352
B(  7-C ,  8-C ) :   1.3411 B(  7-C , 12-C ) :   1.0721 B(  8-C ,  9-C ) :   1.4213
B(  8-C , 63-H ) :   0.9910 B(  9-C , 10-C ) :   1.3391 B(  9-C , 64-H ) :   0.9858
B( 10-C , 11-C ) :   1.4200 B( 10-C , 65-H ) :   0.9870 B( 11-C , 66-H ) :   0.9824
B( 12-C , 13-S ) :   0.9895 B( 12-C , 14-C ) :   1.6867 B( 14-C , 15-C ) :   1.1671
B( 14-C , 67-H ) :   0.9401 B( 15-C , 16-C ) :   1.4151 B( 15-C , 19-S ) :   1.0919
B( 16-C , 17-C ) :   1.3600 B( 16-C , 68-H ) :   0.9811 B( 17-C , 18-C ) :   1.5098
B( 17-C , 22-C ) :   0.9387 B( 18-C , 19-S ) :   1.0996 B( 18-C , 20-C ) :   1.1834
B( 20-C , 21-C ) :   1.5251 B( 20-C , 27-S ) :   1.0655 B( 21-C , 22-C ) :   0.9406
B( 21-C , 25-C ) :   1.3277 B( 22-C , 23-C ) :   1.0372 B( 22-C , 24-C ) :   1.0322
B( 23-C , 69-H ) :   0.9643 B( 23-C , 70-H ) :   0.9640 B( 23-C , 71-H ) :   0.9644
B( 24-C , 72-H ) :   0.9641 B( 24-C , 73-H ) :   0.9648 B( 24-C , 74-H ) :   0.9651
B( 25-C , 26-C ) :   1.4405 B( 25-C , 75-H ) :   0.9980 B( 26-C , 27-S ) :   1.1182
B( 26-C , 28-C ) :   1.1780 B( 28-C , 29-C ) :   1.4561 B( 28-C , 33-C ) :   0.1317
B( 28-C , 34-S ) :   1.1009 B( 29-C , 30-F ) :   1.1488 B( 29-C , 31-C ) :   1.2174
B( 31-C , 32-F ) :   1.1338 B( 31-C , 33-C ) :   1.4831 B( 33-C , 34-S ) :   1.0903
B( 33-C , 35-C ) :   1.1358 B( 35-C , 36-C ) :   1.4776 B( 35-C , 39-S ) :   1.1020
B( 36-C , 37-C ) :   1.2985 B( 36-C , 76-H ) :   1.0053 B( 37-C , 38-C ) :   1.5278
B( 37-C , 42-C ) :   0.9388 B( 38-C , 39-S ) :   1.0796 B( 38-C , 40-C ) :   1.1799
B( 40-C , 41-C ) :   1.5088 B( 40-C , 47-S ) :   1.0972 B( 41-C , 42-C ) :   0.9399
B( 41-C , 45-C ) :   1.3607 B( 42-C , 43-C ) :   1.0332 B( 42-C , 44-C ) :   1.0356
B( 43-C , 77-H ) :   0.9644 B( 43-C , 78-H ) :   0.9648 B( 43-C , 79-H ) :   0.9640
B( 44-C , 80-H ) :   0.9644 B( 44-C , 81-H ) :   0.9646 B( 44-C , 82-H ) :   0.9642
B( 45-C , 46-C ) :   1.4178 B( 45-C , 83-H ) :   0.9797 B( 46-C , 47-S ) :   1.0932
B( 46-C , 48-C ) :   1.1658 B( 48-C , 49-C ) :   1.6876 B( 48-C , 84-H ) :   0.9404
B( 49-C , 50-C ) :   1.0725 B( 49-C , 58-S ) :   0.9895 B( 50-C , 51-C ) :   1.3169
B( 50-C , 62-C ) :   1.3418 B( 51-C , 52-C ) :   1.0886 B( 51-C , 59-C ) :   1.3386
B( 52-C , 53-C ) :   1.6134 B( 52-C , 58-S ) :   1.1061 B( 53-C , 54-C ) :   1.1689
B( 53-C , 56-C ) :   1.1345 B( 54-C , 55-N ) :   2.9695 B( 56-C , 57-N ) :   3.0306
B( 59-C , 60-C ) :   1.4211 B( 59-C , 85-H ) :   0.9809 B( 60-C , 61-C ) :   1.3388
B( 60-C , 86-H ) :   0.9868 B( 61-C , 62-C ) :   1.4212 B( 61-C , 87-H ) :   0.9862
B( 62-C , 88-H ) :   0.9904

-----------------------------------------------------------------------------
         ABSORPTION SPECTRUM VIA TRANSITION ELECTRIC DIPOLE MOMENTS
-----------------------------------------------------------------------------
State   Energy  Wavelength   fosc         T2         TX        TY        TZ
        (cm-1)    (nm)                  (au**2)     (au)      (au)      (au)
-----------------------------------------------------------------------------
   0   16195.4    617.5   3.299130429  67.06319   2.85805  -4.61432   6.13211
   1   19286.7    518.5   0.229717579   3.92114  -0.95930   1.22005   1.22978
   2   23850.9    419.3   0.004775150   0.06591   0.12556   0.20226  -0.09611
   3   23998.2    416.7   0.135093516   1.85324   0.52182  -1.21117  -0.33764
   4   27041.8    369.8   0.376079430   4.57846  -0.54949   0.46097  -2.01594
   5   27914.6    358.2   0.059546020   0.70226  -0.14357   0.28428   0.77513
   6   30096.7    332.3   0.181069352   1.98062  -0.26744   1.16723   0.73937
   7   30587.8    326.9   0.053940509   0.58055  -0.24719   0.34834  -0.63096
   8   31121.1    321.3   0.029500606   0.31207  -0.32496   0.30220  -0.33933
   9   32021.1    312.3   0.013201803   0.13573  -0.14058   0.22183  -0.25838
  10   33876.5    295.2   0.018544595   0.18022   0.05732   0.06017   0.41631
  11   34399.2    290.7   0.491283490   4.70176  -0.38878   1.76306   1.20092
  12   35080.6    285.1   0.006108604   0.05733  -0.03794  -0.22226   0.08054
  13   35195.7    284.1   0.000658656   0.00616  -0.00225   0.06855  -0.03817
  14   35412.6    282.4   0.057047845   0.53034   0.01891   0.29458   0.66574
  15   36289.6    275.6   0.228865576   2.07622  -0.22763   1.10362   0.89801
  16   36560.7    273.5   0.113657600   1.02343   0.26310  -0.94536  -0.24597
  17   37257.3    268.4   0.020876529   0.18447  -0.17463   0.17212  -0.35263
  18   37471.5    266.9   0.023419387   0.20575  -0.07639   0.39858  -0.20261
  19   37689.4    265.3   0.013206003   0.11535   0.01777  -0.11257  -0.31994
  20   38466.6    260.0   0.157404830   1.34713  -0.15876  -0.16641  -1.13764
  21   38783.6    257.8   0.001499115   0.01273  -0.03448   0.10152  -0.03507
  22   38937.5    256.8   0.044714873   0.37806   0.18937  -0.56215   0.16181
  23   39468.0    253.4   0.173016371   1.44317   0.19476  -0.90921  -0.76065
  24   39979.3    250.1   0.009483948   0.07810  -0.01775  -0.06505  -0.27120
  25   40261.7    248.4   0.001970150   0.01611   0.01410  -0.07236  -0.10332

FINAL SINGLE POINT ENERGY     -5123.110027335350

DIPOLE MOMENT
-------------
                                X             Y             Z
Electronic contribution:     -4.87518      12.23739       6.72575
Nuclear contribution   :      4.04694     -11.36224      -7.10716
                        -----------------------------------------
Total Dipole Moment    :     -0.82823       0.87515      -0.38141
                        -----------------------------------------
Magnitude (a.u.)       :      1.26385
Magnitude (Debye)      :      3.21246

Rotational constants in cm-1:     0.003224     0.000196     0.000186
Rotational constants in MHz :    96.658673     5.875842     5.569679

                             ****ORCA TERMINATED NORMALLY****
TOTAL RUN TIME: 0 days 0 hours 8 minutes 10 seconds 286 msec
