                         Program Version 4.2.0 -  RELEASE  -
|  1> # ORCA input file
|  2> # SCF done       -173.685552691480          0.000610782354
|  3> ! CAM-B3LYP def2-SVP def2/J RIJCOSX Grid4 TightSCF
|  4> %maxcore 5000
|  5> %tddft
|  6>     Mode sTDDFT
|  7>     Ethresh 5.0
|  8>     maxcore 5000
|  9> end
| 10>
| 11> %pal
| 12>   nprocs 6
| 13>   end
| 14> * xyz 0 1
| 15>    C       -1.34323        -1.31852        -1.01767
| 16>    C       -2.42020        -0.41518        -0.91715
| 17>    C       -2.23611         0.87690        -1.39227
| 18>    C       -1.02139         1.27487        -1.95649
| 19>    C        0.04055         0.35036        -2.04627
| 20>    C       -0.14181        -0.94985        -1.56665
| 21>    N        1.22196         0.74782        -2.60252
| 22>    C        1.51112         2.00030        -3.11261
| 23>    O        2.60218         2.23220        -3.58617
| 24>    C        0.39201         2.94556        -3.00889
| 25>    C       -0.79961         2.58808        -2.45921
| 26>    C        0.58717         4.25417        -3.50278
| 27>    N        0.71264         5.32384        -3.89453
| 28>    C       -3.67643        -0.83820        -0.34640
| 29>    C       -4.80944        -0.09191        -0.10434
| 30>    C       -5.86518        -0.82652         0.43703
| 31>    C       -5.53374        -2.16197         0.61314
| 32>    S       -3.92199        -2.50598         0.11915
| 33>    C       -6.52610        -3.03682         1.12330
| 34>    C       -7.77345        -2.49058         1.40845
| 35>   Ge       -7.73245        -0.56232         1.01681
| 36>    C       -7.89762         0.58187         2.62983
| 37>    C       -8.94632        -0.00896        -0.45141
| 38>    C       -8.66936        -3.44938         1.86689
| 39>    C       -8.12362        -4.71927         1.94440
| 40>    S       -6.45679        -4.72747         1.43564
| 41>    C       -8.78472        -5.91020         2.37296
| 42>    C       -8.14157        -7.14809         2.45901
| 43>    O       -6.84176        -7.13727         2.06596
| 44>    C       -5.88422        -8.01132         2.62614
| 45>    C       -8.81635        -8.34551         2.85033
| 46>    O       -8.08871        -9.50502         2.73306
| 47>    C       -8.67334       -10.57019         2.00570
| 48>    C      -10.13945        -8.34215         3.27910
| 49>    C      -10.81855        -7.10371         3.16736
| 50>    C      -10.16173        -5.90452         2.71611
| 51>    N      -11.06140        -4.94192         2.73508
| 52>    O      -12.19739        -5.49575         3.16870
| 53>    N      -12.06948        -6.79461         3.43607
| 54>    C      -10.82363        -9.47692         3.83833
| 55>    C      -10.29574       -10.48314         4.62072
| 56>    C      -11.24524       -11.41710         5.03434
| 57>    C      -12.51189       -11.11231         4.55500
| 58>    S      -12.54240        -9.66435         3.62312
| 59>    C      -13.56798       -12.00361         4.88276
| 60>    C      -13.26728       -13.11231         5.65868
| 61>   Ge      -11.34681       -13.07203         6.09634
| 62>    C      -10.31484       -14.57951         5.31795
| 63>    C      -10.97560       -12.80253         8.02634
| 64>    C      -14.38971       -13.90873         5.89154
| 65>    C      -15.54189       -13.43074         5.30652
| 66>    S      -15.22860       -11.94373         4.44251
| 67>    C      -16.86946       -13.99817         5.32972
| 68>    C      -17.92829       -13.36194         4.65158
| 69>    C      -19.19772       -13.88109         4.64875
| 70>    C      -19.47057       -15.07087         5.32998
| 71>    C      -18.42846       -15.72622         6.01933
| 72>    C      -17.14316       -15.17836         6.00838
| 73>    C      -18.74374       -16.93486         6.70210
| 74>    C      -20.00397       -17.44608         6.69406
| 75>    C      -21.10434       -16.78123         5.98392
| 76>    O      -22.25232       -17.16388         5.92540
| 77>    N      -20.72175       -15.61567         5.34466
| 78>    C      -20.29157       -18.64756         7.37847
| 79>    N      -20.49094       -19.62472         7.94333
| 80>    H       -1.47371        -2.32591        -0.65164
| 81>    H       -3.03537         1.59893        -1.33992
| 82>    H        0.66958        -1.65952        -1.63393
| 83>    H        1.97743         0.07416        -2.66214
| 84>    H       -1.60295         3.30992        -2.39939
| 85>    H       -4.87931         0.96171        -0.31001
| 86>    H       -7.20361         0.25542         3.39784
| 87>    H       -8.90691         0.52222         3.02475
| 88>    H       -7.68346         1.61713         2.38287
| 89>    H       -8.80633        -0.64639        -1.31856
| 90>    H       -8.74944         1.01951        -0.73787
| 91>    H       -9.97903        -0.08576        -0.12623
| 92>    H       -9.69116        -3.25323         2.13664
| 93>    H       -4.93372        -7.48093         2.55284
| 94>    H       -5.82287        -8.94563         2.06530
| 95>    H       -6.10324        -8.23213         3.67167
| 96>    H       -9.15196       -11.29458         2.67005
| 97>    H       -7.85600       -11.05693         1.47200
| 98>    H       -9.41046       -10.20538         1.28768
| 99>    H       -9.25871       -10.50969         4.90976
|100>    H      -10.55964       -14.70724         4.26824
|101>    H      -10.54478       -15.50114         5.84332
|102>    H       -9.24967       -14.38940         5.40772
|103>    H      -11.55714       -11.97003         8.40930
|104>    H       -9.92183       -12.59104         8.17899
|105>    H      -11.23311       -13.69544         8.58739
|106>    H      -14.35074       -14.81263         6.47331
|107>    H      -17.72961       -12.44255         4.12141
|108>    H      -19.99356       -13.37637         4.12120
|109>    H      -16.36323       -15.69750         6.54241
|110>    H      -17.95686       -17.45077         7.23568
|111>    H      -21.46279       -15.13574         4.84592
|112> *
|113>
|114>                          ****END OF INPUT****

CARTESIAN COORDINATES (ANGSTROEM)
---------------------------------
  C     -1.343230   -1.318520   -1.017670
  C     -2.420200   -0.415180   -0.917150
  C     -2.236110    0.876900   -1.392270
  C     -1.021390    1.274870   -1.956490
  C      0.040550    0.350360   -2.046270
  C     -0.141810   -0.949850   -1.566650
  N      1.221960    0.747820   -2.602520
  C      1.511120    2.000300   -3.112610
  O      2.602180    2.232200   -3.586170
  C      0.392010    2.945560   -3.008890
  C     -0.799610    2.588080   -2.459210
  C      0.587170    4.254170   -3.502780
  N      0.712640    5.323840   -3.894530
  C     -3.676430   -0.838200   -0.346400
  C     -4.809440   -0.091910   -0.104340
  C     -5.865180   -0.826520    0.437030
  C     -5.533740   -2.161970    0.613140
  S     -3.921990   -2.505980    0.119150
  C     -6.526100   -3.036820    1.123300
  C     -7.773450   -2.490580    1.408450
  Ge    -7.732450   -0.562320    1.016810
  C     -7.897620    0.581870    2.629830
  C     -8.946320   -0.008960   -0.451410
  C     -8.669360   -3.449380    1.866890
  C     -8.123620   -4.719270    1.944400
  S     -6.456790   -4.727470    1.435640
  C     -8.784720   -5.910200    2.372960
  C     -8.141570   -7.148090    2.459010
  O     -6.841760   -7.137270    2.065960
  C     -5.884220   -8.011320    2.626140
  C     -8.816350   -8.345510    2.850330
  O     -8.088710   -9.505020    2.733060
  C     -8.673340  -10.570190    2.005700
  C    -10.139450   -8.342150    3.279100
  C    -10.818550   -7.103710    3.167360
  C    -10.161730   -5.904520    2.716110
  N    -11.061400   -4.941920    2.735080
  O    -12.197390   -5.495750    3.168700
  N    -12.069480   -6.794610    3.436070
  C    -10.823630   -9.476920    3.838330
  C    -10.295740  -10.483140    4.620720
  C    -11.245240  -11.417100    5.034340
  C    -12.511890  -11.112310    4.555000
  S    -12.542400   -9.664350    3.623120
  C    -13.567980  -12.003610    4.882760
  C    -13.267280  -13.112310    5.658680
  Ge   -11.346810  -13.072030    6.096340
  C    -10.314840  -14.579510    5.317950
  C    -10.975600  -12.802530    8.026340
  C    -14.389710  -13.908730    5.891540
  C    -15.541890  -13.430740    5.306520
  S    -15.228600  -11.943730    4.442510
  C    -16.869460  -13.998170    5.329720
  C    -17.928290  -13.361940    4.651580
  C    -19.197720  -13.881090    4.648750
  C    -19.470570  -15.070870    5.329980
  C    -18.428460  -15.726220    6.019330
  C    -17.143160  -15.178360    6.008380
  C    -18.743740  -16.934860    6.702100
  C    -20.003970  -17.446080    6.694060
  C    -21.104340  -16.781230    5.983920
  O    -22.252320  -17.163880    5.925400
  N    -20.721750  -15.615670    5.344660
  C    -20.291570  -18.647560    7.378470
  N    -20.490940  -19.624720    7.943330
  H     -1.473710   -2.325910   -0.651640
  H     -3.035370    1.598930   -1.339920
  H      0.669580   -1.659520   -1.633930
  H      1.977430    0.074160   -2.662140
  H     -1.602950    3.309920   -2.399390
  H     -4.879310    0.961710   -0.310010
  H     -7.203610    0.255420    3.397840
  H     -8.906910    0.522220    3.024750
  H     -7.683460    1.617130    2.382870
  H     -8.806330   -0.646390   -1.318560
  H     -8.749440    1.019510   -0.737870
  H     -9.979030   -0.085760   -0.126230
  H     -9.691160   -3.253230    2.136640
  H     -4.933720   -7.480930    2.552840
  H     -5.822870   -8.945630    2.065300
  H     -6.103240   -8.232130    3.671670
  H     -9.151960  -11.294580    2.670050
  H     -7.856000  -11.056930    1.472000
  H     -9.410460  -10.205380    1.287680
  H     -9.258710  -10.509690    4.909760
  H    -10.559640  -14.707240    4.268240
  H    -10.544780  -15.501140    5.843320
  H     -9.249670  -14.389400    5.407720
  H    -11.557140  -11.970030    8.409300
  H     -9.921830  -12.591040    8.178990
  H    -11.233110  -13.695440    8.587390
  H    -14.350740  -14.812630    6.473310
  H    -17.729610  -12.442550    4.121410
  H    -19.993560  -13.376370    4.121200
  H    -16.363230  -15.697500    6.542410
  H    -17.956860  -17.450770    7.235680
  H    -21.462790  -15.135740    4.845920

 Total Charge           Charge          ....    0
 Multiplicity           Mult            ....    1
 Number of Electrons    NEL             ....  530
 Basis Dimension        Dim             .... 1122

ORBITAL ENERGIES
----------------

  NO   OCC          E(Eh)            E(eV)
   0   2.0000    -398.778100    -10851.3038
   1   2.0000    -398.768261    -10851.0360
   2   2.0000     -88.964934     -2420.8589
   3   2.0000     -88.962433     -2420.7909
   4   2.0000     -88.958606     -2420.6867
   5   2.0000     -88.952397     -2420.5178
   6   2.0000     -49.837572     -1356.1493
   7   2.0000     -49.827721     -1355.8812
   8   2.0000     -44.374786     -1207.4993
   9   2.0000     -44.374074     -1207.4800
  10   2.0000     -44.373733     -1207.4707
  11   2.0000     -44.364926     -1207.2310
  12   2.0000     -44.364232     -1207.2121
  13   2.0000     -44.363884     -1207.2026
  14   2.0000     -19.348063      -526.4876
  15   2.0000     -19.263909      -524.1976
  16   2.0000     -19.261462      -524.1310
  17   2.0000     -19.189319      -522.1679
  18   2.0000     -19.186655      -522.0954
  19   2.0000     -14.475855      -393.9080
  20   2.0000     -14.474686      -393.8762
  21   2.0000     -14.473341      -393.8396
  22   2.0000     -14.470792      -393.7703
  23   2.0000     -14.400340      -391.8532
  24   2.0000     -14.397880      -391.7862
  25   2.0000     -10.390904      -282.7509
  26   2.0000     -10.388227      -282.6780
  27   2.0000     -10.360806      -281.9319
  28   2.0000     -10.357695      -281.8472
  29   2.0000     -10.347156      -281.5604
  30   2.0000     -10.343798      -281.4691
  31   2.0000     -10.331034      -281.1217
  32   2.0000     -10.328956      -281.0652
  33   2.0000     -10.324938      -280.9559
  34   2.0000     -10.324414      -280.9416
  35   2.0000     -10.323915      -280.9280
  36   2.0000     -10.322121      -280.8792
  37   2.0000     -10.321182      -280.8536
  38   2.0000     -10.318310      -280.7755
  39   2.0000     -10.308611      -280.5116
  40   2.0000     -10.308586      -280.5109
  41   2.0000     -10.308303      -280.5032
  42   2.0000     -10.307744      -280.4880
  43   2.0000     -10.307076      -280.4698
  44   2.0000     -10.304571      -280.4016
  45   2.0000     -10.304517      -280.4002
  46   2.0000     -10.302513      -280.3456
  47   2.0000     -10.301384      -280.3149
  48   2.0000     -10.301322      -280.3132
  49   2.0000     -10.301290      -280.3123
  50   2.0000     -10.300830      -280.2998
  51   2.0000     -10.300592      -280.2934
  52   2.0000     -10.299579      -280.2658
  53   2.0000     -10.298584      -280.2387
  54   2.0000     -10.298409      -280.2340
  55   2.0000     -10.297736      -280.2156
  56   2.0000     -10.297315      -280.2042
  57   2.0000     -10.297041      -280.1967
  58   2.0000     -10.295629      -280.1583
  59   2.0000     -10.294302      -280.1222
  60   2.0000     -10.293089      -280.0892
  61   2.0000     -10.281602      -279.7766
  62   2.0000     -10.281051      -279.7616
  63   2.0000     -10.275582      -279.6128
  64   2.0000     -10.268309      -279.4149
  65   2.0000     -10.267251      -279.3861
  66   2.0000     -10.266483      -279.3652
  67   2.0000     -10.265704      -279.3440
  68   2.0000     -10.264680      -279.3161
  69   2.0000     -10.259194      -279.1669
  70   2.0000     -10.258052      -279.1358
  71   2.0000     -10.257706      -279.1264
  72   2.0000     -10.254576      -279.0412
  73   2.0000      -8.060299      -219.3319
  74   2.0000      -8.057439      -219.2541
  75   2.0000      -8.053902      -219.1578
  76   2.0000      -8.046455      -218.9552
  77   2.0000      -6.297433      -171.3619
  78   2.0000      -6.287573      -171.0936
  79   2.0000      -6.029446      -164.0696
  80   2.0000      -6.026664      -163.9939
  81   2.0000      -6.025510      -163.9625
  82   2.0000      -6.023045      -163.8954
  83   2.0000      -6.022548      -163.8819
  84   2.0000      -6.022482      -163.8801
  85   2.0000      -6.019706      -163.8045
  86   2.0000      -6.019130      -163.7889
  87   2.0000      -6.016190      -163.7089
  88   2.0000      -6.015817      -163.6987
  89   2.0000      -6.011502      -163.5813
  90   2.0000      -6.008731      -163.5059
  91   2.0000      -4.473644      -121.7340
  92   2.0000      -4.472579      -121.7051
  93   2.0000      -4.471609      -121.6787
  94   2.0000      -4.463768      -121.4653
  95   2.0000      -4.462719      -121.4367
  96   2.0000      -4.461770      -121.4109
  97   2.0000      -1.301082       -35.4042
  98   2.0000      -1.297690       -35.3119
  99   2.0000      -1.295765       -35.2595
 100   2.0000      -1.295410       -35.2499
 101   2.0000      -1.294411       -35.2227
 102   2.0000      -1.293917       -35.2093
 103   2.0000      -1.287816       -35.0433
 104   2.0000      -1.285876       -34.9905
 105   2.0000      -1.285574       -34.9822
 106   2.0000      -1.284578       -34.9551
 107   2.0000      -1.284052       -34.9408
 108   2.0000      -1.177382       -32.0382
 109   2.0000      -1.153158       -31.3790
 110   2.0000      -1.138114       -30.9696
 111   2.0000      -1.135420       -30.8963
 112   2.0000      -1.060028       -28.8448
 113   2.0000      -1.057208       -28.7681
 114   2.0000      -1.010626       -27.5005
 115   2.0000      -1.004721       -27.3398
 116   2.0000      -0.998211       -27.1627
 117   2.0000      -0.992381       -27.0040
 118   2.0000      -0.986455       -26.8428
 119   2.0000      -0.984022       -26.7766
 120   2.0000      -0.979727       -26.6597
 121   2.0000      -0.972259       -26.4565
 122   2.0000      -0.963415       -26.2159
 123   2.0000      -0.957742       -26.0615
 124   2.0000      -0.933805       -25.4101
 125   2.0000      -0.930831       -25.3292
 126   2.0000      -0.915236       -24.9048
 127   2.0000      -0.901409       -24.5286
 128   2.0000      -0.885145       -24.0860
 129   2.0000      -0.875017       -23.8104
 130   2.0000      -0.864803       -23.5325
 131   2.0000      -0.861542       -23.4438
 132   2.0000      -0.853223       -23.2174
 133   2.0000      -0.843300       -22.9474
 134   2.0000      -0.837078       -22.7781
 135   2.0000      -0.834576       -22.7100
 136   2.0000      -0.825693       -22.4683
 137   2.0000      -0.820317       -22.3220
 138   2.0000      -0.817523       -22.2459
 139   2.0000      -0.807280       -21.9672
 140   2.0000      -0.795551       -21.6480
 141   2.0000      -0.786770       -21.4091
 142   2.0000      -0.785675       -21.3793
 143   2.0000      -0.773059       -21.0360
 144   2.0000      -0.772033       -21.0081
 145   2.0000      -0.767641       -20.8886
 146   2.0000      -0.764403       -20.8005
 147   2.0000      -0.763715       -20.7817
 148   2.0000      -0.752086       -20.4653
 149   2.0000      -0.749412       -20.3925
 150   2.0000      -0.744576       -20.2610
 151   2.0000      -0.736389       -20.0382
 152   2.0000      -0.724314       -19.7096
 153   2.0000      -0.722340       -19.6559
 154   2.0000      -0.701979       -19.1018
 155   2.0000      -0.688042       -18.7226
 156   2.0000      -0.677286       -18.4299
 157   2.0000      -0.671217       -18.2647
 158   2.0000      -0.660794       -17.9811
 159   2.0000      -0.658331       -17.9141
 160   2.0000      -0.656939       -17.8762
 161   2.0000      -0.654013       -17.7966
 162   2.0000      -0.645314       -17.5599
 163   2.0000      -0.642195       -17.4750
 164   2.0000      -0.634659       -17.2699
 165   2.0000      -0.627179       -17.0664
 166   2.0000      -0.621037       -16.8993
 167   2.0000      -0.616274       -16.7697
 168   2.0000      -0.606639       -16.5075
 169   2.0000      -0.606191       -16.4953
 170   2.0000      -0.603625       -16.4255
 171   2.0000      -0.602312       -16.3897
 172   2.0000      -0.601649       -16.3717
 173   2.0000      -0.591701       -16.1010
 174   2.0000      -0.588331       -16.0093
 175   2.0000      -0.581770       -15.8308
 176   2.0000      -0.580029       -15.7834
 177   2.0000      -0.574988       -15.6462
 178   2.0000      -0.568414       -15.4673
 179   2.0000      -0.564072       -15.3492
 180   2.0000      -0.557099       -15.1594
 181   2.0000      -0.554321       -15.0838
 182   2.0000      -0.553008       -15.0481
 183   2.0000      -0.551859       -15.0168
 184   2.0000      -0.550261       -14.9734
 185   2.0000      -0.548332       -14.9209
 186   2.0000      -0.544257       -14.8100
 187   2.0000      -0.539880       -14.6909
 188   2.0000      -0.531089       -14.4517
 189   2.0000      -0.529499       -14.4084
 190   2.0000      -0.525467       -14.2987
 191   2.0000      -0.519352       -14.1323
 192   2.0000      -0.518122       -14.0988
 193   2.0000      -0.516092       -14.0436
 194   2.0000      -0.512904       -13.9568
 195   2.0000      -0.509355       -13.8603
 196   2.0000      -0.506513       -13.7829
 197   2.0000      -0.501355       -13.6426
 198   2.0000      -0.500129       -13.6092
 199   2.0000      -0.495207       -13.4753
 200   2.0000      -0.494424       -13.4540
 201   2.0000      -0.493708       -13.4345
 202   2.0000      -0.491545       -13.3756
 203   2.0000      -0.490682       -13.3521
 204   2.0000      -0.487210       -13.2577
 205   2.0000      -0.485551       -13.2125
 206   2.0000      -0.484805       -13.1922
 207   2.0000      -0.484036       -13.1713
 208   2.0000      -0.482229       -13.1221
 209   2.0000      -0.480818       -13.0837
 210   2.0000      -0.480241       -13.0680
 211   2.0000      -0.477577       -12.9955
 212   2.0000      -0.473088       -12.8734
 213   2.0000      -0.472708       -12.8630
 214   2.0000      -0.469506       -12.7759
 215   2.0000      -0.465477       -12.6663
 216   2.0000      -0.463485       -12.6121
 217   2.0000      -0.457812       -12.4577
 218   2.0000      -0.455532       -12.3957
 219   2.0000      -0.454722       -12.3736
 220   2.0000      -0.453577       -12.3425
 221   2.0000      -0.453006       -12.3269
 222   2.0000      -0.451207       -12.2780
 223   2.0000      -0.448829       -12.2133
 224   2.0000      -0.443284       -12.0624
 225   2.0000      -0.439417       -11.9571
 226   2.0000      -0.432152       -11.7595
 227   2.0000      -0.429966       -11.7000
 228   2.0000      -0.429024       -11.6743
 229   2.0000      -0.427381       -11.6296
 230   2.0000      -0.424774       -11.5587
 231   2.0000      -0.421964       -11.4822
 232   2.0000      -0.416570       -11.3355
 233   2.0000      -0.410186       -11.1617
 234   2.0000      -0.406287       -11.0556
 235   2.0000      -0.404496       -11.0069
 236   2.0000      -0.403892       -10.9905
 237   2.0000      -0.401629       -10.9289
 238   2.0000      -0.400190       -10.8897
 239   2.0000      -0.395019       -10.7490
 240   2.0000      -0.391926       -10.6648
 241   2.0000      -0.390285       -10.6202
 242   2.0000      -0.386535       -10.5181
 243   2.0000      -0.385463       -10.4890
 244   2.0000      -0.377851       -10.2819
 245   2.0000      -0.377579       -10.2745
 246   2.0000      -0.368093       -10.0163
 247   2.0000      -0.367797       -10.0083
 248   2.0000      -0.359583        -9.7848
 249   2.0000      -0.356082        -9.6895
 250   2.0000      -0.354489        -9.6461
 251   2.0000      -0.346256        -9.4221
 252   2.0000      -0.343724        -9.3532
 253   2.0000      -0.332759        -9.0548
 254   2.0000      -0.328762        -8.9461
 255   2.0000      -0.327220        -8.9041
 256   2.0000      -0.323725        -8.8090
 257   2.0000      -0.321497        -8.7484
 258   2.0000      -0.319732        -8.7004
 259   2.0000      -0.313927        -8.5424
 260   2.0000      -0.312431        -8.5017
 261   2.0000      -0.299317        -8.1448
 262   2.0000      -0.281094        -7.6490
 263   2.0000      -0.250020        -6.8034
 264   2.0000      -0.226618        -6.1666
 265   0.0000      -0.072181        -1.9642
 266   0.0000      -0.053990        -1.4691
 267   0.0000      -0.051139        -1.3916
 268   0.0000      -0.038791        -1.0556
 269   0.0000      -0.028955        -0.7879

MULLIKEN ATOMIC CHARGES
-----------------------
   0 C :   -0.034467
   1 C :    0.182571
   2 C :   -0.109762
   3 C :    0.048824
   4 C :    0.087601
   5 C :   -0.018585
   6 N :   -0.028118
   7 C :    0.125335
   8 O :   -0.169837
   9 C :   -0.229226
  10 C :    0.084162
  11 C :   -0.139069
  12 N :    0.121907
  13 C :   -0.071224
  14 C :   -0.048445
  15 C :   -0.084693
  16 C :   -0.089206
  17 S :    0.111388
  18 C :   -0.064566
  19 C :   -0.077574
  20 Ge:    0.443263
  21 C :   -0.190969
  22 C :   -0.194203
  23 C :   -0.053297
  24 C :   -0.154266
  25 S :    0.150187
  26 C :    0.134714
  27 C :    0.101868
  28 O :   -0.337702
  29 C :    0.216495
  30 C :    0.032782
  31 O :   -0.351830
  32 C :    0.194173
  33 C :    0.122444
  34 C :   -0.082240
  35 C :   -0.056468
  36 N :    0.035638
  37 O :   -0.100499
  38 N :    0.040157
  39 C :   -0.194340
  40 C :   -0.024084
  41 C :   -0.106918
  42 C :   -0.072867
  43 S :    0.189539
  44 C :   -0.090763
  45 C :   -0.082061
  46 Ge:    0.442777
  47 C :   -0.195472
  48 C :   -0.190227
  49 C :   -0.049359
  50 C :   -0.068564
  51 S :    0.122181
  52 C :    0.182775
  53 C :   -0.036291
  54 C :   -0.017371
  55 C :    0.088784
  56 C :    0.046426
  57 C :   -0.105538
  58 C :    0.087754
  59 C :   -0.230106
  60 C :    0.127033
  61 O :   -0.169048
  62 N :   -0.028110
  63 C :   -0.137611
  64 N :    0.121754
  65 H :   -0.001197
  66 H :   -0.028304
  67 H :   -0.030085
  68 H :    0.132800
  69 H :    0.008343
  70 H :   -0.027514
  71 H :    0.054482
  72 H :    0.046071
  73 H :    0.041051
  74 H :    0.055279
  75 H :    0.040922
  76 H :    0.047770
  77 H :   -0.007969
  78 H :    0.028803
  79 H :    0.026644
  80 H :    0.023219
  81 H :    0.037987
  82 H :    0.030215
  83 H :    0.031603
  84 H :   -0.013020
  85 H :    0.054245
  86 H :    0.044736
  87 H :    0.043919
  88 H :    0.058079
  89 H :    0.044382
  90 H :    0.043641
  91 H :   -0.027135
  92 H :    0.001378
  93 H :   -0.028799
  94 H :   -0.030270
  95 H :    0.007446
  96 H :    0.133726
Sum of atomic charges:   -0.0000000

LOEWDIN ATOMIC CHARGES
----------------------
   0 C :    0.002100
   1 C :   -0.045745
   2 C :    0.008455
   3 C :   -0.059792
   4 C :    0.047056
   5 C :   -0.045888
   6 N :    0.047901
   7 C :    0.069109
   8 O :   -0.195853
   9 C :   -0.113388
  10 C :    0.067731
  11 C :   -0.024209
  12 N :   -0.046201
  13 C :   -0.172795
  14 C :   -0.056365
  15 C :   -0.168935
  16 C :   -0.188098
  17 S :    0.428601
  18 C :   -0.200476
  19 C :   -0.169798
  20 Ge:    0.513110
  21 C :   -0.201604
  22 C :   -0.202139
  23 C :   -0.047355
  24 C :   -0.175504
  25 S :    0.455776
  26 C :   -0.065625
  27 C :    0.041263
  28 O :   -0.102680
  29 C :    0.083388
  30 C :    0.036845
  31 O :   -0.114561
  32 C :    0.083042
  33 C :   -0.083083
  34 C :   -0.057693
  35 C :   -0.044319
  36 N :   -0.029251
  37 O :    0.066315
  38 N :   -0.038035
  39 C :   -0.179516
  40 C :   -0.050857
  41 C :   -0.176154
  42 C :   -0.192177
  43 S :    0.471183
  44 C :   -0.191156
  45 C :   -0.168515
  46 Ge:    0.511936
  47 C :   -0.203005
  48 C :   -0.200764
  49 C :   -0.057038
  50 C :   -0.169113
  51 S :    0.437341
  52 C :   -0.047176
  53 C :    0.003041
  54 C :   -0.044426
  55 C :    0.048410
  56 C :   -0.059789
  57 C :    0.009440
  58 C :    0.067441
  59 C :   -0.112614
  60 C :    0.069624
  61 O :   -0.194080
  62 N :    0.048184
  63 C :   -0.024148
  64 N :   -0.045323
  65 H :    0.025683
  66 H :    0.030659
  67 H :    0.031918
  68 H :    0.098983
  69 H :    0.046489
  70 H :    0.024807
  71 H :    0.040281
  72 H :    0.036991
  73 H :    0.034677
  74 H :    0.040613
  75 H :    0.034719
  76 H :    0.037591
  77 H :    0.028201
  78 H :    0.021211
  79 H :    0.017343
  80 H :    0.018838
  81 H :    0.018368
  82 H :    0.022271
  83 H :    0.022721
  84 H :    0.028722
  85 H :    0.039689
  86 H :    0.036357
  87 H :    0.035751
  88 H :    0.041889
  89 H :    0.036328
  90 H :    0.035954
  91 H :    0.025152
  92 H :    0.026552
  93 H :    0.032821
  94 H :    0.030382
  95 H :    0.046375
  96 H :    0.099612

  Mayer bond orders larger than 0.100000
B(  0-C ,  1-C ) :   1.2693 B(  0-C ,  5-C ) :   1.4481 B(  0-C , 65-H ) :   0.9802
B(  1-C ,  2-C ) :   1.3786 B(  1-C , 13-C ) :   1.0621 B(  2-C ,  3-C ) :   1.2794
B(  2-C , 66-H ) :   1.0032 B(  3-C ,  4-C ) :   1.2970 B(  3-C , 10-C ) :   1.1282
B(  4-C ,  5-C ) :   1.2924 B(  4-C ,  6-N ) :   1.1951 B(  5-C , 67-H ) :   0.9916
B(  6-N ,  7-C ) :   1.0903 B(  6-N , 68-H ) :   0.9023 B(  7-C ,  8-O ) :   2.2410
B(  7-C ,  9-C ) :   0.9506 B(  9-C , 10-C ) :   1.6409 B(  9-C , 11-C ) :   1.1106
B( 10-C , 69-H ) :   0.9857 B( 11-C , 12-N ) :   3.0430 B( 13-C , 14-C ) :   1.5149
B( 13-C , 16-C ) :   0.1024 B( 13-C , 17-S ) :   1.1071 B( 14-C , 15-C ) :   1.2434
B( 14-C , 70-H ) :   0.9927 B( 15-C , 16-C ) :   1.5337 B( 15-C , 20-Ge) :   0.8776
B( 16-C , 17-S ) :   1.1026 B( 16-C , 18-C ) :   1.1468 B( 18-C , 19-C ) :   1.5001
B( 18-C , 25-S ) :   1.0788 B( 19-C , 20-Ge) :   0.8887 B( 19-C , 23-C ) :   1.2419
B( 20-Ge, 21-C ) :   1.0129 B( 20-Ge, 22-C ) :   1.0116 B( 21-C , 71-H ) :   0.9586
B( 21-C , 72-H ) :   0.9611 B( 21-C , 73-H ) :   0.9610 B( 22-C , 74-H ) :   0.9597
B( 22-C , 75-H ) :   0.9609 B( 22-C , 76-H ) :   0.9607 B( 23-C , 24-C ) :   1.4842
B( 23-C , 77-H ) :   0.9849 B( 24-C , 25-S ) :   1.1010 B( 24-C , 26-C ) :   1.1456
B( 26-C , 27-C ) :   1.4398 B( 26-C , 33-C ) :   0.1098 B( 26-C , 35-C ) :   1.1441
B( 27-C , 28-O ) :   1.1659 B( 27-C , 30-C ) :   1.1355 B( 28-O , 29-C ) :   0.9176
B( 29-C , 78-H ) :   0.9742 B( 29-C , 79-H ) :   0.9780 B( 29-C , 80-H ) :   0.9747
B( 30-C , 31-O ) :   1.1468 B( 30-C , 33-C ) :   1.4397 B( 31-O , 32-C ) :   0.9300
B( 32-C , 81-H ) :   0.9662 B( 32-C , 82-H ) :   0.9772 B( 32-C , 83-H ) :   0.9652
B( 33-C , 34-C ) :   1.1247 B( 33-C , 39-C ) :   1.0378 B( 34-C , 35-C ) :   1.1306
B( 34-C , 38-N ) :   1.6159 B( 35-C , 36-N ) :   1.6093 B( 36-N , 37-O ) :   1.0479
B( 36-N , 38-N ) :   0.1756 B( 37-O , 38-N ) :   1.0597 B( 39-C , 40-C ) :   1.4917
B( 39-C , 42-C ) :   0.1045 B( 39-C , 43-S ) :   1.1342 B( 40-C , 41-C ) :   1.2481
B( 40-C , 84-H ) :   1.0033 B( 41-C , 42-C ) :   1.5148 B( 41-C , 46-Ge) :   0.8859
B( 42-C , 43-S ) :   1.1095 B( 42-C , 44-C ) :   1.1401 B( 44-C , 45-C ) :   1.5374
B( 44-C , 50-C ) :   0.1033 B( 44-C , 51-S ) :   1.1075 B( 45-C , 46-Ge) :   0.8804
B( 45-C , 49-C ) :   1.2414 B( 46-Ge, 47-C ) :   1.0107 B( 46-Ge, 48-C ) :   1.0146
B( 47-C , 85-H ) :   0.9599 B( 47-C , 86-H ) :   0.9609 B( 47-C , 87-H ) :   0.9606
B( 48-C , 88-H ) :   0.9589 B( 48-C , 89-H ) :   0.9604 B( 48-C , 90-H ) :   0.9604
B( 49-C , 50-C ) :   1.5182 B( 49-C , 91-H ) :   0.9929 B( 50-C , 51-S ) :   1.1109
B( 50-C , 52-C ) :   1.0615 B( 52-C , 53-C ) :   1.2691 B( 52-C , 57-C ) :   1.3765
B( 53-C , 54-C ) :   1.4499 B( 53-C , 92-H ) :   0.9808 B( 54-C , 55-C ) :   1.2898
B( 54-C , 93-H ) :   0.9924 B( 55-C , 56-C ) :   1.2963 B( 55-C , 62-N ) :   1.1975
B( 56-C , 57-C ) :   1.2806 B( 56-C , 58-C ) :   1.1262 B( 57-C , 94-H ) :   1.0036
B( 58-C , 59-C ) :   1.6431 B( 58-C , 95-H ) :   0.9858 B( 59-C , 60-C ) :   0.9498
B( 59-C , 63-C ) :   1.1100 B( 60-C , 61-O ) :   2.2419 B( 60-C , 62-N ) :   1.0892
B( 62-N , 96-H ) :   0.9019 B( 63-C , 64-N ) :   3.0428

-----------------------------------------------------------------------------
         ABSORPTION SPECTRUM VIA TRANSITION ELECTRIC DIPOLE MOMENTS
-----------------------------------------------------------------------------
State   Energy  Wavelength   fosc         T2         TX        TY        TZ
        (cm-1)    (nm)                  (au**2)     (au)      (au)      (au)
-----------------------------------------------------------------------------
   0   18138.2    551.3   1.805047502  32.76195  -3.49113  -4.14253   1.84754
   1   24514.3    407.9   0.050090032   0.67268   0.77637   0.26440  -0.00515
   2   24666.2    405.4   0.104213608   1.39091  -0.39934  -1.04044   0.38591
   3   25724.5    388.7   0.103544531   1.32512   0.34721   0.95617  -0.53879
   4   27133.4    368.5   1.127348192  13.67822  -2.98167  -1.86940   1.13718
   5   27360.6    365.5   0.048014930   0.57773   0.57304   0.38112   0.32265
   6   32076.0    311.8   0.244479624   2.50921   1.52780   0.27599  -0.31443
   7   32364.5    309.0   0.034478943   0.35072   0.01666  -0.53535   0.25266
   8   33074.0    302.4   0.157921332   1.57192  -1.10680  -0.58877  -0.01617
   9   33523.0    298.3   0.099046035   0.97268   0.15261   0.90067  -0.37173
  10   35015.5    285.6   0.136770763   1.28590   1.03652  -0.30377  -0.34534
  11   35580.0    281.1   0.009339907   0.08642  -0.18000   0.22929   0.03802
  12   35860.7    278.9   0.061825997   0.56758  -0.65568   0.25839   0.26628
  13   36317.3    275.4   0.049342167   0.44728  -0.66704   0.04003  -0.02711
  14   36565.8    273.5   0.051303245   0.46190  -0.31185   0.56379  -0.21630
  15   37392.3    267.4   0.021262082   0.18720  -0.13342   0.07256   0.40513
  16   37552.2    266.3   0.001155603   0.01013  -0.02029   0.05706   0.08039
  17   37606.3    265.9   0.001141161   0.00999  -0.03258  -0.03864  -0.08623
  18   37910.6    263.8   0.072604916   0.63049   0.30844   0.65491  -0.32627
  19   38364.8    260.7   0.084128025   0.72191  -0.33054  -0.70804   0.33367
  20   38685.9    258.5   0.042968496   0.36566   0.45729  -0.35759   0.16932
  21   40284.8    248.2   0.131243868   1.07254   0.23661   0.92558  -0.39982

FINAL SINGLE POINT ENERGY     -8295.783949736735

DIPOLE MOMENT
-------------
                                X             Y             Z
Electronic contribution:    -11.00235      12.48397       7.57833
Nuclear contribution   :     12.07821     -14.13249      -6.82931
                        -----------------------------------------
Total Dipole Moment    :      1.07586      -1.64852       0.74901
                        -----------------------------------------
Magnitude (a.u.)       :      2.10621
Magnitude (Debye)      :      5.35356

Rotational constants in cm-1:     0.003190     0.000191     0.000184
Rotational constants in MHz :    95.623347     5.726979     5.501856

                             ****ORCA TERMINATED NORMALLY****
TOTAL RUN TIME: 0 days 0 hours 8 minutes 32 seconds 40 msec
