                         Program Version 4.2.0 -  RELEASE  -
|  1> # ORCA input file
|  2> # SCF done       -139.907273053884          0.000726913266
|  3> ! CAM-B3LYP def2-SVP def2/J RIJCOSX Grid4 TightSCF
|  4> %maxcore 5000
|  5> %tddft
|  6>     Mode sTDDFT
|  7>     Ethresh 5.0
|  8>     maxcore 5000
|  9> end
| 10>
| 11> %pal
| 12>   nprocs 6
| 13>   end
| 14> * xyz 0 1
| 15>    C       -2.40725        -2.05555        -5.45832
| 16>    C       -1.77039        -3.17570        -4.99253
| 17>    C       -0.86918        -4.02375        -5.80968
| 18>    O       -1.10779        -4.29489        -6.95104
| 19>    O        0.26248        -4.43295        -5.21509
| 20>    C       -2.21739        -3.25347        -3.62813
| 21>    N       -3.02070        -2.24083        -3.37276
| 22>    O       -3.12681        -1.50098        -4.49296
| 23>    C       -1.97494        -4.23940        -2.61203
| 24>    C       -2.41401        -4.14802        -1.31268
| 25>    C       -2.07583        -5.28239        -0.57053
| 26>    C       -1.38193        -6.24747        -1.30727
| 27>    S       -1.14501        -5.75005        -2.93800
| 28>    C       -1.05523        -7.37334        -0.54173
| 29>    C       -1.50873        -7.26004         0.77753
| 30>    S       -2.33639        -5.75794         1.08392
| 31>    C       -1.20661        -8.36803         1.56880
| 32>    C       -0.51761        -9.33034         0.86132
| 33>    S       -0.23699        -8.86180        -0.80598
| 34>    C       -0.06383       -10.58997         1.37065
| 35>    C        0.68077       -11.50410         0.63737
| 36>    F        1.01982       -11.22003        -0.63313
| 37>    C        1.12009       -12.73632         1.13962
| 38>    F        1.83631       -13.50515         0.29948
| 39>    C        0.85535       -13.18788         2.42543
| 40>    C        0.09256       -12.27818         3.20085
| 41>    C       -0.34850       -11.01947         2.69173
| 42>    N       -1.03474       -10.41613         3.67277
| 43>    N       -0.99454       -11.25676         4.66765
| 44>    N       -0.34980       -12.37081         4.46273
| 45>    C       -1.63142       -10.97087         5.91622
| 46>    C        1.29888       -14.44871         2.94168
| 47>    C        1.03769       -14.94713         4.20054
| 48>    C        1.61512       -16.20236         4.39023
| 49>    C        2.32348       -16.66855         3.27652
| 50>    S        2.27157       -15.54372         1.97692
| 51>    C        2.89273       -17.92783         3.50217
| 52>    C        2.61150       -18.41343         4.78505
| 53>    S        1.64179       -17.31717         5.72777
| 54>    C        3.16286       -19.67042         5.04394
| 55>    C        3.86637       -20.14304         3.95742
| 56>    S        3.86316       -19.02937         2.60293
| 57>    C        4.61094       -21.35670         3.83255
| 58>    C        4.66530       -22.53236         4.57232
| 59>    C        3.88862       -23.00696         5.73191
| 60>    O        4.35238       -23.70023         6.59094
| 61>    O        2.58952       -22.63960         5.76175
| 62>    C        5.69106       -23.27063         3.92385
| 63>    N        6.16624       -22.61873         2.90647
| 64>    O        5.51613       -21.43672         2.84223
| 65>    H       -2.39355        -1.58227        -6.41968
| 66>    H        0.35180        -4.13281        -4.30075
| 67>    H       -2.95087        -3.29474        -0.94462
| 68>    H       -1.46712        -8.48306         2.60320
| 69>    H       -2.06106        -9.97413         5.85482
| 70>    H       -0.90030       -11.01829         6.72328
| 71>    H       -2.41456       -11.70466         6.10975
| 72>    H        0.45741       -14.41269         4.92785
| 73>    H        3.07736       -20.18125         5.98531
| 74>    H        2.31599       -22.14151         4.98071
| 75>    H        6.05361       -24.24418         4.18171
| 76> *
| 77>
| 78>                          ****END OF INPUT****

CARTESIAN COORDINATES (ANGSTROEM)
---------------------------------
  C     -2.407250   -2.055550   -5.458320
  C     -1.770390   -3.175700   -4.992530
  C     -0.869180   -4.023750   -5.809680
  O     -1.107790   -4.294890   -6.951040
  O      0.262480   -4.432950   -5.215090
  C     -2.217390   -3.253470   -3.628130
  N     -3.020700   -2.240830   -3.372760
  O     -3.126810   -1.500980   -4.492960
  C     -1.974940   -4.239400   -2.612030
  C     -2.414010   -4.148020   -1.312680
  C     -2.075830   -5.282390   -0.570530
  C     -1.381930   -6.247470   -1.307270
  S     -1.145010   -5.750050   -2.938000
  C     -1.055230   -7.373340   -0.541730
  C     -1.508730   -7.260040    0.777530
  S     -2.336390   -5.757940    1.083920
  C     -1.206610   -8.368030    1.568800
  C     -0.517610   -9.330340    0.861320
  S     -0.236990   -8.861800   -0.805980
  C     -0.063830  -10.589970    1.370650
  C      0.680770  -11.504100    0.637370
  F      1.019820  -11.220030   -0.633130
  C      1.120090  -12.736320    1.139620
  F      1.836310  -13.505150    0.299480
  C      0.855350  -13.187880    2.425430
  C      0.092560  -12.278180    3.200850
  C     -0.348500  -11.019470    2.691730
  N     -1.034740  -10.416130    3.672770
  N     -0.994540  -11.256760    4.667650
  N     -0.349800  -12.370810    4.462730
  C     -1.631420  -10.970870    5.916220
  C      1.298880  -14.448710    2.941680
  C      1.037690  -14.947130    4.200540
  C      1.615120  -16.202360    4.390230
  C      2.323480  -16.668550    3.276520
  S      2.271570  -15.543720    1.976920
  C      2.892730  -17.927830    3.502170
  C      2.611500  -18.413430    4.785050
  S      1.641790  -17.317170    5.727770
  C      3.162860  -19.670420    5.043940
  C      3.866370  -20.143040    3.957420
  S      3.863160  -19.029370    2.602930
  C      4.610940  -21.356700    3.832550
  C      4.665300  -22.532360    4.572320
  C      3.888620  -23.006960    5.731910
  O      4.352380  -23.700230    6.590940
  O      2.589520  -22.639600    5.761750
  C      5.691060  -23.270630    3.923850
  N      6.166240  -22.618730    2.906470
  O      5.516130  -21.436720    2.842230
  H     -2.393550   -1.582270   -6.419680
  H      0.351800   -4.132810   -4.300750
  H     -2.950870   -3.294740   -0.944620
  H     -1.467120   -8.483060    2.603200
  H     -2.061060   -9.974130    5.854820
  H     -0.900300  -11.018290    6.723280
  H     -2.414560  -11.704660    6.109750
  H      0.457410  -14.412690    4.927850
  H      3.077360  -20.181250    5.985310
  H      2.315990  -22.141510    4.980710
  H      6.053610  -24.244180    4.181710

 Total Charge           Charge          ....    0
 Multiplicity           Mult            ....    1
 Number of Electrons    NEL             ....  394
 Basis Dimension        Dim             ....  779

ORBITAL ENERGIES
----------------

  NO   OCC          E(Eh)            E(eV)
   0   2.0000     -88.979730     -2421.2615
   1   2.0000     -88.978126     -2421.2179
   2   2.0000     -88.969999     -2420.9967
   3   2.0000     -88.969007     -2420.9698
   4   2.0000     -88.967652     -2420.9329
   5   2.0000     -88.965710     -2420.8800
   6   2.0000     -24.809123      -675.0906
   7   2.0000     -24.808028      -675.0608
   8   2.0000     -19.331096      -526.0259
   9   2.0000     -19.324297      -525.8408
  10   2.0000     -19.268004      -524.3090
  11   2.0000     -19.265378      -524.2376
  12   2.0000     -19.205587      -522.6106
  13   2.0000     -19.204567      -522.5828
  14   2.0000     -14.561140      -396.2288
  15   2.0000     -14.465846      -393.6357
  16   2.0000     -14.464176      -393.5902
  17   2.0000     -14.463150      -393.5623
  18   2.0000     -14.462550      -393.5460
  19   2.0000     -10.415676      -283.4249
  20   2.0000     -10.412915      -283.3498
  21   2.0000     -10.385311      -282.5987
  22   2.0000     -10.384032      -282.5639
  23   2.0000     -10.372976      -282.2630
  24   2.0000     -10.360310      -281.9184
  25   2.0000     -10.339376      -281.3487
  26   2.0000     -10.339337      -281.3477
  27   2.0000     -10.332093      -281.1506
  28   2.0000     -10.328214      -281.0450
  29   2.0000     -10.327273      -281.0194
  30   2.0000     -10.323131      -280.9067
  31   2.0000     -10.322991      -280.9029
  32   2.0000     -10.322857      -280.8992
  33   2.0000     -10.321874      -280.8725
  34   2.0000     -10.321312      -280.8572
  35   2.0000     -10.320436      -280.8334
  36   2.0000     -10.318421      -280.7785
  37   2.0000     -10.316786      -280.7340
  38   2.0000     -10.316254      -280.7195
  39   2.0000     -10.314642      -280.6757
  40   2.0000     -10.312898      -280.6282
  41   2.0000     -10.312858      -280.6271
  42   2.0000     -10.312749      -280.6242
  43   2.0000     -10.309505      -280.5359
  44   2.0000     -10.309319      -280.5308
  45   2.0000     -10.304284      -280.3938
  46   2.0000     -10.299377      -280.2603
  47   2.0000     -10.297186      -280.2007
  48   2.0000     -10.289021      -279.9785
  49   2.0000     -10.288006      -279.9509
  50   2.0000      -8.074483      -219.7179
  51   2.0000      -8.072990      -219.6772
  52   2.0000      -8.064541      -219.4473
  53   2.0000      -8.064067      -219.4344
  54   2.0000      -8.062434      -219.3900
  55   2.0000      -8.060914      -219.3486
  56   2.0000      -6.044051      -164.4670
  57   2.0000      -6.042501      -164.4248
  58   2.0000      -6.039878      -164.3534
  59   2.0000      -6.038390      -164.3129
  60   2.0000      -6.036128      -164.2514
  61   2.0000      -6.034645      -164.2111
  62   2.0000      -6.034204      -164.1990
  63   2.0000      -6.033849      -164.1894
  64   2.0000      -6.032080      -164.1412
  65   2.0000      -6.030654      -164.1024
  66   2.0000      -6.029968      -164.0838
  67   2.0000      -6.029870      -164.0811
  68   2.0000      -6.027762      -164.0237
  69   2.0000      -6.026811      -163.9979
  70   2.0000      -6.026149      -163.9799
  71   2.0000      -6.025015      -163.9490
  72   2.0000      -6.023971      -163.9206
  73   2.0000      -6.021849      -163.8628
  74   2.0000      -1.331944       -36.2440
  75   2.0000      -1.314059       -35.7574
  76   2.0000      -1.270788       -34.5799
  77   2.0000      -1.263732       -34.3879
  78   2.0000      -1.240278       -33.7497
  79   2.0000      -1.191159       -32.4131
  80   2.0000      -1.187038       -32.3009
  81   2.0000      -1.105735       -30.0886
  82   2.0000      -1.103179       -30.0190
  83   2.0000      -1.032341       -28.0914
  84   2.0000      -1.029291       -28.0084
  85   2.0000      -1.014392       -27.6030
  86   2.0000      -1.009823       -27.4787
  87   2.0000      -0.996685       -27.1212
  88   2.0000      -0.992687       -27.0124
  89   2.0000      -0.972598       -26.4657
  90   2.0000      -0.969584       -26.3837
  91   2.0000      -0.946645       -25.7595
  92   2.0000      -0.940103       -25.5815
  93   2.0000      -0.929211       -25.2851
  94   2.0000      -0.913437       -24.8559
  95   2.0000      -0.912282       -24.8245
  96   2.0000      -0.897376       -24.4188
  97   2.0000      -0.873765       -23.7764
  98   2.0000      -0.863310       -23.4919
  99   2.0000      -0.847970       -23.0744
 100   2.0000      -0.844659       -22.9843
 101   2.0000      -0.836341       -22.7580
 102   2.0000      -0.816044       -22.2057
 103   2.0000      -0.805022       -21.9058
 104   2.0000      -0.802218       -21.8295
 105   2.0000      -0.793696       -21.5976
 106   2.0000      -0.771703       -20.9991
 107   2.0000      -0.759068       -20.6553
 108   2.0000      -0.753444       -20.5022
 109   2.0000      -0.752002       -20.4630
 110   2.0000      -0.732613       -19.9354
 111   2.0000      -0.727137       -19.7864
 112   2.0000      -0.709249       -19.2996
 113   2.0000      -0.708511       -19.2796
 114   2.0000      -0.698140       -18.9974
 115   2.0000      -0.690112       -18.7789
 116   2.0000      -0.681254       -18.5379
 117   2.0000      -0.671547       -18.2737
 118   2.0000      -0.668955       -18.2032
 119   2.0000      -0.657213       -17.8837
 120   2.0000      -0.652669       -17.7600
 121   2.0000      -0.647794       -17.6274
 122   2.0000      -0.640965       -17.4415
 123   2.0000      -0.637992       -17.3607
 124   2.0000      -0.634410       -17.2632
 125   2.0000      -0.631204       -17.1759
 126   2.0000      -0.624759       -17.0006
 127   2.0000      -0.624148       -16.9839
 128   2.0000      -0.613618       -16.6974
 129   2.0000      -0.596321       -16.2267
 130   2.0000      -0.594643       -16.1811
 131   2.0000      -0.590266       -16.0620
 132   2.0000      -0.590134       -16.0584
 133   2.0000      -0.586872       -15.9696
 134   2.0000      -0.580304       -15.7909
 135   2.0000      -0.576923       -15.6989
 136   2.0000      -0.568315       -15.4646
 137   2.0000      -0.561993       -15.2926
 138   2.0000      -0.556833       -15.1522
 139   2.0000      -0.549452       -14.9514
 140   2.0000      -0.545166       -14.8347
 141   2.0000      -0.542092       -14.7511
 142   2.0000      -0.539326       -14.6758
 143   2.0000      -0.533326       -14.5125
 144   2.0000      -0.532121       -14.4797
 145   2.0000      -0.528653       -14.3854
 146   2.0000      -0.526278       -14.3208
 147   2.0000      -0.523809       -14.2536
 148   2.0000      -0.522010       -14.2046
 149   2.0000      -0.519206       -14.1283
 150   2.0000      -0.514683       -14.0052
 151   2.0000      -0.508699       -13.8424
 152   2.0000      -0.507905       -13.8208
 153   2.0000      -0.503290       -13.6952
 154   2.0000      -0.497627       -13.5411
 155   2.0000      -0.492622       -13.4049
 156   2.0000      -0.490303       -13.3418
 157   2.0000      -0.486167       -13.2293
 158   2.0000      -0.484072       -13.1723
 159   2.0000      -0.482960       -13.1420
 160   2.0000      -0.478440       -13.0190
 161   2.0000      -0.473718       -12.8905
 162   2.0000      -0.470221       -12.7954
 163   2.0000      -0.467465       -12.7204
 164   2.0000      -0.467307       -12.7161
 165   2.0000      -0.458034       -12.4638
 166   2.0000      -0.455221       -12.3872
 167   2.0000      -0.451109       -12.2753
 168   2.0000      -0.440259       -11.9801
 169   2.0000      -0.430817       -11.7231
 170   2.0000      -0.429857       -11.6970
 171   2.0000      -0.418616       -11.3911
 172   2.0000      -0.416474       -11.3328
 173   2.0000      -0.415532       -11.3072
 174   2.0000      -0.409874       -11.1532
 175   2.0000      -0.407165       -11.0795
 176   2.0000      -0.403574       -10.9818
 177   2.0000      -0.400143       -10.8885
 178   2.0000      -0.395849       -10.7716
 179   2.0000      -0.394411       -10.7325
 180   2.0000      -0.392164       -10.6713
 181   2.0000      -0.390329       -10.6214
 182   2.0000      -0.384400       -10.4601
 183   2.0000      -0.381843       -10.3905
 184   2.0000      -0.368797       -10.0355
 185   2.0000      -0.362243        -9.8571
 186   2.0000      -0.357514        -9.7284
 187   2.0000      -0.347715        -9.4618
 188   2.0000      -0.344776        -9.3818
 189   2.0000      -0.342762        -9.3270
 190   2.0000      -0.342515        -9.3203
 191   2.0000      -0.335325        -9.1247
 192   2.0000      -0.315324        -8.5804
 193   2.0000      -0.294737        -8.0202
 194   2.0000      -0.292765        -7.9665
 195   2.0000      -0.276740        -7.5305
 196   2.0000      -0.247987        -6.7481
 197   0.0000      -0.079805        -2.1716
 198   0.0000      -0.048617        -1.3229
 199   0.0000      -0.029269        -0.7965
 200   0.0000       0.001266         0.0345
 201   0.0000       0.008939         0.2433

MULLIKEN ATOMIC CHARGES
-----------------------
   0 C :    0.185115
   1 C :   -0.175772
   2 C :    0.164568
   3 O :   -0.161235
   4 O :   -0.156074
   5 C :    0.040074
   6 N :   -0.013717
   7 O :   -0.137970
   8 C :   -0.114018
   9 C :   -0.040624
  10 C :   -0.008422
  11 C :   -0.077942
  12 S :    0.141505
  13 C :   -0.061485
  14 C :   -0.016404
  15 S :    0.161229
  16 C :   -0.057980
  17 C :   -0.130077
  18 S :    0.172175
  19 C :    0.114514
  20 C :    0.108174
  21 F :   -0.174378
  22 C :    0.114967
  23 F :   -0.175221
  24 C :    0.107705
  25 C :   -0.033321
  26 C :   -0.050931
  27 N :   -0.063659
  28 N :   -0.058800
  29 N :   -0.074710
  30 C :    0.143932
  31 C :   -0.124482
  32 C :   -0.063643
  33 C :   -0.011834
  34 C :   -0.067366
  35 S :    0.174252
  36 C :   -0.074808
  37 C :   -0.040719
  38 S :    0.164969
  39 C :   -0.062074
  40 C :   -0.145716
  41 S :    0.206860
  42 C :    0.213373
  43 C :   -0.182438
  44 C :    0.162973
  45 O :   -0.160024
  46 O :   -0.171176
  47 C :    0.044992
  48 N :    0.021816
  49 O :   -0.176385
  50 H :    0.045802
  51 H :    0.182387
  52 H :    0.008432
  53 H :   -0.007022
  54 H :    0.055407
  55 H :    0.058508
  56 H :    0.059228
  57 H :   -0.006042
  58 H :    0.010820
  59 H :    0.186397
  60 H :    0.026298
Sum of atomic charges:   -0.0000000

LOEWDIN ATOMIC CHARGES
----------------------
   0 C :    0.092690
   1 C :   -0.156204
   2 C :    0.069190
   3 O :   -0.143244
   4 O :   -0.025387
   5 C :   -0.047270
   6 N :   -0.047308
   7 O :    0.053544
   8 C :   -0.194061
   9 C :   -0.031188
  10 C :   -0.192187
  11 C :   -0.214098
  12 S :    0.443310
  13 C :   -0.220084
  14 C :   -0.190560
  15 S :    0.409455
  16 C :   -0.054204
  17 C :   -0.163242
  18 S :    0.445537
  19 C :   -0.061396
  20 C :    0.056366
  21 F :   -0.050026
  22 C :    0.060068
  23 F :   -0.049578
  24 C :   -0.066350
  25 C :   -0.039110
  26 C :   -0.043429
  27 N :   -0.080980
  28 N :    0.156952
  29 N :   -0.086358
  30 C :    0.034718
  31 C :   -0.158641
  32 C :   -0.056890
  33 C :   -0.186707
  34 C :   -0.223366
  35 S :    0.446651
  36 C :   -0.207370
  37 C :   -0.197020
  38 S :    0.410940
  39 C :   -0.054886
  40 C :   -0.203755
  41 S :    0.463737
  42 C :    0.033668
  43 C :   -0.158777
  44 C :    0.076198
  45 O :   -0.143607
  46 O :   -0.033326
  47 C :    0.005006
  48 N :   -0.024950
  49 O :    0.023941
  50 H :    0.040990
  51 H :    0.076894
  52 H :    0.043014
  53 H :    0.031336
  54 H :    0.043691
  55 H :    0.043266
  56 H :    0.043344
  57 H :    0.031670
  58 H :    0.038395
  59 H :    0.089944
  60 H :    0.041046

  Mayer bond orders larger than 0.100000
B(  0-C ,  1-C ) :   1.5654 B(  0-C ,  6-N ) :   0.1017 B(  0-C ,  7-O ) :   1.2197
B(  0-C , 50-H ) :   0.9846 B(  1-C ,  2-C ) :   0.8945 B(  1-C ,  5-C ) :   1.1940
B(  2-C ,  3-O ) :   2.2179 B(  2-C ,  4-O ) :   1.2270 B(  4-O , 51-H ) :   0.9409
B(  5-C ,  6-N ) :   1.7232 B(  5-C ,  8-C ) :   1.0623 B(  6-N ,  7-O ) :   1.0057
B(  8-C ,  9-C ) :   1.5491 B(  8-C , 12-S ) :   1.0864 B(  9-C , 10-C ) :   1.2295
B(  9-C , 52-H ) :   1.0123 B( 10-C , 11-C ) :   1.4657 B( 10-C , 15-S ) :   1.0496
B( 11-C , 12-S ) :   1.0686 B( 11-C , 13-C ) :   1.2909 B( 13-C , 14-C ) :   1.4626
B( 13-C , 18-S ) :   1.0594 B( 14-C , 15-S ) :   1.0496 B( 14-C , 16-C ) :   1.2364
B( 16-C , 17-C ) :   1.5372 B( 16-C , 53-H ) :   0.9861 B( 17-C , 18-S ) :   1.0852
B( 17-C , 19-C ) :   1.1452 B( 19-C , 20-C ) :   1.3678 B( 19-C , 24-C ) :   0.1264
B( 19-C , 26-C ) :   1.1724 B( 20-C , 21-F ) :   1.1351 B( 20-C , 22-C ) :   1.1991
B( 22-C , 23-F ) :   1.1343 B( 22-C , 24-C ) :   1.3693 B( 24-C , 25-C ) :   1.1717
B( 24-C , 31-C ) :   1.1429 B( 25-C , 26-C ) :   1.2231 B( 25-C , 29-N ) :   1.4733
B( 26-C , 27-N ) :   1.4775 B( 27-N , 28-N ) :   1.2378 B( 27-N , 29-N ) :   0.1611
B( 28-N , 29-N ) :   1.2173 B( 28-N , 30-C ) :   0.9508 B( 30-C , 54-H ) :   0.9669
B( 30-C , 55-H ) :   0.9696 B( 30-C , 56-H ) :   0.9695 B( 31-C , 32-C ) :   1.5369
B( 31-C , 35-S ) :   1.0889 B( 32-C , 33-C ) :   1.2360 B( 32-C , 57-H ) :   0.9857
B( 33-C , 34-C ) :   1.4617 B( 33-C , 38-S ) :   1.0506 B( 34-C , 35-S ) :   1.0568
B( 34-C , 36-C ) :   1.2986 B( 36-C , 37-C ) :   1.4640 B( 36-C , 41-S ) :   1.0787
B( 37-C , 38-S ) :   1.0501 B( 37-C , 39-C ) :   1.2824 B( 39-C , 40-C ) :   1.5192
B( 39-C , 58-H ) :   0.9925 B( 40-C , 41-S ) :   1.0902 B( 40-C , 42-C ) :   1.0932
B( 42-C , 43-C ) :   1.4843 B( 42-C , 48-N ) :   0.1025 B( 42-C , 49-O ) :   1.2086
B( 43-C , 44-C ) :   0.9061 B( 43-C , 47-C ) :   1.2025 B( 44-C , 45-O ) :   2.2221
B( 44-C , 46-O ) :   1.2115 B( 46-O , 59-H ) :   0.9449 B( 47-C , 48-N ) :   1.7480
B( 47-C , 60-H ) :   0.9924 B( 48-N , 49-O ) :   0.9970

-----------------------------------------------------------------------------
         ABSORPTION SPECTRUM VIA TRANSITION ELECTRIC DIPOLE MOMENTS
-----------------------------------------------------------------------------
State   Energy  Wavelength   fosc         T2         TX        TY        TZ
        (cm-1)    (nm)                  (au**2)     (au)      (au)      (au)
-----------------------------------------------------------------------------
   0   21553.7    464.0   2.391789848  36.53223   2.00145  -5.32120   2.05213
   1   28521.4    350.6   0.082446065   0.95164  -0.48923   0.57444   0.61832
   2   29817.5    335.4   0.048973938   0.54072   0.39371  -0.50633  -0.35964
   3   30966.4    322.9   0.109044505   1.15928   0.39653   0.02333  -1.00075
   4   31325.7    319.2   0.117766394   1.23764  -0.53528   0.58314   0.78171
   5   32563.6    307.1   0.375790526   3.79917   0.42721  -1.48796   1.18433
   6   36449.6    274.4   0.187381171   1.69242  -0.41503   1.10190  -0.55316
   7   36892.8    271.1   0.016140739   0.14403   0.23348  -0.10632  -0.27966
   8   38199.5    261.8   0.102003330   0.87909   0.48215  -0.40150  -0.69672
   9   38434.9    260.2   0.172034427   1.47355   0.63406  -0.54216  -0.88180
  10   39613.9    252.4   0.116899243   0.97149   0.46536  -0.79725  -0.34543

FINAL SINGLE POINT ENERGY     -4498.527043814393

DIPOLE MOMENT
-------------
                                X             Y             Z
Electronic contribution:      7.07150      -0.89310     -15.74157
Nuclear contribution   :     -8.59554       2.94612      17.72416
                        -----------------------------------------
Total Dipole Moment    :     -1.52404       2.05302       1.98259
                        -----------------------------------------
Magnitude (a.u.)       :      3.23547
Magnitude (Debye)      :      8.22390

Rotational constants in cm-1:     0.005060     0.000376     0.000352
Rotational constants in MHz :   151.709165    11.279486    10.538851

                             ****ORCA TERMINATED NORMALLY****
TOTAL RUN TIME: 0 days 0 hours 3 minutes 55 seconds 408 msec
