                         Program Version 4.2.0 -  RELEASE  -
|  1> # ORCA input file
|  2> # SCF done       -162.156252117389          0.000637642313
|  3> ! CAM-B3LYP def2-SVP def2/J RIJCOSX Grid4 TightSCF
|  4> %maxcore 5000
|  5> %tddft
|  6>     Mode sTDDFT
|  7>     Ethresh 5.0
|  8>     maxcore 5000
|  9> end
| 10>
| 11> %pal
| 12>   nprocs 6
| 13>   end
| 14> * xyz 0 1
| 15>    C        7.16840        -8.64023         4.20731
| 16>    C        7.31333        -8.39618         5.54892
| 17>    C        7.42789        -9.36802         6.55814
| 18>    N        7.52929       -10.11239         7.42659
| 19>    C        7.36008        -7.06253         6.00504
| 20>    N        7.39808        -5.97638         6.37256
| 21>    N        7.10476        -9.84054         3.57835
| 22>    C        7.17937       -11.11408         4.25247
| 23>    C        6.96166        -9.80164         2.19419
| 24>    O        6.89314       -10.79633         1.50886
| 25>    C        6.91360        -8.42203         1.72531
| 26>    S        7.04063        -7.31271         3.07212
| 27>    C        6.80209        -8.11913         0.40468
| 28>    C        6.75811        -6.84871        -0.19842
| 29>    C        6.77155        -5.57999         0.37756
| 30>    C        6.73364        -4.57279        -0.56823
| 31>    C        6.69338        -5.05664        -1.88239
| 32>    S        6.69101        -6.76387        -1.95411
| 33>    C        6.68083        -3.96399        -2.77752
| 34>    C        6.70830        -2.77595        -2.03697
| 35>    C        6.73610        -3.06238        -0.55403
| 36>    C        8.00846        -2.51309         0.09700
| 37>    C        5.49004        -2.51110         0.14508
| 38>    C        6.71802        -1.64744        -2.84112
| 39>    C        6.70170        -1.97790        -4.18736
| 40>    S        6.66647        -3.69893        -4.47196
| 41>    C        6.73884        -1.11041        -5.31511
| 42>    N        6.74878        -1.67590        -6.51478
| 43>    N        6.81936        -1.00371        -7.61618
| 44>    C        6.88879         0.32014        -7.65900
| 45>    C        6.86256         1.05689        -6.43808
| 46>    C        6.78466         0.31157        -5.21711
| 47>    N        6.76926         1.10050        -4.14811
| 48>    S        6.84378         2.63431        -4.63579
| 49>    N        6.90170         2.36756        -6.22395
| 50>    C        7.00472         0.92445        -8.94222
| 51>    C        7.11906         2.26991        -9.25729
| 52>    C        7.24532         2.46725       -10.62279
| 53>    C        7.22386         1.26665       -11.34420
| 54>    S        7.04653        -0.11504       -10.34285
| 55>    C        7.37562         1.55958       -12.71674
| 56>    C        7.49771         2.94712       -12.88018
| 57>    C        7.41539         3.65033       -11.54604
| 58>    C        8.70561         4.41710       -11.24289
| 59>    C        6.20458         4.58604       -11.48652
| 60>    C        7.67175         3.32867       -14.19565
| 61>    C        7.68635         2.24102       -15.06579
| 62>    S        7.46752         0.71676       -14.19819
| 63>    C        7.85103         2.14625       -16.45876
| 64>    C        8.07854         3.09972       -17.41034
| 65>    C        8.22642         4.54297       -17.31794
| 66>    O        8.15222         5.24429       -16.32898
| 67>    N        8.48291         5.08628       -18.57321
| 68>    C        8.54165         4.21808       -19.61639
| 69>    C        8.78623         4.50596       -20.93563
| 70>    C        9.03577         5.78030       -21.47313
| 71>    N        9.24807         6.79189       -21.97377
| 72>    C        8.80623         3.46053       -21.88221
| 73>    N        8.82209         2.61604       -22.65815
| 74>    S        8.25944         2.58143       -19.08553
| 75>    C        8.66874         6.51112       -18.70633
| 76>    H        6.36308       -11.22291         4.96704
| 77>    H        8.13024       -11.22114         4.77522
| 78>    H        7.09657       -11.88002         3.48066
| 79>    H        6.75226        -8.97828        -0.25426
| 80>    H        6.80551        -5.41807         1.43914
| 81>    H        8.04284        -2.79609         1.14589
| 82>    H        8.02451        -1.42879         0.02433
| 83>    H        8.89015        -2.90948        -0.40124
| 84>    H        4.58936        -2.90775        -0.31772
| 85>    H        5.47185        -1.42691         0.07108
| 86>    H        5.49674        -2.79221         1.19503
| 87>    H        6.74058        -0.62715        -2.50465
| 88>    H        7.11076         3.03481        -8.50259
| 89>    H        8.65231         4.85896       -10.25124
| 90>    H        8.84723         5.20748       -11.97532
| 91>    H        9.56189         3.74765       -11.28160
| 92>    H        5.29056         4.03682       -11.70058
| 93>    H        6.31444         5.38068       -12.21984
| 94>    H        6.12314         5.02704       -10.49635
| 95>    H        7.78956         4.33718       -14.54442
| 96>    H        7.79706         1.13190       -16.83980
| 97>    H        8.55002         6.93727       -17.70966
| 98>    H        7.92387         6.93728       -19.37871
| 99>    H        9.66559         6.73807       -19.08528
|100> *
|101>
|102>                          ****END OF INPUT****

CARTESIAN COORDINATES (ANGSTROEM)
---------------------------------
  C      7.168400   -8.640230    4.207310
  C      7.313330   -8.396180    5.548920
  C      7.427890   -9.368020    6.558140
  N      7.529290  -10.112390    7.426590
  C      7.360080   -7.062530    6.005040
  N      7.398080   -5.976380    6.372560
  N      7.104760   -9.840540    3.578350
  C      7.179370  -11.114080    4.252470
  C      6.961660   -9.801640    2.194190
  O      6.893140  -10.796330    1.508860
  C      6.913600   -8.422030    1.725310
  S      7.040630   -7.312710    3.072120
  C      6.802090   -8.119130    0.404680
  C      6.758110   -6.848710   -0.198420
  C      6.771550   -5.579990    0.377560
  C      6.733640   -4.572790   -0.568230
  C      6.693380   -5.056640   -1.882390
  S      6.691010   -6.763870   -1.954110
  C      6.680830   -3.963990   -2.777520
  C      6.708300   -2.775950   -2.036970
  C      6.736100   -3.062380   -0.554030
  C      8.008460   -2.513090    0.097000
  C      5.490040   -2.511100    0.145080
  C      6.718020   -1.647440   -2.841120
  C      6.701700   -1.977900   -4.187360
  S      6.666470   -3.698930   -4.471960
  C      6.738840   -1.110410   -5.315110
  N      6.748780   -1.675900   -6.514780
  N      6.819360   -1.003710   -7.616180
  C      6.888790    0.320140   -7.659000
  C      6.862560    1.056890   -6.438080
  C      6.784660    0.311570   -5.217110
  N      6.769260    1.100500   -4.148110
  S      6.843780    2.634310   -4.635790
  N      6.901700    2.367560   -6.223950
  C      7.004720    0.924450   -8.942220
  C      7.119060    2.269910   -9.257290
  C      7.245320    2.467250  -10.622790
  C      7.223860    1.266650  -11.344200
  S      7.046530   -0.115040  -10.342850
  C      7.375620    1.559580  -12.716740
  C      7.497710    2.947120  -12.880180
  C      7.415390    3.650330  -11.546040
  C      8.705610    4.417100  -11.242890
  C      6.204580    4.586040  -11.486520
  C      7.671750    3.328670  -14.195650
  C      7.686350    2.241020  -15.065790
  S      7.467520    0.716760  -14.198190
  C      7.851030    2.146250  -16.458760
  C      8.078540    3.099720  -17.410340
  C      8.226420    4.542970  -17.317940
  O      8.152220    5.244290  -16.328980
  N      8.482910    5.086280  -18.573210
  C      8.541650    4.218080  -19.616390
  C      8.786230    4.505960  -20.935630
  C      9.035770    5.780300  -21.473130
  N      9.248070    6.791890  -21.973770
  C      8.806230    3.460530  -21.882210
  N      8.822090    2.616040  -22.658150
  S      8.259440    2.581430  -19.085530
  C      8.668740    6.511120  -18.706330
  H      6.363080  -11.222910    4.967040
  H      8.130240  -11.221140    4.775220
  H      7.096570  -11.880020    3.480660
  H      6.752260   -8.978280   -0.254260
  H      6.805510   -5.418070    1.439140
  H      8.042840   -2.796090    1.145890
  H      8.024510   -1.428790    0.024330
  H      8.890150   -2.909480   -0.401240
  H      4.589360   -2.907750   -0.317720
  H      5.471850   -1.426910    0.071080
  H      5.496740   -2.792210    1.195030
  H      6.740580   -0.627150   -2.504650
  H      7.110760    3.034810   -8.502590
  H      8.652310    4.858960  -10.251240
  H      8.847230    5.207480  -11.975320
  H      9.561890    3.747650  -11.281600
  H      5.290560    4.036820  -11.700580
  H      6.314440    5.380680  -12.219840
  H      6.123140    5.027040  -10.496350
  H      7.789560    4.337180  -14.544420
  H      7.797060    1.131900  -16.839800
  H      8.550020    6.937270  -17.709660
  H      7.923870    6.937280  -19.378710
  H      9.665590    6.738070  -19.085280

 Total Charge           Charge          ....    0
 Multiplicity           Mult            ....    1
 Number of Electrons    NEL             ....  474
 Basis Dimension        Dim             .... 1002

ORBITAL ENERGIES
----------------

  NO   OCC          E(Eh)            E(eV)
   0   2.0000     -89.056576     -2423.3526
   1   2.0000     -88.987730     -2421.4792
   2   2.0000     -88.983061     -2421.3522
   3   2.0000     -88.980371     -2421.2790
   4   2.0000     -88.980101     -2421.2716
   5   2.0000     -88.974432     -2421.1174
   6   2.0000     -88.974297     -2421.1137
   7   2.0000     -19.224923      -523.1368
   8   2.0000     -19.219757      -522.9962
   9   2.0000     -14.498285      -394.5184
  10   2.0000     -14.497904      -394.5080
  11   2.0000     -14.473076      -393.8324
  12   2.0000     -14.472974      -393.8296
  13   2.0000     -14.452284      -393.2667
  14   2.0000     -14.452238      -393.2654
  15   2.0000     -14.408726      -392.0814
  16   2.0000     -14.407820      -392.0567
  17   2.0000     -14.403357      -391.9353
  18   2.0000     -14.402877      -391.9222
  19   2.0000     -10.413471      -283.3649
  20   2.0000     -10.408287      -283.2239
  21   2.0000     -10.400303      -283.0066
  22   2.0000     -10.396310      -282.8980
  23   2.0000     -10.354899      -281.7711
  24   2.0000     -10.354602      -281.7630
  25   2.0000     -10.346380      -281.5393
  26   2.0000     -10.346179      -281.5338
  27   2.0000     -10.338595      -281.3275
  28   2.0000     -10.332817      -281.1702
  29   2.0000     -10.331873      -281.1446
  30   2.0000     -10.330114      -281.0967
  31   2.0000     -10.327180      -281.0169
  32   2.0000     -10.326287      -280.9926
  33   2.0000     -10.325649      -280.9752
  34   2.0000     -10.324825      -280.9528
  35   2.0000     -10.323143      -280.9070
  36   2.0000     -10.322082      -280.8781
  37   2.0000     -10.320272      -280.8289
  38   2.0000     -10.319211      -280.8000
  39   2.0000     -10.317687      -280.7585
  40   2.0000     -10.317421      -280.7513
  41   2.0000     -10.317153      -280.7440
  42   2.0000     -10.317135      -280.7435
  43   2.0000     -10.314286      -280.6660
  44   2.0000     -10.312721      -280.6234
  45   2.0000     -10.310329      -280.5583
  46   2.0000     -10.308624      -280.5119
  47   2.0000     -10.306951      -280.4664
  48   2.0000     -10.306244      -280.4472
  49   2.0000     -10.303697      -280.3778
  50   2.0000     -10.293806      -280.1087
  51   2.0000     -10.292576      -280.0752
  52   2.0000     -10.292294      -280.0676
  53   2.0000     -10.291254      -280.0393
  54   2.0000     -10.289549      -279.9929
  55   2.0000     -10.289366      -279.9879
  56   2.0000     -10.289088      -279.9803
  57   2.0000     -10.276719      -279.6437
  58   2.0000     -10.276568      -279.6396
  59   2.0000     -10.274817      -279.5920
  60   2.0000     -10.274743      -279.5900
  61   2.0000      -8.148293      -221.7263
  62   2.0000      -8.083097      -219.9523
  63   2.0000      -8.078089      -219.8160
  64   2.0000      -8.076704      -219.7783
  65   2.0000      -8.075261      -219.7390
  66   2.0000      -8.068679      -219.5599
  67   2.0000      -8.068472      -219.5543
  68   2.0000      -6.119543      -166.5212
  69   2.0000      -6.111615      -166.3055
  70   2.0000      -6.110723      -166.2812
  71   2.0000      -6.053006      -164.7107
  72   2.0000      -6.048968      -164.6008
  73   2.0000      -6.047309      -164.5556
  74   2.0000      -6.046599      -164.5363
  75   2.0000      -6.044454      -164.4780
  76   2.0000      -6.043617      -164.4552
  77   2.0000      -6.043327      -164.4473
  78   2.0000      -6.042674      -164.4295
  79   2.0000      -6.040529      -164.3711
  80   2.0000      -6.040262      -164.3639
  81   2.0000      -6.038075      -164.3044
  82   2.0000      -6.037867      -164.2987
  83   2.0000      -6.037399      -164.2860
  84   2.0000      -6.036944      -164.2736
  85   2.0000      -6.033827      -164.1888
  86   2.0000      -6.033618      -164.1831
  87   2.0000      -6.030799      -164.1064
  88   2.0000      -6.030622      -164.1016
  89   2.0000      -1.170446       -31.8494
  90   2.0000      -1.167241       -31.7622
  91   2.0000      -1.159795       -31.5596
  92   2.0000      -1.131190       -30.7813
  93   2.0000      -1.098145       -29.8821
  94   2.0000      -1.097914       -29.8757
  95   2.0000      -1.030759       -28.0484
  96   2.0000      -1.028164       -27.9778
  97   2.0000      -1.014677       -27.6108
  98   2.0000      -1.004625       -27.3372
  99   2.0000      -0.999831       -27.2068
 100   2.0000      -0.994325       -27.0570
 101   2.0000      -0.991890       -26.9907
 102   2.0000      -0.988113       -26.8879
 103   2.0000      -0.983316       -26.7574
 104   2.0000      -0.968159       -26.3450
 105   2.0000      -0.965316       -26.2676
 106   2.0000      -0.954197       -25.9650
 107   2.0000      -0.943157       -25.6646
 108   2.0000      -0.928875       -25.2760
 109   2.0000      -0.927447       -25.2371
 110   2.0000      -0.924522       -25.1575
 111   2.0000      -0.921710       -25.0810
 112   2.0000      -0.891222       -24.2514
 113   2.0000      -0.889523       -24.2052
 114   2.0000      -0.866625       -23.5821
 115   2.0000      -0.857811       -23.3422
 116   2.0000      -0.848618       -23.0921
 117   2.0000      -0.844628       -22.9835
 118   2.0000      -0.838208       -22.8088
 119   2.0000      -0.836412       -22.7599
 120   2.0000      -0.827136       -22.5075
 121   2.0000      -0.824410       -22.4333
 122   2.0000      -0.822579       -22.3835
 123   2.0000      -0.805550       -21.9201
 124   2.0000      -0.799479       -21.7549
 125   2.0000      -0.788490       -21.4559
 126   2.0000      -0.786580       -21.4039
 127   2.0000      -0.776807       -21.1380
 128   2.0000      -0.770851       -20.9759
 129   2.0000      -0.753625       -20.5072
 130   2.0000      -0.745209       -20.2782
 131   2.0000      -0.731426       -19.9031
 132   2.0000      -0.717037       -19.5116
 133   2.0000      -0.710723       -19.3398
 134   2.0000      -0.709831       -19.3155
 135   2.0000      -0.698829       -19.0161
 136   2.0000      -0.693587       -18.8735
 137   2.0000      -0.682016       -18.5586
 138   2.0000      -0.669562       -18.2197
 139   2.0000      -0.660303       -17.9678
 140   2.0000      -0.654591       -17.8123
 141   2.0000      -0.644157       -17.5284
 142   2.0000      -0.642862       -17.4932
 143   2.0000      -0.642096       -17.4723
 144   2.0000      -0.640626       -17.4323
 145   2.0000      -0.637219       -17.3396
 146   2.0000      -0.636530       -17.3209
 147   2.0000      -0.631760       -17.1911
 148   2.0000      -0.617271       -16.7968
 149   2.0000      -0.605578       -16.4786
 150   2.0000      -0.601658       -16.3719
 151   2.0000      -0.596891       -16.2422
 152   2.0000      -0.596662       -16.2360
 153   2.0000      -0.588746       -16.0206
 154   2.0000      -0.585775       -15.9398
 155   2.0000      -0.581629       -15.8269
 156   2.0000      -0.573224       -15.5982
 157   2.0000      -0.568666       -15.4742
 158   2.0000      -0.564426       -15.3588
 159   2.0000      -0.560853       -15.2616
 160   2.0000      -0.550346       -14.9757
 161   2.0000      -0.546846       -14.8804
 162   2.0000      -0.542820       -14.7709
 163   2.0000      -0.541015       -14.7218
 164   2.0000      -0.540645       -14.7117
 165   2.0000      -0.537760       -14.6332
 166   2.0000      -0.527206       -14.3460
 167   2.0000      -0.525071       -14.2879
 168   2.0000      -0.524769       -14.2797
 169   2.0000      -0.520186       -14.1550
 170   2.0000      -0.515682       -14.0324
 171   2.0000      -0.513265       -13.9666
 172   2.0000      -0.512666       -13.9504
 173   2.0000      -0.507006       -13.7963
 174   2.0000      -0.505763       -13.7625
 175   2.0000      -0.502612       -13.6768
 176   2.0000      -0.501857       -13.6562
 177   2.0000      -0.499322       -13.5872
 178   2.0000      -0.498695       -13.5702
 179   2.0000      -0.495372       -13.4797
 180   2.0000      -0.494377       -13.4527
 181   2.0000      -0.492388       -13.3986
 182   2.0000      -0.490277       -13.3411
 183   2.0000      -0.487480       -13.2650
 184   2.0000      -0.486364       -13.2346
 185   2.0000      -0.482590       -13.1319
 186   2.0000      -0.476788       -12.9741
 187   2.0000      -0.476177       -12.9574
 188   2.0000      -0.469109       -12.7651
 189   2.0000      -0.466409       -12.6916
 190   2.0000      -0.464794       -12.6477
 191   2.0000      -0.460198       -12.5226
 192   2.0000      -0.452587       -12.3155
 193   2.0000      -0.450734       -12.2651
 194   2.0000      -0.449356       -12.2276
 195   2.0000      -0.448383       -12.2011
 196   2.0000      -0.445532       -12.1235
 197   2.0000      -0.442724       -12.0471
 198   2.0000      -0.442445       -12.0395
 199   2.0000      -0.442119       -12.0307
 200   2.0000      -0.441468       -12.0130
 201   2.0000      -0.438089       -11.9210
 202   2.0000      -0.437709       -11.9107
 203   2.0000      -0.436805       -11.8861
 204   2.0000      -0.434202       -11.8152
 205   2.0000      -0.433082       -11.7848
 206   2.0000      -0.423892       -11.5347
 207   2.0000      -0.422758       -11.5038
 208   2.0000      -0.421265       -11.4632
 209   2.0000      -0.421101       -11.4587
 210   2.0000      -0.420343       -11.4381
 211   2.0000      -0.420214       -11.4346
 212   2.0000      -0.419731       -11.4215
 213   2.0000      -0.417796       -11.3688
 214   2.0000      -0.416972       -11.3464
 215   2.0000      -0.416678       -11.3384
 216   2.0000      -0.407156       -11.0793
 217   2.0000      -0.402359       -10.9488
 218   2.0000      -0.400198       -10.8899
 219   2.0000      -0.399097       -10.8600
 220   2.0000      -0.389294       -10.5932
 221   2.0000      -0.388127       -10.5615
 222   2.0000      -0.373032       -10.1507
 223   2.0000      -0.371893       -10.1197
 224   2.0000      -0.371413       -10.1067
 225   2.0000      -0.356892        -9.7115
 226   2.0000      -0.344563        -9.3760
 227   2.0000      -0.340539        -9.2665
 228   2.0000      -0.338331        -9.2065
 229   2.0000      -0.334884        -9.1127
 230   2.0000      -0.331647        -9.0246
 231   2.0000      -0.323532        -8.8037
 232   2.0000      -0.314041        -8.5455
 233   2.0000      -0.307085        -8.3562
 234   2.0000      -0.294469        -8.0129
 235   2.0000      -0.264065        -7.1856
 236   2.0000      -0.243733        -6.6323
 237   0.0000      -0.111392        -3.0311
 238   0.0000      -0.080347        -2.1863
 239   0.0000      -0.073520        -2.0006
 240   0.0000      -0.031411        -0.8547
 241   0.0000      -0.026382        -0.7179

MULLIKEN ATOMIC CHARGES
-----------------------
   0 C :    0.157328
   1 C :   -0.313562
   2 C :   -0.195473
   3 N :    0.172125
   4 C :   -0.214618
   5 N :    0.139235
   6 N :   -0.235580
   7 C :    0.116106
   8 C :    0.211097
   9 O :   -0.179779
  10 C :   -0.154292
  11 S :    0.104042
  12 C :    0.058313
  13 C :   -0.107959
  14 C :   -0.026086
  15 C :   -0.004734
  16 C :   -0.081002
  17 S :    0.178457
  18 C :   -0.075977
  19 C :    0.017678
  20 C :   -0.111781
  21 C :    0.100946
  22 C :    0.103364
  23 C :   -0.055469
  24 C :   -0.136265
  25 S :    0.211926
  26 C :    0.015321
  27 N :   -0.058573
  28 N :   -0.058809
  29 C :    0.019100
  30 C :    0.022288
  31 C :    0.024033
  32 N :   -0.255084
  33 S :    0.539796
  34 N :   -0.260944
  35 C :   -0.132360
  36 C :   -0.057103
  37 C :    0.018706
  38 C :   -0.075491
  39 S :    0.210989
  40 C :   -0.075103
  41 C :   -0.000903
  42 C :   -0.108328
  43 C :    0.102027
  44 C :    0.105410
  45 C :   -0.011975
  46 C :   -0.122425
  47 S :    0.157186
  48 C :    0.102105
  49 C :   -0.190355
  50 C :    0.244380
  51 O :   -0.197282
  52 N :   -0.239109
  53 C :    0.126072
  54 C :   -0.306632
  55 C :   -0.196489
  56 N :    0.162789
  57 C :   -0.222485
  58 N :    0.145526
  59 S :    0.143201
  60 C :    0.117763
  61 H :    0.064229
  62 H :    0.063487
  63 H :    0.067333
  64 H :    0.026554
  65 H :    0.000737
  66 H :    0.018926
  67 H :    0.016231
  68 H :    0.023124
  69 H :    0.022649
  70 H :    0.016353
  71 H :    0.018270
  72 H :   -0.009595
  73 H :   -0.009973
  74 H :    0.012432
  75 H :    0.020741
  76 H :    0.022452
  77 H :    0.021039
  78 H :    0.020284
  79 H :    0.012566
  80 H :    0.007759
  81 H :    0.007222
  82 H :    0.063268
  83 H :    0.064670
  84 H :    0.063959
Sum of atomic charges:   -0.0000000

LOEWDIN ATOMIC CHARGES
----------------------
   0 C :   -0.027420
   1 C :   -0.211228
   2 C :   -0.034228
   3 N :   -0.060744
   4 C :   -0.040430
   5 N :   -0.054912
   6 N :   -0.007345
   7 C :    0.038503
   8 C :    0.069265
   9 O :   -0.171988
  10 C :   -0.227807
  11 S :    0.425736
  12 C :   -0.000517
  13 C :   -0.184578
  14 C :   -0.038594
  15 C :   -0.034214
  16 C :   -0.179576
  17 S :    0.462164
  18 C :   -0.192368
  19 C :   -0.032967
  20 C :   -0.035797
  21 C :   -0.023603
  22 C :   -0.023235
  23 C :   -0.036134
  24 C :   -0.176206
  25 S :    0.486204
  26 C :   -0.030962
  27 N :   -0.063426
  28 N :   -0.063198
  29 C :   -0.031256
  30 C :   -0.053069
  31 C :   -0.053375
  32 N :   -0.268036
  33 S :    0.665131
  34 N :   -0.268189
  35 C :   -0.175052
  36 C :   -0.036717
  37 C :   -0.030683
  38 C :   -0.193092
  39 S :    0.485842
  40 C :   -0.175605
  41 C :   -0.038198
  42 C :   -0.035755
  43 C :   -0.023476
  44 C :   -0.023039
  45 C :   -0.015120
  46 C :   -0.179255
  47 S :    0.449163
  48 C :   -0.003112
  49 C :   -0.226999
  50 C :    0.075504
  51 O :   -0.175361
  52 N :   -0.004885
  53 C :   -0.034139
  54 C :   -0.215892
  55 C :   -0.034551
  56 N :   -0.066250
  57 C :   -0.041150
  58 N :   -0.053749
  59 S :    0.423647
  60 C :    0.037451
  61 H :    0.040378
  62 H :    0.040312
  63 H :    0.044092
  64 H :    0.050008
  65 H :    0.022458
  66 H :    0.026707
  67 H :    0.026151
  68 H :    0.030635
  69 H :    0.030569
  70 H :    0.026229
  71 H :    0.026479
  72 H :    0.031894
  73 H :    0.031883
  74 H :    0.024640
  75 H :    0.027710
  76 H :    0.030307
  77 H :    0.030170
  78 H :    0.027501
  79 H :    0.024758
  80 H :    0.034400
  81 H :    0.038645
  82 H :    0.041724
  83 H :    0.040686
  84 H :    0.040534

  Mayer bond orders larger than 0.100000
B(  0-C ,  1-C ) :   1.5675 B(  0-C ,  6-N ) :   1.2109 B(  0-C , 11-S ) :   1.0765
B(  1-C ,  2-C ) :   1.1668 B(  1-C ,  4-C ) :   1.1480 B(  2-C ,  3-N ) :   3.0141
B(  4-C ,  5-N ) :   3.0319 B(  6-N ,  7-C ) :   0.9345 B(  6-N ,  8-C ) :   1.0345
B(  7-C , 61-H ) :   0.9692 B(  7-C , 62-H ) :   0.9694 B(  7-C , 63-H ) :   0.9439
B(  8-C ,  9-O ) :   2.1565 B(  8-C , 10-C ) :   0.9796 B( 10-C , 11-S ) :   0.9913
B( 10-C , 12-C ) :   1.7065 B( 12-C , 13-C ) :   1.1550 B( 12-C , 64-H ) :   0.9442
B( 13-C , 14-C ) :   1.4016 B( 13-C , 17-S ) :   1.0929 B( 14-C , 15-C ) :   1.3754
B( 14-C , 65-H ) :   0.9809 B( 15-C , 16-C ) :   1.4962 B( 15-C , 20-C ) :   0.9399
B( 16-C , 17-S ) :   1.1127 B( 16-C , 18-C ) :   1.1848 B( 18-C , 19-C ) :   1.5117
B( 18-C , 25-S ) :   1.0797 B( 19-C , 20-C ) :   0.9411 B( 19-C , 23-C ) :   1.2966
B( 20-C , 21-C ) :   1.0349 B( 20-C , 22-C ) :   1.0314 B( 21-C , 66-H ) :   0.9648
B( 21-C , 67-H ) :   0.9646 B( 21-C , 68-H ) :   0.9645 B( 22-C , 69-H ) :   0.9641
B( 22-C , 70-H ) :   0.9650 B( 22-C , 71-H ) :   0.9652 B( 23-C , 24-C ) :   1.4729
B( 23-C , 72-H ) :   0.9928 B( 24-C , 25-S ) :   1.0980 B( 24-C , 26-C ) :   1.1712
B( 26-C , 27-N ) :   1.7009 B( 26-C , 29-C ) :   0.1153 B( 26-C , 31-C ) :   1.1216
B( 27-N , 28-N ) :   1.2381 B( 28-N , 29-C ) :   1.6994 B( 29-C , 30-C ) :   1.1201
B( 29-C , 35-C ) :   1.1711 B( 30-C , 31-C ) :   1.1872 B( 30-C , 34-N ) :   1.5527
B( 31-C , 32-N ) :   1.5581 B( 32-N , 33-S ) :   1.2669 B( 32-N , 34-N ) :   0.1430
B( 33-S , 34-N ) :   1.2677 B( 35-C , 36-C ) :   1.4688 B( 35-C , 39-S ) :   1.0987
B( 36-C , 37-C ) :   1.3002 B( 36-C , 73-H ) :   0.9932 B( 37-C , 38-C ) :   1.5060
B( 37-C , 42-C ) :   0.9411 B( 38-C , 39-S ) :   1.0779 B( 38-C , 40-C ) :   1.1878
B( 40-C , 41-C ) :   1.4776 B( 40-C , 47-S ) :   1.1175 B( 41-C , 42-C ) :   0.9365
B( 41-C , 45-C ) :   1.3372 B( 42-C , 43-C ) :   1.0345 B( 42-C , 44-C ) :   1.0352
B( 43-C , 74-H ) :   0.9647 B( 43-C , 75-H ) :   0.9649 B( 43-C , 76-H ) :   0.9644
B( 44-C , 77-H ) :   0.9636 B( 44-C , 78-H ) :   0.9649 B( 44-C , 79-H ) :   0.9645
B( 45-C , 46-C ) :   1.3981 B( 45-C , 80-H ) :   0.9838 B( 46-C , 47-S ) :   1.0730
B( 46-C , 48-C ) :   1.2342 B( 48-C , 49-C ) :   1.6564 B( 48-C , 81-H ) :   0.9259
B( 49-C , 50-C ) :   0.9885 B( 49-C , 59-S ) :   1.0050 B( 50-C , 51-O ) :   2.0493
B( 50-C , 52-N ) :   1.0605 B( 52-N , 53-C ) :   1.2037 B( 52-N , 60-C ) :   0.9357
B( 53-C , 54-C ) :   1.5409 B( 53-C , 59-S ) :   1.1005 B( 54-C , 55-C ) :   1.1699
B( 54-C , 57-C ) :   1.1525 B( 55-C , 56-N ) :   3.0088 B( 57-C , 58-N ) :   3.0348
B( 60-C , 82-H ) :   0.9431 B( 60-C , 83-H ) :   0.9688 B( 60-C , 84-H ) :   0.9694

-----------------------------------------------------------------------------
         ABSORPTION SPECTRUM VIA TRANSITION ELECTRIC DIPOLE MOMENTS
-----------------------------------------------------------------------------
State   Energy  Wavelength   fosc         T2         TX        TY        TZ
        (cm-1)    (nm)                  (au**2)     (au)      (au)      (au)
-----------------------------------------------------------------------------
   0   14101.8    709.1   2.063074961  48.16325  -0.38922  -3.44715   6.01073
   1   19958.8    501.0   0.002205642   0.03638   0.01810   0.06584  -0.17810
   2   20379.0    490.7   0.164427157   2.65623  -0.51011   1.13205   1.05569
   3   22398.4    446.5   1.125871672  16.54809  -0.37171  -1.78733   3.63529
   4   22973.2    435.3   0.362060500   5.18842  -0.25901   1.54370  -1.65479
   5   27999.8    357.1   0.069329982   0.81516  -0.05214  -0.24331   0.86789
   6   29300.8    341.3   0.040518142   0.45525   0.06586   0.34933  -0.57348
   7   29727.9    336.4   0.090936916   1.00705   0.24752   0.57845   0.78178
   8   31108.7    321.5   0.031806602   0.33660   0.01326  -0.47763  -0.32908
   9   31364.9    318.8   0.004610144   0.04839  -0.00041   0.00252   0.21996
  10   31721.3    315.2   0.002516454   0.02612   0.01243  -0.13661   0.08544
  11   32794.5    304.9   0.101976692   1.02371   0.06740   0.70789  -0.71976
  12   33758.0    296.2   0.059010767   0.57548   0.02780  -0.34194  -0.67660
  13   33983.6    294.3   0.106397535   1.03071  -0.15525  -0.75758  -0.65779
  14   34116.3    293.1   0.018688071   0.18033  -0.13001   0.32948   0.23426
  15   35125.9    284.7   0.015175124   0.14223  -0.13599  -0.25203  -0.24538
  16   35357.9    282.8   0.000475041   0.00442  -0.01010   0.05436  -0.03696
  17   35602.7    280.9   0.030119835   0.27851   0.03075   0.49473   0.18114
  18   35916.7    278.4   0.038503795   0.35293  -0.06881  -0.49492  -0.32132
  19   36348.7    275.1   0.075293096   0.68193  -0.00491   0.26306  -0.78276
  20   36886.4    271.1   0.042452515   0.37889   0.00879   0.42656   0.44369
  21   37522.4    266.5   0.017838343   0.15651   0.04254   0.38447   0.08296
  22   38547.4    259.4   0.071269671   0.60867  -0.09694  -0.52076   0.57279
  23   38845.6    257.4   0.089345399   0.75719  -0.00646  -0.57970  -0.64892
  24   39308.0    254.4   0.008926855   0.07476   0.04099   0.15329  -0.22268
  25   39621.1    252.4   0.050128379   0.41652  -0.00825  -0.18326   0.61876
  26   40077.6    249.5   0.035583797   0.29230   0.04583   0.04180  -0.53708

FINAL SINGLE POINT ENERGY     -5096.371129277825

DIPOLE MOMENT
-------------
                                X             Y             Z
Electronic contribution:     -1.03072     -21.54989     -16.11475
Nuclear contribution   :      0.24859      23.19974      17.84026
                        -----------------------------------------
Total Dipole Moment    :     -0.78214       1.64985       1.72551
                        -----------------------------------------
Magnitude (a.u.)       :      2.51219
Magnitude (Debye)      :      6.38548

Rotational constants in cm-1:     0.004073     0.000198     0.000190
Rotational constants in MHz :   122.091973     5.935566     5.695745

                             ****ORCA TERMINATED NORMALLY****
TOTAL RUN TIME: 0 days 0 hours 7 minutes 8 seconds 841 msec
