                         Program Version 4.2.0 -  RELEASE  -
|  1> # ORCA input file
|  2> # SCF done       -155.301777759213          0.000174914760
|  3> ! CAM-B3LYP def2-SVP def2/J RIJCOSX Grid4 TightSCF
|  4> %maxcore 5000
|  5> %tddft
|  6>     Mode sTDDFT
|  7>     Ethresh 5.0
|  8>     maxcore 5000
|  9> end
| 10>
| 11> %pal
| 12>   nprocs 6
| 13>   end
| 14> * xyz 0 1
| 15>    C        6.00706       -13.19590        -8.46623
| 16>    C        6.37740       -11.94937        -8.14248
| 17>    C        7.12104       -11.01830        -8.94189
| 18>    C        7.34908        -9.82715        -8.34590
| 19>    C        6.81061        -9.71244        -7.03414
| 20>    S        5.99144       -11.19810        -6.58572
| 21>    C        6.88499        -8.63100        -6.19111
| 22>    C        7.51230        -7.38214        -6.42950
| 23>    C        7.41238        -6.51029        -5.39408
| 24>    C        6.69857        -7.00713        -4.27035
| 25>    S        6.16236        -8.64846        -4.59050
| 26>    C        6.45413        -6.31163        -3.11674
| 27>    C        5.74310        -6.73888        -1.98311
| 28>    C        5.48208        -5.97969        -0.83821
| 29>    C        5.95761        -4.57574        -0.65286
| 30>    C        4.73020        -6.67162         0.10599
| 31>    C        4.39825        -7.96293        -0.26366
| 32>    S        5.04406        -8.32904        -1.83810
| 33>    C        3.64790        -8.95151         0.43053
| 34>    C        2.98181        -8.74225         1.58610
| 35>    C        2.20398        -9.71738         2.30958
| 36>    C        2.27990       -11.09503         2.04810
| 37>    C        1.50675       -11.96664         2.77318
| 38>    C        0.62833       -11.49674         3.76556
| 39>    C        0.54905       -10.13922         4.04094
| 40>    C        1.34091        -9.26933         3.32064
| 41>    C       -0.05577       -12.62866         4.34962
| 42>    C        0.41259       -13.80289         3.73481
| 43>    C        1.44163       -13.47397         2.67765
| 44>    C        2.80452       -14.11438         2.99884
| 45>    C        3.33790       -13.71243         4.36853
| 46>    C        0.97460       -13.92919         1.28263
| 47>    C       -0.36846       -13.32926         0.88434
| 48>    C       -0.06520       -15.03042         4.12063
| 49>    C       -1.05087       -15.11554         5.11799
| 50>    C       -1.51102       -13.93340         5.71466
| 51>    C       -1.01995       -12.69847         5.34506
| 52>    C       -1.54470       -16.41605         5.49993
| 53>    C       -2.67911       -16.66129         6.18783
| 54>    C       -3.13851       -17.95150         6.56644
| 55>    C       -4.34995       -18.25859         7.17447
| 56>    C       -5.38853       -17.24013         7.51778
| 57>    C       -4.49339       -19.62297         7.42360
| 58>    C       -3.41143       -20.39359         7.03259
| 59>    S       -2.18085       -19.38670         6.31697
| 60>    C       -3.27002       -21.78851         7.18112
| 61>    C       -2.16093       -22.50923         6.84843
| 62>    C       -2.05836       -23.89591         7.03111
| 63>    C       -0.94371       -24.64521         6.75448
| 64>    C       -0.79783       -26.04395         6.93459
| 65>    C        0.42589       -26.53034         6.59913
| 66>    C        1.32923       -25.54379         6.13117
| 67>    S        0.55381       -23.97039         6.12638
| 68>    C        2.63317       -25.72036         5.73400
| 69>    C        3.36944       -26.93687         5.70630
| 70>    C        4.64486       -26.80924         5.27753
| 71>    C        5.02194       -25.47004         4.92787
| 72>    S        3.63915       -24.39317         5.18258
| 73>    C        6.21008       -25.04292         4.47834
| 74>    H        6.26338       -13.61365        -9.42378
| 75>    H        5.44791       -13.81348        -7.78782
| 76>    H        7.45150       -11.28604        -9.92997
| 77>    H        7.88890        -9.01541        -8.80098
| 78>    H        8.01504        -7.16732        -7.35548
| 79>    H        7.82565        -5.51648        -5.39304
| 80>    H        6.84736        -5.30409        -3.07461
| 81>    H        5.54208        -3.92273        -1.42012
| 82>    H        7.04424        -4.52446        -0.71677
| 83>    H        5.65047        -4.20377         0.32095
| 84>    H        4.43930        -6.24340         1.04882
| 85>    H        3.61123        -9.91920        -0.05015
| 86>    H        2.98847        -7.74865         2.01474
| 87>    H        2.95727       -11.46404         1.29330
| 88>    H       -0.11556        -9.76925         4.80775
| 89>    H        1.29072        -8.20924         3.52701
| 90>    H        3.52073       -13.81707         2.22978
| 91>    H        2.69940       -15.20054         2.95555
| 92>    H        3.46746       -12.63397         4.42823
| 93>    H        4.30030       -14.18586         4.54940
| 94>    H        2.64984       -14.01925         5.15322
| 95>    H        0.90075       -15.01882         1.27700
| 96>    H        1.73112       -13.64173         0.54926
| 97>    H       -1.14252       -13.61724         1.59239
| 98>    H       -0.65712       -13.68038        -0.10383
| 99>    H       -0.31174       -12.24314         0.86109
|100>    H        0.29637       -15.93798         3.65795
|101>    H       -2.25070       -13.99000         6.49880
|102>    H       -1.38036       -11.80083         5.82586
|103>    H       -0.95115       -17.26234         5.17477
|104>    H       -3.32452       -15.84365         6.47711
|105>    H       -5.72138       -16.71280         6.62431
|106>    H       -4.99112       -16.50494         8.21715
|107>    H       -6.24775       -17.72313         7.97563
|108>    H       -5.36428       -20.05332         7.88742
|109>    H       -4.12120       -22.30186         7.61184
|110>    H       -1.30514       -21.99301         6.43099
|111>    H       -2.91752       -24.42100         7.42978
|112>    H       -1.60870       -26.64356         7.31040
|113>    H        0.70698       -27.56549         6.67526
|114>    H        2.92311       -27.86768         6.00918
|115>    H        5.34971       -27.61734         5.19219
|116>    H        7.02393       -25.73236         4.33892
|117>    H        6.38822       -24.00943         4.24503
|118> *
|119>
|120>                          ****END OF INPUT****

CARTESIAN COORDINATES (ANGSTROEM)
---------------------------------
  C      6.007060  -13.195900   -8.466230
  C      6.377400  -11.949370   -8.142480
  C      7.121040  -11.018300   -8.941890
  C      7.349080   -9.827150   -8.345900
  C      6.810610   -9.712440   -7.034140
  S      5.991440  -11.198100   -6.585720
  C      6.884990   -8.631000   -6.191110
  C      7.512300   -7.382140   -6.429500
  C      7.412380   -6.510290   -5.394080
  C      6.698570   -7.007130   -4.270350
  S      6.162360   -8.648460   -4.590500
  C      6.454130   -6.311630   -3.116740
  C      5.743100   -6.738880   -1.983110
  C      5.482080   -5.979690   -0.838210
  C      5.957610   -4.575740   -0.652860
  C      4.730200   -6.671620    0.105990
  C      4.398250   -7.962930   -0.263660
  S      5.044060   -8.329040   -1.838100
  C      3.647900   -8.951510    0.430530
  C      2.981810   -8.742250    1.586100
  C      2.203980   -9.717380    2.309580
  C      2.279900  -11.095030    2.048100
  C      1.506750  -11.966640    2.773180
  C      0.628330  -11.496740    3.765560
  C      0.549050  -10.139220    4.040940
  C      1.340910   -9.269330    3.320640
  C     -0.055770  -12.628660    4.349620
  C      0.412590  -13.802890    3.734810
  C      1.441630  -13.473970    2.677650
  C      2.804520  -14.114380    2.998840
  C      3.337900  -13.712430    4.368530
  C      0.974600  -13.929190    1.282630
  C     -0.368460  -13.329260    0.884340
  C     -0.065200  -15.030420    4.120630
  C     -1.050870  -15.115540    5.117990
  C     -1.511020  -13.933400    5.714660
  C     -1.019950  -12.698470    5.345060
  C     -1.544700  -16.416050    5.499930
  C     -2.679110  -16.661290    6.187830
  C     -3.138510  -17.951500    6.566440
  C     -4.349950  -18.258590    7.174470
  C     -5.388530  -17.240130    7.517780
  C     -4.493390  -19.622970    7.423600
  C     -3.411430  -20.393590    7.032590
  S     -2.180850  -19.386700    6.316970
  C     -3.270020  -21.788510    7.181120
  C     -2.160930  -22.509230    6.848430
  C     -2.058360  -23.895910    7.031110
  C     -0.943710  -24.645210    6.754480
  C     -0.797830  -26.043950    6.934590
  C      0.425890  -26.530340    6.599130
  C      1.329230  -25.543790    6.131170
  S      0.553810  -23.970390    6.126380
  C      2.633170  -25.720360    5.734000
  C      3.369440  -26.936870    5.706300
  C      4.644860  -26.809240    5.277530
  C      5.021940  -25.470040    4.927870
  S      3.639150  -24.393170    5.182580
  C      6.210080  -25.042920    4.478340
  H      6.263380  -13.613650   -9.423780
  H      5.447910  -13.813480   -7.787820
  H      7.451500  -11.286040   -9.929970
  H      7.888900   -9.015410   -8.800980
  H      8.015040   -7.167320   -7.355480
  H      7.825650   -5.516480   -5.393040
  H      6.847360   -5.304090   -3.074610
  H      5.542080   -3.922730   -1.420120
  H      7.044240   -4.524460   -0.716770
  H      5.650470   -4.203770    0.320950
  H      4.439300   -6.243400    1.048820
  H      3.611230   -9.919200   -0.050150
  H      2.988470   -7.748650    2.014740
  H      2.957270  -11.464040    1.293300
  H     -0.115560   -9.769250    4.807750
  H      1.290720   -8.209240    3.527010
  H      3.520730  -13.817070    2.229780
  H      2.699400  -15.200540    2.955550
  H      3.467460  -12.633970    4.428230
  H      4.300300  -14.185860    4.549400
  H      2.649840  -14.019250    5.153220
  H      0.900750  -15.018820    1.277000
  H      1.731120  -13.641730    0.549260
  H     -1.142520  -13.617240    1.592390
  H     -0.657120  -13.680380   -0.103830
  H     -0.311740  -12.243140    0.861090
  H      0.296370  -15.937980    3.657950
  H     -2.250700  -13.990000    6.498800
  H     -1.380360  -11.800830    5.825860
  H     -0.951150  -17.262340    5.174770
  H     -3.324520  -15.843650    6.477110
  H     -5.721380  -16.712800    6.624310
  H     -4.991120  -16.504940    8.217150
  H     -6.247750  -17.723130    7.975630
  H     -5.364280  -20.053320    7.887420
  H     -4.121200  -22.301860    7.611840
  H     -1.305140  -21.993010    6.430990
  H     -2.917520  -24.421000    7.429780
  H     -1.608700  -26.643560    7.310400
  H      0.706980  -27.565490    6.675260
  H      2.923110  -27.867680    6.009180
  H      5.349710  -27.617340    5.192190
  H      7.023930  -25.732360    4.338920
  H      6.388220  -24.009430    4.245030

 Total Charge           Charge          ....    0
 Multiplicity           Mult            ....    1
 Number of Electrons    NEL             ....  458
 Basis Dimension        Dim             .... 1070

ORBITAL ENERGIES
----------------

  NO   OCC          E(Eh)            E(eV)
   0   2.0000     -88.940663     -2420.1985
   1   2.0000     -88.937928     -2420.1241
   2   2.0000     -88.934395     -2420.0279
   3   2.0000     -88.932719     -2419.9823
   4   2.0000     -88.928953     -2419.8798
   5   2.0000     -88.928945     -2419.8796
   6   2.0000     -10.300037      -280.2782
   7   2.0000     -10.299742      -280.2702
   8   2.0000     -10.299459      -280.2625
   9   2.0000     -10.298733      -280.2428
  10   2.0000     -10.297821      -280.2180
  11   2.0000     -10.297785      -280.2170
  12   2.0000     -10.295834      -280.1639
  13   2.0000     -10.295718      -280.1607
  14   2.0000     -10.288297      -279.9588
  15   2.0000     -10.286987      -279.9232
  16   2.0000     -10.285274      -279.8765
  17   2.0000     -10.284002      -279.8419
  18   2.0000     -10.281385      -279.7707
  19   2.0000     -10.281249      -279.7670
  20   2.0000     -10.278503      -279.6923
  21   2.0000     -10.276456      -279.6366
  22   2.0000     -10.275885      -279.6211
  23   2.0000     -10.275573      -279.6126
  24   2.0000     -10.275547      -279.6118
  25   2.0000     -10.275505      -279.6107
  26   2.0000     -10.274967      -279.5961
  27   2.0000     -10.272543      -279.5301
  28   2.0000     -10.269200      -279.4391
  29   2.0000     -10.269040      -279.4348
  30   2.0000     -10.268389      -279.4171
  31   2.0000     -10.268375      -279.4167
  32   2.0000     -10.267908      -279.4040
  33   2.0000     -10.267813      -279.4014
  34   2.0000     -10.267725      -279.3990
  35   2.0000     -10.267443      -279.3913
  36   2.0000     -10.267032      -279.3801
  37   2.0000     -10.263733      -279.2904
  38   2.0000     -10.263574      -279.2860
  39   2.0000     -10.262370      -279.2533
  40   2.0000     -10.261921      -279.2411
  41   2.0000     -10.261798      -279.2377
  42   2.0000     -10.261052      -279.2174
  43   2.0000     -10.260907      -279.2135
  44   2.0000     -10.260762      -279.2095
  45   2.0000     -10.260308      -279.1972
  46   2.0000     -10.259492      -279.1750
  47   2.0000     -10.259467      -279.1743
  48   2.0000     -10.259302      -279.1698
  49   2.0000     -10.259260      -279.1687
  50   2.0000     -10.258828      -279.1569
  51   2.0000     -10.258573      -279.1500
  52   2.0000     -10.257711      -279.1265
  53   2.0000     -10.257548      -279.1221
  54   2.0000     -10.257203      -279.1127
  55   2.0000     -10.253395      -279.0091
  56   2.0000     -10.253332      -279.0074
  57   2.0000     -10.236695      -278.5546
  58   2.0000     -10.236585      -278.5516
  59   2.0000      -8.036087      -218.6730
  60   2.0000      -8.033503      -218.6027
  61   2.0000      -8.030394      -218.5181
  62   2.0000      -8.028988      -218.4799
  63   2.0000      -8.025714      -218.3908
  64   2.0000      -8.025631      -218.3885
  65   2.0000      -6.005248      -163.4111
  66   2.0000      -6.002649      -163.3404
  67   2.0000      -6.001301      -163.3037
  68   2.0000      -6.000237      -163.2748
  69   2.0000      -5.998889      -163.2381
  70   2.0000      -5.998757      -163.2345
  71   2.0000      -5.998272      -163.2213
  72   2.0000      -5.996109      -163.1624
  73   2.0000      -5.995534      -163.1468
  74   2.0000      -5.995530      -163.1467
  75   2.0000      -5.995463      -163.1448
  76   2.0000      -5.994827      -163.1275
  77   2.0000      -5.991656      -163.0413
  78   2.0000      -5.991571      -163.0389
  79   2.0000      -5.991181      -163.0283
  80   2.0000      -5.989742      -162.9892
  81   2.0000      -5.986202      -162.8928
  82   2.0000      -5.986127      -162.8908
  83   2.0000      -0.983813       -26.7709
  84   2.0000      -0.982542       -26.7363
  85   2.0000      -0.977051       -26.5869
  86   2.0000      -0.971878       -26.4462
  87   2.0000      -0.971494       -26.4357
  88   2.0000      -0.959720       -26.1153
  89   2.0000      -0.957670       -26.0595
  90   2.0000      -0.936012       -25.4702
  91   2.0000      -0.912327       -24.8257
  92   2.0000      -0.901499       -24.5310
  93   2.0000      -0.890256       -24.2251
  94   2.0000      -0.881884       -23.9973
  95   2.0000      -0.874910       -23.8075
  96   2.0000      -0.868124       -23.6229
  97   2.0000      -0.856974       -23.3194
  98   2.0000      -0.850226       -23.1358
  99   2.0000      -0.849754       -23.1230
 100   2.0000      -0.839434       -22.8421
 101   2.0000      -0.835269       -22.7288
 102   2.0000      -0.835030       -22.7223
 103   2.0000      -0.827425       -22.5154
 104   2.0000      -0.826053       -22.4781
 105   2.0000      -0.822169       -22.3724
 106   2.0000      -0.819680       -22.3046
 107   2.0000      -0.812551       -22.1106
 108   2.0000      -0.810122       -22.0445
 109   2.0000      -0.805985       -21.9320
 110   2.0000      -0.794401       -21.6167
 111   2.0000      -0.780396       -21.2357
 112   2.0000      -0.769501       -20.9392
 113   2.0000      -0.768519       -20.9125
 114   2.0000      -0.752101       -20.4657
 115   2.0000      -0.750487       -20.4218
 116   2.0000      -0.740999       -20.1636
 117   2.0000      -0.729018       -19.8376
 118   2.0000      -0.714776       -19.4501
 119   2.0000      -0.709137       -19.2966
 120   2.0000      -0.695858       -18.9353
 121   2.0000      -0.684882       -18.6366
 122   2.0000      -0.675184       -18.3727
 123   2.0000      -0.671298       -18.2669
 124   2.0000      -0.664506       -18.0821
 125   2.0000      -0.664389       -18.0789
 126   2.0000      -0.661461       -17.9993
 127   2.0000      -0.649876       -17.6840
 128   2.0000      -0.639119       -17.3913
 129   2.0000      -0.633750       -17.2452
 130   2.0000      -0.630403       -17.1541
 131   2.0000      -0.624068       -16.9818
 132   2.0000      -0.618486       -16.8299
 133   2.0000      -0.616133       -16.7658
 134   2.0000      -0.612740       -16.6735
 135   2.0000      -0.606689       -16.5089
 136   2.0000      -0.601217       -16.3600
 137   2.0000      -0.593408       -16.1475
 138   2.0000      -0.590120       -16.0580
 139   2.0000      -0.588833       -16.0230
 140   2.0000      -0.586079       -15.9480
 141   2.0000      -0.582559       -15.8522
 142   2.0000      -0.581033       -15.8107
 143   2.0000      -0.568263       -15.4632
 144   2.0000      -0.562543       -15.3076
 145   2.0000      -0.557362       -15.1666
 146   2.0000      -0.544479       -14.8160
 147   2.0000      -0.539057       -14.6685
 148   2.0000      -0.535409       -14.5692
 149   2.0000      -0.532906       -14.5011
 150   2.0000      -0.530502       -14.4357
 151   2.0000      -0.525702       -14.3051
 152   2.0000      -0.521961       -14.2033
 153   2.0000      -0.514577       -14.0024
 154   2.0000      -0.513052       -13.9608
 155   2.0000      -0.508772       -13.8444
 156   2.0000      -0.507718       -13.8157
 157   2.0000      -0.506114       -13.7721
 158   2.0000      -0.504195       -13.7199
 159   2.0000      -0.503522       -13.7015
 160   2.0000      -0.502285       -13.6679
 161   2.0000      -0.498454       -13.5636
 162   2.0000      -0.496344       -13.5062
 163   2.0000      -0.491461       -13.3733
 164   2.0000      -0.489352       -13.3159
 165   2.0000      -0.485493       -13.2109
 166   2.0000      -0.484871       -13.1940
 167   2.0000      -0.484484       -13.1835
 168   2.0000      -0.480980       -13.0881
 169   2.0000      -0.478069       -13.0089
 170   2.0000      -0.474276       -12.9057
 171   2.0000      -0.473993       -12.8980
 172   2.0000      -0.469776       -12.7833
 173   2.0000      -0.468818       -12.7572
 174   2.0000      -0.466978       -12.7071
 175   2.0000      -0.461099       -12.5472
 176   2.0000      -0.459909       -12.5148
 177   2.0000      -0.458779       -12.4840
 178   2.0000      -0.457800       -12.4574
 179   2.0000      -0.457254       -12.4425
 180   2.0000      -0.455307       -12.3895
 181   2.0000      -0.450289       -12.2530
 182   2.0000      -0.449886       -12.2420
 183   2.0000      -0.447642       -12.1810
 184   2.0000      -0.445759       -12.1297
 185   2.0000      -0.443518       -12.0687
 186   2.0000      -0.437863       -11.9149
 187   2.0000      -0.437590       -11.9074
 188   2.0000      -0.435863       -11.8604
 189   2.0000      -0.433951       -11.8084
 190   2.0000      -0.427251       -11.6261
 191   2.0000      -0.423945       -11.5361
 192   2.0000      -0.420546       -11.4437
 193   2.0000      -0.419837       -11.4243
 194   2.0000      -0.418395       -11.3851
 195   2.0000      -0.415020       -11.2933
 196   2.0000      -0.412790       -11.2326
 197   2.0000      -0.410690       -11.1755
 198   2.0000      -0.409459       -11.1420
 199   2.0000      -0.407576       -11.0907
 200   2.0000      -0.407291       -11.0830
 201   2.0000      -0.399112       -10.8604
 202   2.0000      -0.398019       -10.8306
 203   2.0000      -0.396495       -10.7892
 204   2.0000      -0.391760       -10.6603
 205   2.0000      -0.387483       -10.5440
 206   2.0000      -0.385827       -10.4989
 207   2.0000      -0.380816       -10.3625
 208   2.0000      -0.376455       -10.2439
 209   2.0000      -0.375645       -10.2218
 210   2.0000      -0.371879       -10.1193
 211   2.0000      -0.370433       -10.0800
 212   2.0000      -0.355873        -9.6838
 213   2.0000      -0.341082        -9.2813
 214   2.0000      -0.329317        -8.9612
 215   2.0000      -0.328327        -8.9342
 216   2.0000      -0.324974        -8.8430
 217   2.0000      -0.316942        -8.6244
 218   2.0000      -0.312726        -8.5097
 219   2.0000      -0.309780        -8.4295
 220   2.0000      -0.304716        -8.2918
 221   2.0000      -0.304213        -8.2781
 222   2.0000      -0.302523        -8.2321
 223   2.0000      -0.298089        -8.1114
 224   2.0000      -0.279042        -7.5931
 225   2.0000      -0.255611        -6.9555
 226   2.0000      -0.236714        -6.4413
 227   2.0000      -0.202246        -5.5034
 228   2.0000      -0.197659        -5.3786
 229   0.0000      -0.066935        -1.8214
 230   0.0000      -0.061161        -1.6643
 231   0.0000      -0.028681        -0.7805
 232   0.0000      -0.010133        -0.2757
 233   0.0000       0.012564         0.3419

MULLIKEN ATOMIC CHARGES
-----------------------
   0 C :   -0.032477
   1 C :   -0.063669
   2 C :    0.051315
   3 C :    0.028164
   4 C :   -0.072003
   5 S :    0.076200
   6 C :   -0.035200
   7 C :    0.026945
   8 C :    0.031679
   9 C :   -0.033972
  10 S :    0.063739
  11 C :   -0.029130
  12 C :   -0.089895
  13 C :   -0.070856
  14 C :    0.120582
  15 C :   -0.028637
  16 C :   -0.056786
  17 S :    0.101706
  18 C :    0.075620
  19 C :   -0.022988
  20 C :    0.126008
  21 C :   -0.096728
  22 C :    0.016389
  23 C :    0.107066
  24 C :   -0.047845
  25 C :   -0.023453
  26 C :    0.103963
  27 C :    0.022813
  28 C :   -0.142763
  29 C :    0.065933
  30 C :    0.027041
  31 C :    0.066352
  32 C :    0.027334
  33 C :   -0.109770
  34 C :    0.124543
  35 C :   -0.022088
  36 C :   -0.042888
  37 C :   -0.019227
  38 C :    0.006432
  39 C :   -0.083225
  40 C :   -0.063655
  41 C :    0.115176
  42 C :   -0.029103
  43 C :   -0.026068
  44 S :    0.094300
  45 C :    0.007726
  46 C :    0.003939
  47 C :   -0.020505
  48 C :   -0.018815
  49 C :    0.037179
  50 C :    0.020212
  51 C :   -0.045151
  52 S :    0.071419
  53 C :   -0.070117
  54 C :    0.028374
  55 C :    0.049807
  56 C :   -0.063646
  57 S :    0.075763
  58 C :   -0.032717
  59 H :    0.016459
  60 H :    0.019640
  61 H :   -0.015138
  62 H :   -0.013940
  63 H :   -0.019601
  64 H :   -0.017857
  65 H :   -0.023973
  66 H :    0.028035
  67 H :    0.028648
  68 H :    0.006614
  69 H :   -0.032650
  70 H :   -0.021658
  71 H :   -0.027465
  72 H :   -0.042469
  73 H :   -0.039550
  74 H :   -0.032924
  75 H :   -0.002723
  76 H :   -0.001990
  77 H :    0.022340
  78 H :    0.006584
  79 H :    0.020763
  80 H :   -0.001918
  81 H :   -0.003725
  82 H :    0.021150
  83 H :    0.006376
  84 H :    0.022208
  85 H :   -0.042832
  86 H :   -0.033148
  87 H :   -0.040440
  88 H :   -0.015279
  89 H :   -0.021549
  90 H :    0.030780
  91 H :    0.029236
  92 H :    0.005836
  93 H :   -0.032417
  94 H :   -0.018895
  95 H :    0.004468
  96 H :   -0.020760
  97 H :   -0.016641
  98 H :   -0.016827
  99 H :   -0.015112
 100 H :   -0.014193
 101 H :    0.016993
 102 H :    0.019202
Sum of atomic charges:   -0.0000000

LOEWDIN ATOMIC CHARGES
----------------------
   0 C :   -0.082448
   1 C :   -0.139010
   2 C :   -0.035005
   3 C :   -0.026858
   4 C :   -0.180150
   5 S :    0.347362
   6 C :   -0.179056
   7 C :   -0.041304
   8 C :   -0.032502
   9 C :   -0.157180
  10 S :    0.361022
  11 C :   -0.072767
  12 C :   -0.186159
  13 C :   -0.053318
  14 C :   -0.046969
  15 C :   -0.062465
  16 C :   -0.168444
  17 S :    0.428210
  18 C :   -0.043104
  19 C :   -0.017536
  20 C :   -0.023774
  21 C :   -0.019813
  22 C :    0.005187
  23 C :   -0.019257
  24 C :   -0.021240
  25 C :   -0.021349
  26 C :   -0.020117
  27 C :    0.003027
  28 C :   -0.035389
  29 C :   -0.011999
  30 C :   -0.057895
  31 C :   -0.012008
  32 C :   -0.057937
  33 C :   -0.022529
  34 C :   -0.023616
  35 C :   -0.018745
  36 C :   -0.018761
  37 C :   -0.024826
  38 C :   -0.041259
  39 C :   -0.172975
  40 C :   -0.058592
  41 C :   -0.046905
  42 C :   -0.060626
  43 C :   -0.164750
  44 S :    0.421401
  45 C :   -0.036333
  46 C :   -0.039141
  47 C :   -0.057420
  48 C :   -0.148119
  49 C :   -0.034871
  50 C :   -0.035373
  51 C :   -0.178557
  52 S :    0.362066
  53 C :   -0.181529
  54 C :   -0.026870
  55 C :   -0.036073
  56 C :   -0.138819
  57 S :    0.347660
  58 C :   -0.082829
  59 H :    0.027188
  60 H :    0.025218
  61 H :    0.031964
  62 H :    0.031361
  63 H :    0.029426
  64 H :    0.031452
  65 H :    0.035995
  66 H :    0.035493
  67 H :    0.035364
  68 H :    0.031993
  69 H :    0.024302
  70 H :    0.024772
  71 H :    0.024970
  72 H :    0.022403
  73 H :    0.025350
  74 H :    0.024228
  75 H :    0.019571
  76 H :    0.019711
  77 H :    0.025737
  78 H :    0.023081
  79 H :    0.025434
  80 H :    0.019834
  81 H :    0.019233
  82 H :    0.025558
  83 H :    0.023021
  84 H :    0.025655
  85 H :    0.023518
  86 H :    0.023639
  87 H :    0.025334
  88 H :    0.020933
  89 H :    0.028937
  90 H :    0.036392
  91 H :    0.035524
  92 H :    0.031654
  93 H :    0.025185
  94 H :    0.032190
  95 H :    0.018260
  96 H :    0.031233
  97 H :    0.031985
  98 H :    0.030029
  99 H :    0.031060
 100 H :    0.032061
 101 H :    0.027274
 102 H :    0.025116

  Mayer bond orders larger than 0.100000
B(  0-C ,  1-C ) :   1.8625 B(  0-C , 59-H ) :   0.9504 B(  0-C , 60-H ) :   0.9417
B(  1-C ,  2-C ) :   1.0803 B(  1-C ,  5-S ) :   1.0095 B(  2-C ,  3-C ) :   1.6596
B(  2-C , 61-H ) :   0.9925 B(  3-C ,  4-C ) :   1.1556 B(  3-C , 62-H ) :   0.9908
B(  4-C ,  5-S ) :   1.0391 B(  4-C ,  6-C ) :   1.5611 B(  6-C ,  7-C ) :   1.1683
B(  6-C , 10-S ) :   1.0328 B(  7-C ,  8-C ) :   1.6075 B(  7-C , 63-H ) :   0.9912
B(  8-C ,  9-C ) :   1.1373 B(  8-C , 64-H ) :   0.9981 B(  9-C , 10-S ) :   1.0291
B(  9-C , 11-C ) :   1.5790 B( 11-C , 12-C ) :   1.1994 B( 11-C , 65-H ) :   0.9597
B( 12-C , 13-C ) :   1.4315 B( 12-C , 17-S ) :   1.0920 B( 13-C , 14-C ) :   1.1026
B( 13-C , 15-C ) :   1.3275 B( 14-C , 66-H ) :   0.9413 B( 14-C , 67-H ) :   0.9418
B( 14-C , 68-H ) :   0.9501 B( 15-C , 16-C ) :   1.4531 B( 15-C , 69-H ) :   0.9920
B( 16-C , 17-S ) :   1.1272 B( 16-C , 18-C ) :   1.1157 B( 18-C , 19-C ) :   1.7000
B( 18-C , 70-H ) :   0.9551 B( 19-C , 20-C ) :   1.0718 B( 19-C , 71-H ) :   0.9801
B( 20-C , 21-C ) :   1.2955 B( 20-C , 25-C ) :   1.3347 B( 21-C , 22-C ) :   1.4074
B( 21-C , 72-H ) :   1.0010 B( 22-C , 23-C ) :   1.3550 B( 22-C , 28-C ) :   0.9165
B( 23-C , 24-C ) :   1.3431 B( 23-C , 26-C ) :   0.9992 B( 24-C , 25-C ) :   1.3753
B( 24-C , 73-H ) :   0.9908 B( 25-C , 74-H ) :   0.9922 B( 26-C , 27-C ) :   1.3680
B( 26-C , 36-C ) :   1.3305 B( 27-C , 28-C ) :   0.9149 B( 27-C , 33-C ) :   1.3789
B( 28-C , 29-C ) :   1.0387 B( 28-C , 31-C ) :   1.0387 B( 29-C , 30-C ) :   1.1029
B( 29-C , 75-H ) :   0.9389 B( 29-C , 76-H ) :   0.9389 B( 30-C , 77-H ) :   0.9641
B( 30-C , 78-H ) :   0.9635 B( 30-C , 79-H ) :   0.9640 B( 31-C , 32-C ) :   1.1026
B( 31-C , 80-H ) :   0.9393 B( 31-C , 81-H ) :   0.9388 B( 32-C , 82-H ) :   0.9642
B( 32-C , 83-H ) :   0.9635 B( 32-C , 84-H ) :   0.9636 B( 33-C , 34-C ) :   1.2855
B( 33-C , 85-H ) :   1.0144 B( 34-C , 35-C ) :   1.3464 B( 34-C , 37-C ) :   1.0678
B( 35-C , 36-C ) :   1.3957 B( 35-C , 86-H ) :   0.9845 B( 36-C , 87-H ) :   0.9900
B( 37-C , 38-C ) :   1.6730 B( 37-C , 88-H ) :   0.9803 B( 38-C , 39-C ) :   1.1690
B( 38-C , 89-H ) :   0.9618 B( 39-C , 40-C ) :   1.4761 B( 39-C , 44-S ) :   1.0955
B( 40-C , 41-C ) :   1.0961 B( 40-C , 42-C ) :   1.2798 B( 41-C , 90-H ) :   0.9455
B( 41-C , 91-H ) :   0.9439 B( 41-C , 92-H ) :   0.9506 B( 42-C , 43-C ) :   1.4371
B( 42-C , 93-H ) :   1.0016 B( 43-C , 44-S ) :   1.1066 B( 43-C , 45-C ) :   1.1694
B( 45-C , 46-C ) :   1.6032 B( 45-C , 94-H ) :   0.9829 B( 46-C , 47-C ) :   1.1702
B( 46-C , 95-H ) :   0.9686 B( 47-C , 48-C ) :   1.5643 B( 47-C , 96-H ) :   0.9823
B( 48-C , 49-C ) :   1.1394 B( 48-C , 52-S ) :   1.0273 B( 49-C , 50-C ) :   1.6013
B( 49-C , 97-H ) :   0.9982 B( 50-C , 51-C ) :   1.1740 B( 50-C , 98-H ) :   0.9934
B( 51-C , 52-S ) :   1.0378 B( 51-C , 53-C ) :   1.5538 B( 53-C , 54-C ) :   1.1571
B( 53-C , 57-S ) :   1.0396 B( 54-C , 55-C ) :   1.6580 B( 54-C , 99-H ) :   0.9914
B( 55-C , 56-C ) :   1.0812 B( 55-C ,100-H ) :   0.9930 B( 56-C , 57-S ) :   1.0093
B( 56-C , 58-C ) :   1.8629 B( 58-C ,101-H ) :   0.9502 B( 58-C ,102-H ) :   0.9415

-----------------------------------------------------------------------------
         ABSORPTION SPECTRUM VIA TRANSITION ELECTRIC DIPOLE MOMENTS
-----------------------------------------------------------------------------
State   Energy  Wavelength   fosc         T2         TX        TY        TZ
        (cm-1)    (nm)                  (au**2)     (au)      (au)      (au)
-----------------------------------------------------------------------------
   0   15826.5    631.9   0.968504124  20.14617   1.68279  -3.62994   2.03420
   1   17287.1    578.5   2.027467243  38.61068   3.20950  -2.79296  -4.52871
   2   22099.5    452.5   0.067351613   1.00333   0.49443   0.87089  -0.02060
   3   23035.2    434.1   0.621287025   8.87922  -2.20437  -1.93562   0.52283
   4   23854.5    419.2   0.037322463   0.51508   0.25125   0.64879  -0.17615
   5   25351.3    394.5   0.128080761   1.66325  -0.67680  -1.06545   0.26459
   6   26063.3    383.7   1.634197095  20.64197   3.03114   3.07320  -1.41760
   7   27998.5    357.2   0.234217555   2.75398  -0.36479  -1.61826   0.04604
   8   29754.2    336.1   0.005244428   0.05803   0.10317   0.16534  -0.14158
   9   30420.7    328.7   0.000265679   0.00288   0.03179  -0.03585   0.02408
  10   32030.0    312.2   0.002533621   0.02604  -0.04250  -0.14242   0.06286
  11   32096.9    311.6   0.039877750   0.40902   0.07254   0.63205   0.06530
  12   32267.0    309.9   0.112194205   1.14469  -0.53172  -0.87929   0.29803
  13   33107.4    302.0   0.008019641   0.07975  -0.03283  -0.27510  -0.05466
  14   33958.4    294.5   0.000246070   0.00239  -0.02407  -0.03525  -0.02374
  15   34149.4    292.8   0.082550136   0.79581  -0.49284  -0.48471   0.56389
  16   34248.0    292.0   0.089173930   0.85719   0.41951   0.77821  -0.27494
  17   34532.7    289.6   0.070530233   0.67239   0.44008   0.62310  -0.30077
  18   35316.8    283.2   0.007187985   0.06700  -0.20653  -0.08318   0.13202
  19   36108.9    276.9   0.016070683   0.14652   0.30790  -0.00112  -0.22742
  20   36440.7    274.4   0.002201824   0.01989  -0.11676   0.02600   0.07472
  21   37033.8    270.0   0.049637922   0.44126  -0.40684   0.52441   0.02692
  22   37130.2    269.3   0.008345393   0.07399  -0.05367  -0.26304  -0.04385
  23   37568.0    266.2   0.039775918   0.34856   0.46578   0.28913  -0.21911
  24   38313.4    261.0   0.072817720   0.62569   0.62879  -0.45133  -0.16314
  25   38477.8    259.9   0.012004453   0.10271  -0.00117  -0.13533  -0.29050
  26   38934.3    256.8   0.091110611   0.77039  -0.65206   0.36364   0.46149
  27   39331.3    254.3   0.031689025   0.26524  -0.26151  -0.34521  -0.27872
  28   39383.6    253.9   0.017194316   0.14373   0.35717  -0.01511  -0.12622
  29   40061.2    249.6   0.030223314   0.24837  -0.38055  -0.09370   0.30784
  30   40165.1    249.0   0.100098678   0.82046  -0.16630   0.70855   0.53921

FINAL SINGLE POINT ENERGY     -4431.791983198594

DIPOLE MOMENT
-------------
                                X             Y             Z
Electronic contribution:     14.79215     -17.36788     -15.35831
Nuclear contribution   :    -14.79293      17.41797      15.26683
                        -----------------------------------------
Total Dipole Moment    :     -0.00078       0.05009      -0.09148
                        -----------------------------------------
Magnitude (a.u.)       :      0.10430
Magnitude (Debye)      :      0.26511

Rotational constants in cm-1:     0.001198     0.000280     0.000241
Rotational constants in MHz :    35.901756     8.403007     7.217429

                             ****ORCA TERMINATED NORMALLY****
TOTAL RUN TIME: 0 days 0 hours 8 minutes 14 seconds 103 msec
