                         Program Version 4.2.0 -  RELEASE  -
|  1> # ORCA input file
|  2> # SCF done       -204.256463192664          0.000351215430
|  3> ! CAM-B3LYP def2-SVP def2/J RIJCOSX Grid4 TightSCF
|  4> %maxcore 5000
|  5> %tddft
|  6>     Mode sTDDFT
|  7>     Ethresh 5.0
|  8>     maxcore 5000
|  9> end
| 10>
| 11> %pal
| 12>   nprocs 6
| 13>   end
| 14> * xyz 0 1
| 15>    C        0.98123         4.90727         7.85043
| 16>    C        0.63239         4.62422         6.57882
| 17>    C        1.74513         4.26749         5.76210
| 18>    C        1.74780         3.87822         4.41032
| 19>    C        0.54735         3.84906         3.59739
| 20>    C        0.20118         2.92409         2.65498
| 21>    C       -1.01565         3.23138         2.00822
| 22>    C       -1.60403         4.38782         2.42926
| 23>    S       -0.64199         5.12143         3.66761
| 24>    C       -2.86965         5.01195         1.96820
| 25>   Cl       -1.68771         2.21748         0.78988
| 26>    C        2.98040         3.52535         3.86491
| 27>    C        4.18917         3.55060         4.60499
| 28>    C        4.18374         3.92614         5.96338
| 29>    C        2.95406         4.28967         6.50011
| 30>    S        2.67528         4.76203         8.15389
| 31>    C        5.40512         3.91610         6.74237
| 32>    C        6.38695         2.96696         6.74758
| 33>    C        7.44701         3.28578         7.62342
| 34>    C        7.29590         4.47016         8.28437
| 35>    S        5.80058         5.21640         7.83201
| 36>    C        8.20916         5.11263         9.26255
| 37>   Cl        8.81177         2.25389         7.82526
| 38>    C        5.30539         3.22220         3.80095
| 39>    C        4.97446         2.94130         2.50568
| 40>    S        3.25943         3.06833         2.20464
| 41>    C        5.84998         2.55900         1.45757
| 42>    N        5.48652         2.36496         0.22756
| 43>    C        6.52290         1.99166        -0.52342
| 44>    C        7.76189         1.87752         0.13298
| 45>    S        7.58276         2.28130         1.79254
| 46>    N        8.79362         1.48731        -0.61070
| 47>    C        8.42320         1.28938        -1.84316
| 48>    S        6.70198         1.58862        -2.18221
| 49>    C        9.31407         0.83649        -2.84815
| 50>    C        9.06918         0.62475        -4.19284
| 51>    F        7.88649         0.85641        -4.76865
| 52>    C       10.18349         0.14178        -4.88914
| 53>    F       10.16986        -0.13516        -6.19571
| 54>    C       11.29801        -0.02854        -4.08775
| 55>    S       10.95418         0.43247        -2.45063
| 56>    C       12.57495        -0.53285        -4.43929
| 57>    N       13.53495        -0.68987        -3.57376
| 58>    C       14.61227        -1.21027        -4.15582
| 59>    C       14.51300        -1.47701        -5.53361
| 60>    S       12.95728        -1.03149        -6.10467
| 61>    N       15.58720        -2.01402        -6.11196
| 62>    C       16.54084        -2.18920        -5.24988
| 63>    S       16.16442        -1.67233        -3.58244
| 64>    C       17.80133        -2.76167        -5.55620
| 65>    C       18.83959        -2.99668        -4.70035
| 66>    C       19.95559        -3.59968        -5.32619
| 67>    C       21.17278        -3.99480        -4.73596
| 68>    C       21.42499        -3.88116        -3.31416
| 69>    C       22.59026        -3.53158        -2.69373
| 70>    C       22.49798        -3.58681        -1.28640
| 71>    C       21.28253        -3.98833        -0.81361
| 72>    S       20.20812        -4.29637        -2.13507
| 73>    C       20.84067        -4.16590         0.59233
| 74>   Cl       23.82266        -3.18035        -0.26449
| 75>    C       22.12705        -4.53665        -5.59259
| 76>    C       21.90904        -4.73619        -6.97729
| 77>    C       20.68312        -4.36897        -7.56067
| 78>    C       19.74024        -3.78802        -6.71549
| 79>    S       18.15062        -3.25468        -7.19345
| 80>    C       20.38069        -4.59779        -8.96033
| 81>    C       19.69576        -3.78221        -9.81427
| 82>    C       19.52979        -4.34917       -11.09670
| 83>    C       20.06520        -5.59593       -11.23821
| 84>    S       20.80721        -6.09020        -9.75469
| 85>    C       20.06654        -6.48086       -12.43025
| 86>   Cl       18.71586        -3.52071       -12.36742
| 87>    C       23.05023        -5.31496        -7.60667
| 88>    C       24.05721        -5.56464        -6.74570
| 89>    S       23.70388        -5.10752        -5.11771
| 90>    H        0.33886         5.19886         8.65814
| 91>    H       -0.38096         4.65431         6.22524
| 92>    H        0.76658         2.03566         2.44515
| 93>    H       -3.34426         4.37112         1.22940
| 94>    H       -2.67621         5.98568         1.51875
| 95>    H       -3.55315         5.15847         2.80370
| 96>    H        6.34339         2.05229         6.18581
| 97>    H        9.09924         4.50144         9.38903
| 98>    H        7.71744         5.22644        10.22813
| 99>    H        8.50466         6.10308         8.91848
|100>    H        6.32074         3.22034         4.15287
|101>    H       18.79668        -2.73509        -3.65905
|102>    H       23.47605        -3.21061        -3.20901
|103>    H       21.65122        -3.90087         1.26648
|104>    H       20.55175        -5.20042         0.77588
|105>    H       19.97907        -3.53471         0.80711
|106>    H       19.34825        -2.79827        -9.56115
|107>    H       19.66860        -5.94130       -13.28600
|108>    H       19.45078        -7.36296       -12.25417
|109>    H       21.07680        -6.81756       -12.65814
|110>    H       23.10903        -5.52336        -8.65830
|111>    H       25.01737        -5.99045        -6.96178
|112> *
|113>
|114>                          ****END OF INPUT****

CARTESIAN COORDINATES (ANGSTROEM)
---------------------------------
  C      0.981230    4.907270    7.850430
  C      0.632390    4.624220    6.578820
  C      1.745130    4.267490    5.762100
  C      1.747800    3.878220    4.410320
  C      0.547350    3.849060    3.597390
  C      0.201180    2.924090    2.654980
  C     -1.015650    3.231380    2.008220
  C     -1.604030    4.387820    2.429260
  S     -0.641990    5.121430    3.667610
  C     -2.869650    5.011950    1.968200
  Cl    -1.687710    2.217480    0.789880
  C      2.980400    3.525350    3.864910
  C      4.189170    3.550600    4.604990
  C      4.183740    3.926140    5.963380
  C      2.954060    4.289670    6.500110
  S      2.675280    4.762030    8.153890
  C      5.405120    3.916100    6.742370
  C      6.386950    2.966960    6.747580
  C      7.447010    3.285780    7.623420
  C      7.295900    4.470160    8.284370
  S      5.800580    5.216400    7.832010
  C      8.209160    5.112630    9.262550
  Cl     8.811770    2.253890    7.825260
  C      5.305390    3.222200    3.800950
  C      4.974460    2.941300    2.505680
  S      3.259430    3.068330    2.204640
  C      5.849980    2.559000    1.457570
  N      5.486520    2.364960    0.227560
  C      6.522900    1.991660   -0.523420
  C      7.761890    1.877520    0.132980
  S      7.582760    2.281300    1.792540
  N      8.793620    1.487310   -0.610700
  C      8.423200    1.289380   -1.843160
  S      6.701980    1.588620   -2.182210
  C      9.314070    0.836490   -2.848150
  C      9.069180    0.624750   -4.192840
  F      7.886490    0.856410   -4.768650
  C     10.183490    0.141780   -4.889140
  F     10.169860   -0.135160   -6.195710
  C     11.298010   -0.028540   -4.087750
  S     10.954180    0.432470   -2.450630
  C     12.574950   -0.532850   -4.439290
  N     13.534950   -0.689870   -3.573760
  C     14.612270   -1.210270   -4.155820
  C     14.513000   -1.477010   -5.533610
  S     12.957280   -1.031490   -6.104670
  N     15.587200   -2.014020   -6.111960
  C     16.540840   -2.189200   -5.249880
  S     16.164420   -1.672330   -3.582440
  C     17.801330   -2.761670   -5.556200
  C     18.839590   -2.996680   -4.700350
  C     19.955590   -3.599680   -5.326190
  C     21.172780   -3.994800   -4.735960
  C     21.424990   -3.881160   -3.314160
  C     22.590260   -3.531580   -2.693730
  C     22.497980   -3.586810   -1.286400
  C     21.282530   -3.988330   -0.813610
  S     20.208120   -4.296370   -2.135070
  C     20.840670   -4.165900    0.592330
  Cl    23.822660   -3.180350   -0.264490
  C     22.127050   -4.536650   -5.592590
  C     21.909040   -4.736190   -6.977290
  C     20.683120   -4.368970   -7.560670
  C     19.740240   -3.788020   -6.715490
  S     18.150620   -3.254680   -7.193450
  C     20.380690   -4.597790   -8.960330
  C     19.695760   -3.782210   -9.814270
  C     19.529790   -4.349170  -11.096700
  C     20.065200   -5.595930  -11.238210
  S     20.807210   -6.090200   -9.754690
  C     20.066540   -6.480860  -12.430250
  Cl    18.715860   -3.520710  -12.367420
  C     23.050230   -5.314960   -7.606670
  C     24.057210   -5.564640   -6.745700
  S     23.703880   -5.107520   -5.117710
  H      0.338860    5.198860    8.658140
  H     -0.380960    4.654310    6.225240
  H      0.766580    2.035660    2.445150
  H     -3.344260    4.371120    1.229400
  H     -2.676210    5.985680    1.518750
  H     -3.553150    5.158470    2.803700
  H      6.343390    2.052290    6.185810
  H      9.099240    4.501440    9.389030
  H      7.717440    5.226440   10.228130
  H      8.504660    6.103080    8.918480
  H      6.320740    3.220340    4.152870
  H     18.796680   -2.735090   -3.659050
  H     23.476050   -3.210610   -3.209010
  H     21.651220   -3.900870    1.266480
  H     20.551750   -5.200420    0.775880
  H     19.979070   -3.534710    0.807110
  H     19.348250   -2.798270   -9.561150
  H     19.668600   -5.941300  -13.286000
  H     19.450780   -7.362960  -12.254170
  H     21.076800   -6.817560  -12.658140
  H     23.109030   -5.523360   -8.658300
  H     25.017370   -5.990450   -6.961780

 Total Charge           Charge          ....    0
 Multiplicity           Mult            ....    1
 Number of Electrons    NEL             ....  656
 Basis Dimension        Dim             .... 1228

ORBITAL ENERGIES
----------------

  NO   OCC          E(Eh)            E(eV)
   0   2.0000    -101.583124     -2764.2173
   1   2.0000    -101.582362     -2764.1966
   2   2.0000    -101.580291     -2764.1402
   3   2.0000    -101.579961     -2764.1313
   4   2.0000     -88.978859     -2421.2378
   5   2.0000     -88.973029     -2421.0792
   6   2.0000     -88.972914     -2421.0761
   7   2.0000     -88.969787     -2420.9910
   8   2.0000     -88.969376     -2420.9798
   9   2.0000     -88.957440     -2420.6550
  10   2.0000     -88.956954     -2420.6418
  11   2.0000     -88.955606     -2420.6051
  12   2.0000     -88.955251     -2420.5954
  13   2.0000     -88.952324     -2420.5158
  14   2.0000     -88.952309     -2420.5154
  15   2.0000     -88.949547     -2420.4402
  16   2.0000     -88.949314     -2420.4339
  17   2.0000     -24.809882      -675.1112
  18   2.0000     -24.809754      -675.1077
  19   2.0000     -14.426901      -392.5759
  20   2.0000     -14.426831      -392.5740
  21   2.0000     -14.424398      -392.5078
  22   2.0000     -14.424263      -392.5041
  23   2.0000     -10.380991      -282.4811
  24   2.0000     -10.380613      -282.4708
  25   2.0000     -10.356958      -281.8271
  26   2.0000     -10.356879      -281.8250
  27   2.0000     -10.351573      -281.6806
  28   2.0000     -10.351506      -281.6788
  29   2.0000     -10.331702      -281.1399
  30   2.0000     -10.331634      -281.1380
  31   2.0000     -10.330691      -281.1124
  32   2.0000     -10.330521      -281.1078
  33   2.0000     -10.326522      -280.9989
  34   2.0000     -10.326476      -280.9977
  35   2.0000     -10.317793      -280.7614
  36   2.0000     -10.317319      -280.7485
  37   2.0000     -10.315414      -280.6967
  38   2.0000     -10.315183      -280.6904
  39   2.0000     -10.310846      -280.5724
  40   2.0000     -10.310685      -280.5680
  41   2.0000     -10.306093      -280.4431
  42   2.0000     -10.305975      -280.4398
  43   2.0000     -10.305194      -280.4186
  44   2.0000     -10.305180      -280.4182
  45   2.0000     -10.304310      -280.3945
  46   2.0000     -10.303991      -280.3858
  47   2.0000     -10.303546      -280.3737
  48   2.0000     -10.303357      -280.3686
  49   2.0000     -10.303077      -280.3610
  50   2.0000     -10.303054      -280.3604
  51   2.0000     -10.301254      -280.3114
  52   2.0000     -10.300961      -280.3034
  53   2.0000     -10.298875      -280.2466
  54   2.0000     -10.298625      -280.2398
  55   2.0000     -10.297068      -280.1975
  56   2.0000     -10.296885      -280.1925
  57   2.0000     -10.296716      -280.1879
  58   2.0000     -10.296616      -280.1852
  59   2.0000     -10.289185      -279.9830
  60   2.0000     -10.288947      -279.9765
  61   2.0000     -10.287605      -279.9400
  62   2.0000     -10.287170      -279.9281
  63   2.0000     -10.283184      -279.8197
  64   2.0000     -10.283092      -279.8171
  65   2.0000     -10.279027      -279.7066
  66   2.0000     -10.278018      -279.6791
  67   2.0000     -10.276080      -279.6264
  68   2.0000     -10.275760      -279.6176
  69   2.0000     -10.275631      -279.6141
  70   2.0000     -10.275570      -279.6125
  71   2.0000     -10.274510      -279.5836
  72   2.0000     -10.274398      -279.5806
  73   2.0000     -10.272455      -279.5277
  74   2.0000     -10.272452      -279.5276
  75   2.0000      -9.537851      -259.5381
  76   2.0000      -9.537100      -259.5177
  77   2.0000      -9.535039      -259.4616
  78   2.0000      -9.534757      -259.4539
  79   2.0000      -8.073123      -219.6809
  80   2.0000      -8.068513      -219.5554
  81   2.0000      -8.068508      -219.5553
  82   2.0000      -8.065430      -219.4715
  83   2.0000      -8.065156      -219.4641
  84   2.0000      -8.053123      -219.1366
  85   2.0000      -8.052719      -219.1256
  86   2.0000      -8.051227      -219.0850
  87   2.0000      -8.050880      -219.0756
  88   2.0000      -8.047188      -218.9751
  89   2.0000      -8.047142      -218.9739
  90   2.0000      -8.045234      -218.9220
  91   2.0000      -8.045174      -218.9203
  92   2.0000      -7.308083      -198.8630
  93   2.0000      -7.307352      -198.8432
  94   2.0000      -7.305285      -198.7869
  95   2.0000      -7.304998      -198.7791
  96   2.0000      -7.297933      -198.5869
  97   2.0000      -7.297859      -198.5848
  98   2.0000      -7.297170      -198.5661
  99   2.0000      -7.297095      -198.5640
 100   2.0000      -7.295113      -198.5101
 101   2.0000      -7.295034      -198.5080
 102   2.0000      -7.294831      -198.5024
 103   2.0000      -7.294741      -198.5000
 104   2.0000      -6.042711      -164.4305
 105   2.0000      -6.038711      -164.3217
 106   2.0000      -6.037749      -164.2955
 107   2.0000      -6.037730      -164.2950
 108   2.0000      -6.034633      -164.2107
 109   2.0000      -6.034467      -164.2062
 110   2.0000      -6.034320      -164.2022
 111   2.0000      -6.033924      -164.1914
 112   2.0000      -6.033899      -164.1907
 113   2.0000      -6.030955      -164.1106
 114   2.0000      -6.030716      -164.1041
 115   2.0000      -6.030274      -164.0921
 116   2.0000      -6.030233      -164.0910
 117   2.0000      -6.027147      -164.0070
 118   2.0000      -6.026823      -163.9982
 119   2.0000      -6.022440      -163.8789
 120   2.0000      -6.022010      -163.8672
 121   2.0000      -6.020561      -163.8278
 122   2.0000      -6.020190      -163.8177
 123   2.0000      -6.018263      -163.7653
 124   2.0000      -6.017800      -163.7527
 125   2.0000      -6.016986      -163.7305
 126   2.0000      -6.016914      -163.7285
 127   2.0000      -6.016361      -163.7135
 128   2.0000      -6.016024      -163.7043
 129   2.0000      -6.015175      -163.6812
 130   2.0000      -6.014925      -163.6744
 131   2.0000      -6.014876      -163.6731
 132   2.0000      -6.014833      -163.6719
 133   2.0000      -6.013302      -163.6303
 134   2.0000      -6.012958      -163.6209
 135   2.0000      -6.012639      -163.6122
 136   2.0000      -6.012590      -163.6109
 137   2.0000      -6.010447      -163.5526
 138   2.0000      -6.010415      -163.5517
 139   2.0000      -6.008428      -163.4976
 140   2.0000      -6.008409      -163.4971
 141   2.0000      -6.006747      -163.4519
 142   2.0000      -6.006746      -163.4519
 143   2.0000      -1.329405       -36.1750
 144   2.0000      -1.318167       -35.8691
 145   2.0000      -1.097951       -29.8768
 146   2.0000      -1.097532       -29.8654
 147   2.0000      -1.059408       -28.8280
 148   2.0000      -1.057756       -28.7830
 149   2.0000      -1.011457       -27.5231
 150   2.0000      -1.011219       -27.5167
 151   2.0000      -1.006981       -27.4013
 152   2.0000      -1.000342       -27.2207
 153   2.0000      -1.000073       -27.2134
 154   2.0000      -0.993103       -27.0237
 155   2.0000      -0.992873       -27.0174
 156   2.0000      -0.976555       -26.5734
 157   2.0000      -0.976436       -26.5702
 158   2.0000      -0.943017       -25.6608
 159   2.0000      -0.942733       -25.6531
 160   2.0000      -0.938503       -25.5380
 161   2.0000      -0.938351       -25.5338
 162   2.0000      -0.922889       -25.1131
 163   2.0000      -0.920702       -25.0536
 164   2.0000      -0.912426       -24.8284
 165   2.0000      -0.908418       -24.7193
 166   2.0000      -0.898322       -24.4446
 167   2.0000      -0.898128       -24.4393
 168   2.0000      -0.889824       -24.2133
 169   2.0000      -0.884948       -24.0807
 170   2.0000      -0.877766       -23.8852
 171   2.0000      -0.860651       -23.4195
 172   2.0000      -0.859459       -23.3871
 173   2.0000      -0.855673       -23.2840
 174   2.0000      -0.848173       -23.0800
 175   2.0000      -0.847459       -23.0605
 176   2.0000      -0.844569       -22.9819
 177   2.0000      -0.839854       -22.8536
 178   2.0000      -0.834224       -22.7004
 179   2.0000      -0.830926       -22.6106
 180   2.0000      -0.809962       -22.0402
 181   2.0000      -0.807816       -21.9818
 182   2.0000      -0.805359       -21.9149
 183   2.0000      -0.804111       -21.8810
 184   2.0000      -0.803791       -21.8723
 185   2.0000      -0.795213       -21.6389
 186   2.0000      -0.793294       -21.5866
 187   2.0000      -0.784261       -21.3408
 188   2.0000      -0.780973       -21.2514
 189   2.0000      -0.775021       -21.0894
 190   2.0000      -0.755802       -20.5664
 191   2.0000      -0.743904       -20.2426
 192   2.0000      -0.743766       -20.2389
 193   2.0000      -0.741067       -20.1655
 194   2.0000      -0.710134       -19.3237
 195   2.0000      -0.706528       -19.2256
 196   2.0000      -0.702832       -19.1250
 197   2.0000      -0.687596       -18.7104
 198   2.0000      -0.685358       -18.6496
 199   2.0000      -0.677548       -18.4370
 200   2.0000      -0.671402       -18.2698
 201   2.0000      -0.660417       -17.9709
 202   2.0000      -0.658451       -17.9173
 203   2.0000      -0.656689       -17.8694
 204   2.0000      -0.655938       -17.8490
 205   2.0000      -0.650358       -17.6971
 206   2.0000      -0.649877       -17.6841
 207   2.0000      -0.644698       -17.5431
 208   2.0000      -0.640870       -17.4390
 209   2.0000      -0.637403       -17.3446
 210   2.0000      -0.634623       -17.2690
 211   2.0000      -0.627735       -17.0815
 212   2.0000      -0.627541       -17.0763
 213   2.0000      -0.613327       -16.6895
 214   2.0000      -0.605841       -16.4858
 215   2.0000      -0.605542       -16.4776
 216   2.0000      -0.604916       -16.4606
 217   2.0000      -0.594946       -16.1893
 218   2.0000      -0.594667       -16.1817
 219   2.0000      -0.593814       -16.1585
 220   2.0000      -0.590049       -16.0561
 221   2.0000      -0.581754       -15.8303
 222   2.0000      -0.581081       -15.8120
 223   2.0000      -0.576531       -15.6882
 224   2.0000      -0.576296       -15.6818
 225   2.0000      -0.562398       -15.3036
 226   2.0000      -0.559555       -15.2263
 227   2.0000      -0.558589       -15.2000
 228   2.0000      -0.557726       -15.1765
 229   2.0000      -0.547362       -14.8945
 230   2.0000      -0.546116       -14.8606
 231   2.0000      -0.545089       -14.8326
 232   2.0000      -0.540664       -14.7122
 233   2.0000      -0.535365       -14.5680
 234   2.0000      -0.532060       -14.4781
 235   2.0000      -0.531804       -14.4711
 236   2.0000      -0.524434       -14.2706
 237   2.0000      -0.522591       -14.2204
 238   2.0000      -0.520555       -14.1650
 239   2.0000      -0.520016       -14.1504
 240   2.0000      -0.518834       -14.1182
 241   2.0000      -0.518030       -14.0963
 242   2.0000      -0.517519       -14.0824
 243   2.0000      -0.516973       -14.0675
 244   2.0000      -0.511852       -13.9282
 245   2.0000      -0.511464       -13.9177
 246   2.0000      -0.510806       -13.8997
 247   2.0000      -0.509213       -13.8564
 248   2.0000      -0.507301       -13.8044
 249   2.0000      -0.501286       -13.6407
 250   2.0000      -0.500170       -13.6103
 251   2.0000      -0.498632       -13.5685
 252   2.0000      -0.497318       -13.5327
 253   2.0000      -0.493472       -13.4281
 254   2.0000      -0.491919       -13.3858
 255   2.0000      -0.489947       -13.3321
 256   2.0000      -0.485528       -13.2119
 257   2.0000      -0.480135       -13.0652
 258   2.0000      -0.478886       -13.0312
 259   2.0000      -0.477856       -13.0031
 260   2.0000      -0.476742       -12.9728
 261   2.0000      -0.471896       -12.8409
 262   2.0000      -0.470775       -12.8104
 263   2.0000      -0.468831       -12.7575
 264   2.0000      -0.467157       -12.7120
 265   2.0000      -0.463799       -12.6206
 266   2.0000      -0.463295       -12.6069
 267   2.0000      -0.462693       -12.5905
 268   2.0000      -0.460989       -12.5442
 269   2.0000      -0.460792       -12.5388
 270   2.0000      -0.460035       -12.5182
 271   2.0000      -0.456474       -12.4213
 272   2.0000      -0.455318       -12.3898
 273   2.0000      -0.450629       -12.2622
 274   2.0000      -0.448738       -12.2108
 275   2.0000      -0.447806       -12.1854
 276   2.0000      -0.442627       -12.0445
 277   2.0000      -0.441448       -12.0124
 278   2.0000      -0.438280       -11.9262
 279   2.0000      -0.435501       -11.8506
 280   2.0000      -0.430630       -11.7180
 281   2.0000      -0.425398       -11.5757
 282   2.0000      -0.422434       -11.4950
 283   2.0000      -0.421840       -11.4788
 284   2.0000      -0.419693       -11.4204
 285   2.0000      -0.419133       -11.4052
 286   2.0000      -0.418263       -11.3815
 287   2.0000      -0.416827       -11.3424
 288   2.0000      -0.415397       -11.3035
 289   2.0000      -0.412298       -11.2192
 290   2.0000      -0.411298       -11.1920
 291   2.0000      -0.408278       -11.1098
 292   2.0000      -0.402809       -10.9610
 293   2.0000      -0.399977       -10.8839
 294   2.0000      -0.397233       -10.8093
 295   2.0000      -0.396681       -10.7942
 296   2.0000      -0.391395       -10.6504
 297   2.0000      -0.383127       -10.4254
 298   2.0000      -0.380761       -10.3610
 299   2.0000      -0.379876       -10.3370
 300   2.0000      -0.379291       -10.3210
 301   2.0000      -0.378478       -10.2989
 302   2.0000      -0.376049       -10.2328
 303   2.0000      -0.375659       -10.2222
 304   2.0000      -0.373068       -10.1517
 305   2.0000      -0.372898       -10.1471
 306   2.0000      -0.358771        -9.7626
 307   2.0000      -0.350898        -9.5484
 308   2.0000      -0.348785        -9.4909
 309   2.0000      -0.333352        -9.0710
 310   2.0000      -0.330279        -8.9874
 311   2.0000      -0.329922        -8.9776
 312   2.0000      -0.327152        -8.9023
 313   2.0000      -0.323783        -8.8106
 314   2.0000      -0.317258        -8.6330
 315   2.0000      -0.315662        -8.5896
 316   2.0000      -0.313685        -8.5358
 317   2.0000      -0.312585        -8.5059
 318   2.0000      -0.312031        -8.4908
 319   2.0000      -0.301889        -8.2148
 320   2.0000      -0.298566        -8.1244
 321   2.0000      -0.297771        -8.1028
 322   2.0000      -0.292277        -7.9533
 323   2.0000      -0.291403        -7.9295
 324   2.0000      -0.275070        -7.4850
 325   2.0000      -0.256201        -6.9716
 326   2.0000      -0.244992        -6.6666
 327   2.0000      -0.239253        -6.5104
 328   0.0000      -0.077340        -2.1045
 329   0.0000      -0.054312        -1.4779
 330   0.0000      -0.036297        -0.9877
 331   0.0000      -0.018524        -0.5041
 332   0.0000      -0.008810        -0.2397

MULLIKEN ATOMIC CHARGES
-----------------------
   0 C :   -0.046003
   1 C :    0.000686
   2 C :    0.055258
   3 C :    0.141355
   4 C :   -0.214663
   5 C :    0.037899
   6 C :    0.083713
   7 C :   -0.267798
   8 S :    0.135908
   9 C :    0.125707
  10 Cl:   -0.089179
  11 C :   -0.148339
  12 C :    0.095473
  13 C :    0.135203
  14 C :   -0.164041
  15 S :    0.115942
  16 C :   -0.213223
  17 C :    0.030259
  18 C :    0.081119
  19 C :   -0.264484
  20 S :    0.148079
  21 C :    0.121202
  22 Cl:   -0.089151
  23 C :   -0.085370
  24 C :   -0.010692
  25 S :    0.171535
  26 C :   -0.100081
  27 N :   -0.030476
  28 C :   -0.064513
  29 C :   -0.053869
  30 S :    0.118760
  31 N :   -0.043088
  32 C :   -0.092334
  33 S :    0.157945
  34 C :   -0.140593
  35 C :    0.203859
  36 F :   -0.166292
  37 C :    0.202839
  38 F :   -0.166052
  39 C :   -0.139516
  40 S :    0.276615
  41 C :   -0.096191
  42 N :   -0.039630
  43 C :   -0.055236
  44 C :   -0.065621
  45 S :    0.157824
  46 N :   -0.028623
  47 C :   -0.102750
  48 S :    0.119314
  49 C :   -0.013981
  50 C :   -0.075890
  51 C :    0.077526
  52 C :    0.145321
  53 C :   -0.214661
  54 C :    0.034912
  55 C :    0.085640
  56 C :   -0.266234
  57 S :    0.135143
  58 C :    0.123544
  59 Cl:   -0.089685
  60 C :   -0.159005
  61 C :    0.054220
  62 C :    0.139663
  63 C :   -0.141646
  64 S :    0.170647
  65 C :   -0.214675
  66 C :    0.036707
  67 C :    0.084056
  68 C :   -0.267256
  69 S :    0.135509
  70 C :    0.123430
  71 Cl:   -0.088543
  72 C :    0.003086
  73 C :   -0.041507
  74 S :    0.108084
  75 H :    0.028014
  76 H :   -0.009860
  77 H :   -0.006275
  78 H :    0.025067
  79 H :    0.036284
  80 H :    0.031617
  81 H :   -0.010692
  82 H :    0.024734
  83 H :    0.035590
  84 H :    0.033934
  85 H :   -0.001764
  86 H :   -0.003227
  87 H :   -0.006126
  88 H :    0.024378
  89 H :    0.036596
  90 H :    0.033959
  91 H :   -0.005250
  92 H :    0.024453
  93 H :    0.039207
  94 H :    0.029175
  95 H :   -0.009956
  96 H :    0.027048
Sum of atomic charges:   -0.0000000

LOEWDIN ATOMIC CHARGES
----------------------
   0 C :   -0.158960
   1 C :   -0.070848
   2 C :   -0.040048
   3 C :   -0.055284
   4 C :   -0.172852
   5 C :   -0.074213
   6 C :   -0.177072
   7 C :   -0.198929
   8 S :    0.445105
   9 C :   -0.061353
  10 Cl:    0.128851
  11 C :   -0.142165
  12 C :   -0.039468
  13 C :   -0.051828
  14 C :   -0.155063
  15 S :    0.401127
  16 C :   -0.174448
  17 C :   -0.068959
  18 C :   -0.178832
  19 C :   -0.197895
  20 S :    0.438554
  21 C :   -0.061315
  22 Cl:    0.127285
  23 C :   -0.047054
  24 C :   -0.187959
  25 S :    0.447409
  26 C :   -0.125458
  27 N :   -0.100699
  28 C :   -0.213358
  29 C :   -0.210555
  30 S :    0.411473
  31 N :   -0.104892
  32 C :   -0.137519
  33 S :    0.431990
  34 C :   -0.226516
  35 C :    0.023413
  36 F :   -0.043896
  37 C :    0.023326
  38 F :   -0.043817
  39 C :   -0.226893
  40 S :    0.527060
  41 C :   -0.137816
  42 N :   -0.104750
  43 C :   -0.210685
  44 C :   -0.213535
  45 S :    0.432276
  46 N :   -0.100977
  47 C :   -0.125820
  48 S :    0.411654
  49 C :   -0.187658
  50 C :   -0.054929
  51 C :   -0.044990
  52 C :   -0.050674
  53 C :   -0.172170
  54 C :   -0.074321
  55 C :   -0.177270
  56 C :   -0.198245
  57 S :    0.445861
  58 C :   -0.061208
  59 Cl:    0.128467
  60 C :   -0.147418
  61 C :   -0.040604
  62 C :   -0.055280
  63 C :   -0.141415
  64 S :    0.449278
  65 C :   -0.172582
  66 C :   -0.074904
  67 C :   -0.177197
  68 C :   -0.199189
  69 S :    0.446018
  70 C :   -0.061304
  71 Cl:    0.128810
  72 C :   -0.070781
  73 C :   -0.158770
  74 S :    0.416641
  75 H :    0.026065
  76 H :    0.019849
  77 H :    0.027607
  78 H :    0.034127
  79 H :    0.039710
  80 H :    0.037821
  81 H :    0.033596
  82 H :    0.033970
  83 H :    0.039446
  84 H :    0.038834
  85 H :    0.027937
  86 H :    0.014646
  87 H :    0.027040
  88 H :    0.034110
  89 H :    0.039696
  90 H :    0.038863
  91 H :    0.027378
  92 H :    0.034077
  93 H :    0.040428
  94 H :    0.036989
  95 H :    0.019848
  96 H :    0.026010

  Mayer bond orders larger than 0.100000
B(  0-C ,  1-C ) :   1.6480 B(  0-C , 15-S ) :   1.1086 B(  0-C , 75-H ) :   0.9655
B(  1-C ,  2-C ) :   1.1845 B(  1-C , 76-H ) :   0.9781 B(  2-C ,  3-C ) :   1.3175
B(  2-C , 14-C ) :   1.2762 B(  3-C ,  4-C ) :   0.9833 B(  3-C , 11-C ) :   1.4105
B(  4-C ,  5-C ) :   1.5568 B(  4-C ,  8-S ) :   1.1314 B(  5-C ,  6-C ) :   1.2213
B(  5-C , 77-H ) :   0.9950 B(  6-C ,  7-C ) :   1.6075 B(  6-C , 10-Cl) :   1.0052
B(  7-C ,  8-S ) :   1.1271 B(  7-C ,  9-C ) :   1.0833 B(  9-C , 78-H ) :   0.9434
B(  9-C , 79-H ) :   0.9483 B(  9-C , 80-H ) :   0.9478 B( 11-C , 12-C ) :   1.2756
B( 11-C , 25-S ) :   1.0571 B( 12-C , 13-C ) :   1.3222 B( 12-C , 23-C ) :   1.1935
B( 13-C , 14-C ) :   1.4060 B( 13-C , 16-C ) :   0.9864 B( 14-C , 15-S ) :   1.0753
B( 16-C , 17-C ) :   1.5455 B( 16-C , 20-S ) :   1.1356 B( 17-C , 18-C ) :   1.2167
B( 17-C , 81-H ) :   1.0091 B( 18-C , 19-C ) :   1.5999 B( 18-C , 22-Cl) :   1.0059
B( 19-C , 20-S ) :   1.1304 B( 19-C , 21-C ) :   1.0841 B( 21-C , 82-H ) :   0.9444
B( 21-C , 83-H ) :   0.9482 B( 21-C , 84-H ) :   0.9489 B( 23-C , 24-C ) :   1.5565
B( 23-C , 85-H ) :   0.9826 B( 24-C , 25-S ) :   1.0637 B( 24-C , 26-C ) :   1.1251
B( 26-C , 27-N ) :   1.7385 B( 26-C , 30-S ) :   1.0866 B( 27-N , 28-C ) :   1.3934
B( 28-C , 29-C ) :   1.3024 B( 28-C , 33-S ) :   1.0906 B( 29-C , 30-S ) :   1.0977
B( 29-C , 31-N ) :   1.4126 B( 31-N , 32-C ) :   1.7146 B( 31-N , 33-S ) :   0.1031
B( 32-C , 33-S ) :   1.1010 B( 32-C , 34-C ) :   1.1459 B( 34-C , 35-C ) :   1.4532
B( 34-C , 39-C ) :   0.1437 B( 34-C , 40-S ) :   1.1093 B( 35-C , 36-F ) :   1.1573
B( 35-C , 37-C ) :   1.2387 B( 37-C , 38-F ) :   1.1566 B( 37-C , 39-C ) :   1.4521
B( 39-C , 40-S ) :   1.1101 B( 39-C , 41-C ) :   1.1471 B( 41-C , 42-N ) :   1.7169
B( 41-C , 45-S ) :   1.1013 B( 42-N , 43-C ) :   1.4124 B( 42-N , 45-S ) :   0.1030
B( 43-C , 44-C ) :   1.3038 B( 43-C , 48-S ) :   1.0972 B( 44-C , 45-S ) :   1.0906
B( 44-C , 46-N ) :   1.3940 B( 46-N , 47-C ) :   1.7394 B( 47-C , 48-S ) :   1.0880
B( 47-C , 49-C ) :   1.1264 B( 49-C , 50-C ) :   1.5736 B( 49-C , 64-S ) :   1.0671
B( 50-C , 51-C ) :   1.1959 B( 50-C , 86-H ) :   0.9646 B( 51-C , 52-C ) :   1.2991
B( 51-C , 63-C ) :   1.2760 B( 52-C , 53-C ) :   0.9885 B( 52-C , 60-C ) :   1.4274
B( 53-C , 54-C ) :   1.5521 B( 53-C , 57-S ) :   1.1282 B( 54-C , 55-C ) :   1.2211
B( 54-C , 87-H ) :   0.9955 B( 55-C , 56-C ) :   1.6043 B( 55-C , 59-Cl) :   1.0045
B( 56-C , 57-S ) :   1.1291 B( 56-C , 58-C ) :   1.0830 B( 58-C , 88-H ) :   0.9438
B( 58-C , 89-H ) :   0.9488 B( 58-C , 90-H ) :   0.9481 B( 60-C , 61-C ) :   1.2744
B( 60-C , 74-S ) :   1.0719 B( 61-C , 62-C ) :   1.3146 B( 61-C , 72-C ) :   1.1837
B( 62-C , 63-C ) :   1.4111 B( 62-C , 65-C ) :   0.9845 B( 63-C , 64-S ) :   1.0576
B( 65-C , 66-C ) :   1.5549 B( 65-C , 69-S ) :   1.1312 B( 66-C , 67-C ) :   1.2216
B( 66-C , 91-H ) :   0.9948 B( 67-C , 68-C ) :   1.6062 B( 67-C , 71-Cl) :   1.0072
B( 68-C , 69-S ) :   1.1289 B( 68-C , 70-C ) :   1.0826 B( 70-C , 92-H ) :   0.9441
B( 70-C , 93-H ) :   0.9491 B( 70-C , 94-H ) :   0.9479 B( 72-C , 73-C ) :   1.6476
B( 72-C , 95-H ) :   0.9766 B( 73-C , 74-S ) :   1.1091 B( 73-C , 96-H ) :   0.9661

-----------------------------------------------------------------------------
         ABSORPTION SPECTRUM VIA TRANSITION ELECTRIC DIPOLE MOMENTS
-----------------------------------------------------------------------------
State   Energy  Wavelength   fosc         T2         TX        TY        TZ
        (cm-1)    (nm)                  (au**2)     (au)      (au)      (au)
-----------------------------------------------------------------------------
   0   21146.9    472.9   2.423960572  37.73585   4.82831  -2.29482  -3.02607
   1   24010.6    416.5   0.707643146   9.70259  -1.62071   0.00989  -2.66003
   2   25121.2    398.1   0.421965432   5.52982   1.91458  -0.63319  -1.20965
   3   28079.1    356.1   0.202913682   2.37905  -0.70943   0.27672  -1.34134
   4   28785.6    347.4   0.208285323   2.38210   0.85095   0.24330   1.26443
   5   29624.7    337.6   0.006156194   0.06841  -0.06237  -0.25032   0.04318
   6   31337.2    319.1   0.409681024   4.30389  -1.18863  -0.24268  -1.68290
   7   32010.2    312.4   0.015062912   0.15492  -0.24763   0.12471   0.27936
   8   33046.6    302.6   0.059762739   0.59536  -0.55932   0.17858   0.50063
   9   33169.5    301.5   0.616177933   6.11565  -1.93812   0.89541   1.24803
  10   34343.9    291.2   0.028779724   0.27588   0.33983  -0.12439  -0.38068
  11   34410.7    290.6   0.090537122   0.86618  -0.55927   0.30351   0.67918
  12   34553.5    289.4   0.196908916   1.87607   1.22654  -0.28480  -0.53902
  13   35358.2    282.8   0.008515068   0.07928  -0.07969   0.09983   0.25093
  14   35464.1    282.0   0.024485286   0.22730   0.16625   0.04084   0.44496
  15   36955.7    270.6   0.043886637   0.39095  -0.06389  -0.06669  -0.61841
  16   37013.7    270.2   0.067882878   0.60377  -0.70178   0.28181   0.17848
  17   37770.3    264.8   0.008233274   0.07176   0.06844   0.09168   0.24222
  18   38426.9    260.2   0.023092638   0.19784  -0.21370  -0.16677  -0.35265
  19   38665.7    258.6   0.056269579   0.47910   0.46538  -0.15487  -0.48840
  20   38848.8    257.4   0.069905057   0.59239   0.71485  -0.28432   0.02310
  21   39159.6    255.4   0.014189466   0.11929  -0.30713  -0.10042   0.12198
  22   39413.6    253.7   0.019449014   0.16245   0.28843  -0.26666  -0.09030
  23   39580.7    252.6   0.008489525   0.07061   0.11156   0.14914  -0.18953
  24   39760.8    251.5   0.015985575   0.13236  -0.04894  -0.23442  -0.27388
  25   39878.6    250.8   0.027420930   0.22637  -0.15064   0.22506   0.39119
  26   39992.6    250.0   0.071305826   0.58698   0.54234  -0.20860   0.49932

FINAL SINGLE POINT ENERGY     -9425.693261135502

DIPOLE MOMENT
-------------
                                X             Y             Z
Electronic contribution:     -6.90004       1.37964     -26.04796
Nuclear contribution   :      7.00223      -1.29837      27.13717
                        -----------------------------------------
Total Dipole Moment    :      0.10219       0.08127       1.08920
                        -----------------------------------------
Magnitude (a.u.)       :      1.09700
Magnitude (Debye)      :      2.78836

Rotational constants in cm-1:     0.000995     0.000133     0.000118
Rotational constants in MHz :    29.832534     3.984543     3.548722

                             ****ORCA TERMINATED NORMALLY****
TOTAL RUN TIME: 0 days 0 hours 8 minutes 52 seconds 517 msec
