                         Program Version 4.2.0 -  RELEASE  -
|  1> # ORCA input file
|  2> # SCF done       -212.349068519869          0.000898061045
|  3> ! CAM-B3LYP def2-SVP def2/J RIJCOSX Grid4 TightSCF
|  4> %maxcore 5000
|  5> %tddft
|  6>     Mode sTDDFT
|  7>     Ethresh 5.0
|  8>     maxcore 5000
|  9> end
| 10>
| 11> %pal
| 12>   nprocs 6
| 13>   end
| 14> * xyz 0 1
| 15>    C       -2.25189        -2.36393         2.62435
| 16>    C       -2.54726        -3.21512         1.59012
| 17>    C       -1.79608        -4.36764         1.27636
| 18>    N       -1.23548        -5.32159         0.97045
| 19>    C       -3.60300        -3.05766         0.66780
| 20>    N       -4.42008        -2.99080        -0.13696
| 21>    C       -1.09397        -2.47435         3.50043
| 22>    C       -1.04742        -1.32990         4.33449
| 23>    C       -0.05908        -1.13130         5.26834
| 24>    C        0.93129        -2.11052         5.38721
| 25>    C        0.87496        -3.25381         4.55325
| 26>    C       -0.12376        -3.45334         3.60769
| 27>    S        2.19496        -4.33272         4.87672
| 28>    C        2.79878        -3.26697         6.09769
| 29>    C        2.05277        -2.15268         6.26232
| 30>    C       -2.18937        -0.45033         4.03530
| 31>    O       -2.44081         0.60119         4.58477
| 32>    C       -2.97200        -1.15272         2.98645
| 33>    C       -4.21717        -0.83763         2.51859
| 34>    C       -4.99354         0.32794         2.68087
| 35>    C       -4.69459         1.59514         3.16530
| 36>    C       -5.76833         2.46760         3.04855
| 37>    C       -6.91288         1.86646         2.47738
| 38>    S       -6.65393         0.23793         2.07101
| 39>    C       -7.93653         2.83869         2.39491
| 40>    C       -7.44633         4.05655         2.89886
| 41>    C       -6.06842         3.86181         3.33105
| 42>    C       -5.23974         4.79966         3.87006
| 43>    C       -3.89891         4.53495         4.22694
| 44>    N       -2.80250         4.36119         4.51055
| 45>    C       -5.66633         6.12615         4.09901
| 46>    N       -6.01332         7.20238         4.28729
| 47>    C       -8.37644         5.09132         2.82150
| 48>    C       -9.57431         4.66861         2.26751
| 49>    S       -9.54875         2.96528         1.84430
| 50>    C      -10.72249         5.45737         1.99532
| 51>    C      -10.83412         6.83543         2.07710
| 52>    C      -12.09383         7.27913         1.67754
| 53>    C      -12.95307         6.23094         1.30322
| 54>    S      -12.20723         4.70202         1.43584
| 55>    C      -14.18756         6.78423         0.88198
| 56>    C      -14.10527         8.18461         0.97464
| 57>    C      -12.79245         8.54202         1.49001
| 58>    C      -12.31786         9.79598         1.73489
| 59>    C      -11.01694        10.02437         2.23288
| 60>    N       -9.95972        10.21233         2.63353
| 61>    C      -13.09641        10.94947         1.49928
| 62>    N      -13.73247        11.88387         1.30865
| 63>    C      -15.26246         8.82612         0.53588
| 64>    C      -16.22718         7.92560         0.12170
| 65>    S      -15.69670         6.25690         0.28170
| 66>    C      -17.50346         8.21619        -0.42287
| 67>    C      -18.51789         7.32180        -0.71840
| 68>    C      -19.62064         7.95662        -1.28618
| 69>    C      -19.43808         9.34269        -1.43353
| 70>    S      -17.92094         9.86800        -0.84938
| 71>    C      -20.58911         9.88674        -2.05164
| 72>    C      -21.50932         8.84474        -2.28767
| 73>    C      -20.93363         7.60041        -1.80607
| 74>    C      -21.49387         6.35799        -1.83992
| 75>    C      -20.82022         5.22148        -1.34391
| 76>    N      -20.27019         4.29740        -0.94648
| 77>    C      -22.77777         6.12415        -2.37773
| 78>    N      -23.81637         5.92698        -2.82064
| 79>    C      -22.65893         9.28193        -2.93561
| 80>    C      -22.64132        10.64790        -3.18262
| 81>    S      -21.14534        11.39032        -2.61683
| 82>    C      -23.61497        11.34973        -3.92886
| 83>    C      -23.76850        12.68408        -4.14026
| 84>    C      -23.22582        13.85617        -3.48696
| 85>    C      -22.98268        13.98615        -2.14423
| 86>    C      -22.56002        15.18550        -1.53732
| 87>    N      -22.20287        16.13702        -1.00422
| 88>    C      -23.23289        12.95105        -1.22065
| 89>    N      -23.46263        12.13602        -0.44536
| 90>    C      -23.27833        14.94892        -4.44967
| 91>    C      -24.07277        14.54040        -5.55320
| 92>    C      -24.50030        13.14313        -5.35742
| 93>    O      -25.23099        12.47847        -6.05406
| 94>    C      -24.33850        15.37314        -6.61358
| 95>    C      -23.78574        16.65740        -6.59010
| 96>    C      -22.98376        17.04871        -5.49006
| 97>    C      -22.72325        16.21227        -4.41057
| 98>    S      -22.39704        18.66932        -5.68511
| 99>    C      -23.21598        18.80967        -7.20205
|100>    C      -23.89828        17.69835        -7.55446
|101>    H       -0.05239        -0.24576         5.88470
|102>    H       -0.12384        -4.34277         3.00018
|103>    H        3.69005        -3.54582         6.62550
|104>    H        2.27491        -1.37854         6.97423
|105>    H       -4.71155        -1.59594         1.92214
|106>    H       -3.73554         1.84265         3.58271
|107>    H       -8.20364         6.09946         3.14917
|108>    H      -10.02994         7.47355         2.39313
|109>    H      -15.41176         9.89069         0.51200
|110>    H      -18.43980         6.26732        -0.52291
|111>    H      -23.48783         8.65683        -3.21509
|112>    H      -24.28039        10.71777        -4.51058
|113>    H      -24.95302        15.04314        -7.43668
|114>    H      -22.10188        16.54644        -3.59578
|115>    H      -23.13350        19.73097        -7.74525
|116>    H      -24.46538        17.60235        -8.46256
|117> *
|118>
|119>                          ****END OF INPUT****

CARTESIAN COORDINATES (ANGSTROEM)
---------------------------------
  C     -2.251890   -2.363930    2.624350
  C     -2.547260   -3.215120    1.590120
  C     -1.796080   -4.367640    1.276360
  N     -1.235480   -5.321590    0.970450
  C     -3.603000   -3.057660    0.667800
  N     -4.420080   -2.990800   -0.136960
  C     -1.093970   -2.474350    3.500430
  C     -1.047420   -1.329900    4.334490
  C     -0.059080   -1.131300    5.268340
  C      0.931290   -2.110520    5.387210
  C      0.874960   -3.253810    4.553250
  C     -0.123760   -3.453340    3.607690
  S      2.194960   -4.332720    4.876720
  C      2.798780   -3.266970    6.097690
  C      2.052770   -2.152680    6.262320
  C     -2.189370   -0.450330    4.035300
  O     -2.440810    0.601190    4.584770
  C     -2.972000   -1.152720    2.986450
  C     -4.217170   -0.837630    2.518590
  C     -4.993540    0.327940    2.680870
  C     -4.694590    1.595140    3.165300
  C     -5.768330    2.467600    3.048550
  C     -6.912880    1.866460    2.477380
  S     -6.653930    0.237930    2.071010
  C     -7.936530    2.838690    2.394910
  C     -7.446330    4.056550    2.898860
  C     -6.068420    3.861810    3.331050
  C     -5.239740    4.799660    3.870060
  C     -3.898910    4.534950    4.226940
  N     -2.802500    4.361190    4.510550
  C     -5.666330    6.126150    4.099010
  N     -6.013320    7.202380    4.287290
  C     -8.376440    5.091320    2.821500
  C     -9.574310    4.668610    2.267510
  S     -9.548750    2.965280    1.844300
  C    -10.722490    5.457370    1.995320
  C    -10.834120    6.835430    2.077100
  C    -12.093830    7.279130    1.677540
  C    -12.953070    6.230940    1.303220
  S    -12.207230    4.702020    1.435840
  C    -14.187560    6.784230    0.881980
  C    -14.105270    8.184610    0.974640
  C    -12.792450    8.542020    1.490010
  C    -12.317860    9.795980    1.734890
  C    -11.016940   10.024370    2.232880
  N     -9.959720   10.212330    2.633530
  C    -13.096410   10.949470    1.499280
  N    -13.732470   11.883870    1.308650
  C    -15.262460    8.826120    0.535880
  C    -16.227180    7.925600    0.121700
  S    -15.696700    6.256900    0.281700
  C    -17.503460    8.216190   -0.422870
  C    -18.517890    7.321800   -0.718400
  C    -19.620640    7.956620   -1.286180
  C    -19.438080    9.342690   -1.433530
  S    -17.920940    9.868000   -0.849380
  C    -20.589110    9.886740   -2.051640
  C    -21.509320    8.844740   -2.287670
  C    -20.933630    7.600410   -1.806070
  C    -21.493870    6.357990   -1.839920
  C    -20.820220    5.221480   -1.343910
  N    -20.270190    4.297400   -0.946480
  C    -22.777770    6.124150   -2.377730
  N    -23.816370    5.926980   -2.820640
  C    -22.658930    9.281930   -2.935610
  C    -22.641320   10.647900   -3.182620
  S    -21.145340   11.390320   -2.616830
  C    -23.614970   11.349730   -3.928860
  C    -23.768500   12.684080   -4.140260
  C    -23.225820   13.856170   -3.486960
  C    -22.982680   13.986150   -2.144230
  C    -22.560020   15.185500   -1.537320
  N    -22.202870   16.137020   -1.004220
  C    -23.232890   12.951050   -1.220650
  N    -23.462630   12.136020   -0.445360
  C    -23.278330   14.948920   -4.449670
  C    -24.072770   14.540400   -5.553200
  C    -24.500300   13.143130   -5.357420
  O    -25.230990   12.478470   -6.054060
  C    -24.338500   15.373140   -6.613580
  C    -23.785740   16.657400   -6.590100
  C    -22.983760   17.048710   -5.490060
  C    -22.723250   16.212270   -4.410570
  S    -22.397040   18.669320   -5.685110
  C    -23.215980   18.809670   -7.202050
  C    -23.898280   17.698350   -7.554460
  H     -0.052390   -0.245760    5.884700
  H     -0.123840   -4.342770    3.000180
  H      3.690050   -3.545820    6.625500
  H      2.274910   -1.378540    6.974230
  H     -4.711550   -1.595940    1.922140
  H     -3.735540    1.842650    3.582710
  H     -8.203640    6.099460    3.149170
  H    -10.029940    7.473550    2.393130
  H    -15.411760    9.890690    0.512000
  H    -18.439800    6.267320   -0.522910
  H    -23.487830    8.656830   -3.215090
  H    -24.280390   10.717770   -4.510580
  H    -24.953020   15.043140   -7.436680
  H    -22.101880   16.546440   -3.595780
  H    -23.133500   19.730970   -7.745250
  H    -24.465380   17.602350   -8.462560

 Total Charge           Charge          ....    0
 Multiplicity           Mult            ....    1
 Number of Electrons    NEL             ....  626
 Basis Dimension        Dim             .... 1316

ORBITAL ENERGIES
----------------

  NO   OCC          E(Eh)            E(eV)
   0   2.0000     -89.005462     -2421.9617
   1   2.0000     -89.004702     -2421.9411
   2   2.0000     -89.004556     -2421.9371
   3   2.0000     -89.004442     -2421.9340
   4   2.0000     -89.001295     -2421.8484
   5   2.0000     -88.999434     -2421.7977
   6   2.0000     -88.969751     -2420.9900
   7   2.0000     -88.967279     -2420.9227
   8   2.0000     -19.219595      -522.9918
   9   2.0000     -19.217370      -522.9312
  10   2.0000     -14.441177      -392.9644
  11   2.0000     -14.440087      -392.9347
  12   2.0000     -14.439607      -392.9217
  13   2.0000     -14.438408      -392.8891
  14   2.0000     -14.436521      -392.8377
  15   2.0000     -14.433337      -392.7511
  16   2.0000     -14.419773      -392.3820
  17   2.0000     -14.418815      -392.3559
  18   2.0000     -14.418188      -392.3388
  19   2.0000     -14.415131      -392.2557
  20   2.0000     -10.377287      -282.3803
  21   2.0000     -10.375309      -282.3265
  22   2.0000     -10.373524      -282.2779
  23   2.0000     -10.370972      -282.2085
  24   2.0000     -10.369356      -282.1645
  25   2.0000     -10.363451      -282.0038
  26   2.0000     -10.362685      -281.9830
  27   2.0000     -10.359534      -281.8973
  28   2.0000     -10.350598      -281.6541
  29   2.0000     -10.350373      -281.6480
  30   2.0000     -10.348077      -281.5855
  31   2.0000     -10.346943      -281.5546
  32   2.0000     -10.346802      -281.5508
  33   2.0000     -10.346441      -281.5410
  34   2.0000     -10.346188      -281.5341
  35   2.0000     -10.346106      -281.5319
  36   2.0000     -10.343768      -281.4682
  37   2.0000     -10.343530      -281.4618
  38   2.0000     -10.343177      -281.4522
  39   2.0000     -10.343138      -281.4511
  40   2.0000     -10.343007      -281.4475
  41   2.0000     -10.342554      -281.4352
  42   2.0000     -10.341044      -281.3941
  43   2.0000     -10.340248      -281.3724
  44   2.0000     -10.339098      -281.3412
  45   2.0000     -10.338157      -281.3155
  46   2.0000     -10.336088      -281.2593
  47   2.0000     -10.333035      -281.1762
  48   2.0000     -10.332148      -281.1520
  49   2.0000     -10.331417      -281.1322
  50   2.0000     -10.329369      -281.0764
  51   2.0000     -10.327481      -281.0250
  52   2.0000     -10.324299      -280.9385
  53   2.0000     -10.322059      -280.8775
  54   2.0000     -10.321431      -280.8604
  55   2.0000     -10.321215      -280.8546
  56   2.0000     -10.320526      -280.8358
  57   2.0000     -10.320004      -280.8216
  58   2.0000     -10.319894      -280.8186
  59   2.0000     -10.318879      -280.7910
  60   2.0000     -10.318225      -280.7732
  61   2.0000     -10.317387      -280.7504
  62   2.0000     -10.317165      -280.7443
  63   2.0000     -10.316918      -280.7376
  64   2.0000     -10.316312      -280.7211
  65   2.0000     -10.316013      -280.7130
  66   2.0000     -10.315616      -280.7022
  67   2.0000     -10.314743      -280.6784
  68   2.0000     -10.314265      -280.6654
  69   2.0000     -10.313640      -280.6484
  70   2.0000     -10.312249      -280.6106
  71   2.0000     -10.311051      -280.5780
  72   2.0000     -10.309800      -280.5439
  73   2.0000     -10.307517      -280.4818
  74   2.0000     -10.306994      -280.4676
  75   2.0000     -10.305014      -280.4137
  76   2.0000     -10.304024      -280.3867
  77   2.0000     -10.303252      -280.3658
  78   2.0000     -10.302685      -280.3503
  79   2.0000     -10.302389      -280.3423
  80   2.0000     -10.301891      -280.3287
  81   2.0000     -10.299227      -280.2562
  82   2.0000     -10.294890      -280.1382
  83   2.0000     -10.291924      -280.0575
  84   2.0000     -10.290922      -280.0302
  85   2.0000     -10.289454      -279.9903
  86   2.0000      -8.100210      -220.4179
  87   2.0000      -8.099393      -220.3957
  88   2.0000      -8.099071      -220.3869
  89   2.0000      -8.098730      -220.3777
  90   2.0000      -8.095356      -220.2858
  91   2.0000      -8.094208      -220.2546
  92   2.0000      -8.066041      -219.4881
  93   2.0000      -8.063531      -219.4198
  94   2.0000      -6.069538      -165.1605
  95   2.0000      -6.068728      -165.1385
  96   2.0000      -6.068396      -165.1294
  97   2.0000      -6.068055      -165.1202
  98   2.0000      -6.065289      -165.0449
  99   2.0000      -6.064588      -165.0258
 100   2.0000      -6.064494      -165.0233
 101   2.0000      -6.064196      -165.0152
 102   2.0000      -6.063835      -165.0053
 103   2.0000      -6.063328      -164.9915
 104   2.0000      -6.062466      -164.9681
 105   2.0000      -6.061592      -164.9443
 106   2.0000      -6.061337      -164.9374
 107   2.0000      -6.061028      -164.9290
 108   2.0000      -6.060342      -164.9103
 109   2.0000      -6.059185      -164.8788
 110   2.0000      -6.057863      -164.8428
 111   2.0000      -6.056730      -164.8120
 112   2.0000      -6.035570      -164.2362
 113   2.0000      -6.033024      -164.1669
 114   2.0000      -6.031230      -164.1181
 115   2.0000      -6.028745      -164.0505
 116   2.0000      -6.027704      -164.0222
 117   2.0000      -6.025210      -163.9543
 118   2.0000      -1.135170       -30.8895
 119   2.0000      -1.133049       -30.8318
 120   2.0000      -1.060143       -28.8480
 121   2.0000      -1.057328       -28.7714
 122   2.0000      -1.055052       -28.7094
 123   2.0000      -1.033043       -28.1105
 124   2.0000      -1.031723       -28.0746
 125   2.0000      -1.028108       -27.9762
 126   2.0000      -1.025562       -27.9070
 127   2.0000      -1.022134       -27.8137
 128   2.0000      -1.020790       -27.7771
 129   2.0000      -1.017586       -27.6899
 130   2.0000      -1.016665       -27.6649
 131   2.0000      -1.012727       -27.5577
 132   2.0000      -1.011619       -27.5275
 133   2.0000      -1.010276       -27.4910
 134   2.0000      -1.009447       -27.4685
 135   2.0000      -1.001899       -27.2631
 136   2.0000      -0.997278       -27.1373
 137   2.0000      -0.995346       -27.0848
 138   2.0000      -0.989076       -26.9141
 139   2.0000      -0.986416       -26.8418
 140   2.0000      -0.976173       -26.5630
 141   2.0000      -0.968260       -26.3477
 142   2.0000      -0.964173       -26.2365
 143   2.0000      -0.937701       -25.5161
 144   2.0000      -0.935487       -25.4559
 145   2.0000      -0.931183       -25.3388
 146   2.0000      -0.924987       -25.1702
 147   2.0000      -0.917036       -24.9538
 148   2.0000      -0.903886       -24.5960
 149   2.0000      -0.900074       -24.4923
 150   2.0000      -0.887809       -24.1585
 151   2.0000      -0.885631       -24.0993
 152   2.0000      -0.884373       -24.0650
 153   2.0000      -0.882133       -24.0040
 154   2.0000      -0.880547       -23.9609
 155   2.0000      -0.875540       -23.8247
 156   2.0000      -0.873527       -23.7699
 157   2.0000      -0.867880       -23.6162
 158   2.0000      -0.866195       -23.5704
 159   2.0000      -0.862225       -23.4623
 160   2.0000      -0.844433       -22.9782
 161   2.0000      -0.826494       -22.4900
 162   2.0000      -0.823884       -22.4190
 163   2.0000      -0.821952       -22.3664
 164   2.0000      -0.805143       -21.9090
 165   2.0000      -0.797675       -21.7059
 166   2.0000      -0.790905       -21.5216
 167   2.0000      -0.783877       -21.3304
 168   2.0000      -0.783540       -21.3212
 169   2.0000      -0.769181       -20.9305
 170   2.0000      -0.760198       -20.6861
 171   2.0000      -0.758525       -20.6405
 172   2.0000      -0.747806       -20.3488
 173   2.0000      -0.730867       -19.8879
 174   2.0000      -0.720368       -19.6022
 175   2.0000      -0.716385       -19.4938
 176   2.0000      -0.710260       -19.3272
 177   2.0000      -0.705765       -19.2048
 178   2.0000      -0.701044       -19.0764
 179   2.0000      -0.697215       -18.9722
 180   2.0000      -0.695661       -18.9299
 181   2.0000      -0.691826       -18.8255
 182   2.0000      -0.690085       -18.7782
 183   2.0000      -0.689424       -18.7602
 184   2.0000      -0.681997       -18.5581
 185   2.0000      -0.681805       -18.5528
 186   2.0000      -0.666236       -18.1292
 187   2.0000      -0.663422       -18.0526
 188   2.0000      -0.657817       -17.9001
 189   2.0000      -0.653615       -17.7858
 190   2.0000      -0.647214       -17.6116
 191   2.0000      -0.644232       -17.5304
 192   2.0000      -0.639479       -17.4011
 193   2.0000      -0.637664       -17.3517
 194   2.0000      -0.632673       -17.2159
 195   2.0000      -0.629034       -17.1169
 196   2.0000      -0.626092       -17.0368
 197   2.0000      -0.624397       -16.9907
 198   2.0000      -0.622462       -16.9381
 199   2.0000      -0.619101       -16.8466
 200   2.0000      -0.610792       -16.6205
 201   2.0000      -0.602764       -16.4021
 202   2.0000      -0.598708       -16.2917
 203   2.0000      -0.596435       -16.2298
 204   2.0000      -0.591346       -16.0914
 205   2.0000      -0.582822       -15.8594
 206   2.0000      -0.573643       -15.6096
 207   2.0000      -0.569889       -15.5075
 208   2.0000      -0.562791       -15.3143
 209   2.0000      -0.559139       -15.2149
 210   2.0000      -0.557712       -15.1761
 211   2.0000      -0.556398       -15.1404
 212   2.0000      -0.554799       -15.0969
 213   2.0000      -0.550216       -14.9721
 214   2.0000      -0.548050       -14.9132
 215   2.0000      -0.542643       -14.7661
 216   2.0000      -0.541149       -14.7254
 217   2.0000      -0.540937       -14.7196
 218   2.0000      -0.537024       -14.6132
 219   2.0000      -0.534349       -14.5404
 220   2.0000      -0.533171       -14.5083
 221   2.0000      -0.527246       -14.3471
 222   2.0000      -0.524511       -14.2727
 223   2.0000      -0.520974       -14.1764
 224   2.0000      -0.519870       -14.1464
 225   2.0000      -0.519161       -14.1271
 226   2.0000      -0.518128       -14.0990
 227   2.0000      -0.516306       -14.0494
 228   2.0000      -0.513965       -13.9857
 229   2.0000      -0.511810       -13.9271
 230   2.0000      -0.511358       -13.9148
 231   2.0000      -0.510350       -13.8873
 232   2.0000      -0.507096       -13.7988
 233   2.0000      -0.505542       -13.7565
 234   2.0000      -0.503417       -13.6987
 235   2.0000      -0.502267       -13.6674
 236   2.0000      -0.500431       -13.6174
 237   2.0000      -0.498816       -13.5735
 238   2.0000      -0.497632       -13.5413
 239   2.0000      -0.496082       -13.4991
 240   2.0000      -0.493505       -13.4289
 241   2.0000      -0.491802       -13.3826
 242   2.0000      -0.490976       -13.3601
 243   2.0000      -0.489833       -13.3290
 244   2.0000      -0.484711       -13.1897
 245   2.0000      -0.481063       -13.0904
 246   2.0000      -0.478694       -13.0259
 247   2.0000      -0.473650       -12.8887
 248   2.0000      -0.472800       -12.8655
 249   2.0000      -0.472336       -12.8529
 250   2.0000      -0.470203       -12.7949
 251   2.0000      -0.470033       -12.7903
 252   2.0000      -0.466880       -12.7045
 253   2.0000      -0.465720       -12.6729
 254   2.0000      -0.465320       -12.6620
 255   2.0000      -0.461935       -12.5699
 256   2.0000      -0.459517       -12.5041
 257   2.0000      -0.457555       -12.4507
 258   2.0000      -0.454562       -12.3693
 259   2.0000      -0.452949       -12.3254
 260   2.0000      -0.452484       -12.3127
 261   2.0000      -0.452200       -12.3050
 262   2.0000      -0.451096       -12.2749
 263   2.0000      -0.450361       -12.2549
 264   2.0000      -0.450101       -12.2479
 265   2.0000      -0.449431       -12.2296
 266   2.0000      -0.448953       -12.2166
 267   2.0000      -0.448429       -12.2024
 268   2.0000      -0.447935       -12.1889
 269   2.0000      -0.447062       -12.1652
 270   2.0000      -0.445344       -12.1184
 271   2.0000      -0.444267       -12.0891
 272   2.0000      -0.444150       -12.0859
 273   2.0000      -0.443426       -12.0662
 274   2.0000      -0.437456       -11.9038
 275   2.0000      -0.436531       -11.8786
 276   2.0000      -0.436386       -11.8747
 277   2.0000      -0.435974       -11.8634
 278   2.0000      -0.434726       -11.8295
 279   2.0000      -0.433964       -11.8088
 280   2.0000      -0.433277       -11.7901
 281   2.0000      -0.430500       -11.7145
 282   2.0000      -0.430058       -11.7025
 283   2.0000      -0.427897       -11.6437
 284   2.0000      -0.424570       -11.5531
 285   2.0000      -0.423091       -11.5129
 286   2.0000      -0.419966       -11.4279
 287   2.0000      -0.413587       -11.2543
 288   2.0000      -0.411059       -11.1855
 289   2.0000      -0.407790       -11.0965
 290   2.0000      -0.406094       -11.0504
 291   2.0000      -0.402014       -10.9393
 292   2.0000      -0.391779       -10.6609
 293   2.0000      -0.382979       -10.4214
 294   2.0000      -0.377377       -10.2690
 295   2.0000      -0.371469       -10.1082
 296   2.0000      -0.366011        -9.9597
 297   2.0000      -0.361279        -9.8309
 298   2.0000      -0.358522        -9.7559
 299   2.0000      -0.354358        -9.6426
 300   2.0000      -0.343446        -9.3456
 301   2.0000      -0.340150        -9.2560
 302   2.0000      -0.336321        -9.1518
 303   2.0000      -0.332870        -9.0579
 304   2.0000      -0.331218        -9.0129
 305   2.0000      -0.326863        -8.8944
 306   2.0000      -0.317031        -8.6269
 307   2.0000      -0.315093        -8.5741
 308   2.0000      -0.304217        -8.2782
 309   2.0000      -0.298519        -8.1231
 310   2.0000      -0.294610        -8.0167
 311   2.0000      -0.275033        -7.4840
 312   2.0000      -0.250881        -6.8268
 313   0.0000      -0.125599        -3.4177
 314   0.0000      -0.117509        -3.1976
 315   0.0000      -0.111104        -3.0233
 316   0.0000      -0.091555        -2.4913
 317   0.0000      -0.090875        -2.4728

MULLIKEN ATOMIC CHARGES
-----------------------
   0 C :    0.304569
   1 C :   -0.350053
   2 C :   -0.186972
   3 N :    0.149903
   4 C :   -0.203395
   5 N :    0.157382
   6 C :    0.013139
   7 C :   -0.015010
   8 C :   -0.063531
   9 C :    0.112934
  10 C :   -0.096596
  11 C :   -0.020301
  12 S :    0.141626
  13 C :   -0.047655
  14 C :    0.025218
  15 C :    0.152483
  16 O :   -0.150914
  17 C :   -0.086661
  18 C :    0.028003
  19 C :   -0.111245
  20 C :    0.003791
  21 C :   -0.011332
  22 C :   -0.080963
  23 S :    0.205736
  24 C :   -0.104581
  25 C :    0.026391
  26 C :    0.308355
  27 C :   -0.298812
  28 C :   -0.187225
  29 N :    0.197649
  30 C :   -0.191005
  31 N :    0.180610
  32 C :   -0.054960
  33 C :   -0.046380
  34 S :    0.191467
  35 C :   -0.060364
  36 C :   -0.043671
  37 C :    0.014854
  38 C :   -0.098134
  39 S :    0.192309
  40 C :   -0.098750
  41 C :    0.019314
  42 C :    0.298735
  43 C :   -0.289378
  44 C :   -0.191173
  45 N :    0.188150
  46 C :   -0.186827
  47 N :    0.175928
  48 C :   -0.064996
  49 C :   -0.053365
  50 S :    0.202972
  51 C :   -0.046584
  52 C :   -0.067423
  53 C :    0.024857
  54 C :   -0.103319
  55 S :    0.209222
  56 C :   -0.075955
  57 C :    0.022345
  58 C :    0.296916
  59 C :   -0.292228
  60 C :   -0.187240
  61 N :    0.174130
  62 C :   -0.190798
  63 N :    0.184875
  64 C :   -0.005038
  65 C :   -0.076546
  66 S :    0.209610
  67 C :    0.041774
  68 C :   -0.134183
  69 C :    0.238828
  70 C :   -0.324656
  71 C :   -0.176060
  72 N :    0.159385
  73 C :   -0.211881
  74 N :    0.173482
  75 C :    0.005149
  76 C :    0.001712
  77 C :    0.138704
  78 O :   -0.141898
  79 C :   -0.067844
  80 C :    0.108371
  81 C :   -0.090745
  82 C :   -0.024138
  83 S :    0.141997
  84 C :   -0.050107
  85 C :    0.027347
  86 H :   -0.007146
  87 H :   -0.006031
  88 H :    0.038888
  89 H :   -0.004568
  90 H :    0.015301
  91 H :    0.037122
  92 H :    0.015425
  93 H :    0.016384
  94 H :    0.015693
  95 H :    0.014345
  96 H :    0.020154
  97 H :    0.031799
  98 H :   -0.008988
  99 H :   -0.002434
 100 H :    0.039952
 101 H :   -0.005226
Sum of atomic charges:   -0.0000000

LOEWDIN ATOMIC CHARGES
----------------------
   0 C :    0.077200
   1 C :   -0.144065
   2 C :   -0.018474
   3 N :   -0.053611
   4 C :   -0.024960
   5 N :   -0.055224
   6 C :   -0.023613
   7 C :   -0.053212
   8 C :    0.025435
   9 C :   -0.034296
  10 C :   -0.145262
  11 C :   -0.008469
  12 S :    0.430565
  13 C :   -0.148379
  14 C :   -0.057135
  15 C :    0.086241
  16 O :   -0.138431
  17 C :   -0.094360
  18 C :    0.040008
  19 C :   -0.176283
  20 C :    0.019219
  21 C :   -0.075508
  22 C :   -0.160165
  23 S :    0.495248
  24 C :   -0.191426
  25 C :   -0.049944
  26 C :    0.074451
  27 C :   -0.089718
  28 C :   -0.022111
  29 N :   -0.012569
  30 C :   -0.017372
  31 N :   -0.024178
  32 C :   -0.027654
  33 C :   -0.171245
  34 S :    0.470492
  35 C :   -0.183675
  36 C :   -0.019689
  37 C :   -0.064903
  38 C :   -0.179470
  39 S :    0.471448
  40 C :   -0.178480
  41 C :   -0.065753
  42 C :    0.078965
  43 C :   -0.093580
  44 C :   -0.019721
  45 N :   -0.019981
  46 C :   -0.016022
  47 N :   -0.026862
  48 C :   -0.033743
  49 C :   -0.181178
  50 S :    0.488578
  51 C :   -0.170213
  52 C :   -0.040287
  53 C :   -0.052907
  54 C :   -0.187274
  55 S :    0.493646
  56 C :   -0.152702
  57 C :   -0.076282
  58 C :    0.079793
  59 C :   -0.096248
  60 C :   -0.015658
  61 N :   -0.030736
  62 C :   -0.018150
  63 N :   -0.023712
  64 C :    0.013135
  65 C :   -0.176887
  66 S :    0.517735
  67 C :    0.047984
  68 C :   -0.099461
  69 C :    0.060798
  70 C :   -0.147385
  71 C :   -0.021534
  72 N :   -0.048114
  73 C :   -0.039587
  74 N :   -0.047060
  75 C :   -0.020096
  76 C :   -0.054909
  77 C :    0.084240
  78 O :   -0.142058
  79 C :    0.024747
  80 C :   -0.035306
  81 C :   -0.144676
  82 C :   -0.011282
  83 S :    0.430679
  84 C :   -0.148847
  85 C :   -0.056947
  86 H :    0.042074
  87 H :    0.040799
  88 H :    0.029655
  89 H :    0.036134
  90 H :    0.042839
  91 H :    0.044011
  92 H :    0.043512
  93 H :    0.044143
  94 H :    0.037449
  95 H :    0.036871
  96 H :    0.047497
  97 H :    0.055331
  98 H :    0.041519
  99 H :    0.040718
 100 H :    0.029930
 101 H :    0.035954

  Mayer bond orders larger than 0.100000
B(  0-C ,  1-C ) :   1.6221 B(  0-C ,  6-C ) :   1.0038 B(  0-C , 17-C ) :   1.0771
B(  1-C ,  2-C ) :   1.1453 B(  1-C ,  4-C ) :   1.1418 B(  2-C ,  3-N ) :   2.9707
B(  4-C ,  5-N ) :   2.9848 B(  6-C ,  7-C ) :   1.2683 B(  6-C , 11-C ) :   1.4114
B(  7-C ,  8-C ) :   1.4245 B(  7-C , 15-C ) :   0.9534 B(  8-C ,  9-C ) :   1.2459
B(  8-C , 86-H ) :   1.0168 B(  9-C , 10-C ) :   1.2995 B(  9-C , 14-C ) :   1.1728
B( 10-C , 11-C ) :   1.3258 B( 10-C , 12-S ) :   1.0998 B( 11-C , 87-H ) :   0.9819
B( 12-S , 13-C ) :   1.1266 B( 13-C , 14-C ) :   1.6264 B( 13-C , 88-H ) :   0.9689
B( 14-C , 89-H ) :   0.9999 B( 15-C , 16-O ) :   2.1763 B( 15-C , 17-C ) :   0.9400
B( 17-C , 18-C ) :   1.6020 B( 18-C , 19-C ) :   1.2058 B( 18-C , 90-H ) :   0.9161
B( 19-C , 20-C ) :   1.4058 B( 19-C , 23-S ) :   1.0753 B( 20-C , 21-C ) :   1.3179
B( 20-C , 91-H ) :   0.9709 B( 21-C , 22-C ) :   1.3808 B( 21-C , 26-C ) :   0.9994
B( 22-C , 23-S ) :   1.1657 B( 22-C , 24-C ) :   1.2069 B( 24-C , 25-C ) :   1.4357
B( 24-C , 34-S ) :   1.1084 B( 25-C , 26-C ) :   0.9902 B( 25-C , 32-C ) :   1.2961
B( 26-C , 27-C ) :   1.7207 B( 27-C , 28-C ) :   1.1357 B( 27-C , 30-C ) :   1.1357
B( 28-C , 29-N ) :   2.9968 B( 30-C , 31-N ) :   2.9879 B( 32-C , 33-C ) :   1.4757
B( 32-C , 92-H ) :   0.9935 B( 33-C , 34-S ) :   1.1104 B( 33-C , 35-C ) :   1.1238
B( 35-C , 36-C ) :   1.4831 B( 35-C , 39-S ) :   1.0984 B( 36-C , 37-C ) :   1.2935
B( 36-C , 93-H ) :   0.9921 B( 37-C , 38-C ) :   1.4402 B( 37-C , 42-C ) :   0.9937
B( 38-C , 39-S ) :   1.1244 B( 38-C , 40-C ) :   1.1927 B( 40-C , 41-C ) :   1.4413
B( 40-C , 50-S ) :   1.1226 B( 41-C , 42-C ) :   0.9928 B( 41-C , 48-C ) :   1.3024
B( 42-C , 43-C ) :   1.7204 B( 43-C , 44-C ) :   1.1321 B( 43-C , 46-C ) :   1.1332
B( 44-C , 45-N ) :   2.9932 B( 46-C , 47-N ) :   2.9899 B( 48-C , 49-C ) :   1.4535
B( 48-C , 94-H ) :   0.9884 B( 49-C , 50-S ) :   1.1079 B( 49-C , 51-C ) :   1.1678
B( 51-C , 52-C ) :   1.4446 B( 51-C , 55-S ) :   1.1224 B( 52-C , 53-C ) :   1.3092
B( 52-C , 95-H ) :   0.9879 B( 53-C , 54-C ) :   1.4386 B( 53-C , 58-C ) :   0.9911
B( 54-C , 55-S ) :   1.1111 B( 54-C , 56-C ) :   1.2074 B( 56-C , 57-C ) :   1.3927
B( 56-C , 66-S ) :   1.1679 B( 57-C , 58-C ) :   0.9947 B( 57-C , 64-C ) :   1.3062
B( 58-C , 59-C ) :   1.7204 B( 59-C , 60-C ) :   1.1335 B( 59-C , 62-C ) :   1.1333
B( 60-C , 61-N ) :   2.9897 B( 62-C , 63-N ) :   2.9960 B( 64-C , 65-C ) :   1.3974
B( 64-C , 96-H ) :   1.0022 B( 65-C , 66-S ) :   1.0804 B( 65-C , 67-C ) :   1.1602
B( 67-C , 68-C ) :   1.6374 B( 67-C , 97-H ) :   0.9449 B( 68-C , 69-C ) :   1.0335
B( 68-C , 77-C ) :   0.9372 B( 69-C , 70-C ) :   1.6501 B( 69-C , 75-C ) :   1.0171
B( 70-C , 71-C ) :   1.1329 B( 70-C , 73-C ) :   1.1532 B( 71-C , 72-N ) :   2.9960
B( 73-C , 74-N ) :   3.0233 B( 75-C , 76-C ) :   1.2688 B( 75-C , 82-C ) :   1.4190
B( 76-C , 77-C ) :   0.9252 B( 76-C , 79-C ) :   1.4284 B( 77-C , 78-O ) :   2.2666
B( 79-C , 80-C ) :   1.2518 B( 79-C , 98-H ) :   1.0161 B( 80-C , 81-C ) :   1.3040
B( 80-C , 85-C ) :   1.1720 B( 81-C , 82-C ) :   1.3174 B( 81-C , 83-S ) :   1.0982
B( 82-C , 99-H ) :   0.9874 B( 83-S , 84-C ) :   1.1273 B( 84-C , 85-C ) :   1.6306
B( 84-C ,100-H ) :   0.9681 B( 85-C ,101-H ) :   0.9993

-----------------------------------------------------------------------------
         ABSORPTION SPECTRUM VIA TRANSITION ELECTRIC DIPOLE MOMENTS
-----------------------------------------------------------------------------
State   Energy  Wavelength   fosc         T2         TX        TY        TZ
        (cm-1)    (nm)                  (au**2)     (au)      (au)      (au)
-----------------------------------------------------------------------------
   0   11225.1    890.9   0.732818209  21.49232   3.77463  -2.40446   1.20958
   1   12741.9    784.8   0.078987704   2.04080   1.08114  -0.69851   0.61969
   2   13585.5    736.1   0.114925504   2.78493   1.15415  -1.20518   0.02038
   3   19915.3    502.1   1.457385356  24.09151  -3.51374   3.21289  -1.19269
   4   20070.4    498.2   0.309440662   5.07571   1.70832  -1.43182   0.32746
   5   21065.8    474.7   0.197564846   3.08750  -1.47393   0.90903   0.29784
   6   21998.7    454.6   0.278809671   4.17240  -0.96495   1.79581   0.12772
   7   23085.3    433.2   0.076946043   1.09730   0.66038  -0.80477  -0.11634
   8   25047.0    399.2   0.057127293   0.75087  -0.65079  -0.46979   0.32656
   9   25473.9    392.6   0.000638672   0.00825   0.00953   0.04288  -0.07953
  10   26095.1    383.2   0.366199345   4.61991   1.70781  -0.36068   1.25428
  11   27262.0    366.8   0.543890681   6.56793   2.17972   0.08477   1.34521
  12   27459.3    364.2   0.013333754   0.15986  -0.04721   0.36695  -0.15159
  13   27771.6    360.1   0.025735809   0.30508  -0.23232  -0.44247  -0.23522
  14   28009.6    357.0   0.000247823   0.00291  -0.01312   0.04251  -0.03056
  15   28343.4    352.8   0.019805636   0.23004  -0.01548  -0.44749  -0.17192
  16   28471.8    351.2   0.005998118   0.06935  -0.09896  -0.14413  -0.19695
  17   28846.7    346.7   0.005426636   0.06193   0.01784   0.14896   0.19856
  18   29111.3    343.5   0.063642536   0.71972  -0.41173   0.64530  -0.36576
  19   29655.6    337.2   0.110266546   1.22409   1.00409   0.09740   0.45431
  20   29847.9    335.0   0.044359486   0.48927  -0.45502  -0.52163  -0.10064
  21   30114.0    332.1   0.149003898   1.62894   1.05859  -0.70686  -0.09309
  22   30305.8    330.0   0.183615531   1.99461   1.25518  -0.43970   0.47518
  23   30452.9    328.4   0.351456400   3.79943   0.13920   1.70664  -0.93136
  24   30644.6    326.3   0.507602883   5.45313  -0.68332   1.93408  -1.11603
  25   30935.1    323.3   0.132718145   1.41239   0.44888  -0.16167   1.08847
  26   31330.9    319.2   0.038194705   0.40133  -0.05003   0.57210   0.26745
  27   31735.4    315.1   0.714752031   7.41459  -0.89350  -2.46619  -0.73086
  28   31818.6    314.3   0.468779829   4.85025  -0.87267  -2.02147  -0.04856
  29   32183.8    310.7   0.030317538   0.31012  -0.19415   0.49885  -0.15354
  30   32502.6    307.7   0.066818516   0.67679  -0.58568  -0.54557  -0.19005
  31   32699.7    305.8   0.253965795   2.55686   1.52538   0.29385   0.37910
  32   32824.0    304.7   0.033762928   0.33863  -0.44799  -0.21043  -0.30602
  33   33075.1    302.3   0.090668922   0.90247   0.36184  -0.65922   0.58049
  34   33229.0    300.9   0.006359578   0.06301  -0.10538  -0.20910  -0.09045
  35   33515.6    298.4   0.063807381   0.62676  -0.64879  -0.31267  -0.32873
  36   33610.3    297.5   0.005694375   0.05578  -0.03271  -0.03132  -0.23179
  37   33637.9    297.3   0.003649318   0.03572   0.16153   0.05834  -0.07887
  38   33701.0    296.7   0.080155855   0.78301  -0.23454   0.05143  -0.85168
  39   33880.5    295.2   0.376296930   3.65642  -1.68892  -0.27019  -0.85497
  40   34082.4    293.4   0.166953401   1.61265   0.16433  -1.22083   0.30858
  41   34228.8    292.2   0.529123867   5.08910  -1.29435  -1.04373  -1.52459
  42   34623.1    288.8   0.085366419   0.81170   0.48376  -0.70609   0.28128
  43   34670.8    288.4   0.028919732   0.27460  -0.11303  -0.41734  -0.29607
  44   34711.9    288.1   0.056600179   0.53680   0.58857   0.43459  -0.03895
  45   34976.1    285.9   0.230684490   2.17131   0.19680   1.44376  -0.21940
  46   35163.3    284.4   0.165732533   1.55165  -0.26278  -0.84819   0.87360
  47   35268.3    283.5   0.126308295   1.17903  -0.24846   0.17454  -1.04251
  48   35393.0    282.5   0.107293612   0.99800   0.45662  -0.63748   0.61896
  49   35648.0    280.5   0.066461076   0.61377  -0.11555  -0.21684  -0.74391
  50   35804.9    279.3   0.028578627   0.26277  -0.37959  -0.07526  -0.33618
  51   35901.5    278.5   0.005311408   0.04870  -0.06408  -0.20655  -0.04399
  52   36157.0    276.6   0.006384205   0.05813  -0.21249   0.10914   0.03261
  53   36390.3    274.8   0.000843388   0.00763  -0.06548   0.05453   0.01920
  54   36481.9    274.1   0.037214048   0.33582   0.33886  -0.42264   0.20584
  55   36545.8    273.6   0.040131048   0.36151   0.19709  -0.55246   0.13210
  56   36564.1    273.5   0.039481892   0.35548  -0.36138   0.01843  -0.47387
  57   37150.2    269.2   0.014883566   0.13189  -0.03781  -0.32325   0.16117
  58   37502.9    266.6   0.059855477   0.52543  -0.28409  -0.56374  -0.35625
  59   37991.7    263.2   0.065012625   0.56336  -0.45152  -0.59364  -0.08412
  60   38267.7    261.3   0.015647717   0.13462  -0.26231  -0.00838  -0.25639
  61   38421.0    260.3   0.000324925   0.00278  -0.02678  -0.01276  -0.04364
  62   38711.9    258.3   0.002431504   0.02068  -0.01936  -0.14211   0.01045
  63   38908.5    257.0   0.046004444   0.38925  -0.23755   0.42937   0.38531
  64   39015.8    256.3   0.154222734   1.30132  -0.52608   0.97308   0.27869
  65   39217.9    255.0   0.014289878   0.11996  -0.04835   0.30860   0.14961
  66   39357.8    254.1   0.189452972   1.58470   0.30277   1.07457   0.58166
  67   39402.5    253.8   0.025822271   0.21575   0.10399  -0.45110  -0.03801
  68   39661.8    252.1   0.005972604   0.04958   0.03235  -0.19298   0.10625
  69   39954.5    250.3   0.004754401   0.03917  -0.04822  -0.16015   0.10584
  70   40084.1    249.5   0.035684455   0.29308  -0.24844   0.47955  -0.03721
  71   40176.2    248.9   0.052126107   0.42713   0.12283   0.40802   0.49554

FINAL SINGLE POINT ENERGY     -6402.843448213632

DIPOLE MOMENT
-------------
                                X             Y             Z
Electronic contribution:     -7.81230      -5.46869       4.59409
Nuclear contribution   :      8.30587       5.98902      -5.47460
                        -----------------------------------------
Total Dipole Moment    :      0.49356       0.52033      -0.88051
                        -----------------------------------------
Magnitude (a.u.)       :      1.13563
Magnitude (Debye)      :      2.88654

Rotational constants in cm-1:     0.001652     0.000112     0.000108
Rotational constants in MHz :    49.539911     3.366230     3.245256

                             ****ORCA TERMINATED NORMALLY****
TOTAL RUN TIME: 0 days 0 hours 12 minutes 18 seconds 175 msec
