                         Program Version 4.2.0 -  RELEASE  -
|  1> # ORCA input file
|  2> # SCF done       -169.449609958210          0.000627398790
|  3> ! CAM-B3LYP def2-SVP def2/J RIJCOSX Grid4 TightSCF
|  4> %maxcore 5000
|  5> %tddft
|  6>     Mode sTDDFT
|  7>     Ethresh 5.0
|  8>     maxcore 5000
|  9> end
| 10>
| 11> %pal
| 12>   nprocs 6
| 13>   end
| 14> * xyz 0 1
| 15>    C        2.34415         2.28783        -3.73387
| 16>    C        1.98884         2.71990        -4.96246
| 17>    O        0.78543         2.95820        -5.52330
| 18>    C       -0.33936         2.72186        -4.70339
| 19>    S        3.37080         3.01463        -5.99157
| 20>    C        4.44359         2.53582        -4.70549
| 21>    O        5.77631         2.52657        -4.83697
| 22>    C        6.30309         2.91094        -6.08642
| 23>    C        3.76299         2.17268        -3.56058
| 24>    C        4.43562         1.73687        -2.37930
| 25>    C        3.82915         1.33916        -1.23845
| 26>    C        4.52490         0.89605        -0.08405
| 27>    O        5.88582         0.86102        -0.02951
| 28>    C        4.03408         0.43145         1.12089
| 29>    C        2.81487         0.14364         1.86638
| 30>    O        1.65087         0.26684         1.57990
| 31>    N        3.28711        -0.34981         3.08823
| 32>    C        4.66869        -0.41238         3.20722
| 33>    O        5.26475        -0.81753         4.17819
| 34>    C        5.15465         0.10079         1.92803
| 35>    C        6.28214         0.38139         1.18223
| 36>    C        7.66771         0.23779         1.47320
| 37>    C        8.09337        -0.24392         2.66090
| 38>    C        9.46905        -0.44207         2.99515
| 39>    C        9.90946        -0.95101         4.15859
| 40>    C        9.01324        -1.36315         5.28571
| 41>    C       11.38303        -1.16025         4.39363
| 42>    N       11.81681        -0.53382         5.61976
| 43>    C       13.06263        -0.10515         5.86234
| 44>    C       13.48979         0.33296         7.08185
| 45>    C       14.79573         0.77279         7.33442
| 46>    C       15.25338         1.17046         8.56677
| 47>    C       16.56113         1.57842         8.91110
| 48>    C       16.72511         1.88209        10.23052
| 49>    C       15.55012         1.74105        11.00047
| 50>    S       14.22875         1.20610        10.00101
| 51>    C       15.39363         1.96819        12.35943
| 52>    C       16.36998         2.36696        13.29030
| 53>    C       15.90335         2.47584        14.57020
| 54>    C       14.53567         2.16852        14.71204
| 55>    S       13.84939         1.77415        13.15965
| 56>    C       13.72931         2.24516        15.84105
| 57>    C       14.15042         2.30287        17.16029
| 58>    C       15.34329         1.82568        17.69732
| 59>    C       15.79697         2.06860        19.03670
| 60>    C       15.36085         3.06768        19.87988
| 61>    C       15.84977         3.26869        21.18278
| 62>    N       16.20651         3.47528        22.25600
| 63>    C       14.40561         4.04210        19.53400
| 64>    N       13.65817         4.88780        19.31481
| 65>    C       16.87642         1.12702        19.32893
| 66>    C       17.10388         0.34431        18.17276
| 67>    C       16.16496         0.76363        17.10491
| 68>    O       16.08000         0.25533        16.00008
| 69>    C       18.05499        -0.64273        18.12284
| 70>    C       18.82226        -0.86771        19.27265
| 71>    C       18.58736        -0.08078        20.42142
| 72>    C       17.62268         0.92036        20.47130
| 73>    S       19.64128        -0.53003        21.73060
| 74>    C       20.37197        -1.75258        20.72528
| 75>    C       19.85722        -1.82254        19.47593
| 76>   Br       21.74948        -2.82234        21.42019
| 77>    H        1.64653         2.05163        -2.95395
| 78>    H       -1.20594         2.96349        -5.31485
| 79>    H       -0.32128         3.36270        -3.81710
| 80>    H       -0.38596         1.67413        -4.39259
| 81>    H        7.38479         2.84070        -5.99364
| 82>    H        6.01574         3.93752        -6.33359
| 83>    H        5.95279         2.24443        -6.88056
| 84>    H        5.51529         1.72874        -2.43323
| 85>    H        2.75496         1.32441        -1.13858
| 86>    H        2.66545        -0.64253         3.82832
| 87>    H        8.35797         0.52551         0.69285
| 88>    H        7.35175        -0.50037         3.40166
| 89>    H       10.19036        -0.16967         2.23451
| 90>    H        8.77066        -0.50490         5.91382
| 91>    H        9.49118        -2.12138         5.90325
| 92>    H        8.07229        -1.76386         4.92022
| 93>    H       11.96958        -0.75357         3.56623
| 94>    H       11.57564        -2.24549         4.44299
| 95>    H       11.17948        -0.58560         6.40104
| 96>    H       13.73652        -0.11168         5.01583
| 97>    H       12.79734         0.32711         7.91321
| 98>    H       15.50248         0.78350         6.51468
| 99>    H       17.34392         1.63053         8.17456
|100>    H       17.65317         2.20406        10.66677
|101>    H       17.38775         2.56298        13.00347
|102>    H       16.49652         2.80713        15.40272
|103>    H       12.66241         2.29893        15.66449
|104>    H       13.42224         2.68164        17.86848
|105>    H       18.20416        -1.22562        17.22734
|106>    H       17.47656         1.49043        21.37356
|107>    H       20.18970        -2.51811        18.72702
|108> *
|109>
|110>                          ****END OF INPUT****

CARTESIAN COORDINATES (ANGSTROEM)
---------------------------------
  C      2.344150    2.287830   -3.733870
  C      1.988840    2.719900   -4.962460
  O      0.785430    2.958200   -5.523300
  C     -0.339360    2.721860   -4.703390
  S      3.370800    3.014630   -5.991570
  C      4.443590    2.535820   -4.705490
  O      5.776310    2.526570   -4.836970
  C      6.303090    2.910940   -6.086420
  C      3.762990    2.172680   -3.560580
  C      4.435620    1.736870   -2.379300
  C      3.829150    1.339160   -1.238450
  C      4.524900    0.896050   -0.084050
  O      5.885820    0.861020   -0.029510
  C      4.034080    0.431450    1.120890
  C      2.814870    0.143640    1.866380
  O      1.650870    0.266840    1.579900
  N      3.287110   -0.349810    3.088230
  C      4.668690   -0.412380    3.207220
  O      5.264750   -0.817530    4.178190
  C      5.154650    0.100790    1.928030
  C      6.282140    0.381390    1.182230
  C      7.667710    0.237790    1.473200
  C      8.093370   -0.243920    2.660900
  C      9.469050   -0.442070    2.995150
  C      9.909460   -0.951010    4.158590
  C      9.013240   -1.363150    5.285710
  C     11.383030   -1.160250    4.393630
  N     11.816810   -0.533820    5.619760
  C     13.062630   -0.105150    5.862340
  C     13.489790    0.332960    7.081850
  C     14.795730    0.772790    7.334420
  C     15.253380    1.170460    8.566770
  C     16.561130    1.578420    8.911100
  C     16.725110    1.882090   10.230520
  C     15.550120    1.741050   11.000470
  S     14.228750    1.206100   10.001010
  C     15.393630    1.968190   12.359430
  C     16.369980    2.366960   13.290300
  C     15.903350    2.475840   14.570200
  C     14.535670    2.168520   14.712040
  S     13.849390    1.774150   13.159650
  C     13.729310    2.245160   15.841050
  C     14.150420    2.302870   17.160290
  C     15.343290    1.825680   17.697320
  C     15.796970    2.068600   19.036700
  C     15.360850    3.067680   19.879880
  C     15.849770    3.268690   21.182780
  N     16.206510    3.475280   22.256000
  C     14.405610    4.042100   19.534000
  N     13.658170    4.887800   19.314810
  C     16.876420    1.127020   19.328930
  C     17.103880    0.344310   18.172760
  C     16.164960    0.763630   17.104910
  O     16.080000    0.255330   16.000080
  C     18.054990   -0.642730   18.122840
  C     18.822260   -0.867710   19.272650
  C     18.587360   -0.080780   20.421420
  C     17.622680    0.920360   20.471300
  S     19.641280   -0.530030   21.730600
  C     20.371970   -1.752580   20.725280
  C     19.857220   -1.822540   19.475930
  Br    21.749480   -2.822340   21.420190
  H      1.646530    2.051630   -2.953950
  H     -1.205940    2.963490   -5.314850
  H     -0.321280    3.362700   -3.817100
  H     -0.385960    1.674130   -4.392590
  H      7.384790    2.840700   -5.993640
  H      6.015740    3.937520   -6.333590
  H      5.952790    2.244430   -6.880560
  H      5.515290    1.728740   -2.433230
  H      2.754960    1.324410   -1.138580
  H      2.665450   -0.642530    3.828320
  H      8.357970    0.525510    0.692850
  H      7.351750   -0.500370    3.401660
  H     10.190360   -0.169670    2.234510
  H      8.770660   -0.504900    5.913820
  H      9.491180   -2.121380    5.903250
  H      8.072290   -1.763860    4.920220
  H     11.969580   -0.753570    3.566230
  H     11.575640   -2.245490    4.442990
  H     11.179480   -0.585600    6.401040
  H     13.736520   -0.111680    5.015830
  H     12.797340    0.327110    7.913210
  H     15.502480    0.783500    6.514680
  H     17.343920    1.630530    8.174560
  H     17.653170    2.204060   10.666770
  H     17.387750    2.562980   13.003470
  H     16.496520    2.807130   15.402720
  H     12.662410    2.298930   15.664490
  H     13.422240    2.681640   17.868480
  H     18.204160   -1.225620   17.227340
  H     17.476560    1.490430   21.373560
  H     20.189700   -2.518110   18.727020

 Total Charge           Charge          ....    0
 Multiplicity           Mult            ....    1
 Number of Electrons    NEL             ....  488
 Basis Dimension        Dim             .... 1057

ORBITAL ENERGIES
----------------

  NO   OCC          E(Eh)            E(eV)
   0   2.0000    -482.867576    -13139.4947
   1   2.0000     -88.965710     -2420.8800
   2   2.0000     -88.955032     -2420.5895
   3   2.0000     -88.952505     -2420.5207
   4   2.0000     -88.944332     -2420.2983
   5   2.0000     -62.545299     -1701.9441
   6   2.0000     -56.379222     -1534.1566
   7   2.0000     -56.376558     -1534.0841
   8   2.0000     -56.376513     -1534.0829
   9   2.0000     -19.306109      -525.3459
  10   2.0000     -19.273714      -524.4644
  11   2.0000     -19.261303      -524.1267
  12   2.0000     -19.212284      -522.7928
  13   2.0000     -19.205389      -522.6052
  14   2.0000     -19.178263      -521.8671
  15   2.0000     -14.468530      -393.7087
  16   2.0000     -14.452202      -393.2644
  17   2.0000     -14.381179      -391.3318
  18   2.0000     -14.378966      -391.2715
  19   2.0000     -10.399641      -282.9886
  20   2.0000     -10.394543      -282.8499
  21   2.0000     -10.362330      -281.9733
  22   2.0000     -10.357437      -281.8402
  23   2.0000     -10.355841      -281.7968
  24   2.0000     -10.355818      -281.7961
  25   2.0000     -10.350942      -281.6634
  26   2.0000     -10.342696      -281.4391
  27   2.0000     -10.336625      -281.2739
  28   2.0000     -10.336612      -281.2735
  29   2.0000     -10.332132      -281.1516
  30   2.0000     -10.328806      -281.0611
  31   2.0000     -10.327722      -281.0316
  32   2.0000     -10.310421      -280.5608
  33   2.0000     -10.309100      -280.5249
  34   2.0000     -10.307105      -280.4706
  35   2.0000     -10.303840      -280.3817
  36   2.0000     -10.302737      -280.3517
  37   2.0000     -10.300948      -280.3030
  38   2.0000     -10.300691      -280.2961
  39   2.0000     -10.299300      -280.2582
  40   2.0000     -10.298815      -280.2450
  41   2.0000     -10.293810      -280.1088
  42   2.0000     -10.289131      -279.9815
  43   2.0000     -10.288033      -279.9516
  44   2.0000     -10.287792      -279.9451
  45   2.0000     -10.286378      -279.9066
  46   2.0000     -10.286227      -279.9025
  47   2.0000     -10.284751      -279.8623
  48   2.0000     -10.284705      -279.8611
  49   2.0000     -10.284032      -279.8427
  50   2.0000     -10.283945      -279.8404
  51   2.0000     -10.281135      -279.7639
  52   2.0000     -10.281127      -279.7637
  53   2.0000     -10.279980      -279.7325
  54   2.0000     -10.278935      -279.7040
  55   2.0000     -10.278225      -279.6847
  56   2.0000     -10.277515      -279.6654
  57   2.0000     -10.277322      -279.6602
  58   2.0000     -10.276791      -279.6457
  59   2.0000     -10.275530      -279.6114
  60   2.0000     -10.272657      -279.5332
  61   2.0000     -10.271246      -279.4948
  62   2.0000     -10.268121      -279.4098
  63   2.0000     -10.261976      -279.2426
  64   2.0000     -10.257345      -279.1165
  65   2.0000     -10.251975      -278.9704
  66   2.0000      -8.774718      -238.7722
  67   2.0000      -8.062600      -219.3945
  68   2.0000      -8.051327      -219.0877
  69   2.0000      -8.048529      -219.0116
  70   2.0000      -8.040722      -218.7992
  71   2.0000      -6.610911      -179.8920
  72   2.0000      -6.596475      -179.4992
  73   2.0000      -6.596359      -179.4961
  74   2.0000      -6.032060      -164.1407
  75   2.0000      -6.028090      -164.0327
  76   2.0000      -6.023879      -163.9181
  77   2.0000      -6.020900      -163.8370
  78   2.0000      -6.018239      -163.7646
  79   2.0000      -6.016984      -163.7305
  80   2.0000      -6.013975      -163.6486
  81   2.0000      -6.012443      -163.6069
  82   2.0000      -6.010245      -163.5471
  83   2.0000      -6.009719      -163.5328
  84   2.0000      -6.006193      -163.4368
  85   2.0000      -6.002108      -163.3257
  86   2.0000      -2.726770       -74.1992
  87   2.0000      -2.722752       -74.0899
  88   2.0000      -2.722662       -74.0874
  89   2.0000      -2.711185       -73.7751
  90   2.0000      -2.711168       -73.7746
  91   2.0000      -1.220688       -33.2166
  92   2.0000      -1.181326       -32.1455
  93   2.0000      -1.166347       -31.7379
  94   2.0000      -1.152493       -31.3609
  95   2.0000      -1.131150       -30.7802
  96   2.0000      -1.091919       -29.7126
  97   2.0000      -1.068545       -29.0766
  98   2.0000      -1.039368       -28.2826
  99   2.0000      -0.999109       -27.1871
 100   2.0000      -0.995278       -27.0829
 101   2.0000      -0.980881       -26.6911
 102   2.0000      -0.978745       -26.6330
 103   2.0000      -0.973179       -26.4815
 104   2.0000      -0.959487       -26.1090
 105   2.0000      -0.957498       -26.0548
 106   2.0000      -0.943065       -25.6621
 107   2.0000      -0.925307       -25.1789
 108   2.0000      -0.918522       -24.9943
 109   2.0000      -0.915904       -24.9230
 110   2.0000      -0.911389       -24.8001
 111   2.0000      -0.894754       -24.3475
 112   2.0000      -0.886184       -24.1143
 113   2.0000      -0.879315       -23.9274
 114   2.0000      -0.866432       -23.5768
 115   2.0000      -0.859965       -23.4008
 116   2.0000      -0.857218       -23.3261
 117   2.0000      -0.847019       -23.0486
 118   2.0000      -0.845759       -23.0143
 119   2.0000      -0.839419       -22.8417
 120   2.0000      -0.825937       -22.4749
 121   2.0000      -0.822302       -22.3760
 122   2.0000      -0.814462       -22.1626
 123   2.0000      -0.812393       -22.1063
 124   2.0000      -0.802817       -21.8458
 125   2.0000      -0.798945       -21.7404
 126   2.0000      -0.790471       -21.5098
 127   2.0000      -0.773343       -21.0437
 128   2.0000      -0.768215       -20.9042
 129   2.0000      -0.759774       -20.6745
 130   2.0000      -0.755017       -20.5450
 131   2.0000      -0.744116       -20.2484
 132   2.0000      -0.726634       -19.7727
 133   2.0000      -0.722261       -19.6537
 134   2.0000      -0.714833       -19.4516
 135   2.0000      -0.704103       -19.1596
 136   2.0000      -0.691822       -18.8254
 137   2.0000      -0.683989       -18.6123
 138   2.0000      -0.675625       -18.3847
 139   2.0000      -0.672131       -18.2896
 140   2.0000      -0.658445       -17.9172
 141   2.0000      -0.657591       -17.8940
 142   2.0000      -0.652682       -17.7604
 143   2.0000      -0.649398       -17.6710
 144   2.0000      -0.639176       -17.3929
 145   2.0000      -0.635693       -17.2981
 146   2.0000      -0.631153       -17.1745
 147   2.0000      -0.629206       -17.1216
 148   2.0000      -0.618826       -16.8391
 149   2.0000      -0.617002       -16.7895
 150   2.0000      -0.608058       -16.5461
 151   2.0000      -0.598897       -16.2968
 152   2.0000      -0.595866       -16.2143
 153   2.0000      -0.594105       -16.1664
 154   2.0000      -0.590037       -16.0557
 155   2.0000      -0.589519       -16.0416
 156   2.0000      -0.587642       -15.9906
 157   2.0000      -0.585292       -15.9266
 158   2.0000      -0.579661       -15.7734
 159   2.0000      -0.577711       -15.7203
 160   2.0000      -0.572127       -15.5684
 161   2.0000      -0.571331       -15.5467
 162   2.0000      -0.564288       -15.3551
 163   2.0000      -0.563991       -15.3470
 164   2.0000      -0.563192       -15.3252
 165   2.0000      -0.559483       -15.2243
 166   2.0000      -0.549437       -14.9509
 167   2.0000      -0.547100       -14.8873
 168   2.0000      -0.540651       -14.7119
 169   2.0000      -0.539833       -14.6896
 170   2.0000      -0.537126       -14.6160
 171   2.0000      -0.533685       -14.5223
 172   2.0000      -0.525323       -14.2948
 173   2.0000      -0.521102       -14.1799
 174   2.0000      -0.516129       -14.0446
 175   2.0000      -0.515818       -14.0361
 176   2.0000      -0.513239       -13.9659
 177   2.0000      -0.510747       -13.8981
 178   2.0000      -0.508989       -13.8503
 179   2.0000      -0.506160       -13.7733
 180   2.0000      -0.504135       -13.7182
 181   2.0000      -0.500369       -13.6157
 182   2.0000      -0.497402       -13.5350
 183   2.0000      -0.496649       -13.5145
 184   2.0000      -0.491322       -13.3695
 185   2.0000      -0.490255       -13.3405
 186   2.0000      -0.488331       -13.2882
 187   2.0000      -0.485344       -13.2069
 188   2.0000      -0.483946       -13.1688
 189   2.0000      -0.482527       -13.1302
 190   2.0000      -0.480098       -13.0641
 191   2.0000      -0.479481       -13.0473
 192   2.0000      -0.475522       -12.9396
 193   2.0000      -0.470055       -12.7908
 194   2.0000      -0.469807       -12.7841
 195   2.0000      -0.465108       -12.6562
 196   2.0000      -0.464643       -12.6436
 197   2.0000      -0.464307       -12.6344
 198   2.0000      -0.456950       -12.4342
 199   2.0000      -0.456200       -12.4138
 200   2.0000      -0.450630       -12.2623
 201   2.0000      -0.447093       -12.1660
 202   2.0000      -0.446779       -12.1575
 203   2.0000      -0.443374       -12.0648
 204   2.0000      -0.442136       -12.0311
 205   2.0000      -0.433868       -11.8062
 206   2.0000      -0.432019       -11.7558
 207   2.0000      -0.430401       -11.7118
 208   2.0000      -0.429855       -11.6970
 209   2.0000      -0.426219       -11.5980
 210   2.0000      -0.422789       -11.5047
 211   2.0000      -0.419373       -11.4117
 212   2.0000      -0.416861       -11.3434
 213   2.0000      -0.414352       -11.2751
 214   2.0000      -0.414012       -11.2658
 215   2.0000      -0.410439       -11.1686
 216   2.0000      -0.406839       -11.0706
 217   2.0000      -0.403508       -10.9800
 218   2.0000      -0.400145       -10.8885
 219   2.0000      -0.393669       -10.7123
 220   2.0000      -0.389785       -10.6066
 221   2.0000      -0.382423       -10.4062
 222   2.0000      -0.380207       -10.3460
 223   2.0000      -0.376084       -10.2338
 224   2.0000      -0.372298       -10.1308
 225   2.0000      -0.366734        -9.9793
 226   2.0000      -0.366239        -9.9659
 227   2.0000      -0.359855        -9.7922
 228   2.0000      -0.358058        -9.7433
 229   2.0000      -0.357293        -9.7224
 230   2.0000      -0.349793        -9.5183
 231   2.0000      -0.343702        -9.3526
 232   2.0000      -0.341918        -9.3041
 233   2.0000      -0.335995        -9.1429
 234   2.0000      -0.320629        -8.7247
 235   2.0000      -0.314079        -8.5465
 236   2.0000      -0.311723        -8.4824
 237   2.0000      -0.298556        -8.1241
 238   2.0000      -0.288956        -7.8629
 239   2.0000      -0.279298        -7.6001
 240   2.0000      -0.271012        -7.3746
 241   2.0000      -0.259463        -7.0603
 242   2.0000      -0.241365        -6.5679
 243   2.0000      -0.210308        -5.7228
 244   0.0000      -0.088459        -2.4071
 245   0.0000      -0.055309        -1.5050
 246   0.0000      -0.042066        -1.1447
 247   0.0000      -0.041280        -1.1233
 248   0.0000      -0.019777        -0.5381

MULLIKEN ATOMIC CHARGES
-----------------------
   0 C :   -0.065151
   1 C :    0.096705
   2 O :   -0.303803
   3 C :    0.175962
   4 S :    0.067591
   5 C :   -0.004763
   6 O :   -0.280720
   7 C :    0.168571
   8 C :    0.071148
   9 C :    0.024933
  10 C :   -0.047764
  11 C :    0.094423
  12 O :   -0.211908
  13 C :   -0.031439
  14 C :    0.155627
  15 O :   -0.151049
  16 N :   -0.160297
  17 C :    0.184190
  18 O :   -0.174224
  19 C :   -0.080353
  20 C :    0.123010
  21 C :    0.000843
  22 C :   -0.013256
  23 C :    0.026858
  24 C :   -0.201869
  25 C :    0.062007
  26 C :    0.220106
  27 N :   -0.149398
  28 C :    0.079861
  29 C :   -0.043311
  30 C :    0.021103
  31 C :   -0.056096
  32 C :    0.059318
  33 C :    0.005890
  34 C :   -0.013090
  35 S :    0.085616
  36 C :   -0.071315
  37 C :    0.016152
  38 C :    0.082824
  39 C :   -0.024990
  40 S :    0.108293
  41 C :    0.007107
  42 C :    0.005508
  43 C :   -0.146063
  44 C :    0.294202
  45 C :   -0.358107
  46 C :   -0.185502
  47 N :    0.127393
  48 C :   -0.222707
  49 N :    0.141451
  50 C :    0.015012
  51 C :   -0.005368
  52 C :    0.117861
  53 O :   -0.172098
  54 C :   -0.086573
  55 C :    0.116662
  56 C :   -0.091829
  57 C :   -0.030028
  58 S :    0.171521
  59 C :   -0.122578
  60 C :    0.033422
  61 Br:    0.003172
  62 H :   -0.016646
  63 H :    0.042730
  64 H :    0.029523
  65 H :    0.028792
  66 H :    0.050468
  67 H :    0.035096
  68 H :    0.035315
  69 H :    0.000542
  70 H :    0.000049
  71 H :    0.135213
  72 H :   -0.018458
  73 H :    0.013810
  74 H :   -0.028150
  75 H :    0.048051
  76 H :    0.015791
  77 H :    0.059141
  78 H :    0.011428
  79 H :    0.034340
  80 H :    0.129070
  81 H :    0.012882
  82 H :   -0.002196
  83 H :   -0.008917
  84 H :   -0.008602
  85 H :   -0.010827
  86 H :   -0.013580
  87 H :   -0.001442
  88 H :   -0.010231
  89 H :    0.023999
  90 H :   -0.022963
  91 H :   -0.011193
  92 H :   -0.011730
Sum of atomic charges:   -0.0000000

LOEWDIN ATOMIC CHARGES
----------------------
   0 C :   -0.113675
   1 C :   -0.103127
   2 O :   -0.112625
   3 C :    0.084604
   4 S :    0.394483
   5 C :   -0.091960
   6 O :   -0.090680
   7 C :    0.070714
   8 C :   -0.111740
   9 C :    0.024697
  10 C :   -0.071028
  11 C :    0.079213
  12 O :    0.010460
  13 C :   -0.113176
  14 C :    0.085162
  15 O :   -0.168294
  16 N :   -0.004704
  17 C :    0.087827
  18 O :   -0.179242
  19 C :   -0.105351
  20 C :    0.063771
  21 C :   -0.041600
  22 C :    0.002656
  23 C :   -0.041843
  24 C :   -0.027741
  25 C :   -0.055238
  26 C :    0.046938
  27 N :    0.020103
  28 C :    0.075191
  29 C :   -0.127995
  30 C :    0.002587
  31 C :   -0.189108
  32 C :   -0.004693
  33 C :   -0.058180
  34 C :   -0.132270
  35 S :    0.386142
  36 C :   -0.211809
  37 C :   -0.005657
  38 C :   -0.035583
  39 C :   -0.085217
  40 S :    0.404364
  41 C :   -0.100754
  42 C :    0.052805
  43 C :   -0.142750
  44 C :    0.074069
  45 C :   -0.168172
  46 C :   -0.019501
  47 N :   -0.080088
  48 C :   -0.026306
  49 N :   -0.075178
  50 C :   -0.018151
  51 C :   -0.044543
  52 C :    0.067329
  53 O :   -0.164802
  54 C :    0.008890
  55 C :   -0.039435
  56 C :   -0.149196
  57 C :   -0.016541
  58 S :    0.420705
  59 C :   -0.278537
  60 C :   -0.072486
  61 Br:    0.121065
  62 H :    0.029244
  63 H :    0.031119
  64 H :    0.018589
  65 H :    0.018494
  66 H :    0.033767
  67 H :    0.016798
  68 H :    0.017130
  69 H :    0.034852
  70 H :    0.038859
  71 H :    0.093040
  72 H :    0.034268
  73 H :    0.031578
  74 H :    0.025112
  75 H :    0.043858
  76 H :    0.028263
  77 H :    0.048110
  78 H :    0.029979
  79 H :    0.027687
  80 H :    0.083870
  81 H :    0.033039
  82 H :    0.021084
  83 H :    0.035818
  84 H :    0.035403
  85 H :    0.032831
  86 H :    0.032720
  87 H :    0.035789
  88 H :    0.030439
  89 H :    0.043436
  90 H :    0.035509
  91 H :    0.039129
  92 H :    0.035385

  Mayer bond orders larger than 0.100000
B(  0-C ,  1-C ) :   1.5529 B(  0-C ,  8-C ) :   1.1355 B(  0-C , 62-H ) :   1.0021
B(  1-C ,  2-O ) :   1.1513 B(  1-C ,  4-S ) :   1.0782 B(  2-O ,  3-C ) :   0.9530
B(  3-C , 63-H ) :   0.9802 B(  3-C , 64-H ) :   0.9696 B(  3-C , 65-H ) :   0.9696
B(  4-S ,  5-C ) :   1.0854 B(  5-C ,  6-O ) :   1.1799 B(  5-C ,  8-C ) :   1.4780
B(  6-O ,  7-C ) :   0.9437 B(  7-C , 66-H ) :   0.9818 B(  7-C , 67-H ) :   0.9666
B(  7-C , 68-H ) :   0.9667 B(  8-C ,  9-C ) :   1.1125 B(  9-C , 10-C ) :   1.6064
B(  9-C , 69-H ) :   0.9946 B( 10-C , 11-C ) :   1.1827 B( 10-C , 70-H ) :   0.9559
B( 11-C , 12-O ) :   1.1506 B( 11-C , 13-C ) :   1.3911 B( 12-O , 20-C ) :   1.1331
B( 13-C , 14-C ) :   0.8934 B( 13-C , 19-C ) :   1.2541 B( 14-C , 15-O ) :   2.2596
B( 14-C , 16-N ) :   1.0618 B( 16-N , 17-C ) :   1.1170 B( 16-N , 71-H ) :   0.9154
B( 17-C , 18-O ) :   2.1428 B( 17-C , 19-C ) :   0.8935 B( 19-C , 20-C ) :   1.4443
B( 20-C , 21-C ) :   1.1264 B( 21-C , 22-C ) :   1.6610 B( 21-C , 72-H ) :   0.9797
B( 22-C , 23-C ) :   1.1107 B( 22-C , 73-H ) :   0.9508 B( 23-C , 24-C ) :   1.7935
B( 23-C , 74-H ) :   0.9741 B( 24-C , 25-C ) :   1.0663 B( 24-C , 26-C ) :   1.0397
B( 25-C , 75-H ) :   0.9450 B( 25-C , 76-H ) :   0.9517 B( 25-C , 77-H ) :   0.9390
B( 26-C , 27-N ) :   0.9653 B( 26-C , 78-H ) :   0.9412 B( 26-C , 79-H ) :   0.9231
B( 27-N , 28-C ) :   1.3011 B( 27-N , 80-H ) :   0.9309 B( 28-C , 29-C ) :   1.5273
B( 28-C , 81-H ) :   0.9692 B( 29-C , 30-C ) :   1.2234 B( 29-C , 82-H ) :   0.9657
B( 30-C , 31-C ) :   1.5336 B( 30-C , 83-H ) :   0.9783 B( 31-C , 32-C ) :   1.1778
B( 31-C , 35-S ) :   1.0121 B( 32-C , 33-C ) :   1.5475 B( 32-C , 84-H ) :   0.9985
B( 33-C , 34-C ) :   1.2240 B( 33-C , 85-H ) :   0.9948 B( 34-C , 35-S ) :   1.0995
B( 34-C , 36-C ) :   1.4262 B( 36-C , 37-C ) :   1.2467 B( 36-C , 40-S ) :   1.0392
B( 37-C , 38-C ) :   1.5244 B( 37-C , 86-H ) :   0.9935 B( 38-C , 39-C ) :   1.2392
B( 38-C , 87-H ) :   0.9821 B( 39-C , 40-S ) :   1.1186 B( 39-C , 41-C ) :   1.3596
B( 41-C , 42-C ) :   1.4475 B( 41-C , 88-H ) :   0.9441 B( 42-C , 43-C ) :   1.3620
B( 42-C , 89-H ) :   0.9475 B( 43-C , 44-C ) :   1.1462 B( 43-C , 52-C ) :   1.0044
B( 44-C , 45-C ) :   1.5810 B( 44-C , 50-C ) :   0.9863 B( 45-C , 46-C ) :   1.1472
B( 45-C , 48-C ) :   1.1502 B( 46-C , 47-N ) :   2.9630 B( 48-C , 49-N ) :   3.0032
B( 50-C , 51-C ) :   1.2784 B( 50-C , 57-C ) :   1.4283 B( 51-C , 52-C ) :   0.9292
B( 51-C , 54-C ) :   1.4396 B( 52-C , 53-O ) :   2.1769 B( 54-C , 55-C ) :   1.2308
B( 54-C , 90-H ) :   1.0162 B( 55-C , 56-C ) :   1.3291 B( 55-C , 60-C ) :   1.1569
B( 56-C , 57-C ) :   1.3090 B( 56-C , 58-S ) :   1.0769 B( 57-C , 91-H ) :   0.9806
B( 58-S , 59-C ) :   1.0857 B( 59-C , 60-C ) :   1.6230 B( 59-C , 61-Br) :   1.0062
B( 60-C , 92-H ) :   1.0002

-----------------------------------------------------------------------------
         ABSORPTION SPECTRUM VIA TRANSITION ELECTRIC DIPOLE MOMENTS
-----------------------------------------------------------------------------
State   Energy  Wavelength   fosc         T2         TX        TY        TZ
        (cm-1)    (nm)                  (au**2)     (au)      (au)      (au)
-----------------------------------------------------------------------------
   0   12499.1    800.1   1.612189997  42.46324  -1.31183  -0.60058  -6.35466
   1   20889.5    478.7   0.029349689   0.46254  -0.08913  -0.34463  -0.57951
   2   21907.7    456.5   0.140930009   2.11778  -0.79305  -0.06976  -1.21819
   3   24363.0    410.5   0.042241353   0.57080  -0.52054  -0.05054  -0.54524
   4   24871.6    402.1   0.635720427   8.41470   1.91467  -0.72096   2.05644
   5   25468.5    392.6   0.029884656   0.38630   0.33012  -0.52221  -0.06793
   6   25947.8    385.4   0.049802553   0.63187   0.46326  -0.23998   0.59972
   7   26475.1    377.7   0.077854611   0.96810   0.68710  -0.70097   0.06807
   8   27106.9    368.9   0.685581551   8.32637  -0.53618  -0.97472   2.66248
   9   28218.3    354.4   0.108665207   1.26775  -0.23628  -1.08269   0.19927
  10   29283.9    341.5   0.019652929   0.22094   0.15920   0.30608   0.31923
  11   29706.6    336.6   0.089640898   0.99341  -0.02250   0.93039   0.35676
  12   30196.7    331.2   0.000113137   0.00123   0.01366   0.02522  -0.02026
  13   31132.6    321.2   0.007540844   0.07974  -0.10402   0.22388  -0.13711
  14   31811.5    314.4   0.155135804   1.60547  -0.51530   1.15537   0.07104
  15   32842.9    304.5   0.119869580   1.20155   0.67441  -0.85367   0.13406
  16   33636.8    297.3   0.527696472   5.16469  -1.90076   0.80406  -0.95146
  17   33723.0    296.5   0.095550608   0.93279  -0.51713   0.78797   0.21087
  18   33980.0    294.3   0.055699186   0.53964  -0.38957   0.50242   0.36804
  19   34094.4    293.3   0.078194376   0.75504   0.63027  -0.16837   0.57397
  20   34622.4    288.8   0.153051065   1.45531  -1.17180   0.14202  -0.24904
  21   35027.2    285.5   0.188741271   1.77393  -1.15654   0.28465  -0.59610
  22   35685.9    280.2   0.001104640   0.01019   0.03811  -0.00899  -0.09304
  23   35896.3    278.6   0.150809497   1.38310  -0.68490   0.73328   0.61345
  24   36969.4    270.5   0.021680519   0.19306  -0.39294  -0.19452   0.02873
  25   37094.4    269.6   0.267087443   2.37039  -1.37302   0.52384   0.45913
  26   37965.9    263.4   0.087192185   0.75607   0.41351   0.57888   0.49998
  27   38065.5    262.7   0.000216748   0.00187  -0.03545  -0.01240   0.02155
  28   39734.3    251.7   0.113547149   0.94078  -0.17031  -0.11394  -0.94804
  29   40155.8    249.0   0.036222778   0.29697  -0.52563  -0.08584   0.11536

FINAL SINGLE POINT ENERGY     -6643.030687904065

DIPOLE MOMENT
-------------
                                X             Y             Z
Electronic contribution:    147.84229     -36.87161     225.50028
Nuclear contribution   :   -148.77346      34.93066    -236.27619
                        -----------------------------------------
Total Dipole Moment    :     -0.93118      -1.94095     -10.77592
                        -----------------------------------------
Magnitude (a.u.)       :     10.98885
Magnitude (Debye)      :     27.93143

Rotational constants in cm-1:     0.002454     0.000136     0.000134
Rotational constants in MHz :    73.576516     4.091021     4.017568

                             ****ORCA TERMINATED NORMALLY****
TOTAL RUN TIME: 0 days 0 hours 10 minutes 27 seconds 653 msec
