                         Program Version 4.2.0 -  RELEASE  -
|  1> # ORCA input file
|  2> # SCF done       -202.771155750966          0.000390156079
|  3> ! CAM-B3LYP def2-SVP def2/J RIJCOSX Grid4 TightSCF
|  4> %maxcore 5000
|  5> %tddft
|  6>     Mode sTDDFT
|  7>     Ethresh 5.0
|  8>     maxcore 5000
|  9> end
| 10>
| 11> %pal
| 12>   nprocs 6
| 13>   end
| 14> * xyz 0 1
| 15>    C        6.01636         5.02208         0.43445
| 16>    C        5.07263         6.00849         0.51172
| 17>    F        4.90655         6.67654         1.66729
| 18>    C        4.25994         6.35773        -0.57525
| 19>    C        4.41337         5.68864        -1.75773
| 20>    C        5.36963         4.66154        -1.89260
| 21>    C        6.18565         4.32055        -0.77466
| 22>    C        7.14289         3.28410        -0.88138
| 23>    C        7.27649         2.61537        -2.06698
| 24>    C        6.46999         2.97166        -3.18687
| 25>    C        5.53582         3.96358        -3.11025
| 26>    C        6.83302         2.12192        -4.33732
| 27>    O        6.33171         2.09991        -5.43892
| 28>    C        7.99810         1.32061        -3.87662
| 29>    C        8.12290         1.48801        -2.45019
| 30>    C        8.68529         0.59128        -1.57444
| 31>    C        9.20909        -0.65263        -1.97663
| 32>    N        9.59965        -1.69275        -2.26861
| 33>    C        8.71353         0.76812        -0.17801
| 34>    N        8.78655         0.87315         0.96305
| 35>    C        8.75826         0.65343        -4.79933
| 36>    C       10.08248         0.20330        -4.70747
| 37>    S       11.22311         0.82829        -3.55626
| 38>    C       12.51666        -0.16084        -4.14412
| 39>    C       12.07591        -0.95579        -5.22773
| 40>    C       10.71207        -0.72869        -5.56163
| 41>    C       10.12026        -1.43535        -6.62087
| 42>    C       10.88373        -2.32572        -7.32563
| 43>    F       10.34524        -3.00439        -8.34672
| 44>    C       12.23708        -2.54791        -6.99647
| 45>    F       12.94715        -3.43275        -7.71202
| 46>    C       12.83294        -1.88013        -5.96192
| 47>    C       13.79605        -0.14226        -3.58056
| 48>    C       14.19959         0.75135        -2.62292
| 49>    C       15.45301         0.84795        -2.00693
| 50>    C       16.57040        -0.01878        -1.93828
| 51>    C       17.67435         0.54773        -1.23361
| 52>    C       18.84117        -0.21682        -1.08183
| 53>    C       18.91671        -1.47653        -1.61827
| 54>    C       17.82209        -2.04043        -2.28061
| 55>    C       16.65844        -1.33209        -2.42541
| 56>    C       17.41620         1.86180        -0.74543
| 57>    S       15.78814         2.31591        -1.14433
| 58>    C       18.28449         2.77377        -0.13277
| 59>    S       19.97684         2.39648         0.05766
| 60>    C       20.41467         4.01037         0.49210
| 61>    C       19.25947         4.79940         0.62916
| 62>    C       18.05520         4.11278         0.28028
| 63>    C       16.83526         4.80266         0.36425
| 64>    C       16.83178         6.11939         0.73647
| 65>    F       15.66737         6.77311         0.83079
| 66>    C       18.02859         6.80442         1.03343
| 67>    F       17.97207         8.09430         1.38224
| 68>    C       19.23154         6.15978         0.98511
| 69>    C       21.76483         4.40775         0.66100
| 70>    C       22.85225         3.90242         0.01322
| 71>    C       22.90843         3.02361        -1.10147
| 72>    C       22.03235         2.79907        -2.12714
| 73>    C       22.16362         1.53742        -2.90549
| 74>    O       23.12623         0.80734        -2.95462
| 75>    C       20.83838         1.32819        -3.52819
| 76>    C       20.37428         0.24992        -4.22191
| 77>    C       19.04490         0.25877        -4.70371
| 78>    C       18.22038         1.39269        -4.45262
| 79>    C       16.90678         1.41025        -4.95965
| 80>    C       16.45733         0.34679        -5.69062
| 81>    C       17.24473        -0.78537        -5.93340
| 82>    C       18.52032        -0.82093        -5.44066
| 83>    F       15.20858         0.37356        -6.20213
| 84>    C       18.72493         2.49160        -3.71984
| 85>    C       20.01762         2.46289        -3.27095
| 86>    C       20.79634         3.43793        -2.51318
| 87>    C       20.44454         4.75055        -2.30805
| 88>    C       21.32056         5.72615        -1.79798
| 89>    N       22.00402         6.56501        -1.41462
| 90>    C       19.17318         5.27563        -2.60602
| 91>    N       18.12787         5.72670        -2.75892
| 92>    H        6.62230         4.77753         1.29285
| 93>    H        3.53254         7.14484        -0.45542
| 94>    H        3.79883         5.93992        -2.60904
| 95>    H        7.75242         3.04997        -0.02285
| 96>    H        4.92738         4.21190        -3.96688
| 97>    H        8.28199         0.52964        -5.76739
| 98>    H        9.08635        -1.29148        -6.88759
| 99>    H       13.86785        -2.07137        -5.73485
|100>    H       14.49444        -0.85853        -3.97960
|101>    H       13.48907         1.52004        -2.33932
|102>    H       19.68105         0.16082        -0.52601
|103>    H       19.82237        -2.05060        -1.50027
|104>    H       17.88941        -3.04891        -2.65824
|105>    H       15.80243        -1.79878        -2.88078
|106>    H       15.89126         4.32935         0.15958
|107>    H       20.13956         6.69373         1.21103
|108>    H       21.93433         5.19068         1.38898
|109>    H       23.82113         4.20115         0.39320
|110>    H       23.80565         2.41253        -1.15965
|111>    H       21.01355        -0.59962        -4.40877
|112>    H       16.27101         2.26590        -4.79324
|113>    H       16.83807        -1.59698        -6.51627
|114>    H       19.14937        -1.67886        -5.62305
|115>    H       18.07522         3.33298        -3.53731
|116> *
|117>
|118>                          ****END OF INPUT****

CARTESIAN COORDINATES (ANGSTROEM)
---------------------------------
  C      6.016360    5.022080    0.434450
  C      5.072630    6.008490    0.511720
  F      4.906550    6.676540    1.667290
  C      4.259940    6.357730   -0.575250
  C      4.413370    5.688640   -1.757730
  C      5.369630    4.661540   -1.892600
  C      6.185650    4.320550   -0.774660
  C      7.142890    3.284100   -0.881380
  C      7.276490    2.615370   -2.066980
  C      6.469990    2.971660   -3.186870
  C      5.535820    3.963580   -3.110250
  C      6.833020    2.121920   -4.337320
  O      6.331710    2.099910   -5.438920
  C      7.998100    1.320610   -3.876620
  C      8.122900    1.488010   -2.450190
  C      8.685290    0.591280   -1.574440
  C      9.209090   -0.652630   -1.976630
  N      9.599650   -1.692750   -2.268610
  C      8.713530    0.768120   -0.178010
  N      8.786550    0.873150    0.963050
  C      8.758260    0.653430   -4.799330
  C     10.082480    0.203300   -4.707470
  S     11.223110    0.828290   -3.556260
  C     12.516660   -0.160840   -4.144120
  C     12.075910   -0.955790   -5.227730
  C     10.712070   -0.728690   -5.561630
  C     10.120260   -1.435350   -6.620870
  C     10.883730   -2.325720   -7.325630
  F     10.345240   -3.004390   -8.346720
  C     12.237080   -2.547910   -6.996470
  F     12.947150   -3.432750   -7.712020
  C     12.832940   -1.880130   -5.961920
  C     13.796050   -0.142260   -3.580560
  C     14.199590    0.751350   -2.622920
  C     15.453010    0.847950   -2.006930
  C     16.570400   -0.018780   -1.938280
  C     17.674350    0.547730   -1.233610
  C     18.841170   -0.216820   -1.081830
  C     18.916710   -1.476530   -1.618270
  C     17.822090   -2.040430   -2.280610
  C     16.658440   -1.332090   -2.425410
  C     17.416200    1.861800   -0.745430
  S     15.788140    2.315910   -1.144330
  C     18.284490    2.773770   -0.132770
  S     19.976840    2.396480    0.057660
  C     20.414670    4.010370    0.492100
  C     19.259470    4.799400    0.629160
  C     18.055200    4.112780    0.280280
  C     16.835260    4.802660    0.364250
  C     16.831780    6.119390    0.736470
  F     15.667370    6.773110    0.830790
  C     18.028590    6.804420    1.033430
  F     17.972070    8.094300    1.382240
  C     19.231540    6.159780    0.985110
  C     21.764830    4.407750    0.661000
  C     22.852250    3.902420    0.013220
  C     22.908430    3.023610   -1.101470
  C     22.032350    2.799070   -2.127140
  C     22.163620    1.537420   -2.905490
  O     23.126230    0.807340   -2.954620
  C     20.838380    1.328190   -3.528190
  C     20.374280    0.249920   -4.221910
  C     19.044900    0.258770   -4.703710
  C     18.220380    1.392690   -4.452620
  C     16.906780    1.410250   -4.959650
  C     16.457330    0.346790   -5.690620
  C     17.244730   -0.785370   -5.933400
  C     18.520320   -0.820930   -5.440660
  F     15.208580    0.373560   -6.202130
  C     18.724930    2.491600   -3.719840
  C     20.017620    2.462890   -3.270950
  C     20.796340    3.437930   -2.513180
  C     20.444540    4.750550   -2.308050
  C     21.320560    5.726150   -1.797980
  N     22.004020    6.565010   -1.414620
  C     19.173180    5.275630   -2.606020
  N     18.127870    5.726700   -2.758920
  H      6.622300    4.777530    1.292850
  H      3.532540    7.144840   -0.455420
  H      3.798830    5.939920   -2.609040
  H      7.752420    3.049970   -0.022850
  H      4.927380    4.211900   -3.966880
  H      8.281990    0.529640   -5.767390
  H      9.086350   -1.291480   -6.887590
  H     13.867850   -2.071370   -5.734850
  H     14.494440   -0.858530   -3.979600
  H     13.489070    1.520040   -2.339320
  H     19.681050    0.160820   -0.526010
  H     19.822370   -2.050600   -1.500270
  H     17.889410   -3.048910   -2.658240
  H     15.802430   -1.798780   -2.880780
  H     15.891260    4.329350    0.159580
  H     20.139560    6.693730    1.211030
  H     21.934330    5.190680    1.388980
  H     23.821130    4.201150    0.393200
  H     23.805650    2.412530   -1.159650
  H     21.013550   -0.599620   -4.408770
  H     16.271010    2.265900   -4.793240
  H     16.838070   -1.596980   -6.516270
  H     19.149370   -1.678860   -5.623050
  H     18.075220    3.332980   -3.537310

 Total Charge           Charge          ....    0
 Multiplicity           Mult            ....    1
 Number of Electrons    NEL             ....  542
 Basis Dimension        Dim             .... 1210

ORBITAL ENERGIES
----------------

  NO   OCC          E(Eh)            E(eV)
   0   2.0000     -88.995168     -2421.6816
   1   2.0000     -88.987998     -2421.4865
   2   2.0000     -88.986215     -2421.4380
   3   2.0000     -24.799741      -674.8353
   4   2.0000     -24.799490      -674.8284
   5   2.0000     -24.798410      -674.7991
   6   2.0000     -24.796949      -674.7593
   7   2.0000     -24.795252      -674.7131
   8   2.0000     -24.783388      -674.3903
   9   2.0000     -19.215107      -522.8697
  10   2.0000     -19.208874      -522.7000
  11   2.0000     -14.418358      -392.3435
  12   2.0000     -14.413593      -392.2138
  13   2.0000     -14.412039      -392.1715
  14   2.0000     -14.411114      -392.1464
  15   2.0000     -10.384152      -282.5671
  16   2.0000     -10.381596      -282.4976
  17   2.0000     -10.380640      -282.4716
  18   2.0000     -10.378369      -282.4098
  19   2.0000     -10.376680      -282.3638
  20   2.0000     -10.366663      -282.0912
  21   2.0000     -10.365823      -282.0684
  22   2.0000     -10.360782      -281.9312
  23   2.0000     -10.345259      -281.5088
  24   2.0000     -10.342792      -281.4417
  25   2.0000     -10.341134      -281.3966
  26   2.0000     -10.338546      -281.3261
  27   2.0000     -10.337961      -281.3102
  28   2.0000     -10.337369      -281.2941
  29   2.0000     -10.337209      -281.2898
  30   2.0000     -10.337006      -281.2842
  31   2.0000     -10.323925      -280.9283
  32   2.0000     -10.322371      -280.8860
  33   2.0000     -10.321792      -280.8702
  34   2.0000     -10.319504      -280.8080
  35   2.0000     -10.317692      -280.7587
  36   2.0000     -10.316016      -280.7131
  37   2.0000     -10.315222      -280.6915
  38   2.0000     -10.314332      -280.6672
  39   2.0000     -10.314244      -280.6649
  40   2.0000     -10.313772      -280.6520
  41   2.0000     -10.313663      -280.6490
  42   2.0000     -10.312862      -280.6273
  43   2.0000     -10.312724      -280.6235
  44   2.0000     -10.311731      -280.5965
  45   2.0000     -10.311144      -280.5805
  46   2.0000     -10.311041      -280.5777
  47   2.0000     -10.310939      -280.5749
  48   2.0000     -10.310664      -280.5674
  49   2.0000     -10.308262      -280.5021
  50   2.0000     -10.306091      -280.4430
  51   2.0000     -10.305142      -280.4172
  52   2.0000     -10.303993      -280.3859
  53   2.0000     -10.303034      -280.3598
  54   2.0000     -10.302674      -280.3500
  55   2.0000     -10.302300      -280.3398
  56   2.0000     -10.302152      -280.3358
  57   2.0000     -10.301882      -280.3285
  58   2.0000     -10.301790      -280.3259
  59   2.0000     -10.300068      -280.2791
  60   2.0000     -10.299402      -280.2610
  61   2.0000     -10.299020      -280.2506
  62   2.0000     -10.297902      -280.2201
  63   2.0000     -10.297199      -280.2010
  64   2.0000     -10.296751      -280.1888
  65   2.0000     -10.296383      -280.1788
  66   2.0000     -10.296313      -280.1769
  67   2.0000     -10.295934      -280.1666
  68   2.0000     -10.295474      -280.1541
  69   2.0000     -10.294875      -280.1378
  70   2.0000     -10.294716      -280.1335
  71   2.0000     -10.294234      -280.1203
  72   2.0000     -10.292468      -280.0723
  73   2.0000     -10.291680      -280.0509
  74   2.0000     -10.291654      -280.0501
  75   2.0000     -10.286387      -279.9068
  76   2.0000     -10.286150      -279.9004
  77   2.0000      -8.089764      -220.1337
  78   2.0000      -8.081391      -219.9058
  79   2.0000      -8.080839      -219.8908
  80   2.0000      -6.058842      -164.8695
  81   2.0000      -6.054616      -164.7545
  82   2.0000      -6.052492      -164.6967
  83   2.0000      -6.050731      -164.6487
  84   2.0000      -6.049878      -164.6256
  85   2.0000      -6.046367      -164.5300
  86   2.0000      -6.045842      -164.5157
  87   2.0000      -6.043871      -164.4621
  88   2.0000      -6.043414      -164.4496
  89   2.0000      -1.321924       -35.9714
  90   2.0000      -1.319685       -35.9105
  91   2.0000      -1.312309       -35.7097
  92   2.0000      -1.306832       -35.5607
  93   2.0000      -1.304571       -35.4992
  94   2.0000      -1.298377       -35.3306
  95   2.0000      -1.130499       -30.7624
  96   2.0000      -1.124249       -30.5924
  97   2.0000      -1.034212       -28.1423
  98   2.0000      -1.025185       -27.8967
  99   2.0000      -1.020307       -27.7640
 100   2.0000      -1.013707       -27.5844
 101   2.0000      -1.012429       -27.5496
 102   2.0000      -1.003171       -27.2977
 103   2.0000      -0.996992       -27.1295
 104   2.0000      -0.995267       -27.0826
 105   2.0000      -0.990314       -26.9478
 106   2.0000      -0.979820       -26.6622
 107   2.0000      -0.973339       -26.4859
 108   2.0000      -0.961927       -26.1754
 109   2.0000      -0.958311       -26.0770
 110   2.0000      -0.956151       -26.0182
 111   2.0000      -0.941965       -25.6322
 112   2.0000      -0.932781       -25.3823
 113   2.0000      -0.924226       -25.1495
 114   2.0000      -0.919224       -25.0133
 115   2.0000      -0.908741       -24.7281
 116   2.0000      -0.899041       -24.4641
 117   2.0000      -0.892903       -24.2971
 118   2.0000      -0.889997       -24.2181
 119   2.0000      -0.883305       -24.0360
 120   2.0000      -0.881777       -23.9944
 121   2.0000      -0.872419       -23.7397
 122   2.0000      -0.865534       -23.5524
 123   2.0000      -0.858041       -23.3485
 124   2.0000      -0.854173       -23.2432
 125   2.0000      -0.850782       -23.1509
 126   2.0000      -0.847313       -23.0565
 127   2.0000      -0.842835       -22.9347
 128   2.0000      -0.837737       -22.7960
 129   2.0000      -0.831890       -22.6369
 130   2.0000      -0.823084       -22.3973
 131   2.0000      -0.809048       -22.0153
 132   2.0000      -0.794596       -21.6221
 133   2.0000      -0.776286       -21.1238
 134   2.0000      -0.763795       -20.7839
 135   2.0000      -0.758876       -20.6501
 136   2.0000      -0.751776       -20.4569
 137   2.0000      -0.750328       -20.4175
 138   2.0000      -0.748495       -20.3676
 139   2.0000      -0.739861       -20.1327
 140   2.0000      -0.730742       -19.8845
 141   2.0000      -0.724774       -19.7221
 142   2.0000      -0.722290       -19.6545
 143   2.0000      -0.714019       -19.4294
 144   2.0000      -0.712119       -19.3777
 145   2.0000      -0.707555       -19.2536
 146   2.0000      -0.705894       -19.2083
 147   2.0000      -0.694432       -18.8964
 148   2.0000      -0.685879       -18.6637
 149   2.0000      -0.681337       -18.5401
 150   2.0000      -0.679343       -18.4859
 151   2.0000      -0.676281       -18.4025
 152   2.0000      -0.674141       -18.3443
 153   2.0000      -0.663193       -18.0464
 154   2.0000      -0.661519       -18.0009
 155   2.0000      -0.649584       -17.6761
 156   2.0000      -0.640092       -17.4178
 157   2.0000      -0.637723       -17.3533
 158   2.0000      -0.634523       -17.2662
 159   2.0000      -0.633006       -17.2250
 160   2.0000      -0.629462       -17.1285
 161   2.0000      -0.626880       -17.0583
 162   2.0000      -0.626122       -17.0376
 163   2.0000      -0.624011       -16.9802
 164   2.0000      -0.623363       -16.9626
 165   2.0000      -0.613317       -16.6892
 166   2.0000      -0.606955       -16.5161
 167   2.0000      -0.604907       -16.4604
 168   2.0000      -0.601798       -16.3757
 169   2.0000      -0.595060       -16.1924
 170   2.0000      -0.587491       -15.9865
 171   2.0000      -0.586559       -15.9611
 172   2.0000      -0.585010       -15.9189
 173   2.0000      -0.584392       -15.9021
 174   2.0000      -0.577666       -15.7191
 175   2.0000      -0.577128       -15.7045
 176   2.0000      -0.574513       -15.6333
 177   2.0000      -0.571565       -15.5531
 178   2.0000      -0.568190       -15.4612
 179   2.0000      -0.566835       -15.4244
 180   2.0000      -0.560900       -15.2629
 181   2.0000      -0.556994       -15.1566
 182   2.0000      -0.556010       -15.1298
 183   2.0000      -0.555064       -15.1040
 184   2.0000      -0.552340       -15.0299
 185   2.0000      -0.550913       -14.9911
 186   2.0000      -0.549357       -14.9488
 187   2.0000      -0.548049       -14.9132
 188   2.0000      -0.547992       -14.9116
 189   2.0000      -0.545420       -14.8416
 190   2.0000      -0.545127       -14.8337
 191   2.0000      -0.541572       -14.7369
 192   2.0000      -0.539823       -14.6893
 193   2.0000      -0.537430       -14.6242
 194   2.0000      -0.531072       -14.4512
 195   2.0000      -0.529888       -14.4190
 196   2.0000      -0.529248       -14.4016
 197   2.0000      -0.528108       -14.3706
 198   2.0000      -0.526810       -14.3352
 199   2.0000      -0.522106       -14.2072
 200   2.0000      -0.520793       -14.1715
 201   2.0000      -0.520618       -14.1667
 202   2.0000      -0.519250       -14.1295
 203   2.0000      -0.518127       -14.0989
 204   2.0000      -0.510848       -13.9009
 205   2.0000      -0.508025       -13.8241
 206   2.0000      -0.505252       -13.7486
 207   2.0000      -0.504217       -13.7204
 208   2.0000      -0.497031       -13.5249
 209   2.0000      -0.494228       -13.4486
 210   2.0000      -0.492652       -13.4057
 211   2.0000      -0.490634       -13.3508
 212   2.0000      -0.490285       -13.3413
 213   2.0000      -0.486851       -13.2479
 214   2.0000      -0.486473       -13.2376
 215   2.0000      -0.480668       -13.0796
 216   2.0000      -0.480043       -13.0626
 217   2.0000      -0.478395       -13.0178
 218   2.0000      -0.473623       -12.8879
 219   2.0000      -0.472188       -12.8489
 220   2.0000      -0.466437       -12.6924
 221   2.0000      -0.463699       -12.6179
 222   2.0000      -0.462950       -12.5975
 223   2.0000      -0.459846       -12.5130
 224   2.0000      -0.457373       -12.4458
 225   2.0000      -0.454985       -12.3808
 226   2.0000      -0.453996       -12.3539
 227   2.0000      -0.453664       -12.3448
 228   2.0000      -0.451966       -12.2986
 229   2.0000      -0.450884       -12.2692
 230   2.0000      -0.449177       -12.2227
 231   2.0000      -0.447629       -12.1806
 232   2.0000      -0.445828       -12.1316
 233   2.0000      -0.443443       -12.0667
 234   2.0000      -0.441529       -12.0146
 235   2.0000      -0.440732       -11.9929
 236   2.0000      -0.438498       -11.9321
 237   2.0000      -0.435975       -11.8635
 238   2.0000      -0.434512       -11.8237
 239   2.0000      -0.433577       -11.7982
 240   2.0000      -0.431904       -11.7527
 241   2.0000      -0.428474       -11.6594
 242   2.0000      -0.424260       -11.5447
 243   2.0000      -0.423133       -11.5140
 244   2.0000      -0.422054       -11.4847
 245   2.0000      -0.420418       -11.4402
 246   2.0000      -0.414367       -11.2755
 247   2.0000      -0.413869       -11.2619
 248   2.0000      -0.410641       -11.1741
 249   2.0000      -0.402833       -10.9616
 250   2.0000      -0.401136       -10.9155
 251   2.0000      -0.387447       -10.5430
 252   2.0000      -0.382880       -10.4187
 253   2.0000      -0.375658       -10.2222
 254   2.0000      -0.369339       -10.0502
 255   2.0000      -0.363153        -9.8819
 256   2.0000      -0.352986        -9.6052
 257   2.0000      -0.343671        -9.3518
 258   2.0000      -0.340475        -9.2648
 259   2.0000      -0.337359        -9.1800
 260   2.0000      -0.331448        -9.0192
 261   2.0000      -0.330055        -8.9812
 262   2.0000      -0.326963        -8.8971
 263   2.0000      -0.323912        -8.8141
 264   2.0000      -0.317112        -8.6291
 265   2.0000      -0.310560        -8.4508
 266   2.0000      -0.305374        -8.3097
 267   2.0000      -0.297442        -8.0938
 268   2.0000      -0.294830        -8.0227
 269   2.0000      -0.269783        -7.3412
 270   2.0000      -0.230802        -6.2804
 271   0.0000      -0.130990        -3.5644
 272   0.0000      -0.096379        -2.6226
 273   0.0000      -0.072815        -1.9814
 274   0.0000      -0.059228        -1.6117
 275   0.0000      -0.054947        -1.4952

MULLIKEN ATOMIC CHARGES
-----------------------
   0 C :   -0.095724
   1 C :    0.303139
   2 F :   -0.190660
   3 C :   -0.034387
   4 C :   -0.008926
   5 C :    0.098103
   6 C :    0.099622
   7 C :   -0.083969
   8 C :    0.039956
   9 C :    0.010056
  10 C :   -0.077950
  11 C :    0.138537
  12 O :   -0.150302
  13 C :   -0.141674
  14 C :    0.253304
  15 C :   -0.332600
  16 C :   -0.213179
  17 N :    0.167140
  18 C :   -0.172266
  19 N :    0.142482
  20 C :    0.011296
  21 C :   -0.124692
  22 S :    0.175970
  23 C :   -0.054623
  24 C :    0.126051
  25 C :    0.171919
  26 C :   -0.108052
  27 C :    0.236398
  28 F :   -0.169214
  29 C :    0.221410
  30 F :   -0.175366
  31 C :   -0.098823
  32 C :   -0.014762
  33 C :    0.037728
  34 C :   -0.090080
  35 C :    0.115370
  36 C :    0.098928
  37 C :   -0.049161
  38 C :    0.033008
  39 C :    0.038807
  40 C :   -0.046566
  41 C :   -0.079512
  42 S :    0.144532
  43 C :   -0.091714
  44 S :    0.124199
  45 C :   -0.161413
  46 C :    0.158201
  47 C :    0.101040
  48 C :   -0.114112
  49 C :    0.231466
  50 F :   -0.169570
  51 C :    0.240175
  52 F :   -0.165793
  53 C :   -0.112479
  54 C :    0.045747
  55 C :   -0.010721
  56 C :    0.027459
  57 C :   -0.131665
  58 C :    0.135973
  59 O :   -0.142996
  60 C :    0.014876
  61 C :   -0.094644
  62 C :    0.111177
  63 C :    0.111704
  64 C :   -0.081248
  65 C :    0.292869
  66 C :   -0.047929
  67 C :   -0.001510
  68 F :   -0.196270
  69 C :   -0.094574
  70 C :    0.052367
  71 C :    0.254510
  72 C :   -0.316460
  73 C :   -0.205337
  74 N :    0.172679
  75 C :   -0.180568
  76 N :    0.139292
  77 H :   -0.003539
  78 H :    0.003858
  79 H :   -0.009753
  80 H :   -0.006539
  81 H :   -0.012861
  82 H :    0.022206
  83 H :    0.002377
  84 H :   -0.020872
  85 H :   -0.009255
  86 H :   -0.001380
  87 H :    0.003217
  88 H :   -0.003554
  89 H :   -0.009395
  90 H :   -0.020927
  91 H :    0.005151
  92 H :    0.000614
  93 H :    0.018770
  94 H :    0.017013
  95 H :    0.030150
  96 H :   -0.018383
  97 H :   -0.006804
  98 H :    0.000700
  99 H :   -0.013039
 100 H :   -0.013754
Sum of atomic charges:   -0.0000000

LOEWDIN ATOMIC CHARGES
----------------------
   0 C :   -0.042862
   1 C :    0.092408
   2 F :   -0.065209
   3 C :   -0.038193
   4 C :    0.004249
   5 C :   -0.019414
   6 C :    0.003065
   7 C :    0.007959
   8 C :   -0.015807
   9 C :   -0.058515
  10 C :    0.032801
  11 C :    0.080323
  12 O :   -0.151629
  13 C :   -0.106575
  14 C :    0.059258
  15 C :   -0.153022
  16 C :   -0.035658
  17 N :   -0.057464
  18 C :   -0.020608
  19 N :   -0.058878
  20 C :    0.040516
  21 C :   -0.187007
  22 S :    0.513858
  23 C :   -0.130494
  24 C :   -0.041052
  25 C :   -0.011398
  26 C :   -0.036007
  27 C :    0.075480
  28 F :   -0.046719
  29 C :    0.061102
  30 F :   -0.054133
  31 C :   -0.028749
  32 C :   -0.039275
  33 C :   -0.033837
  34 C :   -0.159279
  35 C :   -0.036586
  36 C :   -0.037631
  37 C :   -0.023372
  38 C :   -0.008575
  39 C :   -0.013023
  40 C :   -0.010217
  41 C :   -0.184160
  42 S :    0.513925
  43 C :   -0.162730
  44 S :    0.535059
  45 C :   -0.198096
  46 C :   -0.022125
  47 C :   -0.051995
  48 C :   -0.043985
  49 C :    0.069969
  50 F :   -0.047991
  51 C :    0.077368
  52 F :   -0.043646
  53 C :   -0.037755
  54 C :   -0.001550
  55 C :   -0.045100
  56 C :    0.042476
  57 C :   -0.102632
  58 C :    0.081452
  59 O :   -0.145087
  60 C :   -0.058576
  61 C :    0.032559
  62 C :   -0.017552
  63 C :    0.004894
  64 C :   -0.038050
  65 C :    0.082018
  66 C :   -0.047486
  67 C :    0.008270
  68 F :   -0.065212
  69 C :    0.004560
  70 C :   -0.018130
  71 C :    0.039128
  72 C :   -0.143974
  73 C :   -0.013948
  74 N :   -0.055472
  75 C :   -0.015178
  76 N :   -0.064631
  77 H :    0.042670
  78 H :    0.041669
  79 H :    0.035497
  80 H :    0.038406
  81 H :    0.039299
  82 H :    0.048040
  83 H :    0.045513
  84 H :    0.036485
  85 H :    0.029721
  86 H :    0.026606
  87 H :    0.013231
  88 H :    0.034624
  89 H :    0.032394
  90 H :    0.029039
  91 H :    0.024899
  92 H :    0.045922
  93 H :    0.042993
  94 H :    0.042232
  95 H :    0.046751
  96 H :    0.037233
  97 H :    0.041222
  98 H :    0.039472
  99 H :    0.034448
 100 H :    0.035184

  Mayer bond orders larger than 0.100000
B(  0-C ,  1-C ) :   1.4386 B(  0-C ,  6-C ) :   1.2049 B(  0-C , 77-H ) :   1.0063
B(  1-C ,  2-F ) :   1.0885 B(  1-C ,  3-C ) :   1.2567 B(  3-C ,  4-C ) :   1.4591
B(  3-C , 78-H ) :   0.9937 B(  4-C ,  5-C ) :   1.2345 B(  4-C , 79-H ) :   0.9969
B(  5-C ,  6-C ) :   1.2578 B(  5-C , 10-C ) :   1.1895 B(  6-C ,  7-C ) :   1.1992
B(  7-C ,  8-C ) :   1.4674 B(  7-C , 80-H ) :   0.9941 B(  8-C ,  9-C ) :   1.2160
B(  8-C , 14-C ) :   0.9967 B(  9-C , 10-C ) :   1.4757 B(  9-C , 11-C ) :   0.9215
B( 10-C , 81-H ) :   1.0147 B( 11-C , 12-O ) :   2.2556 B( 11-C , 13-C ) :   0.9512
B( 13-C , 14-C ) :   1.0670 B( 13-C , 20-C ) :   1.5698 B( 14-C , 15-C ) :   1.6239
B( 15-C , 16-C ) :   1.1613 B( 15-C , 18-C ) :   1.1367 B( 16-C , 17-N ) :   3.0208
B( 18-C , 19-N ) :   2.9824 B( 20-C , 21-C ) :   1.2262 B( 20-C , 82-H ) :   0.9345
B( 21-C , 22-S ) :   1.1154 B( 21-C , 25-C ) :   1.2635 B( 22-S , 23-C ) :   1.1699
B( 23-C , 24-C ) :   1.2629 B( 23-C , 32-C ) :   1.2681 B( 24-C , 25-C ) :   1.2356
B( 24-C , 31-C ) :   1.1895 B( 25-C , 26-C ) :   1.1959 B( 26-C , 27-C ) :   1.4744
B( 26-C , 31-C ) :   0.1114 B( 26-C , 83-H ) :   0.9972 B( 27-C , 28-F ) :   1.1360
B( 27-C , 29-C ) :   1.1724 B( 29-C , 30-F ) :   1.1343 B( 29-C , 31-C ) :   1.4857
B( 31-C , 84-H ) :   0.9936 B( 32-C , 33-C ) :   1.5399 B( 32-C , 85-H ) :   0.9482
B( 33-C , 34-C ) :   1.2389 B( 33-C , 86-H ) :   0.9440 B( 34-C , 35-C ) :   1.2500
B( 34-C , 42-S ) :   1.1470 B( 35-C , 36-C ) :   1.2518 B( 35-C , 40-C ) :   1.2492
B( 36-C , 37-C ) :   1.2384 B( 36-C , 41-C ) :   1.2371 B( 37-C , 38-C ) :   1.5124
B( 37-C , 87-H ) :   0.9746 B( 38-C , 39-C ) :   1.2601 B( 38-C , 88-H ) :   0.9860
B( 39-C , 40-C ) :   1.4914 B( 39-C , 89-H ) :   0.9878 B( 40-C , 90-H ) :   0.9920
B( 41-C , 42-S ) :   1.1476 B( 41-C , 43-C ) :   1.2823 B( 43-C , 44-S ) :   1.1542
B( 43-C , 47-C ) :   1.2861 B( 44-S , 45-C ) :   1.1303 B( 45-C , 46-C ) :   1.2734
B( 45-C , 54-C ) :   1.1724 B( 46-C , 47-C ) :   1.2288 B( 46-C , 53-C ) :   1.1897
B( 47-C , 48-C ) :   1.1721 B( 48-C , 49-C ) :   1.4987 B( 48-C , 53-C ) :   0.1095
B( 48-C , 91-H ) :   0.9762 B( 49-C , 50-F ) :   1.1429 B( 49-C , 51-C ) :   1.1715
B( 51-C , 52-F ) :   1.1399 B( 51-C , 53-C ) :   1.4773 B( 53-C , 92-H ) :   1.0006
B( 54-C , 55-C ) :   1.6443 B( 54-C , 93-H ) :   0.9557 B( 55-C , 56-C ) :   1.1812
B( 55-C , 94-H ) :   0.9447 B( 56-C , 57-C ) :   1.6408 B( 56-C , 95-H ) :   0.9271
B( 57-C , 58-C ) :   0.9418 B( 57-C , 71-C ) :   1.0614 B( 58-C , 59-O ) :   2.2716
B( 58-C , 60-C ) :   0.9111 B( 60-C , 61-C ) :   1.4707 B( 60-C , 70-C ) :   1.2212
B( 61-C , 62-C ) :   1.1690 B( 61-C , 96-H ) :   1.0184 B( 62-C , 63-C ) :   1.2741
B( 62-C , 67-C ) :   1.2414 B( 63-C , 64-C ) :   1.1993 B( 63-C , 69-C ) :   1.1914
B( 64-C , 65-C ) :   1.4461 B( 64-C , 97-H ) :   1.0029 B( 65-C , 66-C ) :   1.2526
B( 65-C , 68-F ) :   1.0473 B( 66-C , 67-C ) :   1.4435 B( 66-C , 98-H ) :   0.9975
B( 67-C , 99-H ) :   0.9972 B( 69-C , 70-C ) :   1.4583 B( 69-C ,100-H ) :   0.9908
B( 70-C , 71-C ) :   0.9968 B( 71-C , 72-C ) :   1.6151 B( 72-C , 73-C ) :   1.1787
B( 72-C , 75-C ) :   1.1397 B( 73-C , 74-N ) :   2.9777 B( 75-C , 76-N ) :   2.9443

-----------------------------------------------------------------------------
         ABSORPTION SPECTRUM VIA TRANSITION ELECTRIC DIPOLE MOMENTS
-----------------------------------------------------------------------------
State   Energy  Wavelength   fosc         T2         TX        TY        TZ
        (cm-1)    (nm)                  (au**2)     (au)      (au)      (au)
-----------------------------------------------------------------------------
   0    7444.9   1343.2   0.590900886  26.12965   4.88929   1.35572   0.62174
   1   13956.8    716.5   0.218432586   5.15239   2.07301  -0.69854   0.60586
   2   15638.8    639.4   0.030858139   0.64959   0.77952  -0.16135   0.12615
   3   18949.8    527.7   0.141597270   2.45994   0.14169   0.76293   1.36301
   4   19629.7    509.4   0.080320567   1.34706  -0.09732   0.64583   0.95943
   5   21222.5    471.2   0.170690493   2.64782  -0.05392   0.97647   1.30055
   6   21718.9    460.4   0.275951616   4.18284  -0.57008  -0.60916  -1.86729
   7   22694.5    440.6   0.000707804   0.01027  -0.00246   0.00214   0.10128
   8   23559.3    424.5   0.089680808   1.25318  -0.57726  -0.42876  -0.85797
   9   24095.7    415.0   0.098939227   1.35178   0.04734   0.90686   0.72604
  10   24329.4    411.0   0.028960114   0.39187   0.36933  -0.50480  -0.02538
  11   25270.5    395.7   0.090702296   1.18163  -0.66493   0.85450   0.09661
  12   25561.9    391.2   0.024762207   0.31891   0.06073  -0.45189   0.33320
  13   26317.2    380.0   0.127538583   1.59543  -1.03862   0.69645   0.17790
  14   26663.3    375.0   0.025743899   0.31786   0.14655   0.06590   0.54041
  15   27056.5    369.6   0.001630821   0.01984  -0.07987   0.10424   0.05097
  16   27208.3    367.5   0.045191045   0.54680  -0.43866   0.54024   0.25005
  17   27505.4    363.6   0.021115499   0.25273  -0.00542   0.44259   0.23836
  18   27963.0    357.6   0.262374670   3.08897   0.25465  -1.33561  -1.11367
  19   28054.3    356.5   0.018702879   0.21947  -0.23970  -0.26145   0.30604
  20   28881.6    346.2   0.029346661   0.33451  -0.15369  -0.25432  -0.49620
  21   29191.8    342.6   0.032418536   0.36560  -0.43423   0.00048  -0.42077
  22   29667.4    337.1   0.048593187   0.53923   0.34106  -0.32407  -0.56381
  23   30488.3    328.0   0.075910054   0.81968   0.82806  -0.32711   0.16429
  24   30856.0    324.1   0.038446336   0.41020   0.35084  -0.49758  -0.19879
  25   31097.5    321.6   0.132162682   1.39913  -0.34789   0.97399   0.57398
  26   31176.8    320.8   0.106221188   1.12164  -0.51478   0.69975   0.60580
  27   31580.6    316.7   0.025994988   0.27099  -0.28231   0.29661   0.32141
  28   31742.0    315.0   0.100603165   1.04340  -0.23854   0.69538   0.70919
  29   32521.7    307.5   0.032331741   0.32729  -0.43558   0.34441   0.13765
  30   32789.5    305.0   0.070757429   0.71042   0.61190   0.12311   0.56642
  31   33026.0    302.8   0.161020898   1.60510  -0.46852  -1.16129  -0.19234
  32   33102.9    302.1   0.004157354   0.04135  -0.11788  -0.08877  -0.13989
  33   33329.6    300.0   0.161483960   1.59505   0.19969  -1.08830  -0.60891
  34   33731.5    296.5   0.163692686   1.59760  -0.96942   0.61574  -0.52791
  35   33827.4    295.6   0.032406977   0.31539   0.19638  -0.52316  -0.05590
  36   34065.7    293.6   0.013206571   0.12763   0.06667   0.11986  -0.32987
  37   34269.1    291.8   0.068038059   0.65362  -0.70251  -0.39906  -0.02907
  38   34758.0    287.7   0.204671379   1.93856   0.56313  -1.09363  -0.65223
  39   34980.7    285.9   0.038659955   0.36384   0.14325  -0.39131  -0.43611
  40   35066.5    285.2   0.044414790   0.41698  -0.51462   0.07612  -0.38255
  41   35545.8    281.3   0.132730345   1.22930  -0.55290  -0.67451  -0.68457
  42   35705.3    280.1   0.086429397   0.79690   0.74373  -0.24452   0.42892
  43   35794.9    279.4   0.105877612   0.97378  -0.42536   0.87482   0.16592
  44   36075.6    277.2   0.038203327   0.34863   0.44563  -0.07415   0.38019
  45   36454.0    274.3   0.020153082   0.18200   0.36300  -0.18330  -0.12896
  46   36640.4    272.9   0.115329597   1.03623   0.68547  -0.65544  -0.36980
  47   36740.5    272.2   0.082528448   0.73949  -0.53691  -0.04524  -0.67021
  48   36894.2    271.0   0.133259072   1.18909   0.73572   0.72564   0.34822
  49   37106.5    269.5   0.074898617   0.66451  -0.15130   0.76668   0.23198
  50   37295.2    268.1   0.148140777   1.30767  -0.27476   0.97170   0.53662
  51   37577.3    266.1   0.114817257   1.00591   0.77565  -0.04525   0.63421
  52   37838.2    264.3   0.003621989   0.03151  -0.01809   0.09261  -0.15036
  53   38025.0    263.0   0.389853408   3.37526   0.38246   1.57758   0.86036
  54   38778.5    257.9   0.189716939   1.61061   0.01747  -1.17958  -0.46787
  55   38796.7    257.8   0.032058274   0.27203  -0.43155   0.21889  -0.19465
  56   39012.3    256.3   0.222226990   1.87530  -0.84341   0.47126  -0.97051
  57   39091.1    255.8   0.104817994   0.88274   0.44648   0.82666  -0.00633
  58   39517.6    253.1   0.005621634   0.04683  -0.02508  -0.20827  -0.05318
  59   39550.9    252.8   0.042448832   0.35333   0.08064   0.43714   0.39464
  60   39828.8    251.1   0.067519693   0.55810  -0.57196   0.39484   0.27397
  61   39871.8    250.8   0.049496440   0.40868   0.57623  -0.27680   0.00397
  62   40314.0    248.1   0.015466004   0.12630   0.19475   0.25547   0.15201

FINAL SINGLE POINT ENERGY     -4535.527447938441

DIPOLE MOMENT
-------------
                                X             Y             Z
Electronic contribution:    -16.13693      10.02627      -1.72297
Nuclear contribution   :     16.99167     -10.98170       1.55771
                        -----------------------------------------
Total Dipole Moment    :      0.85473      -0.95544      -0.16525
                        -----------------------------------------
Magnitude (a.u.)       :      1.29257
Magnitude (Debye)      :      3.28545

Rotational constants in cm-1:     0.001145     0.000487     0.000371
Rotational constants in MHz :    34.330911    14.603146    11.107888

                             ****ORCA TERMINATED NORMALLY****
TOTAL RUN TIME: 0 days 0 hours 14 minutes 55 seconds 493 msec
