                         Program Version 4.2.0 -  RELEASE  -
|  1> # ORCA input file
|  2> # SCF done       -190.194430283210          0.000388569768
|  3> ! CAM-B3LYP def2-SVP def2/J RIJCOSX Grid4 TightSCF
|  4> %maxcore 5000
|  5> %tddft
|  6>     Mode sTDDFT
|  7>     Ethresh 5.0
|  8>     maxcore 5000
|  9> end
| 10>
| 11> %pal
| 12>   nprocs 6
| 13>   end
| 14> * xyz 0 1
| 15>    C       -5.34440         0.29856        -5.95787
| 16>    C       -4.44772        -0.66906        -5.56801
| 17>    C       -3.82293        -1.57002        -6.45300
| 18>    N       -3.28020        -2.33440        -7.11696
| 19>    C       -4.00443        -0.90102        -4.25150
| 20>    N       -3.58589        -1.15393        -3.21041
| 21>    C       -5.75835         0.54634        -7.33743
| 22>    C       -6.64266         1.65193        -7.35123
| 23>    C       -7.20785         2.13774        -8.50361
| 24>    C       -6.88618         1.49881        -9.70656
| 25>    C       -6.00390         0.39441        -9.68426
| 26>    C       -5.43088        -0.09564        -8.51611
| 27>    S       -5.74341        -0.24778       -11.27842
| 28>    C       -6.80898         0.96145       -11.94292
| 29>    C       -7.33396         1.80304       -11.02151
| 30>   Br       -7.12875         0.99925       -13.79138
| 31>    C       -6.82440         2.13976        -5.96946
| 32>    O       -7.51619         3.08544        -5.63150
| 33>    C       -6.02137         1.26108        -5.11961
| 34>    C       -5.94064         1.30806        -3.74366
| 35>    C       -6.52378         2.17892        -2.82515
| 36>    S       -7.54360         3.54152        -3.20007
| 37>    C       -7.72390         3.93248        -1.51531
| 38>    C       -7.04436         3.01774        -0.69552
| 39>    C       -6.35764         2.05979        -1.42829
| 40>    C       -5.52641         0.99293        -0.78746
| 41>    C       -5.23679         1.32692         0.67243
| 42>    C       -6.53546         1.71515         1.39008
| 43>    N       -6.41016         1.87590         2.82855
| 44>    C       -7.06019         3.02747         0.80049
| 45>    C       -8.49568         5.08344        -1.24069
| 46>    C       -8.69192         5.69854        -0.04009
| 47>    C       -9.43621         6.86666         0.22449
| 48>    S       -9.53660         7.32054         1.90468
| 49>    C      -10.48848         8.72503         1.58561
| 50>    C      -10.72429         8.84532         0.20403
| 51>    C      -10.13653         7.79945        -0.56992
| 52>    C      -10.30989         7.83301        -1.96536
| 53>    C      -11.03050         8.82976        -2.57231
| 54>    C      -11.19805         8.83134        -4.05929
| 55>    C      -11.62098         9.86169        -1.79499
| 56>    C      -12.40920        10.94449        -2.46221
| 57>    C      -11.46061         9.85810        -0.43510
| 58>    C      -10.92922         9.58896         2.61277
| 59>    C      -10.74822         9.38362         3.94030
| 60>    C      -11.20721        10.30363         4.92868
| 61>    C      -11.13886        10.12425         6.26082
| 62>    C      -10.56613         8.90173         6.90968
| 63>    C      -11.67327        11.17943         7.19202
| 64>    N      -10.69858        11.52083         8.20191
| 65>    C      -10.96552        11.67857         9.49536
| 66>    C      -10.01882        11.94565        10.44760
| 67>    C      -10.26072        12.17365        11.80706
| 68>    C      -11.37457        11.99563        12.59835
| 69>    C      -12.58695        11.23461        12.48632
| 70>    C      -12.79736        10.08525        11.75394
| 71>    C      -13.99996         9.35455        11.75052
| 72>    N      -14.96070         8.72823        11.67954
| 73>    C      -11.81839         9.47438        10.95766
| 74>    N      -11.05183         8.95364        10.27622
| 75>    C      -13.52195        11.73965        13.49364
| 76>    C      -12.83013        12.63732        14.34163
| 77>    C      -11.43956        12.77413        13.85739
| 78>    O      -10.54646        13.42001        14.36304
| 79>    C      -13.43042        13.25918        15.40745
| 80>    C      -14.78515        12.99303        15.63917
| 81>    C      -15.47129        12.10735        14.77721
| 82>    C      -14.85925        11.46868        13.70432
| 83>    S      -17.13957        11.93441        15.23421
| 84>    C      -16.89316        13.03645        16.56268
| 85>    C      -15.62930        13.51135        16.65990
| 86>   Br      -18.33019        13.45878        17.69314
| 87>    H       -7.87739         2.98321        -8.47976
| 88>    H       -4.76548        -0.94160        -8.55420
| 89>    H       -8.00923         2.60530       -11.25701
| 90>    H       -5.33490         0.53856        -3.28558
| 91>    H       -4.58486         0.86285        -1.32548
| 92>    H       -6.06428         0.04068        -0.84384
| 93>    H       -4.53196         2.16089         0.72908
| 94>    H       -4.77915         0.46300         1.15950
| 95>    H       -7.27933         0.92701         1.22202
| 96>    H       -5.68473         2.55275         3.04438
| 97>    H       -6.15003         0.99772         3.26334
| 98>    H       -6.43596         3.84897         1.16856
| 99>    H       -8.07549         3.19030         1.16522
|100>    H       -8.94426         5.50729        -2.12551
|101>    H       -8.23157         5.27415         0.83949
|102>    H       -9.87129         7.06912        -2.58396
|103>    H      -10.68340         7.98540        -4.50709
|104>    H      -10.79725         9.74834        -4.48977
|105>    H      -12.25308         8.77503        -4.32545
|106>    H      -11.78794        11.48976        -3.17189
|107>    H      -12.79484        11.64787        -1.72864
|108>    H      -13.24914        10.52340        -3.01346
|109>    H      -11.90608        10.64263         0.15799
|110>    H      -11.45834        10.47641         2.29122
|111>    H      -10.23842         8.48946         4.26913
|112>    H      -11.65707        11.21369         4.54952
|113>    H       -9.50011         8.81276         6.70001
|114>    H      -11.04900         8.00518         6.52474
|115>    H      -10.70383         8.92728         7.98781
|116>    H      -12.57097        10.80488         7.69617
|117>    H      -11.95017        12.07750         6.62430
|118>    H       -9.73029        11.51094         7.91306
|119>    H      -12.01592        11.67106         9.75303
|120>    H       -8.99440        12.05291        10.11642
|121>    H       -9.44782        12.65651        12.34312
|122>    H      -12.87561        13.93114        16.04317
|123>    H      -15.42665        10.80512        13.07302
|124>    H      -15.30323        14.19958        17.41821
|125> *
|126>
|127>                          ****END OF INPUT****

CARTESIAN COORDINATES (ANGSTROEM)
---------------------------------
  C     -5.344400    0.298560   -5.957870
  C     -4.447720   -0.669060   -5.568010
  C     -3.822930   -1.570020   -6.453000
  N     -3.280200   -2.334400   -7.116960
  C     -4.004430   -0.901020   -4.251500
  N     -3.585890   -1.153930   -3.210410
  C     -5.758350    0.546340   -7.337430
  C     -6.642660    1.651930   -7.351230
  C     -7.207850    2.137740   -8.503610
  C     -6.886180    1.498810   -9.706560
  C     -6.003900    0.394410   -9.684260
  C     -5.430880   -0.095640   -8.516110
  S     -5.743410   -0.247780  -11.278420
  C     -6.808980    0.961450  -11.942920
  C     -7.333960    1.803040  -11.021510
  Br    -7.128750    0.999250  -13.791380
  C     -6.824400    2.139760   -5.969460
  O     -7.516190    3.085440   -5.631500
  C     -6.021370    1.261080   -5.119610
  C     -5.940640    1.308060   -3.743660
  C     -6.523780    2.178920   -2.825150
  S     -7.543600    3.541520   -3.200070
  C     -7.723900    3.932480   -1.515310
  C     -7.044360    3.017740   -0.695520
  C     -6.357640    2.059790   -1.428290
  C     -5.526410    0.992930   -0.787460
  C     -5.236790    1.326920    0.672430
  C     -6.535460    1.715150    1.390080
  N     -6.410160    1.875900    2.828550
  C     -7.060190    3.027470    0.800490
  C     -8.495680    5.083440   -1.240690
  C     -8.691920    5.698540   -0.040090
  C     -9.436210    6.866660    0.224490
  S     -9.536600    7.320540    1.904680
  C    -10.488480    8.725030    1.585610
  C    -10.724290    8.845320    0.204030
  C    -10.136530    7.799450   -0.569920
  C    -10.309890    7.833010   -1.965360
  C    -11.030500    8.829760   -2.572310
  C    -11.198050    8.831340   -4.059290
  C    -11.620980    9.861690   -1.794990
  C    -12.409200   10.944490   -2.462210
  C    -11.460610    9.858100   -0.435100
  C    -10.929220    9.588960    2.612770
  C    -10.748220    9.383620    3.940300
  C    -11.207210   10.303630    4.928680
  C    -11.138860   10.124250    6.260820
  C    -10.566130    8.901730    6.909680
  C    -11.673270   11.179430    7.192020
  N    -10.698580   11.520830    8.201910
  C    -10.965520   11.678570    9.495360
  C    -10.018820   11.945650   10.447600
  C    -10.260720   12.173650   11.807060
  C    -11.374570   11.995630   12.598350
  C    -12.586950   11.234610   12.486320
  C    -12.797360   10.085250   11.753940
  C    -13.999960    9.354550   11.750520
  N    -14.960700    8.728230   11.679540
  C    -11.818390    9.474380   10.957660
  N    -11.051830    8.953640   10.276220
  C    -13.521950   11.739650   13.493640
  C    -12.830130   12.637320   14.341630
  C    -11.439560   12.774130   13.857390
  O    -10.546460   13.420010   14.363040
  C    -13.430420   13.259180   15.407450
  C    -14.785150   12.993030   15.639170
  C    -15.471290   12.107350   14.777210
  C    -14.859250   11.468680   13.704320
  S    -17.139570   11.934410   15.234210
  C    -16.893160   13.036450   16.562680
  C    -15.629300   13.511350   16.659900
  Br   -18.330190   13.458780   17.693140
  H     -7.877390    2.983210   -8.479760
  H     -4.765480   -0.941600   -8.554200
  H     -8.009230    2.605300  -11.257010
  H     -5.334900    0.538560   -3.285580
  H     -4.584860    0.862850   -1.325480
  H     -6.064280    0.040680   -0.843840
  H     -4.531960    2.160890    0.729080
  H     -4.779150    0.463000    1.159500
  H     -7.279330    0.927010    1.222020
  H     -5.684730    2.552750    3.044380
  H     -6.150030    0.997720    3.263340
  H     -6.435960    3.848970    1.168560
  H     -8.075490    3.190300    1.165220
  H     -8.944260    5.507290   -2.125510
  H     -8.231570    5.274150    0.839490
  H     -9.871290    7.069120   -2.583960
  H    -10.683400    7.985400   -4.507090
  H    -10.797250    9.748340   -4.489770
  H    -12.253080    8.775030   -4.325450
  H    -11.787940   11.489760   -3.171890
  H    -12.794840   11.647870   -1.728640
  H    -13.249140   10.523400   -3.013460
  H    -11.906080   10.642630    0.157990
  H    -11.458340   10.476410    2.291220
  H    -10.238420    8.489460    4.269130
  H    -11.657070   11.213690    4.549520
  H     -9.500110    8.812760    6.700010
  H    -11.049000    8.005180    6.524740
  H    -10.703830    8.927280    7.987810
  H    -12.570970   10.804880    7.696170
  H    -11.950170   12.077500    6.624300
  H     -9.730290   11.510940    7.913060
  H    -12.015920   11.671060    9.753030
  H     -8.994400   12.052910   10.116420
  H     -9.447820   12.656510   12.343120
  H    -12.875610   13.931140   16.043170
  H    -15.426650   10.805120   13.073020
  H    -15.303230   14.199580   17.418210

 Total Charge           Charge          ....    0
 Multiplicity           Mult            ....    1
 Number of Electrons    NEL             ....  578
 Basis Dimension        Dim             .... 1250

ORBITAL ENERGIES
----------------

  NO   OCC          E(Eh)            E(eV)
   0   2.0000    -482.880990    -13139.8598
   1   2.0000    -482.879814    -13139.8277
   2   2.0000     -88.969286     -2420.9774
   3   2.0000     -88.968234     -2420.9487
   4   2.0000     -88.967933     -2420.9405
   5   2.0000     -88.950614     -2420.4693
   6   2.0000     -62.558691     -1702.3085
   7   2.0000     -62.557548     -1702.2774
   8   2.0000     -56.392634     -1534.5216
   9   2.0000     -56.391489     -1534.4904
  10   2.0000     -56.389935     -1534.4481
  11   2.0000     -56.389896     -1534.4471
  12   2.0000     -56.388792     -1534.4170
  13   2.0000     -56.388750     -1534.4159
  14   2.0000     -19.209347      -522.7129
  15   2.0000     -19.198478      -522.4171
  16   2.0000     -14.472331      -393.8122
  17   2.0000     -14.414280      -392.2325
  18   2.0000     -14.409016      -392.0893
  19   2.0000     -14.404984      -391.9796
  20   2.0000     -14.403651      -391.9433
  21   2.0000     -14.382229      -391.3604
  22   2.0000     -10.357941      -281.8539
  23   2.0000     -10.353539      -281.7341
  24   2.0000     -10.352920      -281.7173
  25   2.0000     -10.351479      -281.6781
  26   2.0000     -10.349869      -281.6343
  27   2.0000     -10.332989      -281.1749
  28   2.0000     -10.331239      -281.1273
  29   2.0000     -10.329988      -281.0933
  30   2.0000     -10.328388      -281.0497
  31   2.0000     -10.326859      -281.0081
  32   2.0000     -10.318086      -280.7694
  33   2.0000     -10.317905      -280.7645
  34   2.0000     -10.316746      -280.7329
  35   2.0000     -10.313097      -280.6336
  36   2.0000     -10.310720      -280.5689
  37   2.0000     -10.309956      -280.5482
  38   2.0000     -10.309584      -280.5380
  39   2.0000     -10.309262      -280.5293
  40   2.0000     -10.307920      -280.4928
  41   2.0000     -10.306662      -280.4585
  42   2.0000     -10.305635      -280.4306
  43   2.0000     -10.300180      -280.2821
  44   2.0000     -10.299609      -280.2666
  45   2.0000     -10.299067      -280.2519
  46   2.0000     -10.298354      -280.2325
  47   2.0000     -10.297898      -280.2200
  48   2.0000     -10.297312      -280.2041
  49   2.0000     -10.296650      -280.1861
  50   2.0000     -10.295526      -280.1555
  51   2.0000     -10.293508      -280.1006
  52   2.0000     -10.293218      -280.0927
  53   2.0000     -10.291517      -280.0464
  54   2.0000     -10.291266      -280.0396
  55   2.0000     -10.291093      -280.0349
  56   2.0000     -10.290253      -280.0120
  57   2.0000     -10.290003      -280.0052
  58   2.0000     -10.289820      -280.0002
  59   2.0000     -10.287340      -279.9327
  60   2.0000     -10.285856      -279.8924
  61   2.0000     -10.284655      -279.8597
  62   2.0000     -10.283529      -279.8291
  63   2.0000     -10.283520      -279.8288
  64   2.0000     -10.283315      -279.8232
  65   2.0000     -10.282797      -279.8091
  66   2.0000     -10.282425      -279.7990
  67   2.0000     -10.281243      -279.7669
  68   2.0000     -10.278918      -279.7036
  69   2.0000     -10.278189      -279.6837
  70   2.0000     -10.276437      -279.6361
  71   2.0000     -10.274203      -279.5753
  72   2.0000     -10.274194      -279.5750
  73   2.0000     -10.273628      -279.5596
  74   2.0000     -10.272224      -279.5214
  75   2.0000     -10.271263      -279.4953
  76   2.0000     -10.270725      -279.4806
  77   2.0000     -10.269593      -279.4498
  78   2.0000     -10.263098      -279.2731
  79   2.0000     -10.262452      -279.2555
  80   2.0000      -8.788103      -239.1364
  81   2.0000      -8.786982      -239.1059
  82   2.0000      -8.065275      -219.4673
  83   2.0000      -8.064236      -219.4390
  84   2.0000      -8.063221      -219.4114
  85   2.0000      -8.044391      -218.8990
  86   2.0000      -6.624375      -180.2584
  87   2.0000      -6.623258      -180.2280
  88   2.0000      -6.609846      -179.8630
  89   2.0000      -6.609665      -179.8581
  90   2.0000      -6.608703      -179.8320
  91   2.0000      -6.608563      -179.8281
  92   2.0000      -6.034976      -164.2201
  93   2.0000      -6.033937      -164.1918
  94   2.0000      -6.032083      -164.1413
  95   2.0000      -6.030690      -164.1034
  96   2.0000      -6.029664      -164.0755
  97   2.0000      -6.028176      -164.0350
  98   2.0000      -6.026494      -163.9892
  99   2.0000      -6.026035      -163.9768
 100   2.0000      -6.025448      -163.9608
 101   2.0000      -6.013738      -163.6421
 102   2.0000      -6.009342      -163.5225
 103   2.0000      -6.006564      -163.4469
 104   2.0000      -2.740239       -74.5657
 105   2.0000      -2.739108       -74.5349
 106   2.0000      -2.736168       -74.4549
 107   2.0000      -2.736053       -74.4518
 108   2.0000      -2.735077       -74.4252
 109   2.0000      -2.734910       -74.4207
 110   2.0000      -2.724488       -74.1371
 111   2.0000      -2.724481       -74.1369
 112   2.0000      -2.723379       -74.1069
 113   2.0000      -2.723356       -74.1063
 114   2.0000      -1.124119       -30.5888
 115   2.0000      -1.113510       -30.3001
 116   2.0000      -1.070952       -29.1421
 117   2.0000      -1.015037       -27.6206
 118   2.0000      -1.014567       -27.6078
 119   2.0000      -1.007453       -27.4142
 120   2.0000      -1.005647       -27.3651
 121   2.0000      -1.000691       -27.2302
 122   2.0000      -0.993100       -27.0236
 123   2.0000      -0.989107       -26.9150
 124   2.0000      -0.985610       -26.8198
 125   2.0000      -0.980628       -26.6842
 126   2.0000      -0.979104       -26.6428
 127   2.0000      -0.971048       -26.4236
 128   2.0000      -0.946862       -25.7654
 129   2.0000      -0.936045       -25.4711
 130   2.0000      -0.935204       -25.4482
 131   2.0000      -0.930963       -25.3328
 132   2.0000      -0.916585       -24.9415
 133   2.0000      -0.904946       -24.6248
 134   2.0000      -0.901008       -24.5177
 135   2.0000      -0.899952       -24.4889
 136   2.0000      -0.897017       -24.4091
 137   2.0000      -0.894034       -24.3279
 138   2.0000      -0.879301       -23.9270
 139   2.0000      -0.878058       -23.8932
 140   2.0000      -0.877326       -23.8733
 141   2.0000      -0.870173       -23.6786
 142   2.0000      -0.865602       -23.5542
 143   2.0000      -0.860037       -23.4028
 144   2.0000      -0.854574       -23.2542
 145   2.0000      -0.834818       -22.7165
 146   2.0000      -0.832660       -22.6578
 147   2.0000      -0.822492       -22.3812
 148   2.0000      -0.821240       -22.3471
 149   2.0000      -0.818539       -22.2736
 150   2.0000      -0.808635       -22.0041
 151   2.0000      -0.789828       -21.4923
 152   2.0000      -0.789533       -21.4843
 153   2.0000      -0.784445       -21.3458
 154   2.0000      -0.775197       -21.0942
 155   2.0000      -0.769972       -20.9520
 156   2.0000      -0.760636       -20.6979
 157   2.0000      -0.752027       -20.4637
 158   2.0000      -0.746560       -20.3149
 159   2.0000      -0.738377       -20.0923
 160   2.0000      -0.724993       -19.7281
 161   2.0000      -0.720448       -19.6044
 162   2.0000      -0.711345       -19.3567
 163   2.0000      -0.696275       -18.9466
 164   2.0000      -0.694663       -18.9027
 165   2.0000      -0.693581       -18.8733
 166   2.0000      -0.685874       -18.6636
 167   2.0000      -0.682484       -18.5713
 168   2.0000      -0.678464       -18.4619
 169   2.0000      -0.675785       -18.3890
 170   2.0000      -0.662738       -18.0340
 171   2.0000      -0.659163       -17.9367
 172   2.0000      -0.651709       -17.7339
 173   2.0000      -0.648481       -17.6461
 174   2.0000      -0.640622       -17.4322
 175   2.0000      -0.638572       -17.3764
 176   2.0000      -0.629942       -17.1416
 177   2.0000      -0.623003       -16.9528
 178   2.0000      -0.620688       -16.8898
 179   2.0000      -0.614736       -16.7278
 180   2.0000      -0.613653       -16.6984
 181   2.0000      -0.610096       -16.6016
 182   2.0000      -0.602881       -16.4052
 183   2.0000      -0.595567       -16.2062
 184   2.0000      -0.591631       -16.0991
 185   2.0000      -0.586375       -15.9561
 186   2.0000      -0.582897       -15.8614
 187   2.0000      -0.580979       -15.8092
 188   2.0000      -0.573936       -15.6176
 189   2.0000      -0.568568       -15.4715
 190   2.0000      -0.565845       -15.3974
 191   2.0000      -0.563564       -15.3354
 192   2.0000      -0.558062       -15.1856
 193   2.0000      -0.551048       -14.9948
 194   2.0000      -0.547677       -14.9031
 195   2.0000      -0.541670       -14.7396
 196   2.0000      -0.541141       -14.7252
 197   2.0000      -0.539046       -14.6682
 198   2.0000      -0.535542       -14.5728
 199   2.0000      -0.531843       -14.4722
 200   2.0000      -0.530144       -14.4260
 201   2.0000      -0.528261       -14.3747
 202   2.0000      -0.528055       -14.3691
 203   2.0000      -0.523996       -14.2587
 204   2.0000      -0.523600       -14.2479
 205   2.0000      -0.519456       -14.1351
 206   2.0000      -0.516546       -14.0559
 207   2.0000      -0.514831       -14.0093
 208   2.0000      -0.512843       -13.9552
 209   2.0000      -0.509262       -13.8577
 210   2.0000      -0.509007       -13.8508
 211   2.0000      -0.504592       -13.7306
 212   2.0000      -0.502459       -13.6726
 213   2.0000      -0.500012       -13.6060
 214   2.0000      -0.499002       -13.5785
 215   2.0000      -0.497287       -13.5319
 216   2.0000      -0.496451       -13.5091
 217   2.0000      -0.491804       -13.3827
 218   2.0000      -0.491476       -13.3737
 219   2.0000      -0.489521       -13.3205
 220   2.0000      -0.488558       -13.2943
 221   2.0000      -0.487528       -13.2663
 222   2.0000      -0.486104       -13.2276
 223   2.0000      -0.484725       -13.1900
 224   2.0000      -0.483888       -13.1673
 225   2.0000      -0.476070       -12.9545
 226   2.0000      -0.475144       -12.9293
 227   2.0000      -0.473926       -12.8962
 228   2.0000      -0.472683       -12.8624
 229   2.0000      -0.470650       -12.8070
 230   2.0000      -0.467536       -12.7223
 231   2.0000      -0.466320       -12.6892
 232   2.0000      -0.465623       -12.6703
 233   2.0000      -0.460015       -12.5176
 234   2.0000      -0.457005       -12.4357
 235   2.0000      -0.455912       -12.4060
 236   2.0000      -0.454376       -12.3642
 237   2.0000      -0.450687       -12.2638
 238   2.0000      -0.447378       -12.1738
 239   2.0000      -0.443194       -12.0599
 240   2.0000      -0.441992       -12.0272
 241   2.0000      -0.438848       -11.9417
 242   2.0000      -0.438637       -11.9359
 243   2.0000      -0.436683       -11.8827
 244   2.0000      -0.435654       -11.8547
 245   2.0000      -0.434743       -11.8300
 246   2.0000      -0.432865       -11.7789
 247   2.0000      -0.432569       -11.7708
 248   2.0000      -0.429798       -11.6954
 249   2.0000      -0.429443       -11.6857
 250   2.0000      -0.426178       -11.5969
 251   2.0000      -0.424596       -11.5539
 252   2.0000      -0.421080       -11.4582
 253   2.0000      -0.420173       -11.4335
 254   2.0000      -0.419169       -11.4062
 255   2.0000      -0.418515       -11.3884
 256   2.0000      -0.417260       -11.3542
 257   2.0000      -0.413872       -11.2620
 258   2.0000      -0.413395       -11.2491
 259   2.0000      -0.410110       -11.1596
 260   2.0000      -0.407673       -11.0933
 261   2.0000      -0.403242       -10.9728
 262   2.0000      -0.401266       -10.9190
 263   2.0000      -0.400321       -10.8933
 264   2.0000      -0.395092       -10.7510
 265   2.0000      -0.391356       -10.6493
 266   2.0000      -0.389223       -10.5913
 267   2.0000      -0.381184       -10.3725
 268   2.0000      -0.380486       -10.3535
 269   2.0000      -0.373260       -10.1569
 270   2.0000      -0.370515       -10.0822
 271   2.0000      -0.369899       -10.0655
 272   2.0000      -0.369436       -10.0529
 273   2.0000      -0.353443        -9.6177
 274   2.0000      -0.344108        -9.3637
 275   2.0000      -0.328413        -8.9366
 276   2.0000      -0.323576        -8.8049
 277   2.0000      -0.321787        -8.7563
 278   2.0000      -0.312968        -8.5163
 279   2.0000      -0.312683        -8.5086
 280   2.0000      -0.308507        -8.3949
 281   2.0000      -0.307108        -8.3568
 282   2.0000      -0.306975        -8.3532
 283   2.0000      -0.303556        -8.2602
 284   2.0000      -0.287888        -7.8338
 285   2.0000      -0.287546        -7.8245
 286   2.0000      -0.273356        -7.4384
 287   2.0000      -0.263509        -7.1704
 288   2.0000      -0.224309        -6.1038
 289   0.0000      -0.093955        -2.5566
 290   0.0000      -0.073465        -1.9991
 291   0.0000      -0.063148        -1.7184
 292   0.0000      -0.046960        -1.2779
 293   0.0000      -0.041613        -1.1324

MULLIKEN ATOMIC CHARGES
-----------------------
   0 C :    0.323642
   1 C :   -0.367140
   2 C :   -0.189153
   3 N :    0.141483
   4 C :   -0.181457
   5 N :    0.131722
   6 C :    0.011208
   7 C :   -0.006909
   8 C :   -0.078033
   9 C :    0.118250
  10 C :   -0.091373
  11 C :   -0.023913
  12 S :    0.182232
  13 C :   -0.122914
  14 C :    0.036066
  15 Br:    0.016971
  16 C :    0.149232
  17 O :   -0.183106
  18 C :   -0.095933
  19 C :   -0.054391
  20 C :   -0.080231
  21 S :    0.171495
  22 C :   -0.087903
  23 C :   -0.059159
  24 C :   -0.107893
  25 C :    0.124672
  26 C :    0.083788
  27 C :   -0.068863
  28 N :   -0.165414
  29 C :    0.155441
  30 C :    0.015116
  31 C :    0.060424
  32 C :   -0.126891
  33 S :    0.140440
  34 C :   -0.089376
  35 C :    0.128731
  36 C :    0.146919
  37 C :   -0.094930
  38 C :   -0.080522
  39 C :    0.116332
  40 C :   -0.078912
  41 C :    0.120656
  42 C :   -0.098167
  43 C :    0.000528
  44 C :   -0.000491
  45 C :    0.003972
  46 C :   -0.252174
  47 C :    0.094035
  48 C :    0.242245
  49 N :   -0.129016
  50 C :    0.088145
  51 C :   -0.029295
  52 C :    0.046587
  53 C :   -0.157200
  54 C :    0.287688
  55 C :   -0.380179
  56 C :   -0.174024
  57 N :    0.137515
  58 C :   -0.184215
  59 N :    0.146044
  60 C :   -0.005457
  61 C :    0.008484
  62 C :    0.130075
  63 O :   -0.159912
  64 C :   -0.078852
  65 C :    0.112466
  66 C :   -0.088892
  67 C :   -0.027039
  68 S :    0.177621
  69 C :   -0.124623
  70 C :    0.038256
  71 Br:    0.015511
  72 H :   -0.014263
  73 H :   -0.008621
  74 H :   -0.005915
  75 H :   -0.008493
  76 H :    0.043303
  77 H :    0.023922
  78 H :   -0.007888
  79 H :   -0.005190
  80 H :   -0.000727
  81 H :    0.085623
  82 H :    0.090262
  83 H :    0.007674
  84 H :    0.028002
  85 H :   -0.035354
  86 H :   -0.024654
  87 H :   -0.051865
  88 H :    0.015166
  89 H :    0.021520
  90 H :    0.022697
  91 H :    0.022184
  92 H :    0.007831
  93 H :    0.022185
  94 H :   -0.045810
  95 H :   -0.015345
  96 H :   -0.005264
  97 H :   -0.030509
  98 H :    0.027198
  99 H :    0.034928
 100 H :    0.017888
 101 H :    0.038915
 102 H :    0.014875
 103 H :    0.135101
 104 H :    0.038773
 105 H :   -0.016491
 106 H :    0.024179
 107 H :   -0.012855
 108 H :   -0.007553
 109 H :   -0.005469
Sum of atomic charges:   -0.0000000

LOEWDIN ATOMIC CHARGES
----------------------
   0 C :    0.079211
   1 C :   -0.157466
   2 C :   -0.019008
   3 N :   -0.065127
   4 C :   -0.018712
   5 N :   -0.067867
   6 C :   -0.019695
   7 C :   -0.048370
   8 C :    0.017766
   9 C :   -0.035094
  10 C :   -0.145715
  11 C :   -0.011223
  12 S :    0.429726
  13 C :   -0.273701
  14 C :   -0.071351
  15 Br:    0.131784
  16 C :    0.080833
  17 O :   -0.172617
  18 C :   -0.123149
  19 C :    0.052572
  20 C :   -0.199608
  21 S :    0.499336
  22 C :   -0.139376
  23 C :   -0.069078
  24 C :   -0.009647
  25 C :   -0.028247
  26 C :   -0.039579
  27 C :    0.012280
  28 N :   -0.102466
  29 C :   -0.029092
  30 C :   -0.062665
  31 C :   -0.027134
  32 C :   -0.175104
  33 S :    0.477663
  34 C :   -0.173087
  35 C :   -0.041192
  36 C :   -0.037601
  37 C :   -0.026967
  38 C :   -0.014083
  39 C :   -0.042340
  40 C :   -0.021357
  41 C :   -0.042787
  42 C :   -0.024190
  43 C :   -0.035232
  44 C :   -0.028382
  45 C :   -0.044380
  46 C :   -0.046732
  47 C :   -0.062008
  48 C :    0.049956
  49 N :    0.049907
  50 C :    0.113515
  51 C :   -0.132597
  52 C :    0.079626
  53 C :   -0.142412
  54 C :    0.072541
  55 C :   -0.180862
  56 C :   -0.024637
  57 N :   -0.071176
  58 C :   -0.002523
  59 N :   -0.065909
  60 C :   -0.019353
  61 C :   -0.049812
  62 C :    0.080634
  63 O :   -0.159809
  64 C :    0.018519
  65 C :   -0.036452
  66 C :   -0.146545
  67 C :   -0.016417
  68 S :    0.426078
  69 C :   -0.274976
  70 C :   -0.070362
  71 Br:    0.130298
  72 H :    0.039005
  73 H :    0.040445
  74 H :    0.037639
  75 H :    0.046228
  76 H :    0.040329
  77 H :    0.039840
  78 H :    0.019138
  79 H :    0.022484
  80 H :    0.020908
  81 H :    0.049915
  82 H :    0.054096
  83 H :    0.027366
  84 H :    0.035061
  85 H :    0.023347
  86 H :    0.028326
  87 H :    0.024444
  88 H :    0.031714
  89 H :    0.034811
  90 H :    0.035259
  91 H :    0.034889
  92 H :    0.029461
  93 H :    0.035003
  94 H :    0.023181
  95 H :    0.031958
  96 H :    0.021331
  97 H :    0.023971
  98 H :    0.036383
  99 H :    0.040442
 100 H :    0.029415
 101 H :    0.039164
 102 H :    0.026522
 103 H :    0.090718
 104 H :    0.038452
 105 H :    0.028406
 106 H :    0.046481
 107 H :    0.039776
 108 H :    0.039200
 109 H :    0.037921

  Mayer bond orders larger than 0.100000
B(  0-C ,  1-C ) :   1.5893 B(  0-C ,  6-C ) :   0.9914 B(  0-C , 18-C ) :   1.1123
B(  1-C ,  2-C ) :   1.1511 B(  1-C ,  4-C ) :   1.1559 B(  2-C ,  3-N ) :   2.9635
B(  4-C ,  5-N ) :   2.9508 B(  6-C ,  7-C ) :   1.2789 B(  6-C , 11-C ) :   1.4191
B(  7-C ,  8-C ) :   1.4273 B(  7-C , 16-C ) :   0.9521 B(  8-C ,  9-C ) :   1.2384
B(  8-C , 72-H ) :   1.0175 B(  9-C , 10-C ) :   1.3157 B(  9-C , 14-C ) :   1.1608
B( 10-C , 11-C ) :   1.3208 B( 10-C , 12-S ) :   1.0834 B( 11-C , 73-H ) :   0.9803
B( 12-S , 13-C ) :   1.0869 B( 13-C , 14-C ) :   1.6187 B( 13-C , 15-Br) :   1.0146
B( 14-C , 74-H ) :   1.0004 B( 16-C , 17-O ) :   2.1407 B( 16-C , 18-C ) :   0.9807
B( 18-C , 19-C ) :   1.4465 B( 19-C , 20-C ) :   1.3282 B( 19-C , 75-H ) :   0.9279
B( 20-C , 21-S ) :   1.0726 B( 20-C , 24-C ) :   1.3234 B( 21-S , 22-C ) :   1.1363
B( 22-C , 23-C ) :   1.3575 B( 22-C , 30-C ) :   1.2059 B( 23-C , 24-C ) :   1.4413
B( 23-C , 29-C ) :   1.0270 B( 24-C , 25-C ) :   1.0544 B( 25-C , 26-C ) :   1.0720
B( 25-C , 76-H ) :   0.9024 B( 25-C , 77-H ) :   0.8986 B( 26-C , 27-C ) :   1.0302
B( 26-C , 78-H ) :   0.9276 B( 26-C , 79-H ) :   0.9274 B( 27-C , 28-N ) :   1.1059
B( 27-C , 29-C ) :   1.0406 B( 27-C , 80-H ) :   0.9242 B( 28-N , 81-H ) :   0.9692
B( 28-N , 82-H ) :   0.9692 B( 29-C , 83-H ) :   0.8949 B( 29-C , 84-H ) :   0.9106
B( 30-C , 31-C ) :   1.6024 B( 30-C , 85-H ) :   0.9431 B( 31-C , 32-C ) :   1.2040
B( 31-C , 86-H ) :   0.9340 B( 32-C , 33-S ) :   1.1416 B( 32-C , 34-C ) :   0.1031
B( 32-C , 36-C ) :   1.2960 B( 33-S , 34-C ) :   1.1500 B( 34-C , 35-C ) :   1.2932
B( 34-C , 43-C ) :   1.1597 B( 35-C , 36-C ) :   1.2248 B( 35-C , 42-C ) :   1.1996
B( 36-C , 37-C ) :   1.1814 B( 37-C , 38-C ) :   1.5552 B( 37-C , 87-H ) :   1.0009
B( 38-C , 39-C ) :   1.0903 B( 38-C , 40-C ) :   1.2296 B( 39-C , 88-H ) :   0.9514
B( 39-C , 89-H ) :   0.9410 B( 39-C , 90-H ) :   0.9408 B( 40-C , 41-C ) :   1.0896
B( 40-C , 42-C ) :   1.5496 B( 41-C , 91-H ) :   0.9411 B( 41-C , 92-H ) :   0.9513
B( 41-C , 93-H ) :   0.9411 B( 42-C , 94-H ) :   0.9898 B( 43-C , 44-C ) :   1.6541
B( 43-C , 95-H ) :   0.9749 B( 44-C , 45-C ) :   1.1265 B( 44-C , 96-H ) :   0.9717
B( 45-C , 46-C ) :   1.7398 B( 45-C , 97-H ) :   0.9774 B( 46-C , 47-C ) :   1.0629
B( 46-C , 48-C ) :   1.0579 B( 47-C , 98-H ) :   0.9410 B( 47-C , 99-H ) :   0.9389
B( 47-C ,100-H ) :   0.9367 B( 48-C , 49-N ) :   0.9550 B( 48-C ,101-H ) :   0.9229
B( 48-C ,102-H ) :   0.9374 B( 49-N , 50-C ) :   1.3771 B( 49-N ,103-H ) :   0.9350
B( 50-C , 51-C ) :   1.4135 B( 50-C ,104-H ) :   0.9556 B( 51-C , 52-C ) :   1.3506
B( 51-C ,105-H ) :   0.9563 B( 52-C , 53-C ) :   1.4816 B( 52-C ,106-H ) :   0.9286
B( 53-C , 54-C ) :   1.1120 B( 53-C , 62-C ) :   0.9774 B( 54-C , 55-C ) :   1.5549
B( 54-C , 60-C ) :   1.0057 B( 55-C , 56-C ) :   1.1263 B( 55-C , 58-C ) :   1.2006
B( 56-C , 57-N ) :   2.9812 B( 58-C , 59-N ) :   2.8935 B( 60-C , 61-C ) :   1.2804
B( 60-C , 67-C ) :   1.4192 B( 61-C , 62-C ) :   0.9144 B( 61-C , 64-C ) :   1.4356
B( 62-C , 63-O ) :   2.2417 B( 64-C , 65-C ) :   1.2386 B( 64-C ,107-H ) :   1.0177
B( 65-C , 66-C ) :   1.3203 B( 65-C , 70-C ) :   1.1614 B( 66-C , 67-C ) :   1.3181
B( 66-C , 68-S ) :   1.0809 B( 67-C ,108-H ) :   0.9834 B( 68-S , 69-C ) :   1.0867
B( 69-C , 70-C ) :   1.6208 B( 69-C , 71-Br) :   1.0133 B( 70-C ,109-H ) :   1.0006

-----------------------------------------------------------------------------
         ABSORPTION SPECTRUM VIA TRANSITION ELECTRIC DIPOLE MOMENTS
-----------------------------------------------------------------------------
State   Energy  Wavelength   fosc         T2         TX        TY        TZ
        (cm-1)    (nm)                  (au**2)     (au)      (au)      (au)
-----------------------------------------------------------------------------
   0   14489.8    690.1   1.906029963  43.30556   2.56669  -4.11428  -4.44864
   1   21600.9    462.9   0.245977255   3.74886  -0.87955  -0.31855   1.69522
   2   22112.4    452.2   0.127433601   1.89725   0.91091   0.88845  -0.52740
   3   23596.2    423.8   0.026830816   0.37434   0.35742   0.49519  -0.03715
   4   23989.9    416.8   0.055593850   0.76291   0.47820  -0.42482  -0.59479
   5   24881.0    401.9   0.029858615   0.39507  -0.37259   0.25171   0.43919
   6   27865.7    358.9   0.004221586   0.04987   0.10663  -0.02089  -0.19511
   7   28182.3    354.8   0.348603954   4.07223   0.48825  -0.24641   1.94245
   8   28349.1    352.7   0.000904196   0.01050  -0.06509  -0.01023   0.07848
   9   28654.3    349.0   0.039869604   0.45807   0.16859  -0.53534   0.37822
  10   29734.2    336.3   0.014442956   0.15991   0.15505  -0.16583   0.32920
  11   30237.4    330.7   0.639373112   6.96123  -1.33447   0.63073   2.18691
  12   30363.9    329.3   0.006439667   0.06982   0.04293  -0.13127   0.22527
  13   30456.9    328.3   0.124572953   1.34652  -0.48336   0.40330   0.97480
  14   30898.6    323.6   0.005592490   0.05959  -0.01670   0.17567  -0.16866
  15   31315.0    319.3   0.009816837   0.10320  -0.00722   0.11759   0.29887
  16   31378.4    318.7   0.009054004   0.09499  -0.06377  -0.24720  -0.17267
  17   31558.6    316.9   0.075644230   0.78910  -0.25322  -0.10240  -0.84528
  18   31938.4    313.1   0.005321636   0.05485   0.08000  -0.09207  -0.19994
  19   32012.2    312.4   0.309942751   3.18744  -0.45996   0.72308   1.56622
  20   32448.3    308.2   0.005231168   0.05307  -0.01624  -0.05800  -0.22236
  21   32491.9    307.8   0.113122709   1.14617  -0.29119   0.54388   0.87497
  22   33077.0    302.3   0.008464082   0.08424  -0.05768   0.00887   0.28432
  23   33687.3    296.8   1.269497536  12.40626   1.53173  -1.47269   2.80914
  24   34419.3    290.5   0.007524510   0.07197   0.14056  -0.22263   0.05146
  25   34801.5    287.3   0.584111499   5.52552  -0.03654  -0.44410  -2.30802
  26   35271.5    283.5   0.189912658   1.77258  -0.51326   0.96211   0.76386
  27   35458.1    282.0   0.016909555   0.15700  -0.08730   0.01297   0.38627
  28   35851.0    278.9   0.019179951   0.17613  -0.07677   0.18513  -0.36873
  29   36028.1    277.6   0.004137782   0.03781  -0.00337   0.15807   0.11319
  30   36171.4    276.5   0.059233674   0.53911   0.45527  -0.55389   0.15826
  31   37383.6    267.5   0.012996046   0.11445  -0.17534   0.28325   0.05893
  32   37947.9    263.5   0.036866024   0.31983   0.27415  -0.49463   0.00278
  33   38477.2    259.9   0.034108235   0.29183   0.39917  -0.36243  -0.03375
  34   39037.5    256.2   0.031278241   0.26378   0.04947  -0.14610  -0.48988
  35   39579.4    252.7   0.081179335   0.67523  -0.17468   0.22957   0.76942
  36   39752.4    251.6   0.202531067   1.67727  -0.50114   0.82006   0.86812
  37   40084.1    249.5   0.054147497   0.44472  -0.39571  -0.41894   0.33557
  38   40236.1    248.5   0.046640752   0.38162  -0.54839   0.28389   0.01705

FINAL SINGLE POINT ENERGY     -9448.661685919504

DIPOLE MOMENT
-------------
                                X             Y             Z
Electronic contribution:    -67.46743      -7.33366      -8.58246
Nuclear contribution   :     65.98141      11.24419       7.74850
                        -----------------------------------------
Total Dipole Moment    :     -1.48601       3.91054      -0.83396
                        -----------------------------------------
Magnitude (a.u.)       :      4.26568
Magnitude (Debye)      :     10.84249

Rotational constants in cm-1:     0.001803     0.000113     0.000109
Rotational constants in MHz :    54.042649     3.397015     3.281515

                             ****ORCA TERMINATED NORMALLY****
TOTAL RUN TIME: 0 days 0 hours 10 minutes 34 seconds 704 msec
