                         Program Version 4.2.0 -  RELEASE  -
|  1> # ORCA input file
|  2> # SCF done       -180.444025410480          0.000878682237
|  3> ! CAM-B3LYP def2-SVP def2/J RIJCOSX Grid4 TightSCF
|  4> %maxcore 5000
|  5> %tddft
|  6>     Mode sTDDFT
|  7>     Ethresh 5.0
|  8>     maxcore 5000
|  9> end
| 10>
| 11> %pal
| 12>   nprocs 6
| 13>   end
| 14> * xyz 0 1
| 15>    C       -4.03897         2.89810         4.81986
| 16>    C       -4.32846         2.97548         3.48136
| 17>    C       -5.50703         3.54617         2.96153
| 18>    N       -6.45347         3.99570         2.49132
| 19>    C       -3.51683         2.42485         2.46771
| 20>    N       -2.92289         1.95545         1.60429
| 21>    C       -4.91398         3.30463         5.91226
| 22>    C       -4.35049         2.85101         7.12969
| 23>    C       -4.94162         3.08258         8.34703
| 24>    C       -6.14438         3.79796         8.36340
| 25>    C       -6.69705         4.24897         7.14178
| 26>    C       -6.10063         4.01209         5.90891
| 27>    S       -8.17837         5.12223         7.39370
| 28>    C       -8.03799         4.87101         9.11343
| 29>    C       -6.93961         4.17022         9.48192
| 30>   Br       -9.35456         5.55765        10.25975
| 31>    C       -3.07681         2.15018         6.85532
| 32>    O       -2.34888         1.63684         7.67903
| 33>    C       -2.86330         2.28785         5.39965
| 34>    C       -1.66736         2.10277         4.75762
| 35>    C       -0.51073         1.48134         5.27222
| 36>    S        1.02606         2.19139         4.82415
| 37>    C        1.85132         1.16925         5.92215
| 38>    C        1.03577         0.28382         6.55920
| 39>    C        1.52578        -0.73017         7.53331
| 40>    C       -0.32871         0.42101         6.16419
| 41>    C       -1.32083        -0.53995         6.54853
| 42>    C       -2.43227        -0.85625         5.84922
| 43>    C       -3.33559        -1.87855         6.25524
| 44>    C       -4.46294        -2.20209         5.58263
| 45>    C       -5.30396        -3.29256         5.97251
| 46>    C       -6.43223        -3.70082         5.36624
| 47>    C       -7.07556        -3.01272         4.20425
| 48>    C       -7.12657        -4.97404         5.80795
| 49>    N       -6.20151        -5.93832         6.34680
| 50>    C       -6.10497        -6.28501         7.64167
| 51>    C       -4.96341        -6.79332         8.18722
| 52>    C       -4.81726        -7.23668         9.50949
| 53>    C       -3.58745        -7.48229        10.07286
| 54>    C       -3.27460        -7.95037        11.36783
| 55>    C       -1.93746        -7.98193        11.64667
| 56>    C       -1.12547        -7.51589        10.59215
| 57>    S       -2.09843        -7.10989         9.20767
| 58>    C        0.24183        -7.27801        10.56841
| 59>    C        1.21461        -7.49789        11.55715
| 60>    C        2.45609        -7.02518        11.22057
| 61>    C        2.51377        -6.40129         9.95930
| 62>    S        0.95651        -6.48701         9.17896
| 63>    C        3.58894        -5.73383         9.38497
| 64>    C        3.45814        -5.07073         8.17833
| 65>    C        4.31262        -4.21981         7.49727
| 66>    C        5.69352        -3.86576         7.64170
| 67>    C        6.70177        -4.60829         8.21607
| 68>    C        8.03984        -4.18284         8.30503
| 69>    N        9.14382        -3.88500         8.42227
| 70>    C        6.55350        -5.92150         8.69781
| 71>    N        6.51425        -7.00831         9.06958
| 72>    C        5.90272        -2.61413         6.90517
| 73>    C        4.72263        -2.31296         6.18305
| 74>    C        3.70350        -3.33537         6.49214
| 75>    O        2.56769        -3.39132         6.05459
| 76>    C        4.60139        -1.20508         5.38298
| 77>    C        5.69714        -0.33774         5.30199
| 78>    C        6.86895        -0.64157         6.03067
| 79>    C        6.99454        -1.77303         6.83127
| 80>    S        8.09624         0.56849         5.79850
| 81>    C        7.02880         1.45339         4.74091
| 82>    C        5.81720         0.87518         4.56799
| 83>   Br        7.61286         3.06177         3.96807
| 84>    H       -4.48963         2.72651         9.25943
| 85>    H       -6.55315         4.38319         5.00430
| 86>    H       -6.69655         3.92762        10.50028
| 87>    H       -1.53695         2.58470         3.79414
| 88>    H        2.91174         1.27925         6.04592
| 89>    H        2.56880        -0.54443         7.77947
| 90>    H        1.44605        -1.72834         7.10312
| 91>    H        0.93657        -0.69745         8.44784
| 92>    H       -1.09752        -1.10556         7.44218
| 93>    H       -2.65512        -0.34571         4.92138
| 94>    H       -3.08124        -2.42582         7.15454
| 95>    H       -4.71968        -1.64902         4.69023
| 96>    H       -4.94931        -3.84902         6.83265
| 97>    H       -6.82668        -1.95658         4.17775
| 98>    H       -8.15813        -3.11207         4.26097
| 99>    H       -6.74819        -3.46469         3.26671
|100>    H       -7.63260        -5.41433         4.94001
|101>    H       -7.88811        -4.75530         6.56327
|102>    H       -5.36261        -6.06178         5.79363
|103>    H       -6.99769        -6.14786         8.23702
|104>    H       -4.07679        -6.82388         7.56543
|105>    H       -5.69723        -7.36439        10.12516
|106>    H       -4.04449        -8.24575        12.05911
|107>    H       -1.52070        -8.30145        12.58488
|108>    H        0.98517        -7.98591        12.48779
|109>    H        3.32458        -7.09580        11.85088
|110>    H        4.50772        -5.70722         9.94893
|111>    H        2.47252        -5.11703         7.71855
|112>    H        3.68985        -1.01110         4.83929
|113>    H        7.90957        -1.95653         7.36930
|114>    H        5.04031         1.28339         3.94685
|115> *
|116>
|117>                          ****END OF INPUT****

CARTESIAN COORDINATES (ANGSTROEM)
---------------------------------
  C     -4.038970    2.898100    4.819860
  C     -4.328460    2.975480    3.481360
  C     -5.507030    3.546170    2.961530
  N     -6.453470    3.995700    2.491320
  C     -3.516830    2.424850    2.467710
  N     -2.922890    1.955450    1.604290
  C     -4.913980    3.304630    5.912260
  C     -4.350490    2.851010    7.129690
  C     -4.941620    3.082580    8.347030
  C     -6.144380    3.797960    8.363400
  C     -6.697050    4.248970    7.141780
  C     -6.100630    4.012090    5.908910
  S     -8.178370    5.122230    7.393700
  C     -8.037990    4.871010    9.113430
  C     -6.939610    4.170220    9.481920
  Br    -9.354560    5.557650   10.259750
  C     -3.076810    2.150180    6.855320
  O     -2.348880    1.636840    7.679030
  C     -2.863300    2.287850    5.399650
  C     -1.667360    2.102770    4.757620
  C     -0.510730    1.481340    5.272220
  S      1.026060    2.191390    4.824150
  C      1.851320    1.169250    5.922150
  C      1.035770    0.283820    6.559200
  C      1.525780   -0.730170    7.533310
  C     -0.328710    0.421010    6.164190
  C     -1.320830   -0.539950    6.548530
  C     -2.432270   -0.856250    5.849220
  C     -3.335590   -1.878550    6.255240
  C     -4.462940   -2.202090    5.582630
  C     -5.303960   -3.292560    5.972510
  C     -6.432230   -3.700820    5.366240
  C     -7.075560   -3.012720    4.204250
  C     -7.126570   -4.974040    5.807950
  N     -6.201510   -5.938320    6.346800
  C     -6.104970   -6.285010    7.641670
  C     -4.963410   -6.793320    8.187220
  C     -4.817260   -7.236680    9.509490
  C     -3.587450   -7.482290   10.072860
  C     -3.274600   -7.950370   11.367830
  C     -1.937460   -7.981930   11.646670
  C     -1.125470   -7.515890   10.592150
  S     -2.098430   -7.109890    9.207670
  C      0.241830   -7.278010   10.568410
  C      1.214610   -7.497890   11.557150
  C      2.456090   -7.025180   11.220570
  C      2.513770   -6.401290    9.959300
  S      0.956510   -6.487010    9.178960
  C      3.588940   -5.733830    9.384970
  C      3.458140   -5.070730    8.178330
  C      4.312620   -4.219810    7.497270
  C      5.693520   -3.865760    7.641700
  C      6.701770   -4.608290    8.216070
  C      8.039840   -4.182840    8.305030
  N      9.143820   -3.885000    8.422270
  C      6.553500   -5.921500    8.697810
  N      6.514250   -7.008310    9.069580
  C      5.902720   -2.614130    6.905170
  C      4.722630   -2.312960    6.183050
  C      3.703500   -3.335370    6.492140
  O      2.567690   -3.391320    6.054590
  C      4.601390   -1.205080    5.382980
  C      5.697140   -0.337740    5.301990
  C      6.868950   -0.641570    6.030670
  C      6.994540   -1.773030    6.831270
  S      8.096240    0.568490    5.798500
  C      7.028800    1.453390    4.740910
  C      5.817200    0.875180    4.567990
  Br     7.612860    3.061770    3.968070
  H     -4.489630    2.726510    9.259430
  H     -6.553150    4.383190    5.004300
  H     -6.696550    3.927620   10.500280
  H     -1.536950    2.584700    3.794140
  H      2.911740    1.279250    6.045920
  H      2.568800   -0.544430    7.779470
  H      1.446050   -1.728340    7.103120
  H      0.936570   -0.697450    8.447840
  H     -1.097520   -1.105560    7.442180
  H     -2.655120   -0.345710    4.921380
  H     -3.081240   -2.425820    7.154540
  H     -4.719680   -1.649020    4.690230
  H     -4.949310   -3.849020    6.832650
  H     -6.826680   -1.956580    4.177750
  H     -8.158130   -3.112070    4.260970
  H     -6.748190   -3.464690    3.266710
  H     -7.632600   -5.414330    4.940010
  H     -7.888110   -4.755300    6.563270
  H     -5.362610   -6.061780    5.793630
  H     -6.997690   -6.147860    8.237020
  H     -4.076790   -6.823880    7.565430
  H     -5.697230   -7.364390   10.125160
  H     -4.044490   -8.245750   12.059110
  H     -1.520700   -8.301450   12.584880
  H      0.985170   -7.985910   12.487790
  H      3.324580   -7.095800   11.850880
  H      4.507720   -5.707220    9.948930
  H      2.472520   -5.117030    7.718550
  H      3.689850   -1.011100    4.839290
  H      7.909570   -1.956530    7.369300
  H      5.040310    1.283390    3.946850

 Total Charge           Charge          ....    0
 Multiplicity           Mult            ....    1
 Number of Electrons    NEL             ....  562
 Basis Dimension        Dim             .... 1177

ORBITAL ENERGIES
----------------

  NO   OCC          E(Eh)            E(eV)
   0   2.0000    -482.887189    -13140.0284
   1   2.0000    -482.875066    -13139.6985
   2   2.0000     -88.976196     -2421.1654
   3   2.0000     -88.962189     -2420.7842
   4   2.0000     -88.961735     -2420.7719
   5   2.0000     -88.960597     -2420.7409
   6   2.0000     -88.952018     -2420.5075
   7   2.0000     -62.564915     -1702.4779
   8   2.0000     -62.552757     -1702.1470
   9   2.0000     -56.398862     -1534.6911
  10   2.0000     -56.396154     -1534.6174
  11   2.0000     -56.396117     -1534.6163
  12   2.0000     -56.386689     -1534.3598
  13   2.0000     -56.384007     -1534.2868
  14   2.0000     -56.383967     -1534.2858
  15   2.0000     -19.213066      -522.8141
  16   2.0000     -19.189623      -522.1762
  17   2.0000     -14.469555      -393.7366
  18   2.0000     -14.414212      -392.2306
  19   2.0000     -14.412762      -392.1912
  20   2.0000     -14.390464      -391.5844
  21   2.0000     -14.388080      -391.5196
  22   2.0000     -10.362751      -281.9848
  23   2.0000     -10.359808      -281.9047
  24   2.0000     -10.354871      -281.7704
  25   2.0000     -10.345924      -281.5269
  26   2.0000     -10.339562      -281.3538
  27   2.0000     -10.339542      -281.3533
  28   2.0000     -10.338837      -281.3341
  29   2.0000     -10.337267      -281.2913
  30   2.0000     -10.335499      -281.2432
  31   2.0000     -10.325384      -280.9680
  32   2.0000     -10.321732      -280.8686
  33   2.0000     -10.319463      -280.8069
  34   2.0000     -10.317407      -280.7509
  35   2.0000     -10.316684      -280.7312
  36   2.0000     -10.315960      -280.7116
  37   2.0000     -10.314947      -280.6840
  38   2.0000     -10.314403      -280.6692
  39   2.0000     -10.312079      -280.6059
  40   2.0000     -10.309916      -280.5471
  41   2.0000     -10.309424      -280.5337
  42   2.0000     -10.307668      -280.4859
  43   2.0000     -10.307408      -280.4788
  44   2.0000     -10.306982      -280.4672
  45   2.0000     -10.306901      -280.4650
  46   2.0000     -10.305670      -280.4315
  47   2.0000     -10.300173      -280.2820
  48   2.0000     -10.300092      -280.2798
  49   2.0000     -10.298645      -280.2404
  50   2.0000     -10.297817      -280.2178
  51   2.0000     -10.296576      -280.1841
  52   2.0000     -10.296564      -280.1837
  53   2.0000     -10.294986      -280.1408
  54   2.0000     -10.293570      -280.1023
  55   2.0000     -10.293517      -280.1008
  56   2.0000     -10.291969      -280.0587
  57   2.0000     -10.291522      -280.0466
  58   2.0000     -10.291280      -280.0400
  59   2.0000     -10.288661      -279.9687
  60   2.0000     -10.286513      -279.9103
  61   2.0000     -10.286485      -279.9095
  62   2.0000     -10.286362      -279.9061
  63   2.0000     -10.285057      -279.8706
  64   2.0000     -10.283722      -279.8343
  65   2.0000     -10.282435      -279.7993
  66   2.0000     -10.281874      -279.7840
  67   2.0000     -10.281366      -279.7702
  68   2.0000     -10.280783      -279.7543
  69   2.0000     -10.280574      -279.7486
  70   2.0000     -10.280129      -279.7365
  71   2.0000     -10.279192      -279.7110
  72   2.0000     -10.276018      -279.6247
  73   2.0000     -10.272525      -279.5296
  74   2.0000     -10.264897      -279.3221
  75   2.0000     -10.261283      -279.2237
  76   2.0000     -10.256786      -279.1013
  77   2.0000      -8.794347      -239.3063
  78   2.0000      -8.782167      -238.9749
  79   2.0000      -8.072233      -219.6566
  80   2.0000      -8.058097      -219.2720
  81   2.0000      -8.058053      -219.2708
  82   2.0000      -8.056597      -219.2311
  83   2.0000      -8.048297      -219.0053
  84   2.0000      -6.630647      -180.4291
  85   2.0000      -6.618388      -180.0955
  86   2.0000      -6.616069      -180.0324
  87   2.0000      -6.615899      -180.0278
  88   2.0000      -6.603916      -179.7017
  89   2.0000      -6.603778      -179.6979
  90   2.0000      -6.041925      -164.4091
  91   2.0000      -6.037649      -164.2928
  92   2.0000      -6.033442      -164.1783
  93   2.0000      -6.027750      -164.0234
  94   2.0000      -6.027690      -164.0218
  95   2.0000      -6.025900      -163.9731
  96   2.0000      -6.023659      -163.9121
  97   2.0000      -6.023479      -163.9072
  98   2.0000      -6.021620      -163.8566
  99   2.0000      -6.019319      -163.7940
 100   2.0000      -6.019253      -163.7922
 101   2.0000      -6.018794      -163.7797
 102   2.0000      -6.017826      -163.7534
 103   2.0000      -6.013834      -163.6447
 104   2.0000      -6.009559      -163.5284
 105   2.0000      -2.746490       -74.7358
 106   2.0000      -2.742445       -74.6257
 107   2.0000      -2.742290       -74.6215
 108   2.0000      -2.734293       -74.4039
 109   2.0000      -2.730722       -74.3067
 110   2.0000      -2.730701       -74.3061
 111   2.0000      -2.730194       -74.2924
 112   2.0000      -2.730085       -74.2894
 113   2.0000      -2.718591       -73.9766
 114   2.0000      -2.718569       -73.9760
 115   2.0000      -1.127334       -30.6763
 116   2.0000      -1.103180       -30.0191
 117   2.0000      -1.070938       -29.1417
 118   2.0000      -1.022490       -27.8234
 119   2.0000      -1.012383       -27.5483
 120   2.0000      -1.008418       -27.4405
 121   2.0000      -1.005027       -27.3482
 122   2.0000      -0.993916       -27.0458
 123   2.0000      -0.991971       -26.9929
 124   2.0000      -0.990011       -26.9396
 125   2.0000      -0.987145       -26.8616
 126   2.0000      -0.983455       -26.7612
 127   2.0000      -0.968377       -26.3509
 128   2.0000      -0.967153       -26.3176
 129   2.0000      -0.942578       -25.6488
 130   2.0000      -0.937121       -25.5004
 131   2.0000      -0.924634       -25.1606
 132   2.0000      -0.920501       -25.0481
 133   2.0000      -0.908302       -24.7162
 134   2.0000      -0.907308       -24.6891
 135   2.0000      -0.902405       -24.5557
 136   2.0000      -0.895951       -24.3801
 137   2.0000      -0.888935       -24.1892
 138   2.0000      -0.885741       -24.1022
 139   2.0000      -0.876671       -23.8554
 140   2.0000      -0.871480       -23.7142
 141   2.0000      -0.868836       -23.6422
 142   2.0000      -0.867610       -23.6089
 143   2.0000      -0.857906       -23.3448
 144   2.0000      -0.851921       -23.1819
 145   2.0000      -0.839069       -22.8322
 146   2.0000      -0.829724       -22.5779
 147   2.0000      -0.829080       -22.5604
 148   2.0000      -0.824421       -22.4336
 149   2.0000      -0.814405       -22.1611
 150   2.0000      -0.812399       -22.1065
 151   2.0000      -0.799500       -21.7555
 152   2.0000      -0.786444       -21.4002
 153   2.0000      -0.776699       -21.1351
 154   2.0000      -0.767983       -20.8979
 155   2.0000      -0.758212       -20.6320
 156   2.0000      -0.753222       -20.4962
 157   2.0000      -0.746271       -20.3071
 158   2.0000      -0.739341       -20.1185
 159   2.0000      -0.728489       -19.8232
 160   2.0000      -0.714067       -19.4307
 161   2.0000      -0.709812       -19.3150
 162   2.0000      -0.699539       -19.0354
 163   2.0000      -0.692038       -18.8313
 164   2.0000      -0.690545       -18.7907
 165   2.0000      -0.680932       -18.5291
 166   2.0000      -0.676535       -18.4095
 167   2.0000      -0.667791       -18.1715
 168   2.0000      -0.661981       -18.0134
 169   2.0000      -0.658047       -17.9064
 170   2.0000      -0.655956       -17.8495
 171   2.0000      -0.645884       -17.5754
 172   2.0000      -0.641570       -17.4580
 173   2.0000      -0.640785       -17.4366
 174   2.0000      -0.636577       -17.3222
 175   2.0000      -0.630484       -17.1563
 176   2.0000      -0.625374       -17.0173
 177   2.0000      -0.621678       -16.9167
 178   2.0000      -0.616929       -16.7875
 179   2.0000      -0.610813       -16.6211
 180   2.0000      -0.604106       -16.4386
 181   2.0000      -0.603636       -16.4258
 182   2.0000      -0.597566       -16.2606
 183   2.0000      -0.596836       -16.2407
 184   2.0000      -0.592514       -16.1231
 185   2.0000      -0.579610       -15.7720
 186   2.0000      -0.578919       -15.7532
 187   2.0000      -0.575490       -15.6599
 188   2.0000      -0.565141       -15.3783
 189   2.0000      -0.562834       -15.3155
 190   2.0000      -0.556846       -15.1526
 191   2.0000      -0.552117       -15.0239
 192   2.0000      -0.544125       -14.8064
 193   2.0000      -0.541661       -14.7393
 194   2.0000      -0.539030       -14.6678
 195   2.0000      -0.538139       -14.6435
 196   2.0000      -0.532929       -14.5017
 197   2.0000      -0.530929       -14.4473
 198   2.0000      -0.529306       -14.4031
 199   2.0000      -0.524853       -14.2820
 200   2.0000      -0.522470       -14.2171
 201   2.0000      -0.519235       -14.1291
 202   2.0000      -0.518006       -14.0957
 203   2.0000      -0.513901       -13.9839
 204   2.0000      -0.511499       -13.9186
 205   2.0000      -0.510817       -13.9000
 206   2.0000      -0.510039       -13.8789
 207   2.0000      -0.507723       -13.8158
 208   2.0000      -0.505282       -13.7494
 209   2.0000      -0.504253       -13.7214
 210   2.0000      -0.502653       -13.6779
 211   2.0000      -0.499783       -13.5998
 212   2.0000      -0.495509       -13.4835
 213   2.0000      -0.493806       -13.4371
 214   2.0000      -0.491858       -13.3841
 215   2.0000      -0.490231       -13.3399
 216   2.0000      -0.489251       -13.3132
 217   2.0000      -0.486237       -13.2312
 218   2.0000      -0.482106       -13.1188
 219   2.0000      -0.481218       -13.0946
 220   2.0000      -0.477217       -12.9857
 221   2.0000      -0.474832       -12.9208
 222   2.0000      -0.474118       -12.9014
 223   2.0000      -0.473115       -12.8741
 224   2.0000      -0.471364       -12.8265
 225   2.0000      -0.469134       -12.7658
 226   2.0000      -0.463652       -12.6166
 227   2.0000      -0.459657       -12.5079
 228   2.0000      -0.458761       -12.4835
 229   2.0000      -0.454382       -12.3644
 230   2.0000      -0.450471       -12.2579
 231   2.0000      -0.449780       -12.2391
 232   2.0000      -0.448092       -12.1932
 233   2.0000      -0.447246       -12.1702
 234   2.0000      -0.443829       -12.0772
 235   2.0000      -0.442772       -12.0484
 236   2.0000      -0.442467       -12.0401
 237   2.0000      -0.441754       -12.0207
 238   2.0000      -0.439371       -11.9559
 239   2.0000      -0.437534       -11.9059
 240   2.0000      -0.431984       -11.7549
 241   2.0000      -0.429882       -11.6977
 242   2.0000      -0.429523       -11.6879
 243   2.0000      -0.425764       -11.5856
 244   2.0000      -0.425684       -11.5835
 245   2.0000      -0.425491       -11.5782
 246   2.0000      -0.423413       -11.5217
 247   2.0000      -0.421975       -11.4825
 248   2.0000      -0.420186       -11.4338
 249   2.0000      -0.418767       -11.3952
 250   2.0000      -0.412694       -11.2300
 251   2.0000      -0.411021       -11.1844
 252   2.0000      -0.407792       -11.0966
 253   2.0000      -0.404795       -11.0150
 254   2.0000      -0.401378       -10.9220
 255   2.0000      -0.397089       -10.8053
 256   2.0000      -0.390612       -10.6291
 257   2.0000      -0.388828       -10.5805
 258   2.0000      -0.385165       -10.4809
 259   2.0000      -0.377546       -10.2736
 260   2.0000      -0.376260       -10.2385
 261   2.0000      -0.375858       -10.2276
 262   2.0000      -0.373378       -10.1601
 263   2.0000      -0.368207       -10.0194
 264   2.0000      -0.364626        -9.9220
 265   2.0000      -0.351511        -9.5651
 266   2.0000      -0.345355        -9.3976
 267   2.0000      -0.343888        -9.3577
 268   2.0000      -0.337882        -9.1942
 269   2.0000      -0.329176        -8.9573
 270   2.0000      -0.320943        -8.7333
 271   2.0000      -0.316230        -8.6051
 272   2.0000      -0.315585        -8.5875
 273   2.0000      -0.312706        -8.5092
 274   2.0000      -0.299638        -8.1536
 275   2.0000      -0.295455        -8.0397
 276   2.0000      -0.284697        -7.7470
 277   2.0000      -0.280555        -7.6343
 278   2.0000      -0.272941        -7.4271
 279   2.0000      -0.256422        -6.9776
 280   2.0000      -0.216766        -5.8985
 281   0.0000      -0.099075        -2.6960
 282   0.0000      -0.090550        -2.4640
 283   0.0000      -0.062871        -1.7108
 284   0.0000      -0.050426        -1.3722
 285   0.0000      -0.032347        -0.8802

MULLIKEN ATOMIC CHARGES
-----------------------
   0 C :    0.291413
   1 C :   -0.344288
   2 C :   -0.184681
   3 N :    0.146574
   4 C :   -0.218152
   5 N :    0.164904
   6 C :    0.019873
   7 C :   -0.018706
   8 C :   -0.076961
   9 C :    0.121112
  10 C :   -0.090348
  11 C :   -0.025303
  12 S :    0.182876
  13 C :   -0.124170
  14 C :    0.035646
  15 Br:    0.020624
  16 C :    0.164511
  17 O :   -0.143160
  18 C :   -0.128786
  19 C :    0.022504
  20 C :   -0.196111
  21 S :    0.131854
  22 C :   -0.111733
  23 C :   -0.089771
  24 C :    0.099187
  25 C :    0.190508
  26 C :   -0.004132
  27 C :    0.028813
  28 C :    0.010198
  29 C :    0.006740
  30 C :    0.005322
  31 C :   -0.242967
  32 C :    0.087286
  33 C :    0.227151
  34 N :   -0.140359
  35 C :    0.079590
  36 C :   -0.050004
  37 C :    0.031437
  38 C :   -0.061085
  39 C :    0.061671
  40 C :    0.009516
  41 C :   -0.017283
  42 S :    0.082988
  43 C :   -0.066870
  44 C :    0.047348
  45 C :    0.015089
  46 C :   -0.017660
  47 S :    0.087519
  48 C :   -0.000795
  49 C :    0.008337
  50 C :   -0.123014
  51 C :    0.303780
  52 C :   -0.364584
  53 C :   -0.179422
  54 N :    0.124540
  55 C :   -0.212999
  56 N :    0.150821
  57 C :    0.002408
  58 C :    0.005761
  59 C :    0.139019
  60 O :   -0.190257
  61 C :   -0.099109
  62 C :    0.110995
  63 C :   -0.091024
  64 C :   -0.026264
  65 S :    0.177906
  66 C :   -0.125509
  67 C :    0.033179
  68 Br:    0.011788
  69 H :   -0.013790
  70 H :   -0.007153
  71 H :   -0.004793
  72 H :    0.030540
  73 H :    0.027042
  74 H :    0.010368
  75 H :    0.065222
  76 H :    0.026995
  77 H :   -0.016106
  78 H :    0.005225
  79 H :   -0.011039
  80 H :   -0.013072
  81 H :   -0.026024
  82 H :    0.033928
  83 H :    0.020593
  84 H :    0.038400
  85 H :    0.021056
  86 H :    0.037683
  87 H :    0.132003
  88 H :    0.016462
  89 H :    0.005588
  90 H :   -0.004737
  91 H :   -0.005896
  92 H :   -0.010033
  93 H :   -0.008559
  94 H :   -0.000703
  95 H :   -0.001869
  96 H :    0.011006
  97 H :   -0.014832
  98 H :   -0.009430
  99 H :   -0.009357
Sum of atomic charges:   -0.0000000

LOEWDIN ATOMIC CHARGES
----------------------
   0 C :    0.075822
   1 C :   -0.148829
   2 C :   -0.019768
   3 N :   -0.058516
   4 C :   -0.029199
   5 N :   -0.054455
   6 C :   -0.022060
   7 C :   -0.046079
   8 C :    0.018368
   9 C :   -0.033704
  10 C :   -0.146453
  11 C :   -0.011074
  12 S :    0.429640
  13 C :   -0.273126
  14 C :   -0.070981
  15 Br:    0.134282
  16 C :    0.081148
  17 O :   -0.130873
  18 C :   -0.106127
  19 C :    0.051579
  20 C :   -0.183149
  21 S :    0.445603
  22 C :   -0.170108
  23 C :   -0.043896
  24 C :   -0.050897
  25 C :   -0.009584
  26 C :   -0.000994
  27 C :   -0.010242
  28 C :   -0.011724
  29 C :   -0.029765
  30 C :   -0.050285
  31 C :   -0.050562
  32 C :   -0.047798
  33 C :    0.046258
  34 N :    0.027996
  35 C :    0.075142
  36 C :   -0.133492
  37 C :    0.007897
  38 C :   -0.186977
  39 C :   -0.003117
  40 C :   -0.058238
  41 C :   -0.133855
  42 S :    0.393494
  43 C :   -0.214081
  44 C :   -0.004006
  45 C :   -0.057463
  46 C :   -0.094566
  47 S :    0.403439
  48 C :   -0.087103
  49 C :    0.047175
  50 C :   -0.128381
  51 C :    0.068661
  52 C :   -0.162932
  53 C :   -0.019851
  54 N :   -0.075086
  55 C :   -0.022018
  56 N :   -0.069145
  57 C :   -0.012057
  58 C :   -0.050216
  59 C :    0.081694
  60 O :   -0.177348
  61 C :    0.008675
  62 C :   -0.043164
  63 C :   -0.146440
  64 C :   -0.017743
  65 S :    0.426346
  66 C :   -0.276465
  67 C :   -0.077531
  68 Br:    0.127074
  69 H :    0.039618
  70 H :    0.040465
  71 H :    0.038130
  72 H :    0.045129
  73 H :    0.025243
  74 H :    0.033173
  75 H :    0.042729
  76 H :    0.034078
  77 H :    0.032071
  78 H :    0.029797
  79 H :    0.028627
  80 H :    0.026005
  81 H :    0.024376
  82 H :    0.035581
  83 H :    0.033101
  84 H :    0.041770
  85 H :    0.029248
  86 H :    0.039115
  87 H :    0.086204
  88 H :    0.033200
  89 H :    0.021051
  90 H :    0.037142
  91 H :    0.036561
  92 H :    0.033169
  93 H :    0.034344
  94 H :    0.037920
  95 H :    0.034992
  96 H :    0.026959
  97 H :    0.036814
  98 H :    0.039604
  99 H :    0.035007

  Mayer bond orders larger than 0.100000
B(  0-C ,  1-C ) :   1.6354 B(  0-C ,  6-C ) :   1.0051 B(  0-C , 18-C ) :   1.0694
B(  1-C ,  2-C ) :   1.1370 B(  1-C ,  4-C ) :   1.1460 B(  2-C ,  3-N ) :   2.9773
B(  4-C ,  5-N ) :   3.0043 B(  6-C ,  7-C ) :   1.2742 B(  6-C , 11-C ) :   1.4104
B(  7-C ,  8-C ) :   1.4310 B(  7-C , 16-C ) :   0.9398 B(  8-C ,  9-C ) :   1.2387
B(  8-C , 69-H ) :   1.0180 B(  9-C , 10-C ) :   1.3125 B(  9-C , 14-C ) :   1.1604
B( 10-C , 11-C ) :   1.3236 B( 10-C , 12-S ) :   1.0824 B( 11-C , 70-H ) :   0.9833
B( 12-S , 13-C ) :   1.0867 B( 13-C , 14-C ) :   1.6194 B( 13-C , 15-Br) :   1.0168
B( 14-C , 71-H ) :   1.0011 B( 16-C , 17-O ) :   2.2020 B( 16-C , 18-C ) :   0.9589
B( 18-C , 19-C ) :   1.5758 B( 19-C , 20-C ) :   1.2017 B( 19-C , 72-H ) :   0.9377
B( 20-C , 21-S ) :   1.1050 B( 20-C , 25-C ) :   1.3883 B( 21-S , 22-C ) :   1.1636
B( 22-C , 23-C ) :   1.5609 B( 22-C , 73-H ) :   0.9600 B( 23-C , 24-C ) :   1.0980
B( 23-C , 25-C ) :   1.2590 B( 24-C , 74-H ) :   0.9463 B( 24-C , 75-H ) :   0.9230
B( 24-C , 76-H ) :   0.9359 B( 25-C , 26-C ) :   1.0924 B( 26-C , 27-C ) :   1.6929
B( 26-C , 77-H ) :   0.9569 B( 27-C , 28-C ) :   1.1224 B( 27-C , 78-H ) :   0.9727
B( 28-C , 29-C ) :   1.6709 B( 28-C , 79-H ) :   0.9931 B( 29-C , 30-C ) :   1.1001
B( 29-C , 80-H ) :   0.9782 B( 30-C , 31-C ) :   1.7706 B( 30-C , 81-H ) :   0.9717
B( 31-C , 32-C ) :   1.0823 B( 31-C , 33-C ) :   0.9990 B( 32-C , 82-H ) :   0.9531
B( 32-C , 83-H ) :   0.9530 B( 32-C , 84-H ) :   0.9453 B( 33-C , 34-N ) :   1.0103
B( 33-C , 85-H ) :   0.9420 B( 33-C , 86-H ) :   0.9244 B( 34-N , 35-C ) :   1.2893
B( 34-N , 87-H ) :   0.9355 B( 35-C , 36-C ) :   1.5240 B( 35-C , 88-H ) :   0.9714
B( 36-C , 37-C ) :   1.2242 B( 36-C , 89-H ) :   0.9584 B( 37-C , 38-C ) :   1.5268
B( 37-C , 90-H ) :   0.9831 B( 38-C , 39-C ) :   1.1840 B( 38-C , 42-S ) :   1.0145
B( 39-C , 40-C ) :   1.5420 B( 39-C , 91-H ) :   0.9973 B( 40-C , 41-C ) :   1.2322
B( 40-C , 92-H ) :   0.9946 B( 41-C , 42-S ) :   1.1087 B( 41-C , 43-C ) :   1.4058
B( 43-C , 44-C ) :   1.2669 B( 43-C , 47-S ) :   1.0394 B( 44-C , 45-C ) :   1.4899
B( 44-C , 93-H ) :   0.9949 B( 45-C , 46-C ) :   1.2266 B( 45-C , 94-H ) :   1.0011
B( 46-C , 47-S ) :   1.1061 B( 46-C , 48-C ) :   1.4151 B( 48-C , 49-C ) :   1.3014
B( 48-C , 95-H ) :   0.9683 B( 49-C , 50-C ) :   1.4524 B( 49-C , 96-H ) :   0.9249
B( 50-C , 51-C ) :   1.1021 B( 50-C , 59-C ) :   1.0055 B( 51-C , 52-C ) :   1.5823
B( 51-C , 57-C ) :   0.9911 B( 52-C , 53-C ) :   1.1349 B( 52-C , 55-C ) :   1.1796
B( 53-C , 54-N ) :   2.9670 B( 55-C , 56-N ) :   2.9929 B( 57-C , 58-C ) :   1.2761
B( 57-C , 64-C ) :   1.4312 B( 58-C , 59-C ) :   0.9264 B( 58-C , 61-C ) :   1.4357
B( 59-C , 60-O ) :   2.1158 B( 61-C , 62-C ) :   1.2308 B( 61-C , 97-H ) :   1.0135
B( 62-C , 63-C ) :   1.3290 B( 62-C , 67-C ) :   1.1551 B( 63-C , 64-C ) :   1.3087
B( 63-C , 65-S ) :   1.0811 B( 64-C , 98-H ) :   0.9805 B( 65-S , 66-C ) :   1.0882
B( 66-C , 67-C ) :   1.6193 B( 66-C , 68-Br) :   1.0118 B( 67-C , 99-H ) :   0.9989

-----------------------------------------------------------------------------
         ABSORPTION SPECTRUM VIA TRANSITION ELECTRIC DIPOLE MOMENTS
-----------------------------------------------------------------------------
State   Energy  Wavelength   fosc         T2         TX        TY        TZ
        (cm-1)    (nm)                  (au**2)     (au)      (au)      (au)
-----------------------------------------------------------------------------
   0   11640.7    859.1   1.084755805  30.67805   5.30313   1.49496  -0.56561
   1   16837.7    593.9   0.051312606   1.00327  -0.23428  -0.94793   0.22316
   2   18393.6    543.7   0.244743244   4.38045  -0.35315   2.03571  -0.33408
   3   20960.7    477.1   0.013223900   0.20770   0.30773   0.18995  -0.27734
   4   21580.2    463.4   0.048828136   0.74489   0.32274   0.56746  -0.56454
   5   23162.0    431.7   0.036916665   0.52471   0.11669  -0.71176  -0.06700
   6   23353.5    428.2   0.010876507   0.15332   0.16186   0.23661  -0.26672
   7   23864.4    419.0   0.201268927   2.77653   1.60913  -0.37513   0.21567
   8   24221.5    412.9   0.214320003   2.91298  -1.55605  -0.41023  -0.56868
   9   25398.8    393.7   0.202530531   2.62515   0.62114  -0.61402   1.36466
  10   26901.5    371.7   0.686217608   8.39772   0.51812  -2.04850   1.98316
  11   27550.4    363.0   0.163121056   1.94920   1.18556  -0.56437  -0.47447
  12   28178.3    354.9   0.172466858   2.01496   0.41688  -0.42281  -1.28934
  13   28845.9    346.7   0.015587873   0.17790   0.13474   0.30062   0.26339
  14   28858.3    346.5   0.002135010   0.02436  -0.05926   0.06617  -0.12832
  15   29379.9    340.4   0.008204864   0.09194  -0.24515  -0.00933   0.17820
  16   29663.6    337.1   0.006545741   0.07265   0.20929   0.16795   0.02519
  17   29826.7    335.3   0.199204553   2.19872   1.20627  -0.32493  -0.79879
  18   30133.0    331.9   0.028502376   0.31140  -0.21073  -0.36726   0.36347
  19   30163.8    331.5   0.013841027   0.15106  -0.30783   0.09020   0.21947
  20   30350.0    329.5   0.023582026   0.25580  -0.29914   0.30567   0.26996
  21   30766.6    325.0   0.014800042   0.15836   0.15533   0.22898  -0.28601
  22   31994.3    312.6   0.221336530   2.27749  -0.06680   1.15099  -0.97378
  23   32294.3    309.7   0.195913589   1.99717   0.44931  -1.09752   0.76859
  24   32636.3    306.4   0.064597028   0.65161   0.38030  -0.21568  -0.67857
  25   32857.2    304.3   0.060536099   0.60654  -0.57903  -0.44277  -0.27426
  26   32994.4    303.1   0.047514964   0.47410   0.27498   0.33817   0.53303
  27   33059.0    302.5   0.293732102   2.92508  -0.02823   0.39956   1.66272
  28   33126.5    301.9   0.205122078   2.03851   0.13583  -1.19097   0.77566
  29   33681.4    296.9   0.309619538   3.02631   1.66450  -0.32532  -0.38721
  30   33829.2    295.6   0.232987615   2.26734   0.43698   1.05744  -0.97889
  31   34041.6    293.8   0.166000986   1.60537  -0.69099  -0.70726   0.79227
  32   34328.4    291.3   0.003025844   0.02902   0.08333  -0.14764  -0.01665
  33   34816.5    287.2   0.073859449   0.69839   0.45248   0.39306  -0.58237
  34   34906.9    286.5   0.084650333   0.79835   0.85655  -0.01030  -0.25411
  35   35124.1    284.7   0.646810368   6.06244   2.36088   0.65610  -0.24129
  36   35418.9    282.3   0.001836475   0.01707   0.01837   0.12825  -0.01686
  37   35595.0    280.9   0.009202248   0.08511   0.27061   0.05268   0.09543
  38   36070.8    277.2   0.074714174   0.68190   0.80070   0.13088   0.15380
  39   36167.3    276.5   0.038988870   0.35490   0.58324   0.11955  -0.02081
  40   36370.5    274.9   0.065718632   0.59486   0.42620  -0.54301   0.34402
  41   36635.7    273.0   0.106711607   0.95892  -0.51863   0.67386  -0.48566
  42   37108.8    269.5   0.050080102   0.44429  -0.51117   0.12350   0.40956
  43   37496.3    266.7   0.008803427   0.07729  -0.19212  -0.19430   0.05131
  44   37850.4    264.2   0.052034340   0.45258  -0.48997  -0.43251   0.15950
  45   37879.2    264.0   0.141934091   1.23356   0.34480  -0.69867   0.79154
  46   38038.1    262.9   0.006933504   0.06001  -0.04065  -0.21719  -0.10576
  47   38498.8    259.7   0.006935542   0.05931   0.10369   0.01260   0.21999
  48   38583.8    259.2   0.015614550   0.13323  -0.07485  -0.14085  -0.32831
  49   38708.4    258.3   0.014996303   0.12754  -0.08033   0.07960   0.33875
  50   39094.6    255.8   0.242466033   2.04178  -1.02498  -0.44154  -0.89232
  51   39739.9    251.6   0.108538113   0.89915   0.84055   0.11171   0.42444
  52   39979.9    250.1   0.513774654   4.23064  -1.75073  -0.59828  -0.89868

FINAL SINGLE POINT ENERGY     -9673.589910974639

DIPOLE MOMENT
-------------
                                X             Y             Z
Electronic contribution:     32.20530     152.17548      -3.79724
Nuclear contribution   :    -38.68241    -153.15164       6.42396
                        -----------------------------------------
Total Dipole Moment    :     -6.47711      -0.97616       2.62672
                        -----------------------------------------
Magnitude (a.u.)       :      7.05730
Magnitude (Debye)      :     17.93823

Rotational constants in cm-1:     0.000696     0.000399     0.000288
Rotational constants in MHz :    20.853130    11.963296     8.632995

                             ****ORCA TERMINATED NORMALLY****
TOTAL RUN TIME: 0 days 0 hours 10 minutes 9 seconds 744 msec
