                         Program Version 4.2.0 -  RELEASE  -
|  1> # ORCA input file
|  2> # SCF done       -174.595495614448          0.000454269987
|  3> ! CAM-B3LYP def2-SVP def2/J RIJCOSX Grid4 TightSCF
|  4> %maxcore 5000
|  5> %tddft
|  6>     Mode sTDDFT
|  7>     Ethresh 5.0
|  8>     maxcore 5000
|  9> end
| 10>
| 11> %pal
| 12>   nprocs 6
| 13>   end
| 14> * xyz 0 1
| 15>    C        8.37383         6.56828         2.61963
| 16>    N        7.08827         6.45782         2.16609
| 17>    C        7.01952         5.35638         1.36494
| 18>    C        6.16914         4.58467         0.57374
| 19>    C        6.95200         3.54411         0.06610
| 20>    N        8.24477         3.67593         0.53229
| 21>    C        8.30443         4.77501         1.32763
| 22>    C        9.15809         5.55181         2.12791
| 23>    C        6.51709         2.48789        -0.77890
| 24>    C        7.28879         1.48863        -1.25314
| 25>    N        6.79365         0.47088        -2.03267
| 26>    C        7.50365        -0.56676        -2.50783
| 27>    S        9.21573        -0.66906        -2.23688
| 28>    C        9.24436        -2.19698        -3.07175
| 29>    N       10.48289        -2.82374        -3.18330
| 30>    O       10.53805        -3.88981        -3.77013
| 31>    O       11.43171        -2.24324        -2.67324
| 32>    C        8.01591        -2.59705        -3.51725
| 33>    C        6.99211        -1.67809        -3.21251
| 34>    C        5.61220        -1.84453        -3.54235
| 35>    C        5.06086        -3.00052        -3.98271
| 36>    C        3.68395        -3.16289        -4.27115
| 37>    O        2.80610        -2.11947        -4.24808
| 38>    C        2.98018        -4.31751        -4.56660
| 39>    C        3.10597        -5.76204        -4.77697
| 40>    O        4.06485        -6.48770        -4.74888
| 41>    N        1.79644        -6.16727        -5.03650
| 42>    C        0.84138        -5.15259        -5.01562
| 43>    O       -0.33719        -5.30207        -5.21041
| 44>    C        1.62410        -3.95278        -4.70923
| 45>    C        1.54637        -2.58224        -4.51446
| 46>    C        0.42626        -1.73300        -4.57643
| 47>    C        0.46756        -0.36685        -4.53130
| 48>    C       -0.68512         0.42183        -4.61588
| 49>    C       -0.70877         1.79383        -4.70781
| 50>    C       -1.86226         2.60624        -4.80673
| 51>    C       -1.60011         3.93528        -4.95334
| 52>    C       -0.22266         4.24547        -4.98419
| 53>    S        0.73116         2.79717        -4.78473
| 54>    C        0.34551         5.49325        -5.18660
| 55>    C       -0.33321         6.71292        -5.39175
| 56>    C        0.49088         7.77473        -5.62458
| 57>    C        1.86670         7.44819        -5.61422
| 58>    S        2.07354         5.74518        -5.27655
| 59>    C        2.96142         8.26385        -5.84438
| 60>    C        2.84203         9.61320        -6.16265
| 61>    C        3.89381        10.46566        -6.43609
| 62>    C        3.78713        11.85711        -6.79267
| 63>    C        2.63629        12.60734        -6.89086
| 64>    C        2.60764        13.97044        -7.24483
| 65>    N        2.51362        15.08056        -7.52541
| 66>    C        1.32944        12.14115        -6.65173
| 67>    N        0.23364        11.84133        -6.47299
| 68>    C        5.13822        12.35834        -7.03658
| 69>    C        6.05872        11.30405        -6.82079
| 70>    C        5.31918        10.08438        -6.42958
| 71>    O        5.80671         9.00370        -6.16068
| 72>    C        7.41383        11.46089        -6.97334
| 73>    C        7.88632        12.72063        -7.35913
| 74>    C        6.95978        13.76715        -7.57273
| 75>    C        5.58749        13.60797        -7.41749
| 76>    S        7.75469        15.23914        -8.04417
| 77>    C        9.30031        14.43812        -7.94918
| 78>    C        9.22752        13.13653        -7.58345
| 79>   Br       10.86496        15.39683        -8.34013
| 80>    H        8.65492         7.37181         3.27205
| 81>    H        6.33693         7.08639         2.39022
| 82>    H        5.12649         4.73280         0.37505
| 83>    H        9.00496         3.05587         0.31801
| 84>    H       10.19976         5.40152         2.32620
| 85>    H        5.46711         2.51009        -1.03826
| 86>    H        8.34386         1.41322        -1.04222
| 87>    H        5.80144         0.49248        -2.23459
| 88>    H        7.87700        -3.51632        -4.05535
| 89>    H        4.95724        -0.99245        -3.41324
| 90>    H        5.64690        -3.89875        -4.09808
| 91>    H        1.55786        -7.13015        -5.22652
| 92>    H       -0.51815        -2.24272        -4.70530
| 93>    H        1.42496         0.13167        -4.45353
| 94>    H       -1.64162        -0.08445        -4.63369
| 95>    H       -2.84964         2.18122        -4.77336
| 96>    H       -2.35663         4.69228        -5.05047
| 97>    H       -1.40569         6.78155        -5.36957
| 98>    H        0.13630         8.77347        -5.80491
| 99>    H        3.94860         7.82904        -5.79133
|100>    H        1.84530        10.02480        -6.21418
|101>    H        8.08981        10.63781        -6.80204
|102>    H        4.92383        14.43772        -7.59365
|103>    H       10.08281        12.49465        -7.47612
|104> *
|105>
|106>                          ****END OF INPUT****

CARTESIAN COORDINATES (ANGSTROEM)
---------------------------------
  C      8.373830    6.568280    2.619630
  N      7.088270    6.457820    2.166090
  C      7.019520    5.356380    1.364940
  C      6.169140    4.584670    0.573740
  C      6.952000    3.544110    0.066100
  N      8.244770    3.675930    0.532290
  C      8.304430    4.775010    1.327630
  C      9.158090    5.551810    2.127910
  C      6.517090    2.487890   -0.778900
  C      7.288790    1.488630   -1.253140
  N      6.793650    0.470880   -2.032670
  C      7.503650   -0.566760   -2.507830
  S      9.215730   -0.669060   -2.236880
  C      9.244360   -2.196980   -3.071750
  N     10.482890   -2.823740   -3.183300
  O     10.538050   -3.889810   -3.770130
  O     11.431710   -2.243240   -2.673240
  C      8.015910   -2.597050   -3.517250
  C      6.992110   -1.678090   -3.212510
  C      5.612200   -1.844530   -3.542350
  C      5.060860   -3.000520   -3.982710
  C      3.683950   -3.162890   -4.271150
  O      2.806100   -2.119470   -4.248080
  C      2.980180   -4.317510   -4.566600
  C      3.105970   -5.762040   -4.776970
  O      4.064850   -6.487700   -4.748880
  N      1.796440   -6.167270   -5.036500
  C      0.841380   -5.152590   -5.015620
  O     -0.337190   -5.302070   -5.210410
  C      1.624100   -3.952780   -4.709230
  C      1.546370   -2.582240   -4.514460
  C      0.426260   -1.733000   -4.576430
  C      0.467560   -0.366850   -4.531300
  C     -0.685120    0.421830   -4.615880
  C     -0.708770    1.793830   -4.707810
  C     -1.862260    2.606240   -4.806730
  C     -1.600110    3.935280   -4.953340
  C     -0.222660    4.245470   -4.984190
  S      0.731160    2.797170   -4.784730
  C      0.345510    5.493250   -5.186600
  C     -0.333210    6.712920   -5.391750
  C      0.490880    7.774730   -5.624580
  C      1.866700    7.448190   -5.614220
  S      2.073540    5.745180   -5.276550
  C      2.961420    8.263850   -5.844380
  C      2.842030    9.613200   -6.162650
  C      3.893810   10.465660   -6.436090
  C      3.787130   11.857110   -6.792670
  C      2.636290   12.607340   -6.890860
  C      2.607640   13.970440   -7.244830
  N      2.513620   15.080560   -7.525410
  C      1.329440   12.141150   -6.651730
  N      0.233640   11.841330   -6.472990
  C      5.138220   12.358340   -7.036580
  C      6.058720   11.304050   -6.820790
  C      5.319180   10.084380   -6.429580
  O      5.806710    9.003700   -6.160680
  C      7.413830   11.460890   -6.973340
  C      7.886320   12.720630   -7.359130
  C      6.959780   13.767150   -7.572730
  C      5.587490   13.607970   -7.417490
  S      7.754690   15.239140   -8.044170
  C      9.300310   14.438120   -7.949180
  C      9.227520   13.136530   -7.583450
  Br    10.864960   15.396830   -8.340130
  H      8.654920    7.371810    3.272050
  H      6.336930    7.086390    2.390220
  H      5.126490    4.732800    0.375050
  H      9.004960    3.055870    0.318010
  H     10.199760    5.401520    2.326200
  H      5.467110    2.510090   -1.038260
  H      8.343860    1.413220   -1.042220
  H      5.801440    0.492480   -2.234590
  H      7.877000   -3.516320   -4.055350
  H      4.957240   -0.992450   -3.413240
  H      5.646900   -3.898750   -4.098080
  H      1.557860   -7.130150   -5.226520
  H     -0.518150   -2.242720   -4.705300
  H      1.424960    0.131670   -4.453530
  H     -1.641620   -0.084450   -4.633690
  H     -2.849640    2.181220   -4.773360
  H     -2.356630    4.692280   -5.050470
  H     -1.405690    6.781550   -5.369570
  H      0.136300    8.773470   -5.804910
  H      3.948600    7.829040   -5.791330
  H      1.845300   10.024800   -6.214180
  H      8.089810   10.637810   -6.802040
  H      4.923830   14.437720   -7.593650
  H     10.082810   12.494650   -7.476120

 Total Charge           Charge          ....    0
 Multiplicity           Mult            ....    1
 Number of Electrons    NEL             ....  502
 Basis Dimension        Dim             .... 1064

ORBITAL ENERGIES
----------------

  NO   OCC          E(Eh)            E(eV)
   0   2.0000    -482.880068    -13139.8347
   1   2.0000     -88.983947     -2421.3763
   2   2.0000     -88.972766     -2421.0720
   3   2.0000     -88.968312     -2420.9509
   4   2.0000     -88.967765     -2420.9360
   5   2.0000     -62.557776     -1702.2836
   6   2.0000     -56.391720     -1534.4967
   7   2.0000     -56.389017     -1534.4231
   8   2.0000     -56.388981     -1534.4222
   9   2.0000     -19.318775      -525.6906
  10   2.0000     -19.230517      -523.2890
  11   2.0000     -19.230257      -523.2819
  12   2.0000     -19.214981      -522.8662
  13   2.0000     -19.213051      -522.8137
  14   2.0000     -19.204765      -522.5882
  15   2.0000     -14.642418      -398.4405
  16   2.0000     -14.489161      -394.2701
  17   2.0000     -14.457501      -393.4086
  18   2.0000     -14.452761      -393.2796
  19   2.0000     -14.451894      -393.2560
  20   2.0000     -14.409077      -392.0909
  21   2.0000     -14.403213      -391.9313
  22   2.0000     -10.404262      -283.1144
  23   2.0000     -10.402473      -283.0657
  24   2.0000     -10.375787      -282.3395
  25   2.0000     -10.370640      -282.1995
  26   2.0000     -10.367254      -282.1073
  27   2.0000     -10.355125      -281.7773
  28   2.0000     -10.351967      -281.6913
  29   2.0000     -10.343419      -281.4587
  30   2.0000     -10.337674      -281.3024
  31   2.0000     -10.334854      -281.2257
  32   2.0000     -10.332372      -281.1581
  33   2.0000     -10.330160      -281.0979
  34   2.0000     -10.329808      -281.0884
  35   2.0000     -10.328138      -281.0429
  36   2.0000     -10.327538      -281.0266
  37   2.0000     -10.317021      -280.7404
  38   2.0000     -10.313501      -280.6446
  39   2.0000     -10.312409      -280.6149
  40   2.0000     -10.312258      -280.6108
  41   2.0000     -10.310720      -280.5690
  42   2.0000     -10.310618      -280.5662
  43   2.0000     -10.310200      -280.5548
  44   2.0000     -10.309896      -280.5465
  45   2.0000     -10.309584      -280.5381
  46   2.0000     -10.307545      -280.4826
  47   2.0000     -10.305634      -280.4306
  48   2.0000     -10.303677      -280.3773
  49   2.0000     -10.301159      -280.3088
  50   2.0000     -10.300227      -280.2834
  51   2.0000     -10.299158      -280.2543
  52   2.0000     -10.298566      -280.2382
  53   2.0000     -10.298225      -280.2289
  54   2.0000     -10.297695      -280.2145
  55   2.0000     -10.297680      -280.2141
  56   2.0000     -10.296144      -280.1723
  57   2.0000     -10.293640      -280.1042
  58   2.0000     -10.292099      -280.0622
  59   2.0000     -10.291928      -280.0576
  60   2.0000     -10.291472      -280.0452
  61   2.0000     -10.290137      -280.0089
  62   2.0000     -10.283047      -279.8159
  63   2.0000     -10.282437      -279.7993
  64   2.0000     -10.282171      -279.7921
  65   2.0000     -10.282009      -279.7877
  66   2.0000     -10.280001      -279.7330
  67   2.0000     -10.261840      -279.2389
  68   2.0000     -10.253584      -279.0142
  69   2.0000      -8.787194      -239.1117
  70   2.0000      -8.079432      -219.8525
  71   2.0000      -8.069068      -219.5705
  72   2.0000      -8.064353      -219.4422
  73   2.0000      -8.064166      -219.4371
  74   2.0000      -6.623471      -180.2338
  75   2.0000      -6.608936      -179.8383
  76   2.0000      -6.608750      -179.8332
  77   2.0000      -6.049247      -164.6084
  78   2.0000      -6.044797      -164.4873
  79   2.0000      -6.040606      -164.3732
  80   2.0000      -6.038716      -164.3218
  81   2.0000      -6.034756      -164.2141
  82   2.0000      -6.034019      -164.1940
  83   2.0000      -6.033774      -164.1873
  84   2.0000      -6.030067      -164.0865
  85   2.0000      -6.029787      -164.0788
  86   2.0000      -6.029718      -164.0770
  87   2.0000      -6.025574      -163.9642
  88   2.0000      -6.025318      -163.9572
  89   2.0000      -2.739333       -74.5410
  90   2.0000      -2.735270       -74.4305
  91   2.0000      -2.735131       -74.4267
  92   2.0000      -2.723584       -74.1125
  93   2.0000      -2.723567       -74.1120
  94   2.0000      -1.310461       -35.6595
  95   2.0000      -1.231199       -33.5026
  96   2.0000      -1.158445       -31.5229
  97   2.0000      -1.137871       -30.9630
  98   2.0000      -1.129685       -30.7403
  99   2.0000      -1.118220       -30.4283
 100   2.0000      -1.095484       -29.8096
 101   2.0000      -1.081821       -29.4378
 102   2.0000      -1.046072       -28.4651
 103   2.0000      -1.045591       -28.4520
 104   2.0000      -1.019819       -27.7507
 105   2.0000      -1.013876       -27.5890
 106   2.0000      -1.005031       -27.3483
 107   2.0000      -1.002942       -27.2915
 108   2.0000      -0.996942       -27.1282
 109   2.0000      -0.985380       -26.8135
 110   2.0000      -0.979307       -26.6483
 111   2.0000      -0.947459       -25.7817
 112   2.0000      -0.935535       -25.4572
 113   2.0000      -0.932511       -25.3749
 114   2.0000      -0.926946       -25.2235
 115   2.0000      -0.914610       -24.8878
 116   2.0000      -0.906545       -24.6683
 117   2.0000      -0.899546       -24.4779
 118   2.0000      -0.894510       -24.3409
 119   2.0000      -0.880975       -23.9725
 120   2.0000      -0.877273       -23.8718
 121   2.0000      -0.874078       -23.7849
 122   2.0000      -0.867815       -23.6144
 123   2.0000      -0.862415       -23.4675
 124   2.0000      -0.861003       -23.4291
 125   2.0000      -0.851757       -23.1775
 126   2.0000      -0.849537       -23.1171
 127   2.0000      -0.841113       -22.8879
 128   2.0000      -0.822956       -22.3938
 129   2.0000      -0.820111       -22.3164
 130   2.0000      -0.805989       -21.9321
 131   2.0000      -0.797984       -21.7142
 132   2.0000      -0.781313       -21.2606
 133   2.0000      -0.771651       -20.9977
 134   2.0000      -0.764742       -20.8097
 135   2.0000      -0.756654       -20.5896
 136   2.0000      -0.749255       -20.3883
 137   2.0000      -0.739545       -20.1240
 138   2.0000      -0.728821       -19.8322
 139   2.0000      -0.725558       -19.7434
 140   2.0000      -0.713738       -19.4218
 141   2.0000      -0.705748       -19.2044
 142   2.0000      -0.697693       -18.9852
 143   2.0000      -0.692091       -18.8328
 144   2.0000      -0.685534       -18.6543
 145   2.0000      -0.682982       -18.5849
 146   2.0000      -0.681096       -18.5336
 147   2.0000      -0.674619       -18.3573
 148   2.0000      -0.663995       -18.0682
 149   2.0000      -0.656457       -17.8631
 150   2.0000      -0.652190       -17.7470
 151   2.0000      -0.649437       -17.6721
 152   2.0000      -0.647826       -17.6283
 153   2.0000      -0.642931       -17.4950
 154   2.0000      -0.635718       -17.2988
 155   2.0000      -0.630096       -17.1458
 156   2.0000      -0.623882       -16.9767
 157   2.0000      -0.622707       -16.9447
 158   2.0000      -0.617046       -16.7907
 159   2.0000      -0.614483       -16.7209
 160   2.0000      -0.606226       -16.4963
 161   2.0000      -0.600885       -16.3509
 162   2.0000      -0.599261       -16.3067
 163   2.0000      -0.598093       -16.2749
 164   2.0000      -0.594962       -16.1897
 165   2.0000      -0.590001       -16.0548
 166   2.0000      -0.585714       -15.9381
 167   2.0000      -0.584691       -15.9102
 168   2.0000      -0.577912       -15.7258
 169   2.0000      -0.571332       -15.5467
 170   2.0000      -0.559408       -15.2223
 171   2.0000      -0.556804       -15.1514
 172   2.0000      -0.552771       -15.0417
 173   2.0000      -0.550750       -14.9867
 174   2.0000      -0.547986       -14.9115
 175   2.0000      -0.547266       -14.8919
 176   2.0000      -0.544798       -14.8247
 177   2.0000      -0.540466       -14.7068
 178   2.0000      -0.537866       -14.6361
 179   2.0000      -0.535787       -14.5795
 180   2.0000      -0.530077       -14.4241
 181   2.0000      -0.526544       -14.3280
 182   2.0000      -0.524920       -14.2838
 183   2.0000      -0.521127       -14.1806
 184   2.0000      -0.520126       -14.1534
 185   2.0000      -0.519246       -14.1294
 186   2.0000      -0.518707       -14.1147
 187   2.0000      -0.516385       -14.0516
 188   2.0000      -0.512774       -13.9533
 189   2.0000      -0.508860       -13.8468
 190   2.0000      -0.505156       -13.7460
 191   2.0000      -0.502431       -13.6718
 192   2.0000      -0.500973       -13.6322
 193   2.0000      -0.500281       -13.6133
 194   2.0000      -0.495049       -13.4710
 195   2.0000      -0.492616       -13.4048
 196   2.0000      -0.489323       -13.3151
 197   2.0000      -0.485950       -13.2234
 198   2.0000      -0.484941       -13.1959
 199   2.0000      -0.483690       -13.1619
 200   2.0000      -0.483264       -13.1503
 201   2.0000      -0.481354       -13.0983
 202   2.0000      -0.477995       -13.0069
 203   2.0000      -0.473969       -12.8974
 204   2.0000      -0.471261       -12.8237
 205   2.0000      -0.468414       -12.7462
 206   2.0000      -0.466009       -12.6807
 207   2.0000      -0.464896       -12.6504
 208   2.0000      -0.454948       -12.3798
 209   2.0000      -0.454101       -12.3567
 210   2.0000      -0.449289       -12.2258
 211   2.0000      -0.446675       -12.1546
 212   2.0000      -0.446297       -12.1444
 213   2.0000      -0.444871       -12.1055
 214   2.0000      -0.441351       -12.0098
 215   2.0000      -0.439237       -11.9523
 216   2.0000      -0.434555       -11.8248
 217   2.0000      -0.433775       -11.8036
 218   2.0000      -0.431144       -11.7320
 219   2.0000      -0.424449       -11.5499
 220   2.0000      -0.424243       -11.5442
 221   2.0000      -0.418647       -11.3920
 222   2.0000      -0.414894       -11.2898
 223   2.0000      -0.412631       -11.2283
 224   2.0000      -0.398638       -10.8475
 225   2.0000      -0.398503       -10.8438
 226   2.0000      -0.384821       -10.4715
 227   2.0000      -0.380184       -10.3453
 228   2.0000      -0.379203       -10.3186
 229   2.0000      -0.375837       -10.2270
 230   2.0000      -0.373939       -10.1754
 231   2.0000      -0.373178       -10.1547
 232   2.0000      -0.369909       -10.0657
 233   2.0000      -0.369588       -10.0570
 234   2.0000      -0.364732        -9.9249
 235   2.0000      -0.360450        -9.8084
 236   2.0000      -0.359510        -9.7828
 237   2.0000      -0.355356        -9.6697
 238   2.0000      -0.348704        -9.4887
 239   2.0000      -0.345907        -9.4126
 240   2.0000      -0.340568        -9.2673
 241   2.0000      -0.337204        -9.1758
 242   2.0000      -0.325295        -8.8517
 243   2.0000      -0.315411        -8.5828
 244   2.0000      -0.307458        -8.3664
 245   2.0000      -0.295525        -8.0416
 246   2.0000      -0.285894        -7.7796
 247   2.0000      -0.282418        -7.6850
 248   2.0000      -0.269286        -7.3277
 249   2.0000      -0.232532        -6.3275
 250   2.0000      -0.222981        -6.0676
 251   0.0000      -0.119379        -3.2485
 252   0.0000      -0.072170        -1.9638
 253   0.0000      -0.056874        -1.5476
 254   0.0000      -0.052611        -1.4316
 255   0.0000      -0.050338        -1.3698

MULLIKEN ATOMIC CHARGES
-----------------------
   0 C :    0.061134
   1 N :   -0.040959
   2 C :    0.102441
   3 C :   -0.164493
   4 C :    0.055267
   5 N :   -0.046084
   6 C :    0.082419
   7 C :   -0.125660
   8 C :    0.038915
   9 C :    0.020080
  10 N :   -0.017164
  11 C :   -0.102873
  12 S :    0.134953
  13 C :   -0.002454
  14 N :    0.278683
  15 O :   -0.255242
  16 O :   -0.275906
  17 C :    0.016309
  18 C :    0.113873
  19 C :   -0.018399
  20 C :   -0.039116
  21 C :    0.104333
  22 O :   -0.227306
  23 C :   -0.043870
  24 C :    0.165112
  25 O :   -0.139483
  26 N :   -0.166674
  27 C :    0.161630
  28 O :   -0.144826
  29 C :   -0.027799
  30 C :    0.103192
  31 C :   -0.033181
  32 C :    0.019965
  33 C :   -0.004555
  34 C :   -0.022644
  35 C :    0.051176
  36 C :    0.021075
  37 C :   -0.031859
  38 S :    0.097160
  39 C :   -0.061608
  40 C :    0.031037
  41 C :    0.020262
  42 C :   -0.029657
  43 S :    0.127375
  44 C :    0.021087
  45 C :   -0.033683
  46 C :   -0.083341
  47 C :    0.326570
  48 C :   -0.364774
  49 C :   -0.188781
  50 N :    0.140970
  51 C :   -0.188198
  52 N :    0.127171
  53 C :    0.011199
  54 C :   -0.010517
  55 C :    0.135899
  56 O :   -0.161913
  57 C :   -0.075575
  58 C :    0.117187
  59 C :   -0.092993
  60 C :   -0.023273
  61 S :    0.181416
  62 C :   -0.122985
  63 C :    0.036582
  64 Br:    0.017179
  65 H :   -0.005354
  66 H :    0.124041
  67 H :   -0.042654
  68 H :    0.118646
  69 H :   -0.034830
  70 H :   -0.024073
  71 H :    0.006499
  72 H :    0.134209
  73 H :    0.016125
  74 H :   -0.019382
  75 H :    0.011473
  76 H :    0.139647
  77 H :    0.018898
  78 H :    0.007376
  79 H :    0.001338
  80 H :    0.000083
  81 H :   -0.000501
  82 H :   -0.001204
  83 H :    0.018478
  84 H :    0.012424
  85 H :   -0.006167
  86 H :   -0.014310
  87 H :   -0.009056
  88 H :   -0.005507
Sum of atomic charges:   -0.0000000

LOEWDIN ATOMIC CHARGES
----------------------
   0 C :   -0.000614
   1 N :    0.067647
   2 C :   -0.042617
   3 C :   -0.089794
   4 C :   -0.017243
   5 N :    0.065659
   6 C :   -0.025166
   7 C :   -0.111840
   8 C :   -0.053922
   9 C :   -0.021999
  10 N :    0.049032
  11 C :   -0.085343
  12 S :    0.445204
  13 C :   -0.214712
  14 N :    0.273618
  15 O :   -0.221055
  16 O :   -0.242750
  17 C :    0.012674
  18 C :   -0.124771
  19 C :    0.006081
  20 C :   -0.054864
  21 C :    0.079646
  22 O :    0.001287
  23 C :   -0.104667
  24 C :    0.084041
  25 O :   -0.157685
  26 N :   -0.005981
  27 C :    0.083338
  28 O :   -0.160751
  29 C :   -0.085152
  30 C :    0.057114
  31 C :   -0.020385
  32 C :   -0.022528
  33 C :   -0.030264
  34 C :   -0.149508
  35 C :   -0.013887
  36 C :   -0.033414
  37 C :   -0.150668
  38 S :    0.385551
  39 C :   -0.192531
  40 C :   -0.006342
  41 C :   -0.040151
  42 C :   -0.104864
  43 S :    0.405293
  44 C :   -0.068141
  45 C :    0.056230
  46 C :   -0.108480
  47 C :    0.075670
  48 C :   -0.158404
  49 C :   -0.019720
  50 N :   -0.066242
  51 C :   -0.015598
  52 N :   -0.075024
  53 C :   -0.019350
  54 C :   -0.048726
  55 C :    0.081249
  56 O :   -0.156770
  57 C :    0.017857
  58 C :   -0.035009
  59 C :   -0.145756
  60 C :   -0.012509
  61 S :    0.428842
  62 C :   -0.273927
  63 C :   -0.070964
  64 Br:    0.131702
  65 H :    0.018777
  66 H :    0.088899
  67 H :    0.021345
  68 H :    0.084724
  69 H :    0.023199
  70 H :    0.034042
  71 H :    0.013683
  72 H :    0.095821
  73 H :    0.047110
  74 H :    0.024498
  75 H :    0.045189
  76 H :    0.095230
  77 H :    0.048961
  78 H :    0.026629
  79 H :    0.039938
  80 H :    0.039156
  81 H :    0.036482
  82 H :    0.037264
  83 H :    0.042715
  84 H :    0.034548
  85 H :    0.036666
  86 H :    0.039289
  87 H :    0.040302
  88 H :    0.037878

  Mayer bond orders larger than 0.100000
B(  0-C ,  1-N ) :   1.2060 B(  0-C ,  7-C ) :   1.4873 B(  0-C , 65-H ) :   0.9859
B(  1-N ,  2-C ) :   1.1615 B(  1-N , 66-H ) :   0.9447 B(  2-C ,  3-C ) :   1.2360
B(  2-C ,  6-C ) :   1.3615 B(  3-C ,  4-C ) :   1.3870 B(  3-C , 67-H ) :   1.0369
B(  4-C ,  5-N ) :   1.1976 B(  4-C ,  8-C ) :   1.1782 B(  5-N ,  6-C ) :   1.1621
B(  5-N , 68-H ) :   0.9358 B(  6-C ,  7-C ) :   1.2475 B(  7-C , 69-H ) :   1.0364
B(  8-C ,  9-C ) :   1.6527 B(  8-C , 70-H ) :   0.9491 B(  9-C , 10-N ) :   1.0726
B(  9-C , 71-H ) :   0.9675 B( 10-N , 11-C ) :   1.2983 B( 10-N , 72-H ) :   0.9157
B( 11-C , 12-S ) :   1.1328 B( 11-C , 18-C ) :   1.2944 B( 12-S , 13-C ) :   1.0461
B( 13-C , 14-N ) :   0.9871 B( 13-C , 17-C ) :   1.4957 B( 14-N , 15-O ) :   1.5254
B( 14-N , 16-O ) :   1.4975 B( 15-O , 16-O ) :   0.2513 B( 17-C , 18-C ) :   1.2360
B( 17-C , 73-H ) :   0.9988 B( 18-C , 19-C ) :   1.0703 B( 19-C , 20-C ) :   1.6466
B( 19-C , 74-H ) :   0.9810 B( 20-C , 21-C ) :   1.1861 B( 20-C , 75-H ) :   0.9577
B( 21-C , 22-O ) :   1.1468 B( 21-C , 23-C ) :   1.3863 B( 22-O , 30-C ) :   1.1286
B( 23-C , 24-C ) :   0.8810 B( 23-C , 29-C ) :   1.2778 B( 24-C , 25-O ) :   2.2682
B( 24-C , 26-N ) :   1.0742 B( 26-N , 27-C ) :   1.0853 B( 26-N , 76-H ) :   0.9137
B( 27-C , 28-O ) :   2.2613 B( 27-C , 29-C ) :   0.8792 B( 29-C , 30-C ) :   1.3917
B( 30-C , 31-C ) :   1.1870 B( 31-C , 32-C ) :   1.5640 B( 31-C , 77-H ) :   0.9671
B( 32-C , 33-C ) :   1.1632 B( 32-C , 78-H ) :   0.9842 B( 33-C , 34-C ) :   1.5375
B( 33-C , 79-H ) :   0.9850 B( 34-C , 35-C ) :   1.1536 B( 34-C , 38-S ) :   1.0275
B( 35-C , 36-C ) :   1.5738 B( 35-C , 80-H ) :   1.0010 B( 36-C , 37-C ) :   1.2024
B( 36-C , 81-H ) :   0.9941 B( 37-C , 38-S ) :   1.0719 B( 37-C , 39-C ) :   1.4670
B( 39-C , 40-C ) :   1.2103 B( 39-C , 43-S ) :   1.0442 B( 40-C , 41-C ) :   1.5641
B( 40-C , 82-H ) :   0.9941 B( 41-C , 42-C ) :   1.1887 B( 41-C , 83-H ) :   0.9883
B( 42-C , 43-S ) :   1.0918 B( 42-C , 44-C ) :   1.3900 B( 44-C , 45-C ) :   1.2942
B( 44-C , 84-H ) :   0.9679 B( 45-C , 46-C ) :   1.4741 B( 45-C , 85-H ) :   0.9468
B( 46-C , 47-C ) :   1.1116 B( 46-C , 55-C ) :   0.9614 B( 47-C , 48-C ) :   1.5822
B( 47-C , 53-C ) :   0.9929 B( 48-C , 49-C ) :   1.1483 B( 48-C , 51-C ) :   1.1552
B( 49-C , 50-N ) :   2.9629 B( 51-C , 52-N ) :   2.9711 B( 53-C , 54-C ) :   1.2771
B( 53-C , 60-C ) :   1.4181 B( 54-C , 55-C ) :   0.9353 B( 54-C , 57-C ) :   1.4302
B( 55-C , 56-O ) :   2.1935 B( 57-C , 58-C ) :   1.2392 B( 57-C , 86-H ) :   1.0165
B( 58-C , 59-C ) :   1.3148 B( 58-C , 63-C ) :   1.1617 B( 59-C , 60-C ) :   1.3217
B( 59-C , 61-S ) :   1.0840 B( 60-C , 87-H ) :   0.9792 B( 61-S , 62-C ) :   1.0865
B( 62-C , 63-C ) :   1.6179 B( 62-C , 64-Br) :   1.0144 B( 63-C , 88-H ) :   1.0008

-----------------------------------------------------------------------------
         ABSORPTION SPECTRUM VIA TRANSITION ELECTRIC DIPOLE MOMENTS
-----------------------------------------------------------------------------
State   Energy  Wavelength   fosc         T2         TX        TY        TZ
        (cm-1)    (nm)                  (au**2)     (au)      (au)      (au)
-----------------------------------------------------------------------------
   0   10511.5    951.3   0.936848314  29.34130   0.10336  -5.18748   1.55583
   1   12994.6    769.6   0.779504883  19.74844   1.51074   4.16240  -0.37486
   2   19846.0    503.9   0.207357181   3.43971   1.23323   1.30938   0.45206
   3   20024.0    499.4   0.626569120  10.30134   2.71350   1.65251   0.45549
   4   22285.1    448.7   0.333900546   4.93263  -0.09422  -1.86917  -1.19581
   5   22418.9    446.1   0.636555449   9.34756  -1.26697   2.44966   1.31967
   6   23713.1    421.7   0.098877014   1.37272   1.08926  -0.41967  -0.10048
   7   24106.5    414.8   0.155410338   2.12237  -0.73859  -1.14708  -0.51095
   8   24576.0    406.9   0.268630291   3.59849  -1.78550  -0.64003   0.02869
   9   25450.5    392.9   0.040677361   0.52618   0.68914  -0.15121  -0.16852
  10   26288.9    380.4   0.194106046   2.43076  -1.44656   0.39730   0.42471
  11   26682.4    374.8   0.000099070   0.00122   0.02068   0.02529   0.01244
  12   26876.6    372.1   0.057958510   0.70994   0.32544  -0.70172  -0.33408
  13   27970.6    357.5   0.013308380   0.15664  -0.25349  -0.21425  -0.21558
  14   28054.7    356.4   0.035919391   0.42150   0.62316  -0.15964  -0.08765
  15   28097.6    355.9   0.007294422   0.08547  -0.28319   0.07235  -0.00571
  16   29097.7    343.7   0.000399696   0.00452  -0.06558  -0.00951   0.01142
  17   30502.1    327.8   0.239062579   2.58022   1.58856  -0.14379   0.18981
  18   31004.8    322.5   0.041854605   0.44442  -0.50224  -0.34663  -0.26836
  19   31357.8    318.9   0.038251724   0.40159  -0.48196  -0.40483   0.07356
  20   32095.8    311.6   0.233352150   2.39353  -1.47381  -0.35344   0.31063
  21   32128.2    311.3   0.267699668   2.74307   1.58035   0.39332  -0.30141
  22   32513.3    307.6   0.100024716   1.01280  -1.00561   0.03908  -0.00379
  23   33074.8    302.3   0.011174548   0.11123  -0.26262   0.04433   0.20073
  24   33291.6    300.4   0.000803990   0.00795  -0.07652  -0.04291  -0.01592
  25   33424.8    299.2   0.033993087   0.33481   0.34501   0.44547   0.13167
  26   33644.2    297.2   0.182287484   1.78370   0.23134   1.27890   0.30758
  27   34747.3    287.8   0.013174980   0.12483   0.29000   0.19698   0.04386
  28   34780.5    287.5   0.000841873   0.00797  -0.03152   0.06819  -0.04822
  29   35000.9    285.7   0.002330770   0.02192   0.00388  -0.10893  -0.10021
  30   35138.2    284.6   0.002866060   0.02685  -0.01907   0.13151   0.09588
  31   35381.7    282.6   0.116522454   1.08419  -0.99100   0.17036  -0.27034
  32   35508.5    281.6   0.048220957   0.44707   0.47394  -0.45086  -0.13850
  33   35922.2    278.4   0.391647283   3.58928  -0.33634  -1.61543  -0.93089
  34   36278.3    275.6   0.024216267   0.21975   0.35878   0.03652  -0.29949
  35   36387.6    274.8   0.065185212   0.58975  -0.32978   0.41233   0.55766
  36   36766.2    272.0   0.038508218   0.34481  -0.38541   0.37887   0.22962
  37   37572.7    266.2   0.178041995   1.56001   0.95256  -0.80079   0.10655
  38   37816.6    264.4   0.125283478   1.09065  -0.39628   0.96624   0.00004
  39   38061.5    262.7   0.006977882   0.06035  -0.15462   0.17658   0.07258
  40   38400.7    260.4   0.029094210   0.24943  -0.17181  -0.46380  -0.06923
  41   38845.0    257.4   0.001207721   0.01024   0.06799  -0.02018  -0.07215
  42   39144.7    255.5   0.030781415   0.25888  -0.45499  -0.20057  -0.10783
  43   39347.7    254.1   0.000279077   0.00233  -0.02881  -0.01768  -0.03453
  44   39424.6    253.6   0.072206848   0.60296   0.68254   0.29595   0.22252
  45   39517.0    253.1   0.185618359   1.54637   1.11064  -0.47772   0.29089
  46   39713.7    251.8   0.048699572   0.40370  -0.59147   0.14187  -0.18367

FINAL SINGLE POINT ENERGY     -6802.844870295059

DIPOLE MOMENT
-------------
                                X             Y             Z
Electronic contribution:     71.79456     123.80690     -61.29862
Nuclear contribution   :    -73.67489    -124.26348      63.26790
                        -----------------------------------------
Total Dipole Moment    :     -1.88033      -0.45658       1.96929
                        -----------------------------------------
Magnitude (a.u.)       :      2.76083
Magnitude (Debye)      :      7.01747

Rotational constants in cm-1:     0.000915     0.000306     0.000260
Rotational constants in MHz :    27.426125     9.158874     7.796587

                             ****ORCA TERMINATED NORMALLY****
TOTAL RUN TIME: 0 days 0 hours 12 minutes 21 seconds 150 msec
