                         Program Version 4.2.0 -  RELEASE  -
|  1> # ORCA input file
|  2> # SCF done       -207.727892837070          0.000915640067
|  3> ! CAM-B3LYP def2-SVP def2/J RIJCOSX Grid4 TightSCF
|  4> %maxcore 5000
|  5> %tddft
|  6>     Mode sTDDFT
|  7>     Ethresh 5.0
|  8>     maxcore 5000
|  9> end
| 10>
| 11> %pal
| 12>   nprocs 6
| 13>   end
| 14> * xyz 0 1
| 15>    C       10.01412        -9.63976        -2.16242
| 16>    C        9.36520       -10.19028        -3.23205
| 17>    F        9.64193       -11.45565        -3.59490
| 18>    C        8.41029        -9.48422        -3.97702
| 19>    C        8.11432        -8.19746        -3.62318
| 20>    C        8.75299        -7.57986        -2.52804
| 21>    C        9.72325        -8.31402        -1.78477
| 22>    C       10.38556        -7.71329        -0.68993
| 23>    C       10.08649        -6.42047        -0.34991
| 24>    C        9.10183        -5.69847        -1.08474
| 25>    C        8.45082        -6.25320        -2.14915
| 26>    C        8.93292        -4.35607        -0.49498
| 27>    O        8.20712        -3.46741        -0.86983
| 28>    C        9.79936        -4.35373         0.72213
| 29>    C       10.63186        -5.54545         0.68235
| 30>    C       11.82830        -5.72464         1.32033
| 31>    C       12.46399        -4.75035         2.11860
| 32>    N       13.06846        -3.99666         2.73825
| 33>    C       12.62179        -6.88365         1.18665
| 34>    N       13.29249        -7.81314         1.12801
| 35>    C        9.63773        -3.40783         1.67115
| 36>    C       10.11508        -3.45659         3.03144
| 37>    C       10.04156        -4.55854         3.83875
| 38>    S       10.62615        -4.25947         5.42118
| 39>    C       11.01414        -2.64595         5.01531
| 40>    C       10.67835        -2.33825         3.72931
| 41>    C       10.94454        -1.04691         3.06928
| 42>    O       10.66877        -0.81144         1.91917
| 43>    O       11.51510        -0.19008         3.92692
| 44>    C       11.96085         1.06766         3.53132
| 45>    C       11.85165         2.06288         4.45843
| 46>    C       12.34378         3.35448         4.15213
| 47>    C       12.37578         4.53207         4.87910
| 48>    C       11.86410         4.80647         6.25421
| 49>    C       10.38543         4.41817         6.42110
| 50>    N        9.86662         4.98877         7.65535
| 51>    C       12.72844         4.11128         7.32254
| 52>    N       14.00927         4.79218         7.43929
| 53>    C       13.05049         5.50860         4.05505
| 54>    C       13.41790         6.77774         4.30451
| 55>    C       14.16336         7.58845         3.29986
| 56>    C       14.38140         6.91098         1.98853
| 57>    C       14.01974         5.63446         1.75916
| 58>    C       13.38099         4.87996         2.77075
| 59>    C       12.95776         3.56612         2.84550
| 60>    C       13.05191         2.49823         1.92680
| 61>    C       12.56858         1.27241         2.26071
| 62>    C       15.45224         8.03232         3.95781
| 63>    C       16.66508         7.71664         3.51997
| 64>    C       17.89152         8.14654         4.16963
| 65>    C       18.06802         8.23886         5.51729
| 66>    S       19.65068         8.75923         5.94854
| 67>    C       20.11162         8.85939         4.31558
| 68>    C       19.09427         8.50666         3.46456
| 69>    C       19.16604         8.55581         2.01622
| 70>    O       18.24226         8.46206         1.25282
| 71>    O       20.47140         8.72482         1.55279
| 72>    C       20.60897         8.84719         0.22756
| 73>    C       21.74685         8.85610        -0.49484
| 74>    C       21.60607         8.81335        -1.98248
| 75>    O       20.58913         8.98241        -2.61224
| 76>    C       22.94838         8.49217        -2.49152
| 77>    C       23.34179         8.26977        -3.78012
| 78>    C       24.69096         7.94675        -4.04341
| 79>    C       25.60926         7.85432        -2.95666
| 80>    C       26.95271         7.52482        -3.22431
| 81>    C       27.34536         7.30459        -4.51512
| 82>    C       26.45804         7.39278        -5.59677
| 83>    C       25.15040         7.71006        -5.35527
| 84>    F       28.62739         6.99060        -4.77263
| 85>    C       25.17497         8.09530        -1.63319
| 86>    C       23.86275         8.41731        -1.40150
| 87>    C       23.15806         8.74812        -0.16728
| 88>    C       23.75104         9.02390         1.03392
| 89>    C       23.08358         9.55531         2.15191
| 90>    N       22.63742        10.04662         3.08858
| 91>    C       25.13415         8.89339         1.28442
| 92>    N       26.24505         8.79580         1.55520
| 93>    H       10.74678       -10.21129        -1.61433
| 94>    H        7.93115        -9.97108        -4.81154
| 95>    H        7.38255        -7.63351        -4.18172
| 96>    H       11.10951        -8.29441        -0.14096
| 97>    H        7.71368        -5.68492        -2.69637
| 98>    H        9.04067        -2.54479         1.39848
| 99>    H        9.63030        -5.51904         3.59583
|100>    H       11.47332        -2.00218         5.73809
|101>    H       11.40378         1.84600         5.41474
|102>    H       11.93336         5.88467         6.43645
|103>    H       10.28916         3.33444         6.50079
|104>    H        9.83320         4.74240         5.52318
|105>    H        8.91663         4.67375         7.81807
|106>    H        9.84774         6.00209         7.59288
|107>    H       12.92536         3.08229         7.01528
|108>    H       12.15426         4.09610         8.26194
|109>    H       13.87988         5.70116         7.87211
|110>    H       14.63968         4.25912         8.02738
|111>    H       13.22620         7.25178         5.25736
|112>    H       13.58052         8.50721         3.11899
|113>    H       14.86304         7.50359         1.22601
|114>    H       14.20658         5.17308         0.80036
|115>    H       13.52021         2.65958         0.96764
|116>    H       12.64257         0.44252         1.57759
|117>    H       15.32925         8.63836         4.84565
|118>    H       16.78847         7.14617         2.61195
|119>    H       17.35985         8.00125         6.28525
|120>    H       21.09244         9.20782         4.04854
|121>    H       19.67458         8.89348        -0.33372
|122>    H       22.62956         8.33942        -4.58849
|123>    H       27.66417         7.45061        -2.41685
|124>    H       26.82577         7.20833        -6.59365
|125>    H       24.44778         7.78347        -6.17153
|126>    H       25.89282         8.01247        -0.83299
|127> *
|128>
|129>                          ****END OF INPUT****

CARTESIAN COORDINATES (ANGSTROEM)
---------------------------------
  C     10.014120   -9.639760   -2.162420
  C      9.365200  -10.190280   -3.232050
  F      9.641930  -11.455650   -3.594900
  C      8.410290   -9.484220   -3.977020
  C      8.114320   -8.197460   -3.623180
  C      8.752990   -7.579860   -2.528040
  C      9.723250   -8.314020   -1.784770
  C     10.385560   -7.713290   -0.689930
  C     10.086490   -6.420470   -0.349910
  C      9.101830   -5.698470   -1.084740
  C      8.450820   -6.253200   -2.149150
  C      8.932920   -4.356070   -0.494980
  O      8.207120   -3.467410   -0.869830
  C      9.799360   -4.353730    0.722130
  C     10.631860   -5.545450    0.682350
  C     11.828300   -5.724640    1.320330
  C     12.463990   -4.750350    2.118600
  N     13.068460   -3.996660    2.738250
  C     12.621790   -6.883650    1.186650
  N     13.292490   -7.813140    1.128010
  C      9.637730   -3.407830    1.671150
  C     10.115080   -3.456590    3.031440
  C     10.041560   -4.558540    3.838750
  S     10.626150   -4.259470    5.421180
  C     11.014140   -2.645950    5.015310
  C     10.678350   -2.338250    3.729310
  C     10.944540   -1.046910    3.069280
  O     10.668770   -0.811440    1.919170
  O     11.515100   -0.190080    3.926920
  C     11.960850    1.067660    3.531320
  C     11.851650    2.062880    4.458430
  C     12.343780    3.354480    4.152130
  C     12.375780    4.532070    4.879100
  C     11.864100    4.806470    6.254210
  C     10.385430    4.418170    6.421100
  N      9.866620    4.988770    7.655350
  C     12.728440    4.111280    7.322540
  N     14.009270    4.792180    7.439290
  C     13.050490    5.508600    4.055050
  C     13.417900    6.777740    4.304510
  C     14.163360    7.588450    3.299860
  C     14.381400    6.910980    1.988530
  C     14.019740    5.634460    1.759160
  C     13.380990    4.879960    2.770750
  C     12.957760    3.566120    2.845500
  C     13.051910    2.498230    1.926800
  C     12.568580    1.272410    2.260710
  C     15.452240    8.032320    3.957810
  C     16.665080    7.716640    3.519970
  C     17.891520    8.146540    4.169630
  C     18.068020    8.238860    5.517290
  S     19.650680    8.759230    5.948540
  C     20.111620    8.859390    4.315580
  C     19.094270    8.506660    3.464560
  C     19.166040    8.555810    2.016220
  O     18.242260    8.462060    1.252820
  O     20.471400    8.724820    1.552790
  C     20.608970    8.847190    0.227560
  C     21.746850    8.856100   -0.494840
  C     21.606070    8.813350   -1.982480
  O     20.589130    8.982410   -2.612240
  C     22.948380    8.492170   -2.491520
  C     23.341790    8.269770   -3.780120
  C     24.690960    7.946750   -4.043410
  C     25.609260    7.854320   -2.956660
  C     26.952710    7.524820   -3.224310
  C     27.345360    7.304590   -4.515120
  C     26.458040    7.392780   -5.596770
  C     25.150400    7.710060   -5.355270
  F     28.627390    6.990600   -4.772630
  C     25.174970    8.095300   -1.633190
  C     23.862750    8.417310   -1.401500
  C     23.158060    8.748120   -0.167280
  C     23.751040    9.023900    1.033920
  C     23.083580    9.555310    2.151910
  N     22.637420   10.046620    3.088580
  C     25.134150    8.893390    1.284420
  N     26.245050    8.795800    1.555200
  H     10.746780  -10.211290   -1.614330
  H      7.931150   -9.971080   -4.811540
  H      7.382550   -7.633510   -4.181720
  H     11.109510   -8.294410   -0.140960
  H      7.713680   -5.684920   -2.696370
  H      9.040670   -2.544790    1.398480
  H      9.630300   -5.519040    3.595830
  H     11.473320   -2.002180    5.738090
  H     11.403780    1.846000    5.414740
  H     11.933360    5.884670    6.436450
  H     10.289160    3.334440    6.500790
  H      9.833200    4.742400    5.523180
  H      8.916630    4.673750    7.818070
  H      9.847740    6.002090    7.592880
  H     12.925360    3.082290    7.015280
  H     12.154260    4.096100    8.261940
  H     13.879880    5.701160    7.872110
  H     14.639680    4.259120    8.027380
  H     13.226200    7.251780    5.257360
  H     13.580520    8.507210    3.118990
  H     14.863040    7.503590    1.226010
  H     14.206580    5.173080    0.800360
  H     13.520210    2.659580    0.967640
  H     12.642570    0.442520    1.577590
  H     15.329250    8.638360    4.845650
  H     16.788470    7.146170    2.611950
  H     17.359850    8.001250    6.285250
  H     21.092440    9.207820    4.048540
  H     19.674580    8.893480   -0.333720
  H     22.629560    8.339420   -4.588490
  H     27.664170    7.450610   -2.416850
  H     26.825770    7.208330   -6.593650
  H     24.447780    7.783470   -6.171530
  H     25.892820    8.012470   -0.832990

 Total Charge           Charge          ....    0
 Multiplicity           Mult            ....    1
 Number of Electrons    NEL             ....  546
 Basis Dimension        Dim             .... 1270

ORBITAL ENERGIES
----------------

  NO   OCC          E(Eh)            E(eV)
   0   2.0000     -88.972800     -2421.0730
   1   2.0000     -88.966522     -2420.9021
   2   2.0000     -24.788525      -674.5301
   3   2.0000     -24.785665      -674.4522
   4   2.0000     -19.308327      -525.4063
   5   2.0000     -19.269917      -524.3611
   6   2.0000     -19.233322      -523.3653
   7   2.0000     -19.217851      -522.9443
   8   2.0000     -19.211418      -522.7693
   9   2.0000     -19.207728      -522.6689
  10   2.0000     -14.421638      -392.4327
  11   2.0000     -14.421331      -392.4244
  12   2.0000     -14.415654      -392.2699
  13   2.0000     -14.411498      -392.1568
  14   2.0000     -14.377431      -391.2298
  15   2.0000     -14.368553      -390.9882
  16   2.0000     -10.428926      -283.7855
  17   2.0000     -10.408419      -283.2275
  18   2.0000     -10.377592      -282.3886
  19   2.0000     -10.372855      -282.2597
  20   2.0000     -10.371218      -282.2152
  21   2.0000     -10.369499      -282.1684
  22   2.0000     -10.362818      -281.9866
  23   2.0000     -10.350555      -281.6529
  24   2.0000     -10.349594      -281.6268
  25   2.0000     -10.343038      -281.4484
  26   2.0000     -10.340809      -281.3877
  27   2.0000     -10.327164      -281.0164
  28   2.0000     -10.326562      -281.0000
  29   2.0000     -10.323593      -280.9192
  30   2.0000     -10.318048      -280.7684
  31   2.0000     -10.314067      -280.6600
  32   2.0000     -10.313558      -280.6462
  33   2.0000     -10.310888      -280.5735
  34   2.0000     -10.310077      -280.5515
  35   2.0000     -10.310049      -280.5507
  36   2.0000     -10.309173      -280.5269
  37   2.0000     -10.306122      -280.4438
  38   2.0000     -10.305862      -280.4368
  39   2.0000     -10.305301      -280.4215
  40   2.0000     -10.305050      -280.4147
  41   2.0000     -10.304070      -280.3880
  42   2.0000     -10.303309      -280.3673
  43   2.0000     -10.302370      -280.3417
  44   2.0000     -10.301210      -280.3102
  45   2.0000     -10.301118      -280.3077
  46   2.0000     -10.299271      -280.2574
  47   2.0000     -10.298309      -280.2312
  48   2.0000     -10.298284      -280.2306
  49   2.0000     -10.298107      -280.2257
  50   2.0000     -10.297588      -280.2116
  51   2.0000     -10.294523      -280.1282
  52   2.0000     -10.294467      -280.1267
  53   2.0000     -10.294250      -280.1208
  54   2.0000     -10.294135      -280.1177
  55   2.0000     -10.292518      -280.0737
  56   2.0000     -10.291436      -280.0442
  57   2.0000     -10.290787      -280.0266
  58   2.0000     -10.290389      -280.0157
  59   2.0000     -10.289111      -279.9809
  60   2.0000     -10.289029      -279.9787
  61   2.0000     -10.288634      -279.9680
  62   2.0000     -10.285417      -279.8804
  63   2.0000     -10.276876      -279.6480
  64   2.0000     -10.275950      -279.6228
  65   2.0000     -10.267551      -279.3943
  66   2.0000     -10.266340      -279.3613
  67   2.0000     -10.261698      -279.2350
  68   2.0000     -10.261446      -279.2281
  69   2.0000     -10.259206      -279.1672
  70   2.0000     -10.258142      -279.1382
  71   2.0000     -10.258139      -279.1382
  72   2.0000     -10.257872      -279.1309
  73   2.0000     -10.257157      -279.1114
  74   2.0000     -10.254673      -279.0438
  75   2.0000     -10.250959      -278.9428
  76   2.0000     -10.250568      -278.9321
  77   2.0000     -10.245163      -278.7851
  78   2.0000      -8.068963      -219.5677
  79   2.0000      -8.062820      -219.4005
  80   2.0000      -6.038124      -164.3057
  81   2.0000      -6.033595      -164.1825
  82   2.0000      -6.031869      -164.1355
  83   2.0000      -6.031655      -164.1297
  84   2.0000      -6.027360      -164.0128
  85   2.0000      -6.025698      -163.9676
  86   2.0000      -1.303656       -35.4743
  87   2.0000      -1.300664       -35.3929
  88   2.0000      -1.232637       -33.5417
  89   2.0000      -1.198970       -32.6256
  90   2.0000      -1.136955       -30.9381
  91   2.0000      -1.133996       -30.8576
  92   2.0000      -1.127351       -30.6768
  93   2.0000      -1.107449       -30.1352
  94   2.0000      -1.024258       -27.8715
  95   2.0000      -1.018400       -27.7121
  96   2.0000      -1.006092       -27.3772
  97   2.0000      -1.000322       -27.2202
  98   2.0000      -1.000208       -27.2170
  99   2.0000      -0.999435       -27.1960
 100   2.0000      -0.992808       -27.0157
 101   2.0000      -0.989941       -26.9377
 102   2.0000      -0.980191       -26.6723
 103   2.0000      -0.975110       -26.5341
 104   2.0000      -0.972342       -26.4588
 105   2.0000      -0.959215       -26.1016
 106   2.0000      -0.943016       -25.6608
 107   2.0000      -0.933993       -25.4152
 108   2.0000      -0.931846       -25.3568
 109   2.0000      -0.927533       -25.2395
 110   2.0000      -0.908167       -24.7125
 111   2.0000      -0.903811       -24.5940
 112   2.0000      -0.902423       -24.5562
 113   2.0000      -0.891313       -24.2539
 114   2.0000      -0.887737       -24.1565
 115   2.0000      -0.881691       -23.9920
 116   2.0000      -0.879339       -23.9280
 117   2.0000      -0.876390       -23.8478
 118   2.0000      -0.864061       -23.5123
 119   2.0000      -0.854203       -23.2441
 120   2.0000      -0.848098       -23.0779
 121   2.0000      -0.838276       -22.8106
 122   2.0000      -0.835826       -22.7440
 123   2.0000      -0.830039       -22.5865
 124   2.0000      -0.827470       -22.5166
 125   2.0000      -0.821832       -22.3632
 126   2.0000      -0.815939       -22.2028
 127   2.0000      -0.802130       -21.8271
 128   2.0000      -0.785257       -21.3679
 129   2.0000      -0.780121       -21.2282
 130   2.0000      -0.770765       -20.9736
 131   2.0000      -0.759705       -20.6726
 132   2.0000      -0.751750       -20.4562
 133   2.0000      -0.748419       -20.3655
 134   2.0000      -0.742285       -20.1986
 135   2.0000      -0.725660       -19.7462
 136   2.0000      -0.725340       -19.7375
 137   2.0000      -0.713757       -19.4223
 138   2.0000      -0.712324       -19.3833
 139   2.0000      -0.708949       -19.2915
 140   2.0000      -0.703374       -19.1398
 141   2.0000      -0.696834       -18.9618
 142   2.0000      -0.690756       -18.7964
 143   2.0000      -0.686122       -18.6703
 144   2.0000      -0.683810       -18.6074
 145   2.0000      -0.683230       -18.5916
 146   2.0000      -0.676930       -18.4202
 147   2.0000      -0.672530       -18.3005
 148   2.0000      -0.664376       -18.0786
 149   2.0000      -0.658382       -17.9155
 150   2.0000      -0.651966       -17.7409
 151   2.0000      -0.649633       -17.6774
 152   2.0000      -0.644522       -17.5383
 153   2.0000      -0.640522       -17.4295
 154   2.0000      -0.639303       -17.3963
 155   2.0000      -0.633320       -17.2335
 156   2.0000      -0.632873       -17.2214
 157   2.0000      -0.628152       -17.0929
 158   2.0000      -0.625770       -17.0281
 159   2.0000      -0.606046       -16.4914
 160   2.0000      -0.601010       -16.3543
 161   2.0000      -0.599000       -16.2996
 162   2.0000      -0.597749       -16.2656
 163   2.0000      -0.594616       -16.1803
 164   2.0000      -0.590377       -16.0650
 165   2.0000      -0.587195       -15.9784
 166   2.0000      -0.581697       -15.8288
 167   2.0000      -0.575708       -15.6658
 168   2.0000      -0.570322       -15.5192
 169   2.0000      -0.568760       -15.4768
 170   2.0000      -0.562315       -15.3014
 171   2.0000      -0.561210       -15.2713
 172   2.0000      -0.560773       -15.2594
 173   2.0000      -0.560475       -15.2513
 174   2.0000      -0.558399       -15.1948
 175   2.0000      -0.558198       -15.1893
 176   2.0000      -0.555379       -15.1126
 177   2.0000      -0.554569       -15.0906
 178   2.0000      -0.552649       -15.0383
 179   2.0000      -0.545929       -14.8555
 180   2.0000      -0.545469       -14.8430
 181   2.0000      -0.540773       -14.7152
 182   2.0000      -0.539059       -14.6685
 183   2.0000      -0.537910       -14.6373
 184   2.0000      -0.532230       -14.4827
 185   2.0000      -0.530523       -14.4363
 186   2.0000      -0.528021       -14.3682
 187   2.0000      -0.527473       -14.3533
 188   2.0000      -0.527361       -14.3502
 189   2.0000      -0.523930       -14.2569
 190   2.0000      -0.523506       -14.2453
 191   2.0000      -0.520014       -14.1503
 192   2.0000      -0.516100       -14.0438
 193   2.0000      -0.514867       -14.0103
 194   2.0000      -0.512394       -13.9429
 195   2.0000      -0.510120       -13.8811
 196   2.0000      -0.508303       -13.8316
 197   2.0000      -0.507154       -13.8004
 198   2.0000      -0.505005       -13.7419
 199   2.0000      -0.500153       -13.6099
 200   2.0000      -0.497941       -13.5497
 201   2.0000      -0.496727       -13.5166
 202   2.0000      -0.494745       -13.4627
 203   2.0000      -0.494241       -13.4490
 204   2.0000      -0.493091       -13.4177
 205   2.0000      -0.489647       -13.3240
 206   2.0000      -0.488512       -13.2931
 207   2.0000      -0.484783       -13.1916
 208   2.0000      -0.481676       -13.1071
 209   2.0000      -0.481188       -13.0938
 210   2.0000      -0.479861       -13.0577
 211   2.0000      -0.478118       -13.0102
 212   2.0000      -0.476519       -12.9667
 213   2.0000      -0.471940       -12.8421
 214   2.0000      -0.468378       -12.7452
 215   2.0000      -0.465732       -12.6732
 216   2.0000      -0.464953       -12.6520
 217   2.0000      -0.463699       -12.6179
 218   2.0000      -0.459085       -12.4923
 219   2.0000      -0.456582       -12.4242
 220   2.0000      -0.456529       -12.4228
 221   2.0000      -0.453797       -12.3484
 222   2.0000      -0.451222       -12.2784
 223   2.0000      -0.450902       -12.2697
 224   2.0000      -0.448786       -12.2121
 225   2.0000      -0.447194       -12.1688
 226   2.0000      -0.443056       -12.0562
 227   2.0000      -0.442836       -12.0502
 228   2.0000      -0.439484       -11.9590
 229   2.0000      -0.438189       -11.9237
 230   2.0000      -0.436779       -11.8854
 231   2.0000      -0.434891       -11.8340
 232   2.0000      -0.434129       -11.8133
 233   2.0000      -0.431028       -11.7289
 234   2.0000      -0.429701       -11.6928
 235   2.0000      -0.427620       -11.6361
 236   2.0000      -0.424999       -11.5648
 237   2.0000      -0.424440       -11.5496
 238   2.0000      -0.421753       -11.4765
 239   2.0000      -0.419019       -11.4021
 240   2.0000      -0.418476       -11.3873
 241   2.0000      -0.414353       -11.2751
 242   2.0000      -0.410209       -11.1624
 243   2.0000      -0.408096       -11.1049
 244   2.0000      -0.399280       -10.8650
 245   2.0000      -0.395677       -10.7669
 246   2.0000      -0.395245       -10.7552
 247   2.0000      -0.387333       -10.5399
 248   2.0000      -0.384477       -10.4621
 249   2.0000      -0.383607       -10.4385
 250   2.0000      -0.380808       -10.3623
 251   2.0000      -0.380457       -10.3528
 252   2.0000      -0.376225       -10.2376
 253   2.0000      -0.364054        -9.9064
 254   2.0000      -0.361515        -9.8373
 255   2.0000      -0.352689        -9.5972
 256   2.0000      -0.347860        -9.4658
 257   2.0000      -0.343517        -9.3476
 258   2.0000      -0.334440        -9.1006
 259   2.0000      -0.331872        -9.0307
 260   2.0000      -0.327932        -8.9235
 261   2.0000      -0.323716        -8.8088
 262   2.0000      -0.318525        -8.6675
 263   2.0000      -0.316014        -8.5992
 264   2.0000      -0.315940        -8.5972
 265   2.0000      -0.307688        -8.3726
 266   2.0000      -0.304699        -8.2913
 267   2.0000      -0.300827        -8.1859
 268   2.0000      -0.294952        -8.0260
 269   2.0000      -0.293637        -7.9903
 270   2.0000      -0.286817        -7.8047
 271   2.0000      -0.281528        -7.6608
 272   2.0000      -0.212100        -5.7715
 273   0.0000      -0.089047        -2.4231
 274   0.0000      -0.085938        -2.3385
 275   0.0000      -0.055932        -1.5220
 276   0.0000      -0.054597        -1.4857
 277   0.0000      -0.050741        -1.3807

MULLIKEN ATOMIC CHARGES
-----------------------
   0 C :   -0.099020
   1 C :    0.302705
   2 F :   -0.190145
   3 C :   -0.029008
   4 C :   -0.009523
   5 C :    0.101554
   6 C :    0.103624
   7 C :   -0.086622
   8 C :    0.037927
   9 C :    0.002527
  10 C :   -0.079614
  11 C :    0.141541
  12 O :   -0.132664
  13 C :   -0.126281
  14 C :    0.276681
  15 C :   -0.338216
  16 C :   -0.181495
  17 N :    0.173857
  18 C :   -0.186117
  19 N :    0.154006
  20 C :    0.071543
  21 C :   -0.009160
  22 C :   -0.102562
  23 S :    0.156015
  24 C :   -0.080122
  25 C :    0.050497
  26 C :    0.224080
  27 O :   -0.196336
  28 O :   -0.256721
  29 C :    0.211018
  30 C :   -0.065276
  31 C :    0.021670
  32 C :    0.012580
  33 C :   -0.070163
  34 C :    0.140471
  35 N :   -0.218915
  36 C :    0.153504
  37 N :   -0.224903
  38 C :    0.105960
  39 C :   -0.121314
  40 C :    0.168063
  41 C :   -0.060987
  42 C :    0.017025
  43 C :    0.010869
  44 C :    0.039391
  45 C :   -0.014603
  46 C :   -0.004266
  47 C :   -0.105290
  48 C :    0.058229
  49 C :    0.104683
  50 C :   -0.145866
  51 S :    0.148985
  52 C :   -0.070978
  53 C :   -0.009372
  54 C :    0.224838
  55 O :   -0.173311
  56 O :   -0.236578
  57 C :    0.123309
  58 C :   -0.107113
  59 C :    0.135984
  60 O :   -0.136867
  61 C :    0.001305
  62 C :   -0.073861
  63 C :    0.102554
  64 C :    0.103495
  65 C :   -0.098297
  66 C :    0.304069
  67 C :   -0.029759
  68 C :   -0.008883
  69 F :   -0.188660
  70 C :   -0.084732
  71 C :    0.035002
  72 C :    0.335024
  73 C :   -0.349625
  74 C :   -0.132027
  75 N :    0.133253
  76 C :   -0.184238
  77 N :    0.156007
  78 H :   -0.001763
  79 H :    0.004064
  80 H :   -0.007349
  81 H :   -0.004463
  82 H :   -0.010045
  83 H :    0.045585
  84 H :    0.033757
  85 H :    0.042000
  86 H :   -0.042783
  87 H :   -0.049858
  88 H :   -0.013239
  89 H :   -0.002433
  90 H :    0.090810
  91 H :    0.086695
  92 H :   -0.014388
  93 H :   -0.005783
  94 H :    0.078701
  95 H :    0.088735
  96 H :   -0.020608
  97 H :    0.035625
  98 H :    0.003456
  99 H :   -0.038923
 100 H :   -0.032791
 101 H :   -0.003507
 102 H :   -0.009245
 103 H :    0.020770
 104 H :    0.025171
 105 H :    0.023268
 106 H :    0.065062
 107 H :   -0.008418
 108 H :    0.000888
 109 H :    0.005777
 110 H :   -0.005908
 111 H :   -0.003218
Sum of atomic charges:   -0.0000000

LOEWDIN ATOMIC CHARGES
----------------------
   0 C :   -0.042121
   1 C :    0.092991
   2 F :   -0.064593
   3 C :   -0.036093
   4 C :    0.004848
   5 C :   -0.017911
   6 C :    0.003039
   7 C :    0.011448
   8 C :   -0.019317
   9 C :   -0.059732
  10 C :    0.034936
  11 C :    0.083758
  12 O :   -0.134290
  13 C :   -0.088820
  14 C :    0.069218
  15 C :   -0.131624
  16 C :   -0.016876
  17 N :   -0.045815
  18 C :   -0.018296
  19 N :   -0.051312
  20 C :    0.094975
  21 C :   -0.061010
  22 C :   -0.167687
  23 S :    0.486459
  24 C :   -0.136418
  25 C :   -0.096272
  26 C :    0.105026
  27 O :   -0.156928
  28 O :   -0.045222
  29 C :    0.058532
  30 C :   -0.046512
  31 C :   -0.017281
  32 C :   -0.035065
  33 C :   -0.039537
  34 C :    0.026361
  35 N :   -0.118709
  36 C :    0.025551
  37 N :   -0.122369
  38 C :   -0.011880
  39 C :    0.068946
  40 C :   -0.030204
  41 C :   -0.030208
  42 C :   -0.016598
  43 C :   -0.031807
  44 C :   -0.032607
  45 C :   -0.000325
  46 C :   -0.044090
  47 C :   -0.003206
  48 C :   -0.019984
  49 C :   -0.035746
  50 C :   -0.186786
  51 S :    0.481708
  52 C :   -0.132236
  53 C :   -0.126953
  54 C :    0.130092
  55 O :   -0.135193
  56 O :   -0.030690
  57 C :    0.152036
  58 C :   -0.128275
  59 C :    0.085962
  60 O :   -0.140146
  61 C :   -0.060394
  62 C :    0.037370
  63 C :   -0.017050
  64 C :    0.003163
  65 C :   -0.040682
  66 C :    0.094072
  67 C :   -0.033966
  68 C :    0.005494
  69 F :   -0.063214
  70 C :    0.015739
  71 C :   -0.020237
  72 C :    0.080166
  73 C :   -0.133524
  74 C :    0.003336
  75 N :   -0.052355
  76 C :   -0.017595
  77 N :   -0.046921
  78 H :    0.043291
  79 H :    0.042099
  80 H :    0.036202
  81 H :    0.039007
  82 H :    0.040215
  83 H :    0.052788
  84 H :    0.026580
  85 H :    0.033354
  86 H :    0.024463
  87 H :    0.014767
  88 H :    0.015303
  89 H :    0.004281
  90 H :    0.054723
  91 H :    0.049831
  92 H :    0.015336
  93 H :   -0.001513
  94 H :    0.045910
  95 H :    0.053338
  96 H :    0.023384
  97 H :    0.059125
  98 H :    0.028497
  99 H :    0.029017
 100 H :    0.029108
 101 H :    0.034134
 102 H :    0.020526
 103 H :    0.032625
 104 H :    0.024546
 105 H :    0.021536
 106 H :    0.040313
 107 H :    0.041064
 108 H :    0.044074
 109 H :    0.042869
 110 H :    0.036778
 111 H :    0.039890

  Mayer bond orders larger than 0.100000
B(  0-C ,  1-C ) :   1.4436 B(  0-C ,  6-C ) :   1.1976 B(  0-C , 78-H ) :   1.0072
B(  1-C ,  2-F ) :   1.0888 B(  1-C ,  3-C ) :   1.2520 B(  3-C ,  4-C ) :   1.4611
B(  3-C , 79-H ) :   0.9938 B(  4-C ,  5-C ) :   1.2333 B(  4-C , 80-H ) :   0.9978
B(  5-C ,  6-C ) :   1.2541 B(  5-C , 10-C ) :   1.1929 B(  6-C ,  7-C ) :   1.2091
B(  7-C ,  8-C ) :   1.4509 B(  7-C , 81-H ) :   0.9943 B(  8-C ,  9-C ) :   1.2192
B(  8-C , 14-C ) :   1.0029 B(  9-C , 10-C ) :   1.4690 B(  9-C , 11-C ) :   0.9153
B( 10-C , 82-H ) :   1.0159 B( 11-C , 12-O ) :   2.2885 B( 11-C , 13-C ) :   0.9258
B( 13-C , 14-C ) :   1.0070 B( 13-C , 20-C ) :   1.7489 B( 14-C , 15-C ) :   1.6760
B( 15-C , 16-C ) :   1.1609 B( 15-C , 18-C ) :   1.1308 B( 16-C , 17-N ) :   3.0089
B( 18-C , 19-N ) :   2.9857 B( 20-C , 21-C ) :   1.0072 B( 20-C , 83-H ) :   0.9312
B( 21-C , 22-C ) :   1.5507 B( 21-C , 25-C ) :   1.2584 B( 22-C , 23-S ) :   1.1807
B( 22-C , 84-H ) :   0.9669 B( 23-S , 24-C ) :   1.2052 B( 24-C , 25-C ) :   1.5364
B( 24-C , 85-H ) :   0.9581 B( 25-C , 26-C ) :   0.9335 B( 26-C , 27-O ) :   2.0801
B( 26-C , 28-O ) :   1.1982 B( 28-O , 29-C ) :   0.9543 B( 29-C , 30-C ) :   1.6031
B( 29-C , 46-C ) :   1.1526 B( 30-C , 31-C ) :   1.0955 B( 30-C , 86-H ) :   0.9926
B( 31-C , 32-C ) :   1.5159 B( 31-C , 44-C ) :   1.1274 B( 32-C , 33-C ) :   0.9967
B( 32-C , 38-C ) :   1.1210 B( 33-C , 34-C ) :   1.0390 B( 33-C , 36-C ) :   1.0352
B( 33-C , 87-H ) :   0.8941 B( 34-C , 35-N ) :   1.0704 B( 34-C , 88-H ) :   0.9292
B( 34-C , 89-H ) :   0.9491 B( 35-N , 90-H ) :   0.9680 B( 35-N , 91-H ) :   0.9718
B( 36-C , 37-N ) :   1.0781 B( 36-C , 92-H ) :   0.9362 B( 36-C , 93-H ) :   0.9377
B( 37-N , 94-H ) :   0.9739 B( 37-N , 95-H ) :   0.9701 B( 38-C , 39-C ) :   1.6946
B( 38-C , 43-C ) :   1.0495 B( 39-C , 40-C ) :   0.9602 B( 39-C , 96-H ) :   0.9592
B( 40-C , 41-C ) :   1.0198 B( 40-C , 47-C ) :   0.9368 B( 40-C , 97-H ) :   0.8518
B( 41-C , 42-C ) :   1.7143 B( 41-C , 98-H ) :   0.9624 B( 42-C , 43-C ) :   1.1301
B( 42-C , 99-H ) :   0.9920 B( 43-C , 44-C ) :   1.4326 B( 44-C , 45-C ) :   1.1480
B( 45-C , 46-C ) :   1.5796 B( 45-C ,100-H ) :   0.9916 B( 46-C ,101-H ) :   0.9809
B( 47-C , 48-C ) :   1.9216 B( 47-C ,102-H ) :   0.9723 B( 48-C , 49-C ) :   1.0243
B( 48-C ,103-H ) :   0.9212 B( 49-C , 50-C ) :   1.5881 B( 49-C , 53-C ) :   1.2250
B( 50-C , 51-S ) :   1.1443 B( 50-C ,104-H ) :   0.9633 B( 51-S , 52-C ) :   1.2470
B( 52-C , 53-C ) :   1.4839 B( 52-C ,105-H ) :   0.9351 B( 53-C , 54-C ) :   0.9931
B( 54-C , 55-O ) :   2.1073 B( 54-C , 56-O ) :   1.0272 B( 56-O , 57-C ) :   1.1594
B( 57-C , 58-C ) :   1.6436 B( 57-C ,106-H ) :   0.9278 B( 58-C , 59-C ) :   0.9535
B( 58-C , 72-C ) :   0.9972 B( 59-C , 60-O ) :   2.2713 B( 59-C , 61-C ) :   0.9288
B( 61-C , 62-C ) :   1.4700 B( 61-C , 71-C ) :   1.2163 B( 62-C , 63-C ) :   1.1931
B( 62-C ,107-H ) :   1.0154 B( 63-C , 64-C ) :   1.2528 B( 63-C , 68-C ) :   1.2320
B( 64-C , 65-C ) :   1.2003 B( 64-C , 70-C ) :   1.2113 B( 65-C , 66-C ) :   1.4418
B( 65-C ,108-H ) :   1.0067 B( 66-C , 67-C ) :   1.2523 B( 66-C , 69-F ) :   1.0905
B( 67-C , 68-C ) :   1.4624 B( 67-C ,109-H ) :   0.9934 B( 68-C ,110-H ) :   0.9979
B( 70-C , 71-C ) :   1.4505 B( 70-C ,111-H ) :   0.9916 B( 71-C , 72-C ) :   1.0054
B( 72-C , 73-C ) :   1.6624 B( 73-C , 74-C ) :   1.1893 B( 73-C , 76-C ) :   1.1263
B( 74-C , 75-N ) :   2.8722 B( 75-N ,105-H ) :   0.1244 B( 76-C , 77-N ) :   2.9769

-----------------------------------------------------------------------------
         ABSORPTION SPECTRUM VIA TRANSITION ELECTRIC DIPOLE MOMENTS
-----------------------------------------------------------------------------
State   Energy  Wavelength   fosc         T2         TX        TY        TZ
        (cm-1)    (nm)                  (au**2)     (au)      (au)      (au)
-----------------------------------------------------------------------------
   0   15364.2    650.9   0.067168009   1.43922   0.56689   0.35782  -0.99490
   1   16666.6    600.0   0.009216778   0.18206  -0.14433  -0.40076  -0.02477
   2   17425.1    573.9   0.000516912   0.00977   0.05403   0.03702  -0.07400
   3   24608.3    406.4   0.000134762   0.00180   0.03203   0.00694  -0.02700
   4   25158.8    397.5   0.003525673   0.04613   0.07552   0.19483   0.04974
   5   26574.8    376.3   0.113081202   1.40087  -0.63606   0.62949   0.77462
   6   28010.5    357.0   0.024174928   0.28413  -0.32037   0.24473   0.34871
   7   28264.9    353.8   0.083412992   0.97154   0.03471   0.92966   0.32570
   8   28335.9    352.9   0.018061248   0.20984  -0.29440   0.06320   0.34521
   9   29227.9    342.1   0.039159161   0.44107   0.20558   0.52098   0.35692
  10   29278.8    341.5   0.007996311   0.08991   0.18868   0.23038   0.03518
  11   29335.9    340.9   0.052129994   0.58501  -0.49378  -0.27047  -0.51772
  12   29733.0    336.3   0.009928866   0.10994   0.27454   0.17263  -0.06900
  13   30738.8    325.3   0.133742006   1.43238   0.59873   0.46931   0.92393
  14   30887.4    323.8   0.142241555   1.51608  -0.50212  -0.88413  -0.69446
  15   31192.8    320.6   0.166573533   1.75804  -0.40608  -1.17807  -0.45307
  16   31642.2    316.0   0.004224620   0.04395  -0.00452  -0.20050  -0.06111
  17   31840.0    314.1   0.092307580   0.95442  -0.56400   0.17842   0.77749
  18   32243.9    310.1   0.191850830   1.95881   1.34965   0.35563  -0.10382
  19   32632.9    306.4   0.155672632   1.57048  -0.60694  -1.09521   0.05116
  20   32995.1    303.1   0.040928360   0.40837  -0.53220  -0.03098  -0.35238
  21   33357.2    299.8   0.034059341   0.33614  -0.46077  -0.06374   0.34607
  22   33398.8    299.4   0.033952486   0.33467  -0.29285  -0.45502  -0.20461
  23   33450.0    299.0   0.063316905   0.62316  -0.30640   0.32001   0.65335
  24   33538.6    298.2   0.017099250   0.16784   0.30006  -0.26594  -0.08416
  25   33629.5    297.4   0.000608127   0.00595  -0.03000   0.06135   0.03590
  26   34359.1    291.0   0.009639345   0.09236  -0.10733  -0.17374  -0.22506
  27   34937.1    286.2   1.156673863  10.89933   1.71212   1.58040   2.33887
  28   35012.6    285.6   0.065100687   0.61212  -0.00321  -0.21093  -0.75341
  29   35347.7    282.9   1.061401268   9.88539   0.83743  -0.61236  -2.96802
  30   36070.1    277.2   0.015644893   0.14279  -0.25853  -0.15557   0.22748
  31   36230.4    276.0   0.003192708   0.02901   0.09815   0.11707  -0.07531
  32   36296.8    275.5   0.068474347   0.62106   0.37222   0.67330   0.17083
  33   36367.1    275.0   0.328098551   2.97010  -1.09690   0.31564   1.29123
  34   36879.4    271.2   0.137555797   1.22792  -0.11890  -0.81302  -0.74349
  35   37037.2    270.0   0.048518155   0.43126   0.08938   0.59027   0.27359
  36   37930.9    263.6   0.033799195   0.29335  -0.43261  -0.26707   0.18675
  37   38051.4    262.8   0.009330954   0.08073   0.02799   0.19155   0.20798
  38   39117.5    255.6   0.000020677   0.00017   0.01076   0.00512  -0.00567
  39   39235.0    254.9   0.122324390   1.02640  -0.36098   0.94662  -0.00176
  40   39478.7    253.3   0.133882551   1.11644   0.18488  -1.04031   0.00386
  41   39590.4    252.6   0.520221707   4.32588  -1.49092   0.02442   1.44997
  42   40026.5    249.8   0.002883726   0.02372   0.08117   0.13084   0.00321
  43   40306.0    248.1   0.071834050   0.58673  -0.18894   0.71750   0.19033

FINAL SINGLE POINT ENERGY     -4154.449697991000

DIPOLE MOMENT
-------------
                                X             Y             Z
Electronic contribution:     42.88105     -32.75005     -40.16727
Nuclear contribution   :    -44.61027      32.98468      39.97103
                        -----------------------------------------
Total Dipole Moment    :     -1.72922       0.23462      -0.19625
                        -----------------------------------------
Magnitude (a.u.)       :      1.75607
Magnitude (Debye)      :      4.46357

Rotational constants in cm-1:     0.000792     0.000218     0.000181
Rotational constants in MHz :    23.737223     6.526474     5.412417

                             ****ORCA TERMINATED NORMALLY****
TOTAL RUN TIME: 0 days 0 hours 11 minutes 34 seconds 506 msec
