                         Program Version 4.2.0 -  RELEASE  -
|  1> # ORCA input file
|  2> # SCF done       -212.684283581755          0.000831269053
|  3> ! CAM-B3LYP def2-SVP def2/J RIJCOSX Grid4 TightSCF
|  4> %maxcore 5000
|  5> %tddft
|  6>     Mode sTDDFT
|  7>     Ethresh 5.0
|  8>     maxcore 5000
|  9> end
| 10>
| 11> %pal
| 12>   nprocs 6
| 13>   end
| 14> * xyz 0 1
| 15>    C        2.98933        -5.17264        -4.26807
| 16>    C        2.07272        -6.14902        -4.54431
| 17>    F        2.49574        -7.36169        -4.93616
| 18>    C        0.69090        -5.93590        -4.43363
| 19>    C        0.23961        -4.70866        -4.03527
| 20>    C        1.14058        -3.66492        -3.73779
| 21>    C        2.54271        -3.90209        -3.85483
| 22>    C        3.46581        -2.87519        -3.55460
| 23>    C        3.00150        -1.65202        -3.14746
| 24>    C        1.59819        -1.41539        -3.04831
| 25>    C        0.68520        -2.39156        -3.33231
| 26>    C        1.35808        -0.02244        -2.64239
| 27>    O        0.31310         0.52902        -2.40924
| 28>    C        2.71845         0.61664        -2.65170
| 29>    C        3.71115        -0.44568        -2.75000
| 30>    C        5.02290        -0.36805        -2.37688
| 31>    C        5.60959         0.77364        -1.79548
| 32>    N        6.11825         1.66771        -1.28575
| 33>    C        5.93104        -1.44675        -2.46669
| 34>    N        6.71159        -2.28424        -2.53165
| 35>    C        2.82010         1.95139        -2.75133
| 36>    C        3.99753         2.74575        -3.05471
| 37>    C        4.35628         3.80922        -2.22415
| 38>    C        3.72402         4.24121        -0.95640
| 39>    O        2.72577         3.83305        -0.42727
| 40>    N        4.54428         5.25891        -0.45303
| 41>    C        5.62610         5.53944        -1.29537
| 42>    O        6.46152         6.38101        -1.12307
| 43>    C        5.49535         4.58257        -2.43060
| 44>    C        6.32783         4.37812        -3.51510
| 45>    C        5.96310         3.34899        -4.37495
| 46>    C        4.84346         2.54275        -4.15982
| 47>    C        4.64753         1.50548        -5.19453
| 48>    O        3.77735         0.68674        -5.26911
| 49>    S        5.96636         1.61428        -6.40201
| 50>    C        6.75072         3.00909        -5.57938
| 51>    O        7.73906         3.53900        -5.97785
| 52>    C        4.27097         5.83613         0.78169
| 53>    C        5.10156         6.61837         1.48382
| 54>    C        4.75198         7.09101         2.78967
| 55>    C        5.65003         7.65034         3.61921
| 56>    C        5.36433         8.01634         4.98680
| 57>    C        4.19797         8.68046         5.39704
| 58>    C        3.12682         9.31168         4.58317
| 59>    O        2.97896         9.32955         3.39105
| 60>    N        2.26165         9.91989         5.50726
| 61>    C        2.66423         9.70636         6.83573
| 62>    O        2.06744        10.08525         7.80366
| 63>    C        3.93582         8.95423         6.74146
| 64>    C        4.80218         8.60538         7.76053
| 65>    C        5.98312         7.99000         7.36506
| 66>    C        6.26541         7.70793         6.03037
| 67>    C        7.56142         7.03159         5.82667
| 68>    O        8.04656         6.64209         4.80787
| 69>    S        8.38160         6.83413         7.41963
| 70>    C        7.03234         7.58528         8.32698
| 71>    O        7.01682         7.71548         9.51219
| 72>    C        1.22857        10.79437         5.22699
| 73>    C        0.99458        11.35225         4.02874
| 74>    C        0.03420        12.39056         3.85694
| 75>    C        0.07165        13.34851         2.89819
| 76>    C       -1.12169        14.20232         2.63463
| 77>    O       -2.10745        14.29554         3.32788
| 78>    C       -0.85391        14.85015         1.33792
| 79>    C       -1.66959        15.66164         0.60271
| 80>    C       -1.21012        16.16317        -0.63496
| 81>    C        0.08960        15.79999        -1.09472
| 82>    C        0.53980        16.29680        -2.33354
| 83>    C       -0.27435        17.11794        -3.06298
| 84>    C       -1.55381        17.48923        -2.62641
| 85>    C       -2.00790        17.01366        -1.42794
| 86>    F        0.15412        17.59482        -4.24474
| 87>    C        0.91455        14.96068        -0.31068
| 88>    C        0.45533        14.50056         0.89464
| 89>    C        1.09392        13.68299         1.92390
| 90>    C        2.44295        13.47531         2.04000
| 91>    C        3.09999        12.94696         3.17201
| 92>    N        3.71373        12.58612         4.07327
| 93>    C        3.38005        13.87867         1.06305
| 94>    N        4.18313        14.17241         0.29807
| 95>    H        4.04521        -5.37287        -4.36155
| 96>    H        0.01575        -6.74421        -4.66576
| 97>    H       -0.81950        -4.52133        -3.94335
| 98>    H        4.51950        -3.07638        -3.66570
| 99>    H       -0.37274        -2.19320        -3.24793
|100>    H        1.90609         2.51241        -2.57947
|101>    H        7.21522         4.96633        -3.68622
|102>    H        3.30084         5.54021         1.16158
|103>    H        6.07637         6.87749         1.10028
|104>    H        3.73873         6.91003         3.12075
|105>    H        6.68019         7.73904         3.30378
|106>    H        4.59227         8.81522         8.79688
|107>    H        0.68626        11.09238         6.11615
|108>    H        1.58099        11.05465         3.17249
|109>    H       -0.81282        12.42403         4.53325
|110>    H       -2.65353        15.92054         0.96406
|111>    H        1.52078        16.03562        -2.69861
|112>    H       -2.15055        18.14090        -3.24468
|113>    H       -2.98962        17.28552        -1.07051
|114>    H        1.88947        14.69710        -0.68861
|115> *
|116>
|117>                          ****END OF INPUT****

CARTESIAN COORDINATES (ANGSTROEM)
---------------------------------
  C      2.989330   -5.172640   -4.268070
  C      2.072720   -6.149020   -4.544310
  F      2.495740   -7.361690   -4.936160
  C      0.690900   -5.935900   -4.433630
  C      0.239610   -4.708660   -4.035270
  C      1.140580   -3.664920   -3.737790
  C      2.542710   -3.902090   -3.854830
  C      3.465810   -2.875190   -3.554600
  C      3.001500   -1.652020   -3.147460
  C      1.598190   -1.415390   -3.048310
  C      0.685200   -2.391560   -3.332310
  C      1.358080   -0.022440   -2.642390
  O      0.313100    0.529020   -2.409240
  C      2.718450    0.616640   -2.651700
  C      3.711150   -0.445680   -2.750000
  C      5.022900   -0.368050   -2.376880
  C      5.609590    0.773640   -1.795480
  N      6.118250    1.667710   -1.285750
  C      5.931040   -1.446750   -2.466690
  N      6.711590   -2.284240   -2.531650
  C      2.820100    1.951390   -2.751330
  C      3.997530    2.745750   -3.054710
  C      4.356280    3.809220   -2.224150
  C      3.724020    4.241210   -0.956400
  O      2.725770    3.833050   -0.427270
  N      4.544280    5.258910   -0.453030
  C      5.626100    5.539440   -1.295370
  O      6.461520    6.381010   -1.123070
  C      5.495350    4.582570   -2.430600
  C      6.327830    4.378120   -3.515100
  C      5.963100    3.348990   -4.374950
  C      4.843460    2.542750   -4.159820
  C      4.647530    1.505480   -5.194530
  O      3.777350    0.686740   -5.269110
  S      5.966360    1.614280   -6.402010
  C      6.750720    3.009090   -5.579380
  O      7.739060    3.539000   -5.977850
  C      4.270970    5.836130    0.781690
  C      5.101560    6.618370    1.483820
  C      4.751980    7.091010    2.789670
  C      5.650030    7.650340    3.619210
  C      5.364330    8.016340    4.986800
  C      4.197970    8.680460    5.397040
  C      3.126820    9.311680    4.583170
  O      2.978960    9.329550    3.391050
  N      2.261650    9.919890    5.507260
  C      2.664230    9.706360    6.835730
  O      2.067440   10.085250    7.803660
  C      3.935820    8.954230    6.741460
  C      4.802180    8.605380    7.760530
  C      5.983120    7.990000    7.365060
  C      6.265410    7.707930    6.030370
  C      7.561420    7.031590    5.826670
  O      8.046560    6.642090    4.807870
  S      8.381600    6.834130    7.419630
  C      7.032340    7.585280    8.326980
  O      7.016820    7.715480    9.512190
  C      1.228570   10.794370    5.226990
  C      0.994580   11.352250    4.028740
  C      0.034200   12.390560    3.856940
  C      0.071650   13.348510    2.898190
  C     -1.121690   14.202320    2.634630
  O     -2.107450   14.295540    3.327880
  C     -0.853910   14.850150    1.337920
  C     -1.669590   15.661640    0.602710
  C     -1.210120   16.163170   -0.634960
  C      0.089600   15.799990   -1.094720
  C      0.539800   16.296800   -2.333540
  C     -0.274350   17.117940   -3.062980
  C     -1.553810   17.489230   -2.626410
  C     -2.007900   17.013660   -1.427940
  F      0.154120   17.594820   -4.244740
  C      0.914550   14.960680   -0.310680
  C      0.455330   14.500560    0.894640
  C      1.093920   13.682990    1.923900
  C      2.442950   13.475310    2.040000
  C      3.099990   12.946960    3.172010
  N      3.713730   12.586120    4.073270
  C      3.380050   13.878670    1.063050
  N      4.183130   14.172410    0.298070
  H      4.045210   -5.372870   -4.361550
  H      0.015750   -6.744210   -4.665760
  H     -0.819500   -4.521330   -3.943350
  H      4.519500   -3.076380   -3.665700
  H     -0.372740   -2.193200   -3.247930
  H      1.906090    2.512410   -2.579470
  H      7.215220    4.966330   -3.686220
  H      3.300840    5.540210    1.161580
  H      6.076370    6.877490    1.100280
  H      3.738730    6.910030    3.120750
  H      6.680190    7.739040    3.303780
  H      4.592270    8.815220    8.796880
  H      0.686260   11.092380    6.116150
  H      1.580990   11.054650    3.172490
  H     -0.812820   12.424030    4.533250
  H     -2.653530   15.920540    0.964060
  H      1.520780   16.035620   -2.698610
  H     -2.150550   18.140900   -3.244680
  H     -2.989620   17.285520   -1.070510
  H      1.889470   14.697100   -0.688610

 Total Charge           Charge          ....    0
 Multiplicity           Mult            ....    1
 Number of Electrons    NEL             ....  552
 Basis Dimension        Dim             .... 1228

ORBITAL ENERGIES
----------------

  NO   OCC          E(Eh)            E(eV)
   0   2.0000     -88.963842     -2420.8292
   1   2.0000     -88.952248     -2420.5137
   2   2.0000     -24.793649      -674.6695
   3   2.0000     -24.787252      -674.4954
   4   2.0000     -19.256865      -524.0059
   5   2.0000     -19.255548      -523.9701
   6   2.0000     -19.245860      -523.7065
   7   2.0000     -19.245555      -523.6982
   8   2.0000     -19.245176      -523.6879
   9   2.0000     -19.243199      -523.6341
  10   2.0000     -19.242478      -523.6144
  11   2.0000     -19.240026      -523.5477
  12   2.0000     -19.228374      -523.2307
  13   2.0000     -19.215028      -522.8675
  14   2.0000     -14.493829      -394.3971
  15   2.0000     -14.493359      -394.3844
  16   2.0000     -14.434387      -392.7796
  17   2.0000     -14.430081      -392.6625
  18   2.0000     -14.418593      -392.3499
  19   2.0000     -14.417933      -392.3319
  20   2.0000     -10.423468      -283.6370
  21   2.0000     -10.422414      -283.6083
  22   2.0000     -10.422170      -283.6017
  23   2.0000     -10.420809      -283.5646
  24   2.0000     -10.420688      -283.5613
  25   2.0000     -10.416221      -283.4398
  26   2.0000     -10.408030      -283.2169
  27   2.0000     -10.406436      -283.1735
  28   2.0000     -10.379000      -282.4269
  29   2.0000     -10.378225      -282.4059
  30   2.0000     -10.370938      -282.2076
  31   2.0000     -10.366049      -282.0745
  32   2.0000     -10.361303      -281.9454
  33   2.0000     -10.357993      -281.8553
  34   2.0000     -10.351224      -281.6711
  35   2.0000     -10.347799      -281.5779
  36   2.0000     -10.344999      -281.5017
  37   2.0000     -10.344756      -281.4951
  38   2.0000     -10.341773      -281.4139
  39   2.0000     -10.338442      -281.3233
  40   2.0000     -10.337859      -281.3074
  41   2.0000     -10.337105      -281.2869
  42   2.0000     -10.334148      -281.2065
  43   2.0000     -10.333710      -281.1945
  44   2.0000     -10.333159      -281.1796
  45   2.0000     -10.331728      -281.1406
  46   2.0000     -10.330916      -281.1185
  47   2.0000     -10.330382      -281.1040
  48   2.0000     -10.328808      -281.0612
  49   2.0000     -10.327762      -281.0327
  50   2.0000     -10.327102      -281.0147
  51   2.0000     -10.326128      -280.9882
  52   2.0000     -10.323475      -280.9160
  53   2.0000     -10.322476      -280.8889
  54   2.0000     -10.320350      -280.8310
  55   2.0000     -10.319081      -280.7965
  56   2.0000     -10.318216      -280.7729
  57   2.0000     -10.317397      -280.7506
  58   2.0000     -10.315944      -280.7111
  59   2.0000     -10.311241      -280.5831
  60   2.0000     -10.310368      -280.5594
  61   2.0000     -10.309372      -280.5323
  62   2.0000     -10.308037      -280.4960
  63   2.0000     -10.307668      -280.4859
  64   2.0000     -10.306187      -280.4456
  65   2.0000     -10.303104      -280.3617
  66   2.0000     -10.302769      -280.3526
  67   2.0000     -10.301390      -280.3151
  68   2.0000     -10.301347      -280.3139
  69   2.0000     -10.299915      -280.2749
  70   2.0000     -10.299211      -280.2558
  71   2.0000     -10.297504      -280.2093
  72   2.0000     -10.297024      -280.1963
  73   2.0000     -10.296119      -280.1716
  74   2.0000     -10.294112      -280.1170
  75   2.0000     -10.291855      -280.0556
  76   2.0000     -10.291241      -280.0389
  77   2.0000     -10.290451      -280.0174
  78   2.0000     -10.283926      -279.8399
  79   2.0000     -10.283493      -279.8281
  80   2.0000      -8.063043      -219.4065
  81   2.0000      -8.051521      -219.0930
  82   2.0000      -6.031858      -164.1352
  83   2.0000      -6.028624      -164.0472
  84   2.0000      -6.024130      -163.9249
  85   2.0000      -6.020370      -163.8226
  86   2.0000      -6.017123      -163.7342
  87   2.0000      -6.012560      -163.6101
  88   2.0000      -1.309392       -35.6304
  89   2.0000      -1.302458       -35.4417
  90   2.0000      -1.190814       -32.4037
  91   2.0000      -1.189585       -32.3703
  92   2.0000      -1.181752       -32.1571
  93   2.0000      -1.177542       -32.0425
  94   2.0000      -1.170737       -31.8574
  95   2.0000      -1.167677       -31.7741
  96   2.0000      -1.166613       -31.7452
  97   2.0000      -1.165650       -31.7190
  98   2.0000      -1.144941       -31.1554
  99   2.0000      -1.130495       -30.7623
 100   2.0000      -1.083607       -29.4864
 101   2.0000      -1.082770       -29.4637
 102   2.0000      -1.036921       -28.2161
 103   2.0000      -1.024469       -27.8772
 104   2.0000      -1.021341       -27.7921
 105   2.0000      -1.015674       -27.6379
 106   2.0000      -1.014112       -27.5954
 107   2.0000      -1.009412       -27.4675
 108   2.0000      -1.002572       -27.2814
 109   2.0000      -0.996641       -27.1200
 110   2.0000      -0.988058       -26.8864
 111   2.0000      -0.978190       -26.6179
 112   2.0000      -0.966427       -26.2978
 113   2.0000      -0.960098       -26.1256
 114   2.0000      -0.944748       -25.7079
 115   2.0000      -0.935347       -25.4521
 116   2.0000      -0.932324       -25.3698
 117   2.0000      -0.929174       -25.2841
 118   2.0000      -0.917893       -24.9771
 119   2.0000      -0.909237       -24.7416
 120   2.0000      -0.905662       -24.6443
 121   2.0000      -0.898517       -24.4499
 122   2.0000      -0.896169       -24.3860
 123   2.0000      -0.888546       -24.1786
 124   2.0000      -0.883257       -24.0346
 125   2.0000      -0.880322       -23.9548
 126   2.0000      -0.865922       -23.5629
 127   2.0000      -0.845973       -23.0201
 128   2.0000      -0.844711       -22.9858
 129   2.0000      -0.839281       -22.8380
 130   2.0000      -0.835438       -22.7334
 131   2.0000      -0.812890       -22.1199
 132   2.0000      -0.807128       -21.9631
 133   2.0000      -0.804493       -21.8914
 134   2.0000      -0.797705       -21.7066
 135   2.0000      -0.790560       -21.5122
 136   2.0000      -0.776156       -21.1203
 137   2.0000      -0.773545       -21.0492
 138   2.0000      -0.761780       -20.7291
 139   2.0000      -0.760754       -20.7012
 140   2.0000      -0.754627       -20.5344
 141   2.0000      -0.741217       -20.1695
 142   2.0000      -0.733020       -19.9465
 143   2.0000      -0.724991       -19.7280
 144   2.0000      -0.719872       -19.5887
 145   2.0000      -0.716584       -19.4992
 146   2.0000      -0.711281       -19.3549
 147   2.0000      -0.707550       -19.2534
 148   2.0000      -0.702483       -19.1155
 149   2.0000      -0.696224       -18.9452
 150   2.0000      -0.695062       -18.9136
 151   2.0000      -0.683437       -18.5973
 152   2.0000      -0.681721       -18.5506
 153   2.0000      -0.679228       -18.4827
 154   2.0000      -0.673698       -18.3322
 155   2.0000      -0.653266       -17.7763
 156   2.0000      -0.650675       -17.7058
 157   2.0000      -0.643456       -17.5093
 158   2.0000      -0.640413       -17.4265
 159   2.0000      -0.639491       -17.4014
 160   2.0000      -0.637284       -17.3414
 161   2.0000      -0.631960       -17.1965
 162   2.0000      -0.631263       -17.1775
 163   2.0000      -0.628898       -17.1132
 164   2.0000      -0.625561       -17.0224
 165   2.0000      -0.621647       -16.9159
 166   2.0000      -0.619401       -16.8548
 167   2.0000      -0.614318       -16.7164
 168   2.0000      -0.612030       -16.6542
 169   2.0000      -0.599626       -16.3167
 170   2.0000      -0.597851       -16.2684
 171   2.0000      -0.596523       -16.2322
 172   2.0000      -0.588896       -16.0247
 173   2.0000      -0.585395       -15.9294
 174   2.0000      -0.583659       -15.8822
 175   2.0000      -0.579229       -15.7616
 176   2.0000      -0.577775       -15.7220
 177   2.0000      -0.574058       -15.6209
 178   2.0000      -0.572850       -15.5880
 179   2.0000      -0.570359       -15.5203
 180   2.0000      -0.568803       -15.4779
 181   2.0000      -0.567970       -15.4552
 182   2.0000      -0.566442       -15.4137
 183   2.0000      -0.563446       -15.3321
 184   2.0000      -0.559926       -15.2364
 185   2.0000      -0.558438       -15.1959
 186   2.0000      -0.557633       -15.1740
 187   2.0000      -0.556842       -15.1524
 188   2.0000      -0.556322       -15.1383
 189   2.0000      -0.552392       -15.0313
 190   2.0000      -0.550283       -14.9740
 191   2.0000      -0.549092       -14.9415
 192   2.0000      -0.544486       -14.8162
 193   2.0000      -0.543187       -14.7809
 194   2.0000      -0.541897       -14.7458
 195   2.0000      -0.540459       -14.7066
 196   2.0000      -0.539453       -14.6793
 197   2.0000      -0.536158       -14.5896
 198   2.0000      -0.533103       -14.5065
 199   2.0000      -0.532621       -14.4934
 200   2.0000      -0.529817       -14.4171
 201   2.0000      -0.526776       -14.3343
 202   2.0000      -0.525244       -14.2926
 203   2.0000      -0.524712       -14.2781
 204   2.0000      -0.524410       -14.2699
 205   2.0000      -0.521138       -14.1809
 206   2.0000      -0.519540       -14.1374
 207   2.0000      -0.516346       -14.0505
 208   2.0000      -0.511896       -13.9294
 209   2.0000      -0.510138       -13.8816
 210   2.0000      -0.509726       -13.8704
 211   2.0000      -0.508215       -13.8292
 212   2.0000      -0.507813       -13.8183
 213   2.0000      -0.506126       -13.7724
 214   2.0000      -0.500746       -13.6260
 215   2.0000      -0.499330       -13.5875
 216   2.0000      -0.498934       -13.5767
 217   2.0000      -0.494562       -13.4577
 218   2.0000      -0.493910       -13.4400
 219   2.0000      -0.491007       -13.3610
 220   2.0000      -0.489404       -13.3174
 221   2.0000      -0.485869       -13.2212
 222   2.0000      -0.484551       -13.1853
 223   2.0000      -0.482039       -13.1170
 224   2.0000      -0.479373       -13.0444
 225   2.0000      -0.476633       -12.9698
 226   2.0000      -0.471622       -12.8335
 227   2.0000      -0.468931       -12.7603
 228   2.0000      -0.466562       -12.6958
 229   2.0000      -0.465719       -12.6728
 230   2.0000      -0.459853       -12.5132
 231   2.0000      -0.457553       -12.4507
 232   2.0000      -0.455584       -12.3971
 233   2.0000      -0.454202       -12.3595
 234   2.0000      -0.450556       -12.2603
 235   2.0000      -0.450340       -12.2544
 236   2.0000      -0.445565       -12.1244
 237   2.0000      -0.443366       -12.0646
 238   2.0000      -0.440853       -11.9962
 239   2.0000      -0.439062       -11.9475
 240   2.0000      -0.438732       -11.9385
 241   2.0000      -0.435950       -11.8628
 242   2.0000      -0.431449       -11.7403
 243   2.0000      -0.427464       -11.6319
 244   2.0000      -0.427409       -11.6304
 245   2.0000      -0.421669       -11.4742
 246   2.0000      -0.414398       -11.2764
 247   2.0000      -0.413098       -11.2410
 248   2.0000      -0.407173       -11.0797
 249   2.0000      -0.402839       -10.9618
 250   2.0000      -0.394609       -10.7379
 251   2.0000      -0.391278       -10.6472
 252   2.0000      -0.390203       -10.6180
 253   2.0000      -0.383995       -10.4490
 254   2.0000      -0.382931       -10.4201
 255   2.0000      -0.379462       -10.3257
 256   2.0000      -0.378815       -10.3081
 257   2.0000      -0.376818       -10.2537
 258   2.0000      -0.372917       -10.1476
 259   2.0000      -0.371890       -10.1197
 260   2.0000      -0.368590       -10.0299
 261   2.0000      -0.364058        -9.9065
 262   2.0000      -0.363108        -9.8807
 263   2.0000      -0.360383        -9.8065
 264   2.0000      -0.356633        -9.7045
 265   2.0000      -0.349336        -9.5059
 266   2.0000      -0.349046        -9.4980
 267   2.0000      -0.347382        -9.4527
 268   2.0000      -0.337297        -9.1783
 269   2.0000      -0.337161        -9.1746
 270   2.0000      -0.324152        -8.8206
 271   2.0000      -0.316820        -8.6211
 272   2.0000      -0.307534        -8.3684
 273   2.0000      -0.303783        -8.2664
 274   2.0000      -0.294253        -8.0070
 275   2.0000      -0.285404        -7.7662
 276   0.0000      -0.110796        -3.0149
 277   0.0000      -0.100940        -2.7467
 278   0.0000      -0.096226        -2.6184
 279   0.0000      -0.093254        -2.5376
 280   0.0000      -0.069916        -1.9025

MULLIKEN ATOMIC CHARGES
-----------------------
   0 C :   -0.098888
   1 C :    0.304620
   2 F :   -0.185610
   3 C :   -0.026803
   4 C :   -0.010626
   5 C :    0.104184
   6 C :    0.104804
   7 C :   -0.086107
   8 C :    0.059137
   9 C :    0.006712
  10 C :   -0.078251
  11 C :    0.140703
  12 O :   -0.123167
  13 C :   -0.074947
  14 C :    0.292133
  15 C :   -0.348170
  16 C :   -0.174415
  17 N :    0.159917
  18 C :   -0.185073
  19 N :    0.170473
  20 C :    0.006651
  21 C :   -0.050827
  22 C :    0.016798
  23 C :    0.197046
  24 O :   -0.136503
  25 N :   -0.237860
  26 C :    0.218643
  27 O :   -0.122258
  28 C :    0.031612
  29 C :   -0.057360
  30 C :    0.057080
  31 C :    0.058212
  32 C :    0.041396
  33 O :   -0.134465
  34 S :    0.025838
  35 C :    0.047592
  36 O :   -0.106440
  37 C :    0.089264
  38 C :    0.006650
  39 C :    0.069341
  40 C :   -0.053668
  41 C :    0.047236
  42 C :   -0.043192
  43 C :    0.221294
  44 O :   -0.135476
  45 N :   -0.238656
  46 C :    0.203422
  47 O :   -0.125771
  48 C :    0.015685
  49 C :   -0.073902
  50 C :    0.047478
  51 C :    0.049220
  52 C :    0.035368
  53 O :   -0.121548
  54 S :    0.014080
  55 C :    0.050663
  56 O :   -0.116271
  57 C :    0.108483
  58 C :   -0.007003
  59 C :    0.026570
  60 C :   -0.121265
  61 C :    0.144213
  62 O :   -0.139063
  63 C :   -0.002447
  64 C :   -0.074366
  65 C :    0.100717
  66 C :    0.099014
  67 C :   -0.096291
  68 C :    0.303774
  69 C :   -0.032473
  70 C :   -0.006772
  71 F :   -0.188728
  72 C :   -0.082450
  73 C :    0.042842
  74 C :    0.289695
  75 C :   -0.331389
  76 C :   -0.186443
  77 N :    0.145056
  78 C :   -0.181676
  79 N :    0.149175
  80 H :    0.001916
  81 H :    0.008261
  82 H :   -0.004829
  83 H :   -0.001189
  84 H :   -0.006678
  85 H :    0.048709
  86 H :    0.024411
  87 H :    0.032402
  88 H :    0.035011
  89 H :   -0.001871
  90 H :    0.028011
  91 H :    0.019681
  92 H :    0.043502
  93 H :    0.063557
  94 H :    0.024103
  95 H :   -0.011579
  96 H :   -0.001822
  97 H :    0.005371
  98 H :   -0.008857
  99 H :   -0.004278
Sum of atomic charges:   -0.0000000

LOEWDIN ATOMIC CHARGES
----------------------
   0 C :   -0.040287
   1 C :    0.095001
   2 F :   -0.060206
   3 C :   -0.032247
   4 C :    0.006151
   5 C :   -0.015183
   6 C :    0.005351
   7 C :    0.019746
   8 C :   -0.013828
   9 C :   -0.057416
  10 C :    0.039517
  11 C :    0.089258
  12 O :   -0.124077
  13 C :   -0.049578
  14 C :    0.078319
  15 C :   -0.132244
  16 C :   -0.013290
  17 N :   -0.054033
  18 C :   -0.019424
  19 N :   -0.037828
  20 C :    0.061903
  21 C :    0.018315
  22 C :   -0.021652
  23 C :    0.102756
  24 O :   -0.125849
  25 N :   -0.011470
  26 C :    0.105223
  27 O :   -0.115176
  28 C :   -0.015466
  29 C :    0.054115
  30 C :   -0.046727
  31 C :   -0.056182
  32 C :   -0.046516
  33 O :   -0.117958
  34 S :    0.312035
  35 C :   -0.043114
  36 O :   -0.098991
  37 C :    0.039519
  38 C :   -0.033050
  39 C :    0.028578
  40 C :   -0.039438
  41 C :    0.041228
  42 C :   -0.037450
  43 C :    0.110391
  44 O :   -0.119011
  45 N :   -0.010296
  46 C :    0.103864
  47 O :   -0.122860
  48 C :   -0.028816
  49 C :    0.036696
  50 C :   -0.049233
  51 C :   -0.057501
  52 C :   -0.040871
  53 O :   -0.105515
  54 S :    0.301960
  55 C :   -0.047739
  56 O :   -0.108962
  57 C :    0.079060
  58 C :   -0.053328
  59 C :    0.077003
  60 C :   -0.094560
  61 C :    0.081729
  62 O :   -0.142240
  63 C :   -0.060173
  64 C :    0.035355
  65 C :   -0.018307
  66 C :    0.003166
  67 C :   -0.041538
  68 C :    0.093111
  69 C :   -0.036221
  70 C :    0.005149
  71 F :   -0.063622
  72 C :    0.012549
  73 C :   -0.018222
  74 C :    0.073078
  75 C :   -0.133399
  76 C :   -0.011596
  77 N :   -0.062759
  78 C :   -0.017282
  79 N :   -0.048845
  80 H :    0.044569
  81 H :    0.043770
  82 H :    0.037271
  83 H :    0.040662
  84 H :    0.041691
  85 H :    0.056951
  86 H :    0.054766
  87 H :    0.036272
  88 H :    0.039508
  89 H :    0.027482
  90 H :    0.038402
  91 H :    0.052015
  92 H :    0.041285
  93 H :    0.038769
  94 H :    0.047064
  95 H :    0.039939
  96 H :    0.043406
  97 H :    0.042317
  98 H :    0.035985
  99 H :    0.039329

  Mayer bond orders larger than 0.100000
B(  0-C ,  1-C ) :   1.4429 B(  0-C ,  6-C ) :   1.1983 B(  0-C , 80-H ) :   1.0071
B(  1-C ,  2-F ) :   1.0932 B(  1-C ,  3-C ) :   1.2503 B(  3-C ,  4-C ) :   1.4646
B(  3-C , 81-H ) :   0.9927 B(  4-C ,  5-C ) :   1.2305 B(  4-C , 82-H ) :   0.9980
B(  5-C ,  6-C ) :   1.2484 B(  5-C , 10-C ) :   1.1998 B(  6-C ,  7-C ) :   1.2124
B(  7-C ,  8-C ) :   1.4475 B(  7-C , 83-H ) :   0.9947 B(  8-C ,  9-C ) :   1.2146
B(  8-C , 14-C ) :   1.0173 B(  9-C , 10-C ) :   1.4610 B(  9-C , 11-C ) :   0.9232
B( 10-C , 84-H ) :   1.0160 B( 11-C , 12-O ) :   2.2919 B( 11-C , 13-C ) :   0.9148
B( 13-C , 14-C ) :   0.9813 B( 13-C , 20-C ) :   1.8323 B( 14-C , 15-C ) :   1.6747
B( 15-C , 16-C ) :   1.1747 B( 15-C , 18-C ) :   1.1257 B( 16-C , 17-N ) :   2.9886
B( 18-C , 19-N ) :   2.9934 B( 20-C , 21-C ) :   0.9906 B( 20-C , 85-H ) :   0.9217
B( 21-C , 22-C ) :   1.4266 B( 21-C , 31-C ) :   1.3717 B( 22-C , 23-C ) :   0.8870
B( 22-C , 28-C ) :   1.3922 B( 23-C , 24-O ) :   2.1846 B( 23-C , 25-N ) :   1.0456
B( 25-N , 26-C ) :   1.0199 B( 25-N , 37-C ) :   1.0060 B( 26-C , 27-O ) :   2.2316
B( 26-C , 28-C ) :   0.8721 B( 28-C , 29-C ) :   1.3277 B( 29-C , 30-C ) :   1.3419
B( 29-C , 86-H ) :   1.0244 B( 30-C , 31-C ) :   1.3345 B( 30-C , 35-C ) :   0.8364
B( 31-C , 32-C ) :   0.8513 B( 32-C , 33-O ) :   2.1564 B( 32-C , 34-S ) :   1.0441
B( 33-O , 34-S ) :   0.1085 B( 34-S , 35-C ) :   1.0154 B( 34-S , 36-O ) :   0.1059
B( 35-C , 36-O ) :   2.2344 B( 37-C , 38-C ) :   1.7090 B( 37-C , 87-H ) :   0.9715
B( 38-C , 39-C ) :   1.1105 B( 38-C , 88-H ) :   0.9737 B( 39-C , 40-C ) :   1.7222
B( 39-C , 89-H ) :   0.9794 B( 40-C , 41-C ) :   1.0751 B( 40-C , 90-H ) :   0.9467
B( 41-C , 42-C ) :   1.3613 B( 41-C , 51-C ) :   1.3583 B( 42-C , 43-C ) :   0.9027
B( 42-C , 48-C ) :   1.3790 B( 43-C , 44-O ) :   2.1706 B( 43-C , 45-N ) :   1.0153
B( 45-N , 46-C ) :   1.0064 B( 45-N , 57-C ) :   1.0458 B( 46-C , 47-O ) :   2.2481
B( 46-C , 48-C ) :   0.8806 B( 48-C , 49-C ) :   1.3382 B( 49-C , 50-C ) :   1.3322
B( 49-C , 91-H ) :   1.0297 B( 50-C , 51-C ) :   1.3455 B( 50-C , 55-C ) :   0.8374
B( 51-C , 52-C ) :   0.8579 B( 52-C , 53-O ) :   2.1727 B( 52-C , 54-S ) :   1.0253
B( 53-O , 54-S ) :   0.1050 B( 54-S , 55-C ) :   1.0284 B( 54-S , 56-O ) :   0.1092
B( 55-C , 56-O ) :   2.2253 B( 57-C , 58-C ) :   1.7065 B( 57-C , 92-H ) :   0.9742
B( 58-C , 59-C ) :   1.0973 B( 58-C , 93-H ) :   0.9296 B( 59-C , 60-C ) :   1.6665
B( 59-C , 94-H ) :   0.9564 B( 60-C , 61-C ) :   0.9352 B( 60-C , 74-C ) :   1.0318
B( 61-C , 62-O ) :   2.2796 B( 61-C , 63-C ) :   0.9240 B( 63-C , 64-C ) :   1.4708
B( 63-C , 73-C ) :   1.2182 B( 64-C , 65-C ) :   1.1927 B( 64-C , 95-H ) :   1.0150
B( 65-C , 66-C ) :   1.2566 B( 65-C , 70-C ) :   1.2323 B( 66-C , 67-C ) :   1.2020
B( 66-C , 72-C ) :   1.2056 B( 67-C , 68-C ) :   1.4410 B( 67-C , 96-H ) :   1.0066
B( 68-C , 69-C ) :   1.2544 B( 68-C , 71-F ) :   1.0903 B( 69-C , 70-C ) :   1.4617
B( 69-C , 97-H ) :   0.9927 B( 70-C , 98-H ) :   0.9974 B( 72-C , 73-C ) :   1.4564
B( 72-C , 99-H ) :   0.9929 B( 73-C , 74-C ) :   1.0008 B( 74-C , 75-C ) :   1.6431
B( 75-C , 76-C ) :   1.1618 B( 75-C , 78-C ) :   1.1335 B( 76-C , 77-N ) :   2.9802
B( 78-C , 79-N ) :   2.9813

-----------------------------------------------------------------------------
         ABSORPTION SPECTRUM VIA TRANSITION ELECTRIC DIPOLE MOMENTS
-----------------------------------------------------------------------------
State   Energy  Wavelength   fosc         T2         TX        TY        TZ
        (cm-1)    (nm)                  (au**2)     (au)      (au)      (au)
-----------------------------------------------------------------------------
   0   22001.0    454.5   0.047621048   0.71258  -0.64742   0.49167  -0.22734
   1   22734.9    439.9   0.005171758   0.07489  -0.16828   0.07735   0.20147
   2   25033.2    399.5   0.328194820   4.31610   0.12228   1.97838   0.62223
   3   25464.6    392.7   0.094640030   1.22353  -0.12940  -1.08940   0.14140
   4   25629.8    390.2   0.192410871   2.47150   0.19367  -0.51837   1.47149
   5   26242.6    381.1   0.068993018   0.86551   0.02024  -0.64033   0.67460
   6   26360.5    379.4   0.047472701   0.59288  -0.09696   0.29461  -0.70476
   7   27645.3    361.7   0.047824069   0.56951  -0.11255   0.64549   0.37441
   8   28044.6    356.6   0.263649307   3.09495   0.12506   0.11696  -1.75089
   9   28058.3    356.4   0.099186644   1.16377  -0.82130  -0.41940  -0.55976
  10   28715.2    348.2   0.043512695   0.49886  -0.17417  -0.65347  -0.20372
  11   28948.1    345.4   0.011151555   0.12682   0.25061  -0.13279   0.21537
  12   29146.3    343.1   0.042702931   0.48234  -0.48979   0.24139  -0.42915
  13   29694.1    336.8   0.022102455   0.24504   0.41353   0.15246   0.22537
  14   30471.6    328.2   0.167164966   1.80603  -0.27460  -1.31183   0.09860
  15   30507.8    327.8   0.011888146   0.12829   0.18662  -0.08318   0.29417
  16   31313.8    319.3   0.441188611   4.63835  -0.14268   1.34602   1.67518
  17   31832.2    314.1   0.012951747   0.13395   0.23860  -0.09368   0.26124
  18   31987.0    312.6   0.015240586   0.15686  -0.19363   0.21152   0.27317
  19   32904.4    303.9   0.010413829   0.10419   0.31274  -0.05017   0.06220
  20   33083.8    302.3   0.211153880   2.10116   1.06172  -0.48516   0.85938
  21   33160.9    301.6   0.099290072   0.98572  -0.09799  -0.81605   0.55694
  22   33187.5    301.3   0.006513163   0.06461  -0.19724  -0.12925  -0.09488
  23   33252.1    300.7   0.027007336   0.26739  -0.05189   0.02619  -0.51382
  24   33273.7    300.5   0.011366926   0.11246  -0.28520   0.01766   0.17554
  25   33481.2    298.7   0.021450579   0.21092  -0.28615   0.16475  -0.31921
  26   33671.5    297.0   0.018135339   0.17731   0.02856  -0.23065   0.35114
  27   33780.4    296.0   0.961203608   9.36756   1.72450  -1.73148   1.84272
  28   33964.6    294.4   0.243452464   2.35973   0.75975  -0.41017   1.27054
  29   34231.4    292.1   0.134727845   1.29571   0.79593   0.61922   0.52799
  30   34313.2    291.4   0.088310172   0.84728  -0.58876   0.34802  -0.61606
  31   34660.7    288.5   0.200510214   1.90447   0.34520   1.30744   0.27550
  32   34685.1    288.3   0.597386143   5.67006   1.32162   1.90337   0.54827
  33   34734.4    287.9   0.016625945   0.15758  -0.18893   0.13937  -0.32010
  34   35507.4    281.6   0.102733136   0.95250   0.08257   0.95354  -0.19092
  35   35558.4    281.2   0.292417463   2.70730  -0.68295   0.71495  -1.31519
  36   36018.1    277.6   0.017682695   0.16162  -0.29910   0.06386  -0.26093
  37   36401.6    274.7   0.002834950   0.02564   0.04777  -0.07397   0.13373
  38   36436.7    274.4   0.006901705   0.06236   0.17924  -0.09665  -0.14454
  39   36781.0    271.9   0.085372871   0.76414  -0.50970  -0.70993  -0.01854
  40   36918.4    270.9   0.003946823   0.03519  -0.11497   0.06286  -0.13426
  41   37579.9    266.1   0.138493906   1.21325  -0.37077  -0.68698  -0.77707
  42   37587.5    266.0   0.020668931   0.18103  -0.31120   0.28710  -0.04193
  43   37698.3    265.3   0.054125414   0.47267   0.56981  -0.26813   0.27585
  44   37786.1    264.6   0.002587145   0.02254  -0.11260   0.08229  -0.05559
  45   37856.9    264.2   0.050501585   0.43917  -0.27605   0.08191   0.59687
  46   38180.3    261.9   0.010673030   0.09203  -0.15074   0.26064   0.03707
  47   38338.9    260.8   0.038380023   0.32956   0.31213   0.16892  -0.45123
  48   38572.5    259.3   0.009447695   0.08063   0.15660  -0.19475  -0.13486
  49   38857.1    257.4   0.104175980   0.88262   0.23598  -0.90924  -0.01464
  50   38997.4    256.4   0.000445481   0.00376   0.06022  -0.00857   0.00776
  51   39111.1    255.7   0.029832529   0.25111   0.50049  -0.00060  -0.02489
  52   39139.3    255.5   0.025801973   0.21703   0.03276  -0.41587  -0.20738
  53   39218.5    255.0   0.000516253   0.00433   0.04068  -0.00520   0.05150
  54   39405.1    253.8   0.048014666   0.40114   0.57783  -0.04306  -0.25573
  55   39701.2    251.9   0.026760339   0.22190  -0.38052   0.27060   0.06236
  56   39777.7    251.4   0.152363372   1.26100  -0.85130  -0.59863  -0.42182
  57   39826.0    251.1   0.023301609   0.19262  -0.35865  -0.12058   0.22238
  58   40072.3    249.5   0.059250856   0.48677  -0.68661  -0.12284   0.01589

FINAL SINGLE POINT ENERGY     -4370.647180970789

DIPOLE MOMENT
-------------
                                X             Y             Z
Electronic contribution:     20.37038     -15.21382      -6.00757
Nuclear contribution   :    -23.63576      14.07412       4.34326
                        -----------------------------------------
Total Dipole Moment    :     -3.26538      -1.13971      -1.66431
                        -----------------------------------------
Magnitude (a.u.)       :      3.83817
Magnitude (Debye)      :      9.75585

Rotational constants in cm-1:     0.000811     0.000284     0.000240
Rotational constants in MHz :    24.310059     8.516149     7.207066

                             ****ORCA TERMINATED NORMALLY****
TOTAL RUN TIME: 0 days 0 hours 9 minutes 50 seconds 511 msec
