                         Program Version 4.2.0 -  RELEASE  -
|  1> # ORCA input file
|  2> # SCF done       -209.108189838765          0.000757654509
|  3> ! CAM-B3LYP def2-SVP def2/J RIJCOSX Grid4 TightSCF
|  4> %maxcore 5000
|  5> %tddft
|  6>     Mode sTDDFT
|  7>     Ethresh 5.0
|  8>     maxcore 5000
|  9> end
| 10>
| 11> %pal
| 12>   nprocs 6
| 13>   end
| 14> * xyz 0 1
| 15>    C       -5.38113         3.17711        -1.72454
| 16>    C       -4.55129         2.95803        -0.65427
| 17>    C       -4.98770         2.88583         0.68161
| 18>    N       -5.27577         2.86105         1.79360
| 19>    C       -3.17513         2.68316        -0.78673
| 20>    N       -2.06760         2.38592        -0.85041
| 21>    C       -6.83829         3.09479        -1.69594
| 22>    C       -7.30155         2.89263        -3.02898
| 23>    C       -8.62594         2.72542        -3.30969
| 24>    C       -9.56516         2.76430        -2.25379
| 25>    C       -9.10984         2.97946        -0.92135
| 26>    C       -7.72938         3.14128        -0.65871
| 27>    C      -10.05790         3.02002         0.12089
| 28>    C      -11.39128         2.85397        -0.13757
| 29>    C      -11.83848         2.64163        -1.44989
| 30>    C      -10.94452         2.59738        -2.48511
| 31>    C       -6.15130         2.91623        -3.95503
| 32>    O       -6.15896         2.74231        -5.15301
| 33>    C       -4.98050         3.26285        -3.10848
| 34>    C       -3.83429         3.71278        -3.69555
| 35>    C       -2.77694         4.45479        -3.14155
| 36>    O       -2.81275         5.01387        -1.89569
| 37>    C       -1.67680         5.68734        -1.68143
| 38>    C       -0.84014         5.57757        -2.79412
| 39>    C       -1.56785         4.80484        -3.74735
| 40>    O       -1.17091         4.46440        -4.95850
| 41>    C        0.55242         5.92709        -3.08851
| 42>    O        0.98090         5.79330        -4.21946
| 43>    O        1.36739         6.32618        -2.11863
| 44>    C       -1.51590         6.37959        -0.42337
| 45>    C       -0.76470         7.52890        -0.33829
| 46>    C       -0.54719         8.13303         0.91710
| 47>    C        0.23749         9.21064         1.28978
| 48>    C        1.09043        10.10225         0.44905
| 49>    C        1.96938         9.33639        -0.55925
| 50>    N        2.37993         8.04662        -0.02165
| 51>    C        0.21624        11.13750        -0.28430
| 52>    N        1.05101        12.04103        -1.05515
| 53>    C        0.12108         9.32734         2.72429
| 54>    C        0.70281        10.17139         3.59644
| 55>    C        0.49043        10.05507         5.06289
| 56>    C       -0.51443         9.01690         5.46660
| 57>    C       -1.09702         8.18785         4.58147
| 58>    C       -0.79265         8.27987         3.20167
| 59>    C       -1.18491         7.55386         2.09663
| 60>    C       -2.02007         6.42053         1.95526
| 61>    C       -2.17269         5.84820         0.73610
| 62>    C        0.14632        11.37819         5.69232
| 63>    C       -0.63448        12.29202         5.10500
| 64>    C       -0.93067        13.54267         5.73554
| 65>    O       -0.29168        13.89028         6.86532
| 66>    C       -0.72451        15.08829         7.27125
| 67>    C       -1.69715        15.55627         6.36688
| 68>    C       -1.81744        14.55827         5.37327
| 69>    O       -2.60909        14.54368         4.29536
| 70>    C       -2.44903        16.79970         6.47368
| 71>    O       -2.43036        17.55928         7.40639
| 72>    O       -3.22540        17.02536         5.38467
| 73>    C       -0.18309        15.76677         8.38336
| 74>    C        0.68408        15.29357         9.32536
| 75>    C        1.25209        16.11115        10.38460
| 76>    C        1.36203        17.47645        10.37521
| 77>    C        1.93801        18.22296        11.42442
| 78>    N        2.38804        18.88017        12.25117
| 79>    C        1.00577        18.31046         9.29253
| 80>    N        0.80578        19.04699         8.43529
| 81>    C        1.80537        15.21740        11.39267
| 82>    C        1.71487        13.88275        10.90501
| 83>    C        1.07035        13.87640         9.57792
| 84>    O        0.88492        12.90302         8.88066
| 85>    C        2.18318        12.82082        11.62397
| 86>    C        2.77073        13.04919        12.88833
| 87>    C        2.85581        14.38135        13.38695
| 88>    C        2.36341        15.46169        12.61944
| 89>    C        3.44251        14.59705        14.65052
| 90>    C        3.92494        13.54925        15.38652
| 91>    C        3.84105        12.23811        14.89454
| 92>    C        3.27620        11.99347        13.67228
| 93>    H       -8.95533         2.56365        -4.32533
| 94>    H       -7.41057         3.30769         0.35878
| 95>    H       -9.70860         3.18089         1.13040
| 96>    H      -12.10921         2.88463         0.66849
| 97>    H      -12.89427         2.51317        -1.63658
| 98>    H      -11.28256         2.43383        -3.49804
| 99>    H       -3.74916         3.55373        -4.76481
|100>    H       -0.26689         4.84507        -5.08688
|101>    H        0.96382         6.42931        -1.23964
|102>    H       -0.37688         7.99765        -1.22823
|103>    H        1.75779        10.65417         1.12078
|104>    H        2.81267         9.98852        -0.83036
|105>    H        1.41056         9.15067        -1.47777
|106>    H        2.92447         8.17867         0.82482
|107>    H        2.96942         7.57179        -0.69703
|108>    H       -0.41483        11.65098         0.46270
|109>    H       -0.44806        10.61858        -0.97971
|110>    H        1.62287        12.60847        -0.43814
|111>    H        0.47990        12.66691        -1.61119
|112>    H        1.37207        10.95935         3.27742
|113>    H        1.46005         9.74638         5.48873
|114>    H       -0.73903         8.96540         6.52038
|115>    H       -1.80378         7.44087         4.91213
|116>    H       -2.51697         6.00992         2.82106
|117>    H       -2.77840         4.96510         0.61310
|118>    H        0.53047        11.57322         6.68358
|119>    H       -1.08367        12.13390         4.13548
|120>    H       -3.11192        15.37355         4.26979
|121>    H       -3.70035        17.86319         5.49866
|122>    H       -0.53884        16.78589         8.47002
|123>    H        2.10808        11.81714        11.23221
|124>    H        2.43552        16.45832        13.02522
|125>    H        3.50631        15.60844        15.02414
|126>    H        4.37448        13.72502        16.35227
|127>    H        4.22633        11.42309        15.48877
|128>    H        3.20904        10.98588        13.28855
|129> *
|130>
|131>                          ****END OF INPUT****

CARTESIAN COORDINATES (ANGSTROEM)
---------------------------------
  C     -5.381130    3.177110   -1.724540
  C     -4.551290    2.958030   -0.654270
  C     -4.987700    2.885830    0.681610
  N     -5.275770    2.861050    1.793600
  C     -3.175130    2.683160   -0.786730
  N     -2.067600    2.385920   -0.850410
  C     -6.838290    3.094790   -1.695940
  C     -7.301550    2.892630   -3.028980
  C     -8.625940    2.725420   -3.309690
  C     -9.565160    2.764300   -2.253790
  C     -9.109840    2.979460   -0.921350
  C     -7.729380    3.141280   -0.658710
  C    -10.057900    3.020020    0.120890
  C    -11.391280    2.853970   -0.137570
  C    -11.838480    2.641630   -1.449890
  C    -10.944520    2.597380   -2.485110
  C     -6.151300    2.916230   -3.955030
  O     -6.158960    2.742310   -5.153010
  C     -4.980500    3.262850   -3.108480
  C     -3.834290    3.712780   -3.695550
  C     -2.776940    4.454790   -3.141550
  O     -2.812750    5.013870   -1.895690
  C     -1.676800    5.687340   -1.681430
  C     -0.840140    5.577570   -2.794120
  C     -1.567850    4.804840   -3.747350
  O     -1.170910    4.464400   -4.958500
  C      0.552420    5.927090   -3.088510
  O      0.980900    5.793300   -4.219460
  O      1.367390    6.326180   -2.118630
  C     -1.515900    6.379590   -0.423370
  C     -0.764700    7.528900   -0.338290
  C     -0.547190    8.133030    0.917100
  C      0.237490    9.210640    1.289780
  C      1.090430   10.102250    0.449050
  C      1.969380    9.336390   -0.559250
  N      2.379930    8.046620   -0.021650
  C      0.216240   11.137500   -0.284300
  N      1.051010   12.041030   -1.055150
  C      0.121080    9.327340    2.724290
  C      0.702810   10.171390    3.596440
  C      0.490430   10.055070    5.062890
  C     -0.514430    9.016900    5.466600
  C     -1.097020    8.187850    4.581470
  C     -0.792650    8.279870    3.201670
  C     -1.184910    7.553860    2.096630
  C     -2.020070    6.420530    1.955260
  C     -2.172690    5.848200    0.736100
  C      0.146320   11.378190    5.692320
  C     -0.634480   12.292020    5.105000
  C     -0.930670   13.542670    5.735540
  O     -0.291680   13.890280    6.865320
  C     -0.724510   15.088290    7.271250
  C     -1.697150   15.556270    6.366880
  C     -1.817440   14.558270    5.373270
  O     -2.609090   14.543680    4.295360
  C     -2.449030   16.799700    6.473680
  O     -2.430360   17.559280    7.406390
  O     -3.225400   17.025360    5.384670
  C     -0.183090   15.766770    8.383360
  C      0.684080   15.293570    9.325360
  C      1.252090   16.111150   10.384600
  C      1.362030   17.476450   10.375210
  C      1.938010   18.222960   11.424420
  N      2.388040   18.880170   12.251170
  C      1.005770   18.310460    9.292530
  N      0.805780   19.046990    8.435290
  C      1.805370   15.217400   11.392670
  C      1.714870   13.882750   10.905010
  C      1.070350   13.876400    9.577920
  O      0.884920   12.903020    8.880660
  C      2.183180   12.820820   11.623970
  C      2.770730   13.049190   12.888330
  C      2.855810   14.381350   13.386950
  C      2.363410   15.461690   12.619440
  C      3.442510   14.597050   14.650520
  C      3.924940   13.549250   15.386520
  C      3.841050   12.238110   14.894540
  C      3.276200   11.993470   13.672280
  H     -8.955330    2.563650   -4.325330
  H     -7.410570    3.307690    0.358780
  H     -9.708600    3.180890    1.130400
  H    -12.109210    2.884630    0.668490
  H    -12.894270    2.513170   -1.636580
  H    -11.282560    2.433830   -3.498040
  H     -3.749160    3.553730   -4.764810
  H     -0.266890    4.845070   -5.086880
  H      0.963820    6.429310   -1.239640
  H     -0.376880    7.997650   -1.228230
  H      1.757790   10.654170    1.120780
  H      2.812670    9.988520   -0.830360
  H      1.410560    9.150670   -1.477770
  H      2.924470    8.178670    0.824820
  H      2.969420    7.571790   -0.697030
  H     -0.414830   11.650980    0.462700
  H     -0.448060   10.618580   -0.979710
  H      1.622870   12.608470   -0.438140
  H      0.479900   12.666910   -1.611190
  H      1.372070   10.959350    3.277420
  H      1.460050    9.746380    5.488730
  H     -0.739030    8.965400    6.520380
  H     -1.803780    7.440870    4.912130
  H     -2.516970    6.009920    2.821060
  H     -2.778400    4.965100    0.613100
  H      0.530470   11.573220    6.683580
  H     -1.083670   12.133900    4.135480
  H     -3.111920   15.373550    4.269790
  H     -3.700350   17.863190    5.498660
  H     -0.538840   16.785890    8.470020
  H      2.108080   11.817140   11.232210
  H      2.435520   16.458320   13.025220
  H      3.506310   15.608440   15.024140
  H      4.374480   13.725020   16.352270
  H      4.226330   11.423090   15.488770
  H      3.209040   10.985880   13.288550

 Total Charge           Charge          ....    0
 Multiplicity           Mult            ....    1
 Number of Electrons    NEL             ....  530
 Basis Dimension        Dim             .... 1272

ORBITAL ENERGIES
----------------

  NO   OCC          E(Eh)            E(eV)
   0   2.0000     -19.315560      -525.6031
   1   2.0000     -19.308366      -525.4074
   2   2.0000     -19.297229      -525.1043
   3   2.0000     -19.269057      -524.3377
   4   2.0000     -19.267508      -524.2956
   5   2.0000     -19.258638      -524.0542
   6   2.0000     -19.231400      -523.3130
   7   2.0000     -19.217383      -522.9316
   8   2.0000     -19.215729      -522.8866
   9   2.0000     -19.197255      -522.3839
  10   2.0000     -14.415672      -392.2704
  11   2.0000     -14.413768      -392.2186
  12   2.0000     -14.404243      -391.9594
  13   2.0000     -14.398677      -391.8079
  14   2.0000     -14.387710      -391.5095
  15   2.0000     -14.386733      -391.4829
  16   2.0000     -10.435911      -283.9756
  17   2.0000     -10.423709      -283.6435
  18   2.0000     -10.373718      -282.2832
  19   2.0000     -10.370758      -282.2027
  20   2.0000     -10.366304      -282.0815
  21   2.0000     -10.362381      -281.9747
  22   2.0000     -10.361972      -281.9636
  23   2.0000     -10.351972      -281.6915
  24   2.0000     -10.349355      -281.6203
  25   2.0000     -10.343549      -281.4623
  26   2.0000     -10.340683      -281.3843
  27   2.0000     -10.333717      -281.1947
  28   2.0000     -10.326133      -280.9884
  29   2.0000     -10.325031      -280.9584
  30   2.0000     -10.322287      -280.8837
  31   2.0000     -10.318222      -280.7731
  32   2.0000     -10.316204      -280.7182
  33   2.0000     -10.312672      -280.6221
  34   2.0000     -10.311657      -280.5944
  35   2.0000     -10.308947      -280.5207
  36   2.0000     -10.307684      -280.4863
  37   2.0000     -10.306387      -280.4510
  38   2.0000     -10.304117      -280.3893
  39   2.0000     -10.304046      -280.3874
  40   2.0000     -10.303017      -280.3593
  41   2.0000     -10.302451      -280.3439
  42   2.0000     -10.299415      -280.2613
  43   2.0000     -10.299086      -280.2524
  44   2.0000     -10.298255      -280.2298
  45   2.0000     -10.297935      -280.2210
  46   2.0000     -10.297288      -280.2035
  47   2.0000     -10.294206      -280.1196
  48   2.0000     -10.293406      -280.0978
  49   2.0000     -10.292503      -280.0733
  50   2.0000     -10.292219      -280.0655
  51   2.0000     -10.290709      -280.0244
  52   2.0000     -10.290221      -280.0111
  53   2.0000     -10.288337      -279.9599
  54   2.0000     -10.287838      -279.9463
  55   2.0000     -10.287462      -279.9361
  56   2.0000     -10.287096      -279.9261
  57   2.0000     -10.286950      -279.9221
  58   2.0000     -10.286638      -279.9136
  59   2.0000     -10.284888      -279.8660
  60   2.0000     -10.284834      -279.8646
  61   2.0000     -10.284607      -279.8584
  62   2.0000     -10.282142      -279.7913
  63   2.0000     -10.279016      -279.7062
  64   2.0000     -10.278382      -279.6890
  65   2.0000     -10.277521      -279.6656
  66   2.0000     -10.277327      -279.6603
  67   2.0000     -10.277215      -279.6572
  68   2.0000     -10.276903      -279.6488
  69   2.0000     -10.276607      -279.6407
  70   2.0000     -10.276517      -279.6382
  71   2.0000     -10.276435      -279.6360
  72   2.0000     -10.276215      -279.6300
  73   2.0000     -10.274797      -279.5914
  74   2.0000     -10.273774      -279.5636
  75   2.0000     -10.270494      -279.4744
  76   2.0000     -10.270026      -279.4616
  77   2.0000     -10.270013      -279.4612
  78   2.0000      -1.242601       -33.8129
  79   2.0000      -1.230280       -33.4776
  80   2.0000      -1.218374       -33.1536
  81   2.0000      -1.196011       -32.5451
  82   2.0000      -1.166872       -31.7522
  83   2.0000      -1.161436       -31.6043
  84   2.0000      -1.132412       -30.8145
  85   2.0000      -1.122522       -30.5454
  86   2.0000      -1.112497       -30.2726
  87   2.0000      -1.106506       -30.1096
  88   2.0000      -1.018549       -27.7161
  89   2.0000      -1.004374       -27.3304
  90   2.0000      -0.999109       -27.1871
  91   2.0000      -0.993762       -27.0416
  92   2.0000      -0.993095       -27.0235
  93   2.0000      -0.985767       -26.8241
  94   2.0000      -0.980524       -26.6814
  95   2.0000      -0.974436       -26.5157
  96   2.0000      -0.973656       -26.4945
  97   2.0000      -0.961099       -26.1528
  98   2.0000      -0.959526       -26.1100
  99   2.0000      -0.957842       -26.0642
 100   2.0000      -0.941232       -25.6122
 101   2.0000      -0.931553       -25.3489
 102   2.0000      -0.925651       -25.1882
 103   2.0000      -0.917867       -24.9764
 104   2.0000      -0.915302       -24.9066
 105   2.0000      -0.911825       -24.8120
 106   2.0000      -0.899813       -24.4852
 107   2.0000      -0.894731       -24.3469
 108   2.0000      -0.883299       -24.0358
 109   2.0000      -0.881405       -23.9842
 110   2.0000      -0.877719       -23.8839
 111   2.0000      -0.870633       -23.6911
 112   2.0000      -0.868027       -23.6202
 113   2.0000      -0.849831       -23.1251
 114   2.0000      -0.844408       -22.9775
 115   2.0000      -0.840469       -22.8703
 116   2.0000      -0.830283       -22.5931
 117   2.0000      -0.829348       -22.5677
 118   2.0000      -0.817223       -22.2378
 119   2.0000      -0.812521       -22.1098
 120   2.0000      -0.804444       -21.8900
 121   2.0000      -0.784632       -21.3509
 122   2.0000      -0.772982       -21.0339
 123   2.0000      -0.768112       -20.9014
 124   2.0000      -0.762544       -20.7499
 125   2.0000      -0.762344       -20.7444
 126   2.0000      -0.748037       -20.3551
 127   2.0000      -0.739237       -20.1157
 128   2.0000      -0.729173       -19.8418
 129   2.0000      -0.727976       -19.8092
 130   2.0000      -0.725050       -19.7296
 131   2.0000      -0.718937       -19.5633
 132   2.0000      -0.709218       -19.2988
 133   2.0000      -0.704860       -19.1802
 134   2.0000      -0.699870       -19.0444
 135   2.0000      -0.697966       -18.9926
 136   2.0000      -0.692318       -18.8389
 137   2.0000      -0.690876       -18.7997
 138   2.0000      -0.686942       -18.6926
 139   2.0000      -0.680981       -18.5304
 140   2.0000      -0.677459       -18.4346
 141   2.0000      -0.674491       -18.3538
 142   2.0000      -0.668117       -18.1804
 143   2.0000      -0.666469       -18.1355
 144   2.0000      -0.662706       -18.0332
 145   2.0000      -0.655394       -17.8342
 146   2.0000      -0.649123       -17.6635
 147   2.0000      -0.634541       -17.2667
 148   2.0000      -0.632766       -17.2184
 149   2.0000      -0.620481       -16.8842
 150   2.0000      -0.617118       -16.7926
 151   2.0000      -0.616284       -16.7699
 152   2.0000      -0.610452       -16.6112
 153   2.0000      -0.608286       -16.5523
 154   2.0000      -0.604243       -16.4423
 155   2.0000      -0.600473       -16.3397
 156   2.0000      -0.596064       -16.2197
 157   2.0000      -0.595330       -16.1998
 158   2.0000      -0.592986       -16.1360
 159   2.0000      -0.590612       -16.0714
 160   2.0000      -0.586605       -15.9623
 161   2.0000      -0.581484       -15.8230
 162   2.0000      -0.580364       -15.7925
 163   2.0000      -0.577383       -15.7114
 164   2.0000      -0.576600       -15.6901
 165   2.0000      -0.575243       -15.6531
 166   2.0000      -0.561071       -15.2675
 167   2.0000      -0.558908       -15.2087
 168   2.0000      -0.556569       -15.1450
 169   2.0000      -0.548919       -14.9369
 170   2.0000      -0.548689       -14.9306
 171   2.0000      -0.547243       -14.8912
 172   2.0000      -0.546820       -14.8797
 173   2.0000      -0.544414       -14.8143
 174   2.0000      -0.540968       -14.7205
 175   2.0000      -0.538910       -14.6645
 176   2.0000      -0.536066       -14.5871
 177   2.0000      -0.535745       -14.5784
 178   2.0000      -0.534194       -14.5362
 179   2.0000      -0.533401       -14.5146
 180   2.0000      -0.531582       -14.4651
 181   2.0000      -0.529751       -14.4153
 182   2.0000      -0.525360       -14.2958
 183   2.0000      -0.525070       -14.2879
 184   2.0000      -0.521508       -14.1909
 185   2.0000      -0.520905       -14.1745
 186   2.0000      -0.517960       -14.0944
 187   2.0000      -0.517472       -14.0811
 188   2.0000      -0.515550       -14.0288
 189   2.0000      -0.511155       -13.9092
 190   2.0000      -0.509860       -13.8740
 191   2.0000      -0.507108       -13.7991
 192   2.0000      -0.506041       -13.7701
 193   2.0000      -0.505223       -13.7478
 194   2.0000      -0.500245       -13.6124
 195   2.0000      -0.500067       -13.6075
 196   2.0000      -0.497548       -13.5390
 197   2.0000      -0.495962       -13.4958
 198   2.0000      -0.494957       -13.4685
 199   2.0000      -0.492703       -13.4071
 200   2.0000      -0.490783       -13.3549
 201   2.0000      -0.489216       -13.3123
 202   2.0000      -0.485784       -13.2189
 203   2.0000      -0.483309       -13.1515
 204   2.0000      -0.480768       -13.0824
 205   2.0000      -0.478590       -13.0231
 206   2.0000      -0.475827       -12.9479
 207   2.0000      -0.470677       -12.8078
 208   2.0000      -0.468487       -12.7482
 209   2.0000      -0.466849       -12.7036
 210   2.0000      -0.463447       -12.6110
 211   2.0000      -0.455169       -12.3858
 212   2.0000      -0.453343       -12.3361
 213   2.0000      -0.450711       -12.2645
 214   2.0000      -0.449235       -12.2243
 215   2.0000      -0.447289       -12.1714
 216   2.0000      -0.443819       -12.0769
 217   2.0000      -0.441449       -12.0125
 218   2.0000      -0.439448       -11.9580
 219   2.0000      -0.438684       -11.9372
 220   2.0000      -0.436390       -11.8748
 221   2.0000      -0.435892       -11.8612
 222   2.0000      -0.434977       -11.8363
 223   2.0000      -0.433806       -11.8045
 224   2.0000      -0.432414       -11.7666
 225   2.0000      -0.431316       -11.7367
 226   2.0000      -0.429637       -11.6910
 227   2.0000      -0.426618       -11.6089
 228   2.0000      -0.425454       -11.5772
 229   2.0000      -0.422201       -11.4887
 230   2.0000      -0.420738       -11.4488
 231   2.0000      -0.418804       -11.3962
 232   2.0000      -0.417504       -11.3609
 233   2.0000      -0.415882       -11.3167
 234   2.0000      -0.413941       -11.2639
 235   2.0000      -0.408195       -11.1076
 236   2.0000      -0.406551       -11.0628
 237   2.0000      -0.405867       -11.0442
 238   2.0000      -0.402622       -10.9559
 239   2.0000      -0.400934       -10.9100
 240   2.0000      -0.397034       -10.8038
 241   2.0000      -0.392268       -10.6741
 242   2.0000      -0.390549       -10.6274
 243   2.0000      -0.384619       -10.4660
 244   2.0000      -0.379854       -10.3364
 245   2.0000      -0.373415       -10.1611
 246   2.0000      -0.371801       -10.1172
 247   2.0000      -0.369057       -10.0426
 248   2.0000      -0.365095        -9.9347
 249   2.0000      -0.356996        -9.7143
 250   2.0000      -0.349001        -9.4968
 251   2.0000      -0.343702        -9.3526
 252   2.0000      -0.339517        -9.2387
 253   2.0000      -0.335054        -9.1173
 254   2.0000      -0.323592        -8.8054
 255   2.0000      -0.320507        -8.7214
 256   2.0000      -0.317478        -8.6390
 257   2.0000      -0.314033        -8.5453
 258   2.0000      -0.304409        -8.2834
 259   2.0000      -0.300745        -8.1837
 260   2.0000      -0.296412        -8.0658
 261   2.0000      -0.285121        -7.7585
 262   2.0000      -0.270105        -7.3499
 263   2.0000      -0.264509        -7.1976
 264   2.0000      -0.232220        -6.3190
 265   0.0000      -0.102992        -2.8026
 266   0.0000      -0.089639        -2.4392
 267   0.0000      -0.067883        -1.8472
 268   0.0000      -0.059330        -1.6145
 269   0.0000      -0.040949        -1.1143

MULLIKEN ATOMIC CHARGES
-----------------------
   0 C :    0.278784
   1 C :   -0.332451
   2 C :   -0.179061
   3 N :    0.136057
   4 C :   -0.215237
   5 N :    0.153315
   6 C :    0.040843
   7 C :    0.005401
   8 C :   -0.083632
   9 C :    0.093414
  10 C :    0.094113
  11 C :   -0.085168
  12 C :   -0.018473
  13 C :    0.032837
  14 C :    0.031776
  15 C :   -0.013991
  16 C :    0.139112
  17 O :   -0.149777
  18 C :   -0.126066
  19 C :    0.007824
  20 C :    0.069452
  21 O :   -0.201805
  22 C :    0.189481
  23 C :   -0.118435
  24 C :    0.120625
  25 O :   -0.142954
  26 C :    0.188170
  27 O :   -0.245454
  28 O :   -0.149807
  29 C :    0.021432
  30 C :   -0.118745
  31 C :    0.067598
  32 C :   -0.001709
  33 C :   -0.090030
  34 C :    0.145394
  35 N :   -0.222800
  36 C :    0.146622
  37 N :   -0.214044
  38 C :    0.095879
  39 C :   -0.168874
  40 C :    0.171667
  41 C :   -0.027589
  42 C :    0.022229
  43 C :    0.020229
  44 C :    0.030049
  45 C :    0.005215
  46 C :    0.022841
  47 C :   -0.082883
  48 C :   -0.005517
  49 C :    0.104219
  50 O :   -0.142411
  51 C :    0.104297
  52 C :   -0.045259
  53 C :    0.096519
  54 O :   -0.169040
  55 C :    0.149303
  56 O :   -0.166141
  57 O :   -0.216804
  58 C :   -0.063637
  59 C :   -0.062887
  60 C :    0.288955
  61 C :   -0.331885
  62 C :   -0.181108
  63 N :    0.146955
  64 C :   -0.207318
  65 N :    0.167498
  66 C :    0.057568
  67 C :   -0.003078
  68 C :    0.145684
  69 O :   -0.135983
  70 C :   -0.088773
  71 C :    0.102487
  72 C :    0.099041
  73 C :   -0.088434
  74 C :   -0.021811
  75 C :    0.039229
  76 C :    0.038427
  77 C :   -0.020061
  78 H :   -0.015232
  79 H :   -0.009761
  80 H :   -0.014850
  81 H :   -0.007932
  82 H :   -0.008376
  83 H :   -0.020167
  84 H :    0.033174
  85 H :    0.212073
  86 H :    0.197374
  87 H :   -0.026700
  88 H :   -0.033481
  89 H :    0.000203
  90 H :   -0.006117
  91 H :    0.093558
  92 H :    0.108880
  93 H :   -0.011036
  94 H :   -0.006009
  95 H :    0.089210
  96 H :    0.095647
  97 H :   -0.005187
  98 H :    0.048232
  99 H :   -0.006499
 100 H :   -0.029179
 101 H :   -0.021657
 102 H :   -0.023930
 103 H :    0.032167
 104 H :    0.016919
 105 H :    0.193074
 106 H :    0.208011
 107 H :    0.049990
 108 H :   -0.017818
 109 H :   -0.007486
 110 H :   -0.009607
 111 H :   -0.005050
 112 H :   -0.005067
 113 H :   -0.018782
Sum of atomic charges:   -0.0000000

LOEWDIN ATOMIC CHARGES
----------------------
   0 C :    0.075181
   1 C :   -0.151884
   2 C :   -0.020810
   3 N :   -0.068698
   4 C :   -0.026590
   5 N :   -0.069212
   6 C :   -0.020935
   7 C :   -0.054168
   8 C :    0.028014
   9 C :   -0.010427
  10 C :   -0.007191
  11 C :    0.011281
  12 C :   -0.008437
  13 C :   -0.017230
  14 C :   -0.017238
  15 C :   -0.010479
  16 C :    0.080506
  17 O :   -0.152224
  18 C :   -0.110951
  19 C :    0.064865
  20 C :   -0.034515
  21 O :    0.038237
  22 C :    0.106318
  23 C :   -0.169106
  24 C :    0.082208
  25 O :   -0.013077
  26 C :    0.101011
  27 O :   -0.180074
  28 O :   -0.005243
  29 C :   -0.051546
  30 C :   -0.004763
  31 C :   -0.015664
  32 C :   -0.022421
  33 C :   -0.044085
  34 C :    0.027834
  35 N :   -0.115017
  36 C :    0.028604
  37 N :   -0.117974
  38 C :   -0.020231
  39 C :    0.066483
  40 C :   -0.033246
  41 C :   -0.021719
  42 C :   -0.018019
  43 C :   -0.031831
  44 C :   -0.029121
  45 C :    0.007397
  46 C :   -0.021431
  47 C :    0.015797
  48 C :   -0.042138
  49 C :    0.018952
  50 O :    0.070521
  51 C :    0.047543
  52 C :   -0.123427
  53 C :    0.024986
  54 O :   -0.037948
  55 C :    0.095235
  56 O :   -0.154842
  57 O :   -0.047435
  58 C :    0.043235
  59 C :   -0.078178
  60 C :    0.072304
  61 C :   -0.133638
  62 C :   -0.016679
  63 N :   -0.052371
  64 C :   -0.027341
  65 N :   -0.045094
  66 C :   -0.025654
  67 C :   -0.055532
  68 C :    0.080007
  69 O :   -0.143386
  70 C :    0.029324
  71 C :   -0.008404
  72 C :   -0.006092
  73 C :    0.018429
  74 C :   -0.005373
  75 C :   -0.013217
  76 C :   -0.012295
  77 C :   -0.010543
  78 H :    0.037893
  79 H :    0.037289
  80 H :    0.032616
  81 H :    0.031427
  82 H :    0.031146
  83 H :    0.030735
  84 H :    0.059196
  85 H :    0.087732
  86 H :    0.085585
  87 H :    0.025727
  88 H :    0.017780
  89 H :    0.008631
  90 H :    0.012850
  91 H :    0.055795
  92 H :    0.056859
  93 H :    0.000110
  94 H :    0.017252
  95 H :    0.051874
  96 H :    0.057063
  97 H :    0.029282
  98 H :    0.069032
  99 H :    0.027876
 100 H :    0.032635
 101 H :    0.034575
 102 H :    0.033836
 103 H :    0.035666
 104 H :    0.041514
 105 H :    0.085293
 106 H :    0.110185
 107 H :    0.055335
 108 H :    0.036919
 109 H :    0.039010
 110 H :    0.034764
 111 H :    0.033247
 112 H :    0.032851
 113 H :    0.031288

  Mayer bond orders larger than 0.100000
B(  0-C ,  1-C ) :   1.6311 B(  0-C ,  6-C ) :   1.0045 B(  0-C , 18-C ) :   1.0675
B(  1-C ,  2-C ) :   1.1384 B(  1-C ,  4-C ) :   1.1666 B(  2-C ,  3-N ) :   2.9666
B(  4-C ,  5-N ) :   2.9907 B(  6-C ,  7-C ) :   1.2150 B(  6-C , 11-C ) :   1.4608
B(  7-C ,  8-C ) :   1.4841 B(  7-C , 16-C ) :   0.9180 B(  8-C ,  9-C ) :   1.1784
B(  8-C , 78-H ) :   1.0160 B(  9-C , 10-C ) :   1.2617 B(  9-C , 15-C ) :   1.2476
B( 10-C , 11-C ) :   1.1992 B( 10-C , 12-C ) :   1.2420 B( 11-C , 79-H ) :   0.9932
B( 12-C , 13-C ) :   1.4883 B( 12-C , 80-H ) :   0.9972 B( 13-C , 14-C ) :   1.2618
B( 13-C , 81-H ) :   0.9889 B( 14-C , 15-C ) :   1.4862 B( 14-C , 82-H ) :   0.9892
B( 15-C , 83-H ) :   0.9976 B( 16-C , 17-O ) :   2.2684 B( 16-C , 18-C ) :   0.9495
B( 18-C , 19-C ) :   1.5257 B( 19-C , 20-C ) :   1.2015 B( 19-C , 84-H ) :   0.9486
B( 20-C , 21-O ) :   1.0403 B( 20-C , 24-C ) :   1.3476 B( 21-O , 22-C ) :   1.2302
B( 22-C , 23-C ) :   1.3680 B( 22-C , 29-C ) :   1.0345 B( 23-C , 24-C ) :   1.1785
B( 23-C , 26-C ) :   0.9338 B( 24-C , 25-O ) :   1.3943 B( 25-O , 85-H ) :   0.8797
B( 26-C , 27-O ) :   1.9907 B( 26-C , 28-O ) :   1.3174 B( 27-O , 85-H ) :   0.1297
B( 28-O , 86-H ) :   0.8939 B( 29-C , 30-C ) :   1.5102 B( 29-C , 46-C ) :   1.1247
B( 30-C , 31-C ) :   1.1370 B( 30-C , 87-H ) :   0.9878 B( 31-C , 32-C ) :   1.4826
B( 31-C , 44-C ) :   1.1320 B( 32-C , 33-C ) :   1.0196 B( 32-C , 38-C ) :   1.1160
B( 33-C , 34-C ) :   1.0240 B( 33-C , 36-C ) :   1.0645 B( 33-C , 88-H ) :   0.8759
B( 34-C , 35-N ) :   1.0963 B( 34-C , 89-H ) :   0.9360 B( 34-C , 90-H ) :   0.9300
B( 35-N , 91-H ) :   0.9654 B( 35-N , 92-H ) :   0.9519 B( 36-C , 37-N ) :   1.0909
B( 36-C , 93-H ) :   0.9436 B( 36-C , 94-H ) :   0.9312 B( 37-N , 95-H ) :   0.9702
B( 37-N , 96-H ) :   0.9685 B( 38-C , 39-C ) :   1.6196 B( 38-C , 43-C ) :   1.0568
B( 39-C , 40-C ) :   0.9579 B( 39-C , 97-H ) :   0.9854 B( 40-C , 41-C ) :   0.9931
B( 40-C , 47-C ) :   0.9643 B( 40-C , 98-H ) :   0.8469 B( 41-C , 42-C ) :   1.7205
B( 41-C , 99-H ) :   0.9728 B( 42-C , 43-C ) :   1.1263 B( 42-C ,100-H ) :   0.9879
B( 43-C , 44-C ) :   1.4377 B( 44-C , 45-C ) :   1.1263 B( 45-C , 46-C ) :   1.6051
B( 45-C ,101-H ) :   0.9964 B( 46-C ,102-H ) :   0.9938 B( 47-C , 48-C ) :   1.7818
B( 47-C ,103-H ) :   0.9661 B( 48-C , 49-C ) :   1.1192 B( 48-C ,104-H ) :   0.9602
B( 49-C , 50-O ) :   1.1639 B( 49-C , 51-C ) :   0.1153 B( 49-C , 53-C ) :   1.3605
B( 50-O , 51-C ) :   1.2026 B( 51-C , 52-C ) :   1.3105 B( 51-C , 58-C ) :   1.2408
B( 52-C , 53-C ) :   1.1938 B( 52-C , 55-C ) :   0.9526 B( 53-C , 54-O ) :   1.3191
B( 54-O ,105-H ) :   0.9286 B( 55-C , 56-O ) :   2.1419 B( 55-C , 57-O ) :   1.2100
B( 57-O ,106-H ) :   0.9328 B( 58-C , 59-C ) :   1.5479 B( 58-C ,107-H ) :   0.9210
B( 59-C , 60-C ) :   1.0562 B( 59-C , 68-C ) :   0.9271 B( 60-C , 61-C ) :   1.6473
B( 60-C , 66-C ) :   0.9924 B( 61-C , 62-C ) :   1.1430 B( 61-C , 64-C ) :   1.1345
B( 62-C , 63-N ) :   2.9699 B( 64-C , 65-N ) :   3.0088 B( 66-C , 67-C ) :   1.2168
B( 66-C , 73-C ) :   1.4465 B( 67-C , 68-C ) :   0.9424 B( 67-C , 70-C ) :   1.4692
B( 68-C , 69-O ) :   2.2223 B( 70-C , 71-C ) :   1.1799 B( 70-C ,108-H ) :   1.0167
B( 71-C , 72-C ) :   1.2581 B( 71-C , 77-C ) :   1.2424 B( 72-C , 73-C ) :   1.2021
B( 72-C , 74-C ) :   1.2389 B( 73-C ,109-H ) :   0.9926 B( 74-C , 75-C ) :   1.4894
B( 74-C ,110-H ) :   0.9980 B( 75-C , 76-C ) :   1.2603 B( 75-C ,111-H ) :   0.9880
B( 76-C , 77-C ) :   1.4882 B( 76-C ,112-H ) :   0.9889 B( 77-C ,113-H ) :   0.9985

-----------------------------------------------------------------------------
         ABSORPTION SPECTRUM VIA TRANSITION ELECTRIC DIPOLE MOMENTS
-----------------------------------------------------------------------------
State   Energy  Wavelength   fosc         T2         TX        TY        TZ
        (cm-1)    (nm)                  (au**2)     (au)      (au)      (au)
-----------------------------------------------------------------------------
   0   13460.8    742.9   0.070891300   1.73380  -0.83721  -0.88474   0.50012
   1   16538.0    604.7   0.167145618   3.32726   0.49724   0.96410   1.46647
   2   19471.7    513.6   0.751175698  12.70028  -2.20857  -2.17895  -1.75348
   3   20217.0    494.6   0.399110597   6.49908   0.69370   0.88691   2.28719
   4   21641.6    462.1   0.199254649   3.03106   1.28566   1.12156  -0.34674
   5   25123.2    398.0   0.034091302   0.44673  -0.05331  -0.14604  -0.65005
   6   25253.8    396.0   0.056039429   0.73054  -0.30046   0.16732  -0.78248
   7   25755.8    388.3   0.002236590   0.02859  -0.01303   0.16438  -0.03740
   8   26343.6    379.6   0.208737041   2.60856   0.45502  -0.27876  -1.52440
   9   26848.8    372.5   0.028165542   0.34536  -0.20325   0.12198   0.53774
  10   26993.1    370.5   0.031850081   0.38845   0.17024  -0.29801   0.52025
  11   27279.8    366.6   0.022558658   0.27224  -0.37469   0.08939  -0.35193
  12   27841.2    359.2   0.000493044   0.00583   0.00286  -0.07051  -0.02917
  13   28006.0    357.1   0.292282124   3.43579  -1.30768  -0.78623  -1.05242
  14   28217.5    354.4   0.013102760   0.15287   0.16230   0.35320  -0.04219
  15   28996.9    344.9   0.095696537   1.08648  -0.16010  -0.40245  -0.94809
  16   29140.3    343.2   0.095568977   1.07969  -0.19514   0.83501  -0.58683
  17   29855.8    334.9   0.170651352   1.88173  -1.30494  -0.42257   0.01702
  18   30338.2    329.6   0.052965792   0.57475  -0.36328  -0.31704  -0.58503
  19   30897.8    323.6   0.058198267   0.62009  -0.25175   0.47877   0.57227
  20   32238.5    310.2   0.161259317   1.64674  -1.04249  -0.36574  -0.65283
  21   32447.6    308.2   0.032906525   0.33387  -0.22667  -0.51810   0.11856
  22   32684.2    306.0   0.284969246   2.87036   0.57296  -0.16488   1.58584
  23   32876.1    304.2   0.152394882   1.52604   0.57226   1.08999   0.10235
  24   32918.3    303.8   0.055569982   0.55575   0.30125  -0.50252   0.46094
  25   33145.2    301.7   0.125198317   1.24352  -0.66184   0.69358   0.56960
  26   33286.8    300.4   0.152353956   1.50681   0.50482  -1.08167   0.28625
  27   33514.5    298.4   0.050972467   0.50070  -0.66431   0.05446  -0.23755
  28   34152.6    292.8   0.496610109   4.78704   2.18268   0.12020   0.09211
  29   34463.3    290.2   0.042152163   0.40266   0.58414   0.21395  -0.12517
  30   34701.5    288.2   0.161308873   1.53033   1.07459  -0.35965   0.49624
  31   34871.3    286.8   0.506072182   4.77771  -1.15143   1.06362  -1.52336
  32   35360.0    282.8   0.047643393   0.44357  -0.03378  -0.17597   0.64146
  33   35551.4    281.3   0.064877691   0.60078   0.54600  -0.48558   0.25860
  34   35653.2    280.5   0.092522609   0.85433   0.38548  -0.56763  -0.61930
  35   36210.2    276.2   0.072216699   0.65657   0.20606  -0.49315  -0.60903
  36   36399.9    274.7   0.085232416   0.77087  -0.10943   0.54163   0.68230
  37   36971.5    270.5   0.009875204   0.08793  -0.00531   0.09290  -0.28156
  38   37085.7    269.6   0.002527034   0.02243   0.04291   0.13264   0.05475
  39   37325.8    267.9   0.105672986   0.93203   0.73777   0.22077   0.58222
  40   37611.6    265.9   0.011343196   0.09929  -0.28250   0.12392   0.06421
  41   38017.2    263.0   0.118860792   1.02928   0.89936  -0.00247   0.46949
  42   38094.8    262.5   0.041360836   0.35744  -0.54481   0.01522  -0.24574
  43   38250.5    261.4   0.242426777   2.08650  -0.67906   0.39563   1.21196
  44   38428.5    260.2   0.137735895   1.17997  -0.11428  -1.07531   0.10307
  45   38651.3    258.7   0.076986153   0.65573   0.32895   0.71993   0.17095
  46   39613.9    252.4   0.070633679   0.58700   0.18364   0.60139   0.43774
  47   39789.2    251.3   0.003679216   0.03044  -0.15367   0.03186   0.07623
  48   39836.9    251.0   0.005114569   0.04227  -0.13026   0.06176   0.14658

FINAL SINGLE POINT ENERGY     -3460.642078207013

DIPOLE MOMENT
-------------
                                X             Y             Z
Electronic contribution:    -11.81928       4.50564       7.19916
Nuclear contribution   :     11.23266      -2.66311      -5.05360
                        -----------------------------------------
Total Dipole Moment    :     -0.58662       1.84253       2.14556
                        -----------------------------------------
Magnitude (a.u.)       :      2.88834
Magnitude (Debye)      :      7.34157

Rotational constants in cm-1:     0.001345     0.000244     0.000235
Rotational constants in MHz :    40.323914     7.325109     7.057945

                             ****ORCA TERMINATED NORMALLY****
TOTAL RUN TIME: 0 days 0 hours 13 minutes 20 seconds 122 msec
