                         Program Version 4.2.0 -  RELEASE  -
|  1> # ORCA input file
|  2> # SCF done       -199.066452752910          0.000845967185
|  3> ! CAM-B3LYP def2-SVP def2/J RIJCOSX Grid4 TightSCF
|  4> %maxcore 5000
|  5> %tddft
|  6>     Mode sTDDFT
|  7>     Ethresh 5.0
|  8>     maxcore 5000
|  9> end
| 10>
| 11> %pal
| 12>   nprocs 6
| 13>   end
| 14> * xyz 0 1
| 15>    C        2.70553        -1.89515         3.19147
| 16>    O        2.16075        -2.85532         3.70500
| 17>    C        3.55588        -0.90458         3.87632
| 18>    C        3.98354         0.06298         2.94947
| 19>    C        4.80431         1.09556         3.37162
| 20>    C        5.18218         1.14313         4.70934
| 21>    C        4.74982         0.17735         5.62135
| 22>    C        3.92646        -0.86045         5.20410
| 23>   Br        5.28013         0.26701         7.43224
| 24>   Br        6.30578         2.55039         5.28286
| 25>    C        3.42509        -0.25988         1.63649
| 26>    C        3.58732         0.49287         0.50478
| 27>    C        4.33988         1.68706         0.45316
| 28>    N        4.94100         2.65850         0.34847
| 29>    C        3.02724         0.21031        -0.76036
| 30>    N        2.60029         0.05707        -1.81476
| 31>    C        2.66471        -1.48911         1.78289
| 32>    C        2.05701        -2.18715         0.77032
| 33>    C        1.31822        -3.37982         0.80383
| 34>    C        0.83554        -3.97563        -0.36978
| 35>    C        0.14814        -5.14679        -0.12263
| 36>    C        0.08124        -5.44775         1.26078
| 37>    S        0.88173        -4.30819         2.23834
| 38>    C       -0.62403        -6.66573         1.41421
| 39>    C       -0.98829        -7.13965         0.13589
| 40>    C       -0.53161        -6.19410        -0.86941
| 41>    C       -0.70668        -6.27524        -2.21873
| 42>    C       -1.39548        -7.35378        -2.81447
| 43>    N       -1.95622        -8.23373        -3.28884
| 44>    C       -0.21514        -5.29056        -3.10246
| 45>    N        0.18661        -4.49344        -3.82124
| 46>    C       -1.65196        -8.35499         0.19130
| 47>    C       -1.81409        -8.81037         1.49906
| 48>    S       -1.15797        -7.68278         2.67389
| 49>    C       -2.38054       -10.07429         1.81376
| 50>    C       -2.56750       -10.76512         3.01663
| 51>    N       -2.26901       -10.19657         4.27561
| 52>    O       -2.30742        -8.97792         4.36887
| 53>    O       -1.98832       -10.92933         5.20126
| 54>    C       -3.09165       -12.07837         2.86968
| 55>    C       -3.45098       -12.99676         3.98393
| 56>    C       -3.28933       -12.40320         1.54100
| 57>    S       -2.84463       -11.08770         0.48329
| 58>    C       -3.73591       -13.61689         0.94954
| 59>    C       -3.82438       -13.85844        -0.41328
| 60>    C       -4.22964       -15.16022        -0.69202
| 61>    C       -4.46270       -15.92088         0.46787
| 62>    S       -4.17971       -15.02813         1.89397
| 63>    C       -4.85181       -17.22822         0.08604
| 64>    C       -4.85225       -17.29445        -1.32333
| 65>    C       -4.47854       -15.99658        -1.85688
| 66>    C       -4.40791       -15.64374        -3.17164
| 67>    C       -4.70245       -16.57291        -4.19252
| 68>    N       -4.94269       -17.34762        -5.00273
| 69>    C       -4.03655       -14.34558        -3.58205
| 70>    N       -3.72838       -13.28917        -3.90143
| 71>    C       -5.22571       -18.53988        -1.80607
| 72>    C       -5.52509       -19.43247        -0.78502
| 73>    S       -5.29965       -18.70330         0.80318
| 74>    C       -5.90554       -20.78656        -0.87124
| 75>    C       -6.36857       -21.48325        -1.94860
| 76>    C       -6.27883       -22.96984        -1.92049
| 77>    O       -6.04391       -23.66368        -0.96050
| 78>    C       -6.48059       -23.39185        -3.32312
| 79>    C       -6.80001       -22.26919        -4.10896
| 80>    C       -6.88817       -21.09373        -3.24240
| 81>    C       -7.58138       -19.95249        -3.54824
| 82>    C       -7.85996       -18.93136        -2.61850
| 83>    N       -8.12424       -18.08816        -1.88582
| 84>    C       -8.18103       -19.71068        -4.80345
| 85>    N       -8.69007       -19.47403        -5.80335
| 86>    C       -6.98619       -22.41098        -5.47293
| 87>    C       -6.86268       -23.67884        -6.03101
| 88>    C       -6.56566       -24.79229        -5.24100
| 89>    C       -6.36882       -24.65202        -3.87296
| 90>   Br       -6.41795       -26.50540        -6.02384
| 91>   Br       -7.10021       -23.87648        -7.89475
| 92>    H        5.16084         1.85899         2.69961
| 93>    H        3.58569        -1.61353         5.89755
| 94>    H        2.16248        -1.78656        -0.23077
| 95>    H        1.00517        -3.54677        -1.34172
| 96>    H       -2.00290        -8.90412        -0.66449
| 97>    H       -3.32512       -12.51783         4.94959
| 98>    H       -2.81185       -13.87978         3.96534
| 99>    H       -4.48441       -13.32691         3.87984
|100>    H       -3.59177       -13.11292        -1.15260
|101>    H       -5.23346       -18.81369        -2.84496
|102>    H       -5.74320       -21.38743         0.01869
|103>    H       -7.20804       -21.57088        -6.11139
|104>    H       -6.13319       -25.50492        -3.25561
|105> *
|106>
|107>                          ****END OF INPUT****

CARTESIAN COORDINATES (ANGSTROEM)
---------------------------------
  C      2.705530   -1.895150    3.191470
  O      2.160750   -2.855320    3.705000
  C      3.555880   -0.904580    3.876320
  C      3.983540    0.062980    2.949470
  C      4.804310    1.095560    3.371620
  C      5.182180    1.143130    4.709340
  C      4.749820    0.177350    5.621350
  C      3.926460   -0.860450    5.204100
  Br     5.280130    0.267010    7.432240
  Br     6.305780    2.550390    5.282860
  C      3.425090   -0.259880    1.636490
  C      3.587320    0.492870    0.504780
  C      4.339880    1.687060    0.453160
  N      4.941000    2.658500    0.348470
  C      3.027240    0.210310   -0.760360
  N      2.600290    0.057070   -1.814760
  C      2.664710   -1.489110    1.782890
  C      2.057010   -2.187150    0.770320
  C      1.318220   -3.379820    0.803830
  C      0.835540   -3.975630   -0.369780
  C      0.148140   -5.146790   -0.122630
  C      0.081240   -5.447750    1.260780
  S      0.881730   -4.308190    2.238340
  C     -0.624030   -6.665730    1.414210
  C     -0.988290   -7.139650    0.135890
  C     -0.531610   -6.194100   -0.869410
  C     -0.706680   -6.275240   -2.218730
  C     -1.395480   -7.353780   -2.814470
  N     -1.956220   -8.233730   -3.288840
  C     -0.215140   -5.290560   -3.102460
  N      0.186610   -4.493440   -3.821240
  C     -1.651960   -8.354990    0.191300
  C     -1.814090   -8.810370    1.499060
  S     -1.157970   -7.682780    2.673890
  C     -2.380540  -10.074290    1.813760
  C     -2.567500  -10.765120    3.016630
  N     -2.269010  -10.196570    4.275610
  O     -2.307420   -8.977920    4.368870
  O     -1.988320  -10.929330    5.201260
  C     -3.091650  -12.078370    2.869680
  C     -3.450980  -12.996760    3.983930
  C     -3.289330  -12.403200    1.541000
  S     -2.844630  -11.087700    0.483290
  C     -3.735910  -13.616890    0.949540
  C     -3.824380  -13.858440   -0.413280
  C     -4.229640  -15.160220   -0.692020
  C     -4.462700  -15.920880    0.467870
  S     -4.179710  -15.028130    1.893970
  C     -4.851810  -17.228220    0.086040
  C     -4.852250  -17.294450   -1.323330
  C     -4.478540  -15.996580   -1.856880
  C     -4.407910  -15.643740   -3.171640
  C     -4.702450  -16.572910   -4.192520
  N     -4.942690  -17.347620   -5.002730
  C     -4.036550  -14.345580   -3.582050
  N     -3.728380  -13.289170   -3.901430
  C     -5.225710  -18.539880   -1.806070
  C     -5.525090  -19.432470   -0.785020
  S     -5.299650  -18.703300    0.803180
  C     -5.905540  -20.786560   -0.871240
  C     -6.368570  -21.483250   -1.948600
  C     -6.278830  -22.969840   -1.920490
  O     -6.043910  -23.663680   -0.960500
  C     -6.480590  -23.391850   -3.323120
  C     -6.800010  -22.269190   -4.108960
  C     -6.888170  -21.093730   -3.242400
  C     -7.581380  -19.952490   -3.548240
  C     -7.859960  -18.931360   -2.618500
  N     -8.124240  -18.088160   -1.885820
  C     -8.181030  -19.710680   -4.803450
  N     -8.690070  -19.474030   -5.803350
  C     -6.986190  -22.410980   -5.472930
  C     -6.862680  -23.678840   -6.031010
  C     -6.565660  -24.792290   -5.241000
  C     -6.368820  -24.652020   -3.872960
  Br    -6.417950  -26.505400   -6.023840
  Br    -7.100210  -23.876480   -7.894750
  H      5.160840    1.858990    2.699610
  H      3.585690   -1.613530    5.897550
  H      2.162480   -1.786560   -0.230770
  H      1.005170   -3.546770   -1.341720
  H     -2.002900   -8.904120   -0.664490
  H     -3.325120  -12.517830    4.949590
  H     -2.811850  -13.879780    3.965340
  H     -4.484410  -13.326910    3.879840
  H     -3.591770  -13.112920   -1.152600
  H     -5.233460  -18.813690   -2.844960
  H     -5.743200  -21.387430    0.018690
  H     -7.208040  -21.570880   -6.111390
  H     -6.133190  -25.504920   -3.255610

 Total Charge           Charge          ....    0
 Multiplicity           Mult            ....    1
 Number of Electrons    NEL             ....  658
 Basis Dimension        Dim             .... 1235

ORBITAL ENERGIES
----------------

  NO   OCC          E(Eh)            E(eV)
   0   2.0000    -482.882646    -13139.9048
   1   2.0000    -482.880615    -13139.8495
   2   2.0000    -482.879536    -13139.8202
   3   2.0000    -482.877912    -13139.7760
   4   2.0000     -89.010759     -2422.1059
   5   2.0000     -89.006602     -2421.9928
   6   2.0000     -89.004449     -2421.9342
   7   2.0000     -89.000267     -2421.8204
   8   2.0000     -88.999957     -2421.8120
   9   2.0000     -62.560263     -1702.3513
  10   2.0000     -62.558247     -1702.2964
  11   2.0000     -62.557145     -1702.2665
  12   2.0000     -62.555539     -1702.2227
  13   2.0000     -56.394216     -1534.5646
  14   2.0000     -56.392214     -1534.5102
  15   2.0000     -56.391560     -1534.4924
  16   2.0000     -56.391454     -1534.4895
  17   2.0000     -56.391097     -1534.4798
  18   2.0000     -56.389534     -1534.4372
  19   2.0000     -56.389504     -1534.4364
  20   2.0000     -56.389433     -1534.4345
  21   2.0000     -56.388438     -1534.4074
  22   2.0000     -56.388348     -1534.4050
  23   2.0000     -56.386826     -1534.3635
  24   2.0000     -56.386729     -1534.3609
  25   2.0000     -19.269019      -524.3367
  26   2.0000     -19.268095      -524.3115
  27   2.0000     -19.239242      -523.5264
  28   2.0000     -19.227773      -523.2143
  29   2.0000     -14.675519      -399.3412
  30   2.0000     -14.442561      -393.0021
  31   2.0000     -14.440752      -392.9528
  32   2.0000     -14.438393      -392.8886
  33   2.0000     -14.437332      -392.8598
  34   2.0000     -14.428474      -392.6187
  35   2.0000     -14.428200      -392.6113
  36   2.0000     -14.424870      -392.5207
  37   2.0000     -14.422092      -392.4451
  38   2.0000     -10.387144      -282.6486
  39   2.0000     -10.379141      -282.4308
  40   2.0000     -10.378625      -282.4167
  41   2.0000     -10.374436      -282.3028
  42   2.0000     -10.367276      -282.1079
  43   2.0000     -10.365062      -282.0477
  44   2.0000     -10.362671      -281.9826
  45   2.0000     -10.360335      -281.9190
  46   2.0000     -10.359967      -281.9090
  47   2.0000     -10.357444      -281.8404
  48   2.0000     -10.356910      -281.8259
  49   2.0000     -10.356761      -281.8218
  50   2.0000     -10.356710      -281.8204
  51   2.0000     -10.355901      -281.7984
  52   2.0000     -10.355129      -281.7774
  53   2.0000     -10.354913      -281.7715
  54   2.0000     -10.354306      -281.7550
  55   2.0000     -10.351853      -281.6882
  56   2.0000     -10.349727      -281.6304
  57   2.0000     -10.346302      -281.5372
  58   2.0000     -10.344917      -281.4995
  59   2.0000     -10.344466      -281.4872
  60   2.0000     -10.342428      -281.4318
  61   2.0000     -10.341006      -281.3931
  62   2.0000     -10.340251      -281.3725
  63   2.0000     -10.339102      -281.3413
  64   2.0000     -10.338242      -281.3179
  65   2.0000     -10.338159      -281.3156
  66   2.0000     -10.337625      -281.3011
  67   2.0000     -10.336918      -281.2818
  68   2.0000     -10.335572      -281.2452
  69   2.0000     -10.330777      -281.1147
  70   2.0000     -10.330167      -281.0981
  71   2.0000     -10.328885      -281.0632
  72   2.0000     -10.327090      -281.0144
  73   2.0000     -10.325308      -280.9659
  74   2.0000     -10.323858      -280.9264
  75   2.0000     -10.323806      -280.9251
  76   2.0000     -10.323316      -280.9117
  77   2.0000     -10.323128      -280.9066
  78   2.0000     -10.322767      -280.8968
  79   2.0000     -10.321763      -280.8695
  80   2.0000     -10.319940      -280.8198
  81   2.0000     -10.319356      -280.8040
  82   2.0000     -10.319289      -280.8021
  83   2.0000     -10.317847      -280.7629
  84   2.0000     -10.317801      -280.7616
  85   2.0000     -10.316654      -280.7304
  86   2.0000     -10.315917      -280.7104
  87   2.0000     -10.315144      -280.6893
  88   2.0000     -10.312342      -280.6131
  89   2.0000     -10.311409      -280.5877
  90   2.0000     -10.310698      -280.5683
  91   2.0000     -10.308476      -280.5079
  92   2.0000     -10.292745      -280.0798
  93   2.0000      -8.789600      -239.1772
  94   2.0000      -8.787589      -239.1224
  95   2.0000      -8.786469      -239.0920
  96   2.0000      -8.784874      -239.0486
  97   2.0000      -8.104572      -220.5366
  98   2.0000      -8.101247      -220.4461
  99   2.0000      -8.097301      -220.3387
 100   2.0000      -8.095109      -220.2791
 101   2.0000      -8.092682      -220.2131
 102   2.0000      -6.625753      -180.2959
 103   2.0000      -6.623795      -180.2426
 104   2.0000      -6.622616      -180.2105
 105   2.0000      -6.621062      -180.1683
 106   2.0000      -6.611722      -179.9141
 107   2.0000      -6.610914      -179.8921
 108   2.0000      -6.609681      -179.8586
 109   2.0000      -6.608877      -179.8367
 110   2.0000      -6.608580      -179.8286
 111   2.0000      -6.607807      -179.8076
 112   2.0000      -6.606971      -179.7848
 113   2.0000      -6.606174      -179.7631
 114   2.0000      -6.073982      -165.2814
 115   2.0000      -6.070426      -165.1847
 116   2.0000      -6.069530      -165.1603
 117   2.0000      -6.066930      -165.0895
 118   2.0000      -6.066808      -165.0862
 119   2.0000      -6.066233      -165.0706
 120   2.0000      -6.064578      -165.0256
 121   2.0000      -6.063747      -165.0029
 122   2.0000      -6.062036      -164.9564
 123   2.0000      -6.062031      -164.9563
 124   2.0000      -6.060426      -164.9126
 125   2.0000      -6.059687      -164.8925
 126   2.0000      -6.057341      -164.8286
 127   2.0000      -6.056772      -164.8131
 128   2.0000      -6.055282      -164.7726
 129   2.0000      -2.741636       -74.6037
 130   2.0000      -2.739640       -74.5494
 131   2.0000      -2.738490       -74.5181
 132   2.0000      -2.737878       -74.5014
 133   2.0000      -2.737296       -74.4856
 134   2.0000      -2.736963       -74.4765
 135   2.0000      -2.735896       -74.4475
 136   2.0000      -2.735313       -74.4317
 137   2.0000      -2.734748       -74.4163
 138   2.0000      -2.734161       -74.4003
 139   2.0000      -2.733174       -74.3734
 140   2.0000      -2.732551       -74.3565
 141   2.0000      -2.726109       -74.1812
 142   2.0000      -2.726093       -74.1808
 143   2.0000      -2.724056       -74.1253
 144   2.0000      -2.724042       -74.1250
 145   2.0000      -2.722989       -74.0963
 146   2.0000      -2.722972       -74.0958
 147   2.0000      -2.721340       -74.0514
 148   2.0000      -2.721333       -74.0512
 149   2.0000      -1.349269       -36.7155
 150   2.0000      -1.166800       -31.7503
 151   2.0000      -1.155178       -31.4340
 152   2.0000      -1.143848       -31.1257
 153   2.0000      -1.062395       -28.9092
 154   2.0000      -1.057925       -28.7876
 155   2.0000      -1.041898       -28.3515
 156   2.0000      -1.033948       -28.1352
 157   2.0000      -1.033697       -28.1283
 158   2.0000      -1.031719       -28.0745
 159   2.0000      -1.029857       -28.0238
 160   2.0000      -1.019581       -27.7442
 161   2.0000      -1.017370       -27.6840
 162   2.0000      -1.016577       -27.6625
 163   2.0000      -1.015391       -27.6302
 164   2.0000      -1.014081       -27.5945
 165   2.0000      -1.007881       -27.4258
 166   2.0000      -1.004894       -27.3445
 167   2.0000      -1.002432       -27.2776
 168   2.0000      -0.985929       -26.8285
 169   2.0000      -0.983641       -26.7662
 170   2.0000      -0.974882       -26.5279
 171   2.0000      -0.969874       -26.3916
 172   2.0000      -0.941764       -25.6267
 173   2.0000      -0.936384       -25.4803
 174   2.0000      -0.929959       -25.3055
 175   2.0000      -0.927944       -25.2506
 176   2.0000      -0.924897       -25.1677
 177   2.0000      -0.919760       -25.0279
 178   2.0000      -0.916484       -24.9388
 179   2.0000      -0.914087       -24.8736
 180   2.0000      -0.905627       -24.6434
 181   2.0000      -0.898900       -24.4603
 182   2.0000      -0.886987       -24.1362
 183   2.0000      -0.883942       -24.0533
 184   2.0000      -0.874834       -23.8054
 185   2.0000      -0.870649       -23.6916
 186   2.0000      -0.868544       -23.6343
 187   2.0000      -0.866960       -23.5912
 188   2.0000      -0.859976       -23.4011
 189   2.0000      -0.857070       -23.3221
 190   2.0000      -0.839858       -22.8537
 191   2.0000      -0.824188       -22.4273
 192   2.0000      -0.804715       -21.8974
 193   2.0000      -0.798542       -21.7294
 194   2.0000      -0.792552       -21.5664
 195   2.0000      -0.787563       -21.4307
 196   2.0000      -0.781744       -21.2723
 197   2.0000      -0.778225       -21.1766
 198   2.0000      -0.775038       -21.0899
 199   2.0000      -0.762206       -20.7407
 200   2.0000      -0.748393       -20.3648
 201   2.0000      -0.730454       -19.8767
 202   2.0000      -0.724812       -19.7231
 203   2.0000      -0.713815       -19.4239
 204   2.0000      -0.710774       -19.3412
 205   2.0000      -0.706205       -19.2168
 206   2.0000      -0.705068       -19.1859
 207   2.0000      -0.700461       -19.0605
 208   2.0000      -0.698054       -18.9950
 209   2.0000      -0.692534       -18.8448
 210   2.0000      -0.689999       -18.7758
 211   2.0000      -0.684303       -18.6208
 212   2.0000      -0.675053       -18.3691
 213   2.0000      -0.668783       -18.1985
 214   2.0000      -0.661970       -18.0131
 215   2.0000      -0.655894       -17.8478
 216   2.0000      -0.649259       -17.6672
 217   2.0000      -0.647522       -17.6200
 218   2.0000      -0.638858       -17.3842
 219   2.0000      -0.634683       -17.2706
 220   2.0000      -0.633176       -17.2296
 221   2.0000      -0.630959       -17.1693
 222   2.0000      -0.627181       -17.0665
 223   2.0000      -0.625774       -17.0282
 224   2.0000      -0.620920       -16.8961
 225   2.0000      -0.610888       -16.6231
 226   2.0000      -0.607731       -16.5372
 227   2.0000      -0.597948       -16.2710
 228   2.0000      -0.592454       -16.1215
 229   2.0000      -0.589279       -16.0351
 230   2.0000      -0.580991       -15.8096
 231   2.0000      -0.574948       -15.6451
 232   2.0000      -0.568112       -15.4591
 233   2.0000      -0.565568       -15.3899
 234   2.0000      -0.562941       -15.3184
 235   2.0000      -0.561500       -15.2792
 236   2.0000      -0.557765       -15.1775
 237   2.0000      -0.555938       -15.1278
 238   2.0000      -0.554760       -15.0958
 239   2.0000      -0.550402       -14.9772
 240   2.0000      -0.549497       -14.9526
 241   2.0000      -0.548237       -14.9183
 242   2.0000      -0.546399       -14.8683
 243   2.0000      -0.544858       -14.8263
 244   2.0000      -0.536794       -14.6069
 245   2.0000      -0.534172       -14.5356
 246   2.0000      -0.529758       -14.4155
 247   2.0000      -0.527825       -14.3628
 248   2.0000      -0.522933       -14.2297
 249   2.0000      -0.518166       -14.1000
 250   2.0000      -0.517049       -14.0696
 251   2.0000      -0.516409       -14.0522
 252   2.0000      -0.514911       -14.0114
 253   2.0000      -0.512954       -13.9582
 254   2.0000      -0.511747       -13.9253
 255   2.0000      -0.510229       -13.8840
 256   2.0000      -0.508601       -13.8397
 257   2.0000      -0.505624       -13.7587
 258   2.0000      -0.502483       -13.6732
 259   2.0000      -0.501148       -13.6369
 260   2.0000      -0.499709       -13.5978
 261   2.0000      -0.496891       -13.5211
 262   2.0000      -0.495939       -13.4952
 263   2.0000      -0.492632       -13.4052
 264   2.0000      -0.488405       -13.2902
 265   2.0000      -0.484499       -13.1839
 266   2.0000      -0.481759       -13.1093
 267   2.0000      -0.471669       -12.8348
 268   2.0000      -0.471388       -12.8271
 269   2.0000      -0.469675       -12.7805
 270   2.0000      -0.469351       -12.7717
 271   2.0000      -0.467640       -12.7251
 272   2.0000      -0.467219       -12.7137
 273   2.0000      -0.466840       -12.7034
 274   2.0000      -0.464465       -12.6387
 275   2.0000      -0.464171       -12.6307
 276   2.0000      -0.459666       -12.5081
 277   2.0000      -0.459305       -12.4983
 278   2.0000      -0.458568       -12.4783
 279   2.0000      -0.456681       -12.4269
 280   2.0000      -0.452846       -12.3226
 281   2.0000      -0.451957       -12.2984
 282   2.0000      -0.451381       -12.2827
 283   2.0000      -0.450002       -12.2452
 284   2.0000      -0.448672       -12.2090
 285   2.0000      -0.447969       -12.1899
 286   2.0000      -0.447766       -12.1843
 287   2.0000      -0.445918       -12.1341
 288   2.0000      -0.443962       -12.0808
 289   2.0000      -0.442165       -12.0319
 290   2.0000      -0.438355       -11.9282
 291   2.0000      -0.437799       -11.9131
 292   2.0000      -0.437109       -11.8943
 293   2.0000      -0.435566       -11.8524
 294   2.0000      -0.434707       -11.8290
 295   2.0000      -0.432583       -11.7712
 296   2.0000      -0.429172       -11.6784
 297   2.0000      -0.427662       -11.6373
 298   2.0000      -0.420513       -11.4427
 299   2.0000      -0.418334       -11.3835
 300   2.0000      -0.413851       -11.2615
 301   2.0000      -0.410055       -11.1582
 302   2.0000      -0.408421       -11.1137
 303   2.0000      -0.406177       -11.0526
 304   2.0000      -0.403020       -10.9667
 305   2.0000      -0.400096       -10.8872
 306   2.0000      -0.398577       -10.8458
 307   2.0000      -0.395417       -10.7598
 308   2.0000      -0.392589       -10.6829
 309   2.0000      -0.391603       -10.6560
 310   2.0000      -0.382003       -10.3948
 311   2.0000      -0.370858       -10.0915
 312   2.0000      -0.363865        -9.9013
 313   2.0000      -0.361943        -9.8490
 314   2.0000      -0.358911        -9.7665
 315   2.0000      -0.356378        -9.6975
 316   2.0000      -0.354123        -9.6362
 317   2.0000      -0.350929        -9.5493
 318   2.0000      -0.350426        -9.5356
 319   2.0000      -0.346824        -9.4376
 320   2.0000      -0.342371        -9.3164
 321   2.0000      -0.338019        -9.1980
 322   2.0000      -0.336354        -9.1527
 323   2.0000      -0.332036        -9.0352
 324   2.0000      -0.321224        -8.7410
 325   2.0000      -0.317780        -8.6472
 326   2.0000      -0.315203        -8.5771
 327   2.0000      -0.286461        -7.7950
 328   2.0000      -0.261937        -7.1277
 329   0.0000      -0.126429        -3.4403
 330   0.0000      -0.119305        -3.2465
 331   0.0000      -0.098893        -2.6910
 332   0.0000      -0.097095        -2.6421
 333   0.0000      -0.085368        -2.3230

MULLIKEN ATOMIC CHARGES
-----------------------
   0 C :    0.166988
   1 O :   -0.179063
   2 C :   -0.012885
   3 C :    0.033647
   4 C :   -0.008289
   5 C :   -0.025161
   6 C :   -0.016927
   7 C :   -0.019135
   8 Br:    0.018201
   9 Br:    0.026799
  10 C :    0.318866
  11 C :   -0.343850
  12 C :   -0.185291
  13 N :    0.162579
  14 C :   -0.190103
  15 N :    0.159956
  16 C :   -0.091390
  17 C :   -0.028607
  18 C :   -0.050587
  19 C :   -0.062401
  20 C :    0.049828
  21 C :   -0.070955
  22 S :    0.251472
  23 C :   -0.089709
  24 C :    0.042271
  25 C :    0.307806
  26 C :   -0.290398
  27 C :   -0.191015
  28 N :    0.180040
  29 C :   -0.192946
  30 N :    0.185350
  31 C :   -0.080736
  32 C :   -0.060529
  33 S :    0.249644
  34 C :   -0.092964
  35 C :    0.109943
  36 N :    0.265265
  37 O :   -0.262743
  38 O :   -0.224016
  39 C :   -0.128318
  40 C :    0.114187
  41 C :   -0.081147
  42 S :    0.152919
  43 C :   -0.058672
  44 C :   -0.068739
  45 C :    0.037744
  46 C :   -0.099075
  47 S :    0.169577
  48 C :   -0.066075
  49 C :   -0.003231
  50 C :    0.299571
  51 C :   -0.278767
  52 C :   -0.183021
  53 N :    0.172436
  54 C :   -0.188626
  55 N :    0.186951
  56 C :   -0.003346
  57 C :   -0.109104
  58 S :    0.216629
  59 C :    0.082138
  60 C :   -0.137016
  61 C :    0.135449
  62 O :   -0.136781
  63 C :    0.006132
  64 C :    0.014935
  65 C :    0.262044
  66 C :   -0.324942
  67 C :   -0.197649
  68 N :    0.169509
  69 C :   -0.170763
  70 N :    0.169597
  71 C :   -0.005651
  72 C :   -0.025428
  73 C :   -0.017055
  74 C :   -0.019249
  75 Br:    0.016009
  76 Br:    0.025604
  77 H :    0.008210
  78 H :    0.006557
  79 H :    0.018666
  80 H :    0.029545
  81 H :    0.029080
  82 H :    0.044509
  83 H :    0.040077
  84 H :    0.037481
  85 H :    0.025091
  86 H :    0.026125
  87 H :    0.022542
  88 H :    0.016367
  89 H :    0.008021
Sum of atomic charges:   -0.0000000

LOEWDIN ATOMIC CHARGES
----------------------
   0 C :    0.085819
   1 O :   -0.165755
   2 C :   -0.043037
   3 C :   -0.010239
   4 C :   -0.005950
   5 C :   -0.117677
   6 C :   -0.122848
   7 C :    0.007061
   8 Br:    0.140705
   9 Br:    0.145167
  10 C :    0.073873
  11 C :   -0.130680
  12 C :   -0.019659
  13 N :   -0.041143
  14 C :   -0.023266
  15 N :   -0.039043
  16 C :   -0.110835
  17 C :    0.058294
  18 C :   -0.181967
  19 C :    0.013359
  20 C :   -0.072889
  21 C :   -0.166857
  22 S :    0.553316
  23 C :   -0.185751
  24 C :   -0.059164
  25 C :    0.075660
  26 C :   -0.097827
  27 C :   -0.018350
  28 N :   -0.025123
  29 C :   -0.020319
  30 N :   -0.021105
  31 C :   -0.023246
  32 C :   -0.193475
  33 S :    0.541917
  34 C :   -0.142317
  35 C :   -0.080832
  36 N :    0.288528
  37 O :   -0.225831
  38 O :   -0.182721
  39 C :   -0.038939
  40 C :   -0.063466
  41 C :   -0.183997
  42 S :    0.493298
  43 C :   -0.171658
  44 C :   -0.038010
  45 C :   -0.050560
  46 C :   -0.192789
  47 S :    0.507382
  48 C :   -0.157150
  49 C :   -0.066797
  50 C :    0.079501
  51 C :   -0.091270
  52 C :   -0.012133
  53 N :   -0.027168
  54 C :   -0.019245
  55 N :   -0.019690
  56 C :    0.012445
  57 C :   -0.182323
  58 S :    0.500530
  59 C :    0.044306
  60 C :   -0.094098
  61 C :    0.083862
  62 O :   -0.136232
  63 C :   -0.044910
  64 C :   -0.008675
  65 C :    0.063234
  66 C :   -0.130216
  67 C :   -0.015013
  68 N :   -0.041537
  69 C :   -0.021189
  70 N :   -0.035703
  71 C :   -0.006445
  72 C :   -0.117375
  73 C :   -0.123518
  74 C :    0.007445
  75 Br:    0.138994
  76 Br:    0.145341
  77 H :    0.045243
  78 H :    0.046502
  79 H :    0.054438
  80 H :    0.048860
  81 H :    0.034802
  82 H :    0.038691
  83 H :    0.038919
  84 H :    0.030547
  85 H :    0.036918
  86 H :    0.042854
  87 H :    0.046672
  88 H :    0.046687
  89 H :    0.046841

  Mayer bond orders larger than 0.100000
B(  0-C ,  1-O ) :   2.1264 B(  0-C ,  2-C ) :   0.9623 B(  0-C , 16-C ) :   0.9843
B(  2-C ,  3-C ) :   1.3281 B(  2-C ,  7-C ) :   1.3689 B(  3-C ,  4-C ) :   1.3695
B(  3-C , 10-C ) :   0.9875 B(  4-C ,  5-C ) :   1.3664 B(  4-C , 77-H ) :   0.9787
B(  5-C ,  6-C ) :   1.4225 B(  5-C ,  9-Br) :   1.0610 B(  6-C ,  7-C ) :   1.3500
B(  6-C ,  8-Br) :   1.0356 B(  7-C , 78-H ) :   1.0083 B( 10-C , 11-C ) :   1.6440
B( 10-C , 16-C ) :   1.0762 B( 11-C , 12-C ) :   1.1414 B( 11-C , 14-C ) :   1.1408
B( 12-C , 13-N ) :   2.9698 B( 14-C , 15-N ) :   2.9639 B( 16-C , 17-C ) :   1.4940
B( 17-C , 18-C ) :   1.2684 B( 17-C , 79-H ) :   0.9406 B( 18-C , 19-C ) :   1.3237
B( 18-C , 22-S ) :   1.0726 B( 19-C , 20-C ) :   1.3323 B( 19-C , 80-H ) :   1.0092
B( 20-C , 21-C ) :   1.3527 B( 20-C , 25-C ) :   0.9854 B( 21-C , 22-S ) :   1.1313
B( 21-C , 23-C ) :   1.2002 B( 23-C , 24-C ) :   1.3939 B( 23-C , 33-S ) :   1.1169
B( 24-C , 25-C ) :   0.9933 B( 24-C , 31-C ) :   1.3431 B( 25-C , 26-C ) :   1.7188
B( 26-C , 27-C ) :   1.1331 B( 26-C , 29-C ) :   1.1334 B( 27-C , 28-N ) :   2.9869
B( 29-C , 30-N ) :   2.9937 B( 31-C , 32-C ) :   1.3895 B( 31-C , 81-H ) :   0.9786
B( 32-C , 33-S ) :   1.1121 B( 32-C , 34-C ) :   1.1956 B( 34-C , 35-C ) :   1.4359
B( 34-C , 42-S ) :   1.1770 B( 35-C , 36-N ) :   0.9491 B( 35-C , 39-C ) :   1.2457
B( 36-N , 37-O ) :   1.4522 B( 36-N , 38-O ) :   1.5281 B( 37-O , 38-O ) :   0.2459
B( 39-C , 40-C ) :   1.1247 B( 39-C , 41-C ) :   1.5429 B( 40-C , 82-H ) :   0.9165
B( 40-C , 83-H ) :   0.9249 B( 40-C , 84-H ) :   0.9305 B( 41-C , 42-S ) :   1.0904
B( 41-C , 43-C ) :   1.1626 B( 43-C , 44-C ) :   1.4341 B( 43-C , 47-S ) :   1.1131
B( 44-C , 45-C ) :   1.3207 B( 44-C , 85-H ) :   0.9830 B( 45-C , 46-C ) :   1.4341
B( 45-C , 50-C ) :   0.9901 B( 46-C , 47-S ) :   1.1075 B( 46-C , 48-C ) :   1.1907
B( 48-C , 49-C ) :   1.4036 B( 48-C , 58-S ) :   1.1576 B( 49-C , 50-C ) :   1.0001
B( 49-C , 56-C ) :   1.3622 B( 50-C , 51-C ) :   1.7248 B( 51-C , 52-C ) :   1.1334
B( 51-C , 54-C ) :   1.1295 B( 52-C , 53-N ) :   2.9805 B( 54-C , 55-N ) :   2.9927
B( 56-C , 57-C ) :   1.3884 B( 56-C , 86-H ) :   0.9784 B( 57-C , 58-S ) :   1.0846
B( 57-C , 59-C ) :   1.1481 B( 59-C , 60-C ) :   1.6614 B( 59-C , 87-H ) :   0.9280
B( 60-C , 61-C ) :   0.9483 B( 60-C , 65-C ) :   1.0394 B( 61-C , 62-O ) :   2.2683
B( 61-C , 63-C ) :   0.9209 B( 63-C , 64-C ) :   1.3294 B( 63-C , 74-C ) :   1.3737
B( 64-C , 65-C ) :   0.9990 B( 64-C , 71-C ) :   1.3742 B( 65-C , 66-C ) :   1.6611
B( 66-C , 67-C ) :   1.1700 B( 66-C , 69-C ) :   1.1227 B( 67-C , 68-N ) :   2.9946
B( 69-C , 70-N ) :   2.9954 B( 71-C , 72-C ) :   1.3681 B( 71-C , 88-H ) :   0.9828
B( 72-C , 73-C ) :   1.4218 B( 72-C , 76-Br) :   1.0547 B( 73-C , 74-C ) :   1.3569
B( 73-C , 75-Br) :   1.0335 B( 74-C , 89-H ) :   1.0073

-----------------------------------------------------------------------------
         ABSORPTION SPECTRUM VIA TRANSITION ELECTRIC DIPOLE MOMENTS
-----------------------------------------------------------------------------
State   Energy  Wavelength   fosc         T2         TX        TY        TZ
        (cm-1)    (nm)                  (au**2)     (au)      (au)      (au)
-----------------------------------------------------------------------------
   0   13219.9    756.4   0.687582336  17.12274  -1.67838  -3.66178  -0.94719
   1   14695.5    680.5   0.313120436   7.01458  -1.31033  -2.29824   0.12534
   2   19145.3    522.3   1.447565730  24.89159   2.27062   4.35968   0.85385
   3   20777.0    481.3   0.089668244   1.42080  -0.04057  -0.13065   1.18410
   4   22033.7    453.9   0.047844971   0.71487  -0.43069  -0.70482   0.18054
   5   23336.5    428.5   0.088026748   1.24181  -0.77867  -0.74684  -0.27876
   6   24021.4    416.3   0.094407752   1.29385   0.58178   0.71724   0.66405
   7   26043.7    384.0   0.171401578   2.16664   0.72592   0.92357   0.88696
   8   26500.4    377.4   0.174729734   2.17065   0.45631   1.29806   0.52676
   9   27678.1    361.3   0.235633084   2.80270  -0.05646   1.58686   0.53047
  10   28140.9    355.4   0.006135362   0.07178  -0.11381   0.03948   0.23930
  11   28492.7    351.0   0.112585270   1.30084   0.03822   1.01949  -0.50991
  12   28714.4    348.3   0.078297906   0.89769   0.03675   0.73017   0.60265
  13   29182.9    342.7   0.037199765   0.41965   0.19562   0.17636   0.59185
  14   29607.9    337.7   0.097179935   1.08055   0.65932   0.70080   0.39335
  15   29815.5    335.4   0.269721452   2.97817  -0.26138   0.09780  -1.70302
  16   30053.8    332.7   0.052158651   0.57135  -0.31543  -0.07698  -0.68259
  17   30416.6    328.8   0.091799282   0.99358  -0.17102   0.25289   0.94889
  18   30775.9    324.9   0.302828648   3.23938   0.12011   0.89218   1.55852
  19   31182.8    320.7   0.047495211   0.50143  -0.44177  -0.40012   0.38232
  20   31684.5    315.6   0.186201870   1.93470   0.53392   0.94432   0.87057
  21   31903.8    313.4   0.334749559   3.45424   0.22323   1.51979  -1.04625
  22   32604.0    306.7   0.112077818   1.13168  -0.70811  -0.73090  -0.30991
  23   32926.2    303.7   0.066722875   0.66713  -0.10476   0.79827   0.13754
  24   33026.7    302.8   0.023182605   0.23109   0.21451  -0.27301  -0.33247
  25   33154.9    301.6   0.022066138   0.21911   0.14791   0.21366   0.38933
  26   33306.5    300.2   0.022515959   0.22255  -0.46417  -0.04868  -0.06876
  27   33422.9    299.2   0.259025577   2.55137   0.04738   1.10315   1.15420
  28   33935.8    294.7   0.005982704   0.05804   0.19107   0.09820   0.10903
  29   34098.5    293.3   0.272599603   2.63188  -0.58692  -0.99883  -1.13567
  30   34471.9    290.1   0.153475143   1.46571  -0.35915  -0.73943  -0.88880
  31   34682.6    288.3   0.153494483   1.45699   0.27338  -0.30097   1.13652
  32   34741.2    287.8   0.968244863   9.17521  -0.08339   1.01446  -2.85292
  33   34941.7    286.2   0.106431943   1.00278  -0.21936  -0.40517  -0.88910
  34   35011.2    285.6   0.064429530   0.60583   0.32239  -0.00673  -0.70841
  35   35414.3    282.4   0.014190279   0.13191  -0.13966  -0.11268  -0.31577
  36   35499.0    281.7   0.075184664   0.69725   0.25128  -0.44856  -0.65795
  37   35660.1    280.4   0.456551150   4.21485  -0.40436   1.98153  -0.35337
  38   35796.6    279.4   0.034725348   0.31936   0.27517   0.45594   0.18912
  39   36122.7    276.8   0.083613959   0.76203   0.02123  -0.37840  -0.78638
  40   36309.4    275.4   0.023542574   0.21346   0.15471  -0.24755  -0.35810
  41   36591.9    273.3   0.039183140   0.35252   0.09095  -0.46433   0.35868
  42   36763.5    272.0   0.045517140   0.40760   0.07361   0.39816   0.49361
  43   37005.3    270.2   0.005787033   0.05148  -0.00391   0.13349  -0.18344
  44   37091.7    269.6   0.016219790   0.14396   0.09660   0.05274   0.36311
  45   37265.0    268.3   0.000510430   0.00451  -0.00192   0.02456  -0.06247
  46   37343.8    267.8   0.002333345   0.02057   0.04826  -0.13345  -0.02077
  47   37372.7    267.6   0.006519658   0.05743  -0.04753   0.10703  -0.20909
  48   37499.0    266.7   0.016389113   0.14388   0.17810  -0.16654   0.29057
  49   37728.9    265.0   0.019831465   0.17304  -0.25893  -0.27842   0.16877
  50   37846.8    264.2   0.080226027   0.69785  -0.21447   0.13069  -0.79673
  51   38186.8    261.9   0.029063124   0.25056  -0.38909  -0.31035  -0.05338
  52   38295.9    261.1   0.180435987   1.55113  -0.64384  -1.05666   0.14167
  53   38655.4    258.7   0.011330319   0.09650   0.24271  -0.12073  -0.15169
  54   39506.0    253.1   0.020426904   0.17022   0.18826   0.35217  -0.10372
  55   39744.9    251.6   0.060122217   0.49800  -0.39220  -0.30059  -0.50381
  56   39919.1    250.5   0.028296958   0.23336  -0.05553  -0.22813  -0.42218
  57   40258.6    248.4   0.044421649   0.36326  -0.34593  -0.49074   0.05258
  58   40308.8    248.1   0.095869268   0.78299  -0.08709  -0.12671  -0.87141
  59   40317.4    248.0   0.077672063   0.63423   0.12822   0.38321  -0.68625

FINAL SINGLE POINT ENERGY    -15179.591890531623

DIPOLE MOMENT
-------------
                                X             Y             Z
Electronic contribution:     54.38153     -18.28861      -9.34121
Nuclear contribution   :    -53.71198      16.01535      13.13927
                        -----------------------------------------
Total Dipole Moment    :      0.66954      -2.27326       3.79806
                        -----------------------------------------
Magnitude (a.u.)       :      4.47675
Magnitude (Debye)      :     11.37899

Rotational constants in cm-1:     0.001739     0.000104     0.000100
Rotational constants in MHz :    52.136055     3.115010     2.999519

                             ****ORCA TERMINATED NORMALLY****
TOTAL RUN TIME: 0 days 0 hours 10 minutes 55 seconds 464 msec
