                         Program Version 4.2.0 -  RELEASE  -
|  1> # ORCA input file
|  2> # SCF done       -191.379829709854          0.000518552296
|  3> ! CAM-B3LYP def2-SVP def2/J RIJCOSX Grid4 TightSCF
|  4> %maxcore 5000
|  5> %tddft
|  6>     Mode sTDDFT
|  7>     Ethresh 5.0
|  8>     maxcore 5000
|  9> end
| 10>
| 11> %pal
| 12>   nprocs 6
| 13>   end
| 14> * xyz 0 1
| 15>    C        1.86729        -6.42671        -3.58597
| 16>    O        1.61103        -7.28487        -2.76289
| 17>    C        2.50777        -6.63827        -4.90099
| 18>    C        2.66004        -5.40079        -5.55189
| 19>    C        3.22084        -5.35668        -6.81694
| 20>    C        3.62311        -6.54940        -7.40912
| 21>    C        3.47432        -7.77178        -6.75128
| 22>    C        2.91035        -7.82177        -5.48269
| 23>   Br        4.03407        -9.37572        -7.57860
| 24>   Br        4.38198        -6.49240        -9.13934
| 25>    C        2.15669        -4.34380        -4.67507
| 26>    C        2.27395        -2.99876        -4.90795
| 27>    C        2.83629        -2.44817        -6.07977
| 28>    N        3.27855        -1.94646        -7.01201
| 29>    C        1.90984        -1.98207        -3.99947
| 30>    N        1.67626        -1.10374        -3.29783
| 31>    C        1.59838        -4.98767        -3.50247
| 32>    C        0.85889        -4.36750        -2.52695
| 33>    C        0.25575        -4.89611        -1.37817
| 34>    C       -0.50964        -4.08187        -0.51428
| 35>    O       -0.62958        -2.73535        -0.71910
| 36>    C        0.47495        -1.94565        -0.29770
| 37>    C       -1.14799        -4.80081         0.50597
| 38>    O       -1.90549        -4.33593         1.51386
| 39>    C       -2.44870        -3.03120         1.42736
| 40>    C       -0.83602        -6.16852         0.43821
| 41>    S        0.26709        -6.54589        -0.83640
| 42>    C       -1.33246        -7.21514         1.27339
| 43>    C       -2.64182        -7.24261         1.79811
| 44>    C       -3.07937        -8.31295         2.65666
| 45>    N       -4.33820        -8.32641         3.10035
| 46>    C       -5.18379        -7.39284         2.74160
| 47>    C       -4.75705        -6.35942         1.84353
| 48>    N       -3.52844        -6.31747         1.40124
| 49>    C       -5.67160        -5.36570         1.40928
| 50>    N       -6.41970        -4.56245         1.08416
| 51>    C       -6.51570        -7.47525         3.21044
| 52>    N       -7.60181        -7.55919         3.56484
| 53>    C       -2.25290        -9.40246         3.03463
| 54>    C       -0.99510        -9.43608         2.39891
| 55>    C       -0.55712        -8.36512         1.52943
| 56>    N        0.63845        -8.62051         0.99851
| 57>    S        1.14069       -10.05895         1.48945
| 58>    N       -0.10218       -10.42958         2.42951
| 59>    C       -2.79551       -10.42763         3.86425
| 60>    C       -2.19297       -11.42442         4.62659
| 61>    O       -0.92027       -11.53558         5.02940
| 62>    C       -0.21570       -10.36695         5.39958
| 63>    C       -3.12003       -12.40435         5.11250
| 64>    O       -2.60970       -13.37734         5.87579
| 65>    C       -3.45103       -14.36620         6.42115
| 66>    C       -4.43454       -12.09994         4.80721
| 67>    S       -4.52649       -10.58640         3.91425
| 68>    C       -5.66280       -12.73530         5.12434
| 69>    C       -6.85717       -12.11219         5.33196
| 70>    C       -8.12119       -12.87917         5.17697
| 71>    O       -8.23686       -14.08018         5.10199
| 72>    C       -9.17912       -11.85078         5.08190
| 73>    C       -8.62030       -10.57780         5.30482
| 74>    C       -7.20034       -10.73029         5.60757
| 75>    C       -6.42877        -9.80780         6.26017
| 76>    C       -5.13703       -10.08256         6.75586
| 77>    N       -4.10639       -10.27919         7.22286
| 78>    C       -6.85101        -8.50255         6.58772
| 79>    N       -7.12257        -7.42825         6.88479
| 80>    C       -9.41583        -9.44765         5.23130
| 81>    C      -10.76429        -9.60728         4.93455
| 82>    C      -11.31583       -10.87412         4.72745
| 83>    C      -10.52032       -12.01031         4.79961
| 84>   Br      -13.15463       -11.06214         4.33688
| 85>   Br      -11.85317        -8.07076         4.81403
| 86>    H        3.34962        -4.43285        -7.35714
| 87>    H        2.78770        -8.76056        -4.96542
| 88>    H        0.64769        -3.31370        -2.66995
| 89>    H        1.42343        -2.33673        -0.67297
| 90>    H        0.52010        -1.89183         0.79575
| 91>    H        0.30581        -0.95410        -0.71075
| 92>    H       -2.88335        -2.84511         0.44468
| 93>    H       -1.69641        -2.26884         1.64355
| 94>    H       -3.22936        -2.99122         2.18587
| 95>    H       -0.89862        -9.55954         5.67284
| 96>    H        0.44012       -10.03604         4.59248
| 97>    H        0.39045       -10.64149         6.26344
| 98>    H       -4.29873       -13.91972         6.95006
| 99>    H       -2.83106       -14.91907         7.12542
|100>    H       -3.81483       -15.04980         5.64937
|101>    H       -5.71816       -13.81699         5.07695
|102>    H       -9.01394        -8.45646         5.36489
|103>    H      -10.93833       -12.99162         4.63684
|104> *
|105>
|106>                          ****END OF INPUT****

CARTESIAN COORDINATES (ANGSTROEM)
---------------------------------
  C      1.867290   -6.426710   -3.585970
  O      1.611030   -7.284870   -2.762890
  C      2.507770   -6.638270   -4.900990
  C      2.660040   -5.400790   -5.551890
  C      3.220840   -5.356680   -6.816940
  C      3.623110   -6.549400   -7.409120
  C      3.474320   -7.771780   -6.751280
  C      2.910350   -7.821770   -5.482690
  Br     4.034070   -9.375720   -7.578600
  Br     4.381980   -6.492400   -9.139340
  C      2.156690   -4.343800   -4.675070
  C      2.273950   -2.998760   -4.907950
  C      2.836290   -2.448170   -6.079770
  N      3.278550   -1.946460   -7.012010
  C      1.909840   -1.982070   -3.999470
  N      1.676260   -1.103740   -3.297830
  C      1.598380   -4.987670   -3.502470
  C      0.858890   -4.367500   -2.526950
  C      0.255750   -4.896110   -1.378170
  C     -0.509640   -4.081870   -0.514280
  O     -0.629580   -2.735350   -0.719100
  C      0.474950   -1.945650   -0.297700
  C     -1.147990   -4.800810    0.505970
  O     -1.905490   -4.335930    1.513860
  C     -2.448700   -3.031200    1.427360
  C     -0.836020   -6.168520    0.438210
  S      0.267090   -6.545890   -0.836400
  C     -1.332460   -7.215140    1.273390
  C     -2.641820   -7.242610    1.798110
  C     -3.079370   -8.312950    2.656660
  N     -4.338200   -8.326410    3.100350
  C     -5.183790   -7.392840    2.741600
  C     -4.757050   -6.359420    1.843530
  N     -3.528440   -6.317470    1.401240
  C     -5.671600   -5.365700    1.409280
  N     -6.419700   -4.562450    1.084160
  C     -6.515700   -7.475250    3.210440
  N     -7.601810   -7.559190    3.564840
  C     -2.252900   -9.402460    3.034630
  C     -0.995100   -9.436080    2.398910
  C     -0.557120   -8.365120    1.529430
  N      0.638450   -8.620510    0.998510
  S      1.140690  -10.058950    1.489450
  N     -0.102180  -10.429580    2.429510
  C     -2.795510  -10.427630    3.864250
  C     -2.192970  -11.424420    4.626590
  O     -0.920270  -11.535580    5.029400
  C     -0.215700  -10.366950    5.399580
  C     -3.120030  -12.404350    5.112500
  O     -2.609700  -13.377340    5.875790
  C     -3.451030  -14.366200    6.421150
  C     -4.434540  -12.099940    4.807210
  S     -4.526490  -10.586400    3.914250
  C     -5.662800  -12.735300    5.124340
  C     -6.857170  -12.112190    5.331960
  C     -8.121190  -12.879170    5.176970
  O     -8.236860  -14.080180    5.101990
  C     -9.179120  -11.850780    5.081900
  C     -8.620300  -10.577800    5.304820
  C     -7.200340  -10.730290    5.607570
  C     -6.428770   -9.807800    6.260170
  C     -5.137030  -10.082560    6.755860
  N     -4.106390  -10.279190    7.222860
  C     -6.851010   -8.502550    6.587720
  N     -7.122570   -7.428250    6.884790
  C     -9.415830   -9.447650    5.231300
  C    -10.764290   -9.607280    4.934550
  C    -11.315830  -10.874120    4.727450
  C    -10.520320  -12.010310    4.799610
  Br   -13.154630  -11.062140    4.336880
  Br   -11.853170   -8.070760    4.814030
  H      3.349620   -4.432850   -7.357140
  H      2.787700   -8.760560   -4.965420
  H      0.647690   -3.313700   -2.669950
  H      1.423430   -2.336730   -0.672970
  H      0.520100   -1.891830    0.795750
  H      0.305810   -0.954100   -0.710750
  H     -2.883350   -2.845110    0.444680
  H     -1.696410   -2.268840    1.643550
  H     -3.229360   -2.991220    2.185870
  H     -0.898620   -9.559540    5.672840
  H      0.440120  -10.036040    4.592480
  H      0.390450  -10.641490    6.263440
  H     -4.298730  -13.919720    6.950060
  H     -2.831060  -14.919070    7.125420
  H     -3.814830  -15.049800    5.649370
  H     -5.718160  -13.816990    5.076950
  H     -9.013940   -8.456460    5.364890
  H    -10.938330  -12.991620    4.636840

 Total Charge           Charge          ....    0
 Multiplicity           Mult            ....    1
 Number of Electrons    NEL             ....  612
 Basis Dimension        Dim             .... 1168

ORBITAL ENERGIES
----------------

  NO   OCC          E(Eh)            E(eV)
   0   2.0000    -482.881020    -13139.8606
   1   2.0000    -482.878663    -13139.7964
   2   2.0000    -482.871349    -13139.5974
   3   2.0000    -482.867471    -13139.4919
   4   2.0000     -89.058894     -2423.4157
   5   2.0000     -88.973092     -2421.0809
   6   2.0000     -88.963042     -2420.8074
   7   2.0000     -62.558623     -1702.3067
   8   2.0000     -62.556296     -1702.2434
   9   2.0000     -62.548956     -1702.0436
  10   2.0000     -62.545100     -1701.9387
  11   2.0000     -56.392567     -1534.5198
  12   2.0000     -56.390260     -1534.4570
  13   2.0000     -56.389926     -1534.4479
  14   2.0000     -56.389822     -1534.4451
  15   2.0000     -56.387585     -1534.3842
  16   2.0000     -56.387489     -1534.3816
  17   2.0000     -56.382894     -1534.2565
  18   2.0000     -56.380261     -1534.1849
  19   2.0000     -56.380168     -1534.1824
  20   2.0000     -56.379059     -1534.1522
  21   2.0000     -56.376395     -1534.0797
  22   2.0000     -56.376299     -1534.0771
  23   2.0000     -19.267267      -524.2890
  24   2.0000     -19.259721      -524.0836
  25   2.0000     -19.259153      -524.0682
  26   2.0000     -19.258905      -524.0614
  27   2.0000     -19.232412      -523.3405
  28   2.0000     -19.219563      -522.9909
  29   2.0000     -14.476319      -393.9207
  30   2.0000     -14.467908      -393.6918
  31   2.0000     -14.466102      -393.6426
  32   2.0000     -14.463706      -393.5775
  33   2.0000     -14.443712      -393.0334
  34   2.0000     -14.437816      -392.8729
  35   2.0000     -14.427960      -392.6047
  36   2.0000     -14.422282      -392.4502
  37   2.0000     -14.416565      -392.2947
  38   2.0000     -14.413996      -392.2248
  39   2.0000     -10.393573      -282.8235
  40   2.0000     -10.391048      -282.7548
  41   2.0000     -10.380638      -282.4715
  42   2.0000     -10.370681      -282.2006
  43   2.0000     -10.360236      -281.9164
  44   2.0000     -10.359867      -281.9063
  45   2.0000     -10.359265      -281.8899
  46   2.0000     -10.358894      -281.8798
  47   2.0000     -10.357870      -281.8520
  48   2.0000     -10.357834      -281.8510
  49   2.0000     -10.357289      -281.8362
  50   2.0000     -10.356243      -281.8077
  51   2.0000     -10.356004      -281.8012
  52   2.0000     -10.355859      -281.7973
  53   2.0000     -10.352835      -281.7150
  54   2.0000     -10.351828      -281.6876
  55   2.0000     -10.347223      -281.5623
  56   2.0000     -10.346114      -281.5321
  57   2.0000     -10.344218      -281.4805
  58   2.0000     -10.342604      -281.4366
  59   2.0000     -10.339908      -281.3632
  60   2.0000     -10.338077      -281.3134
  61   2.0000     -10.336235      -281.2633
  62   2.0000     -10.331077      -281.1229
  63   2.0000     -10.331003      -281.1209
  64   2.0000     -10.330834      -281.1163
  65   2.0000     -10.329987      -281.0932
  66   2.0000     -10.329443      -281.0784
  67   2.0000     -10.327553      -281.0270
  68   2.0000     -10.326441      -280.9968
  69   2.0000     -10.326260      -280.9918
  70   2.0000     -10.325108      -280.9605
  71   2.0000     -10.324842      -280.9532
  72   2.0000     -10.322442      -280.8879
  73   2.0000     -10.322018      -280.8764
  74   2.0000     -10.321312      -280.8572
  75   2.0000     -10.319867      -280.8179
  76   2.0000     -10.316312      -280.7211
  77   2.0000     -10.316131      -280.7162
  78   2.0000     -10.315393      -280.6961
  79   2.0000     -10.311512      -280.5905
  80   2.0000     -10.311350      -280.5861
  81   2.0000     -10.308143      -280.4988
  82   2.0000     -10.306216      -280.4464
  83   2.0000     -10.305985      -280.4401
  84   2.0000     -10.301611      -280.3211
  85   2.0000     -10.300477      -280.2902
  86   2.0000     -10.298629      -280.2400
  87   2.0000      -8.787946      -239.1322
  88   2.0000      -8.785635      -239.0693
  89   2.0000      -8.778270      -238.8689
  90   2.0000      -8.774429      -238.7644
  91   2.0000      -8.149918      -221.7705
  92   2.0000      -8.066022      -219.4876
  93   2.0000      -8.056084      -219.2172
  94   2.0000      -6.624052      -180.2496
  95   2.0000      -6.621827      -180.1891
  96   2.0000      -6.614351      -179.9856
  97   2.0000      -6.610582      -179.8831
  98   2.0000      -6.610090      -179.8697
  99   2.0000      -6.609292      -179.8480
 100   2.0000      -6.607730      -179.8055
 101   2.0000      -6.606942      -179.7840
 102   2.0000      -6.600418      -179.6065
 103   2.0000      -6.599639      -179.5853
 104   2.0000      -6.596572      -179.5018
 105   2.0000      -6.595729      -179.4789
 106   2.0000      -6.120889      -166.5578
 107   2.0000      -6.113141      -166.3470
 108   2.0000      -6.112920      -166.3410
 109   2.0000      -6.035419      -164.2321
 110   2.0000      -6.031093      -164.1144
 111   2.0000      -6.027921      -164.0281
 112   2.0000      -6.026205      -163.9814
 113   2.0000      -6.021635      -163.8570
 114   2.0000      -6.016931      -163.7290
 115   2.0000      -2.739972       -74.5584
 116   2.0000      -2.737667       -74.4957
 117   2.0000      -2.736206       -74.4559
 118   2.0000      -2.735603       -74.4395
 119   2.0000      -2.733936       -74.3942
 120   2.0000      -2.733364       -74.3786
 121   2.0000      -2.730269       -74.2944
 122   2.0000      -2.726510       -74.1921
 123   2.0000      -2.726502       -74.1919
 124   2.0000      -2.725946       -74.1768
 125   2.0000      -2.724485       -74.1370
 126   2.0000      -2.724466       -74.1365
 127   2.0000      -2.722727       -74.0892
 128   2.0000      -2.722124       -74.0728
 129   2.0000      -2.722096       -74.0720
 130   2.0000      -2.722079       -74.0715
 131   2.0000      -2.714834       -73.8744
 132   2.0000      -2.714824       -73.8741
 133   2.0000      -2.710934       -73.7683
 134   2.0000      -2.710916       -73.7678
 135   2.0000      -1.181396       -32.1474
 136   2.0000      -1.172982       -31.9184
 137   2.0000      -1.159560       -31.5532
 138   2.0000      -1.155309       -31.4376
 139   2.0000      -1.153474       -31.3876
 140   2.0000      -1.147963       -31.2377
 141   2.0000      -1.134842       -30.8806
 142   2.0000      -1.134012       -30.8580
 143   2.0000      -1.060992       -28.8711
 144   2.0000      -1.031014       -28.0553
 145   2.0000      -1.026728       -27.9387
 146   2.0000      -1.022520       -27.8242
 147   2.0000      -1.016731       -27.6666
 148   2.0000      -1.015376       -27.6298
 149   2.0000      -1.011750       -27.5311
 150   2.0000      -1.005428       -27.3591
 151   2.0000      -1.003444       -27.3051
 152   2.0000      -1.003165       -27.2975
 153   2.0000      -0.995330       -27.0843
 154   2.0000      -0.991497       -26.9800
 155   2.0000      -0.983113       -26.7519
 156   2.0000      -0.979203       -26.6455
 157   2.0000      -0.971224       -26.4283
 158   2.0000      -0.927837       -25.2477
 159   2.0000      -0.923451       -25.1284
 160   2.0000      -0.920156       -25.0387
 161   2.0000      -0.917587       -24.9688
 162   2.0000      -0.915264       -24.9056
 163   2.0000      -0.910628       -24.7794
 164   2.0000      -0.905393       -24.6370
 165   2.0000      -0.899331       -24.4720
 166   2.0000      -0.877928       -23.8896
 167   2.0000      -0.869357       -23.6564
 168   2.0000      -0.862601       -23.4726
 169   2.0000      -0.858053       -23.3488
 170   2.0000      -0.853782       -23.2326
 171   2.0000      -0.846976       -23.0474
 172   2.0000      -0.845613       -23.0103
 173   2.0000      -0.834729       -22.7141
 174   2.0000      -0.827651       -22.5215
 175   2.0000      -0.813877       -22.1467
 176   2.0000      -0.804573       -21.8936
 177   2.0000      -0.800442       -21.7811
 178   2.0000      -0.783588       -21.3225
 179   2.0000      -0.778227       -21.1766
 180   2.0000      -0.774852       -21.0848
 181   2.0000      -0.773637       -21.0517
 182   2.0000      -0.766356       -20.8536
 183   2.0000      -0.753960       -20.5163
 184   2.0000      -0.749460       -20.3938
 185   2.0000      -0.736803       -20.0494
 186   2.0000      -0.721095       -19.6220
 187   2.0000      -0.711980       -19.3740
 188   2.0000      -0.707294       -19.2465
 189   2.0000      -0.703834       -19.1523
 190   2.0000      -0.700976       -19.0745
 191   2.0000      -0.694223       -18.8908
 192   2.0000      -0.686272       -18.6744
 193   2.0000      -0.676917       -18.4199
 194   2.0000      -0.671413       -18.2701
 195   2.0000      -0.669053       -18.2058
 196   2.0000      -0.661776       -18.0078
 197   2.0000      -0.652827       -17.7643
 198   2.0000      -0.645348       -17.5608
 199   2.0000      -0.641265       -17.4497
 200   2.0000      -0.636078       -17.3086
 201   2.0000      -0.632006       -17.1978
 202   2.0000      -0.625856       -17.0304
 203   2.0000      -0.621002       -16.8983
 204   2.0000      -0.617941       -16.8150
 205   2.0000      -0.613360       -16.6904
 206   2.0000      -0.605571       -16.4784
 207   2.0000      -0.595865       -16.2143
 208   2.0000      -0.592721       -16.1287
 209   2.0000      -0.591264       -16.0891
 210   2.0000      -0.587211       -15.9788
 211   2.0000      -0.581086       -15.8122
 212   2.0000      -0.580197       -15.7880
 213   2.0000      -0.579207       -15.7610
 214   2.0000      -0.574674       -15.6377
 215   2.0000      -0.572667       -15.5831
 216   2.0000      -0.570894       -15.5348
 217   2.0000      -0.560518       -15.2525
 218   2.0000      -0.556181       -15.1345
 219   2.0000      -0.555261       -15.1094
 220   2.0000      -0.552976       -15.0472
 221   2.0000      -0.551057       -14.9950
 222   2.0000      -0.546938       -14.8829
 223   2.0000      -0.545205       -14.8358
 224   2.0000      -0.543737       -14.7958
 225   2.0000      -0.541231       -14.7276
 226   2.0000      -0.540393       -14.7049
 227   2.0000      -0.539381       -14.6773
 228   2.0000      -0.538585       -14.6557
 229   2.0000      -0.527490       -14.3537
 230   2.0000      -0.525372       -14.2961
 231   2.0000      -0.522981       -14.2310
 232   2.0000      -0.516234       -14.0474
 233   2.0000      -0.510149       -13.8819
 234   2.0000      -0.508952       -13.8493
 235   2.0000      -0.507064       -13.7979
 236   2.0000      -0.504925       -13.7397
 237   2.0000      -0.501633       -13.6501
 238   2.0000      -0.501158       -13.6372
 239   2.0000      -0.499736       -13.5985
 240   2.0000      -0.496748       -13.5172
 241   2.0000      -0.495125       -13.4730
 242   2.0000      -0.493543       -13.4300
 243   2.0000      -0.490118       -13.3368
 244   2.0000      -0.486413       -13.2360
 245   2.0000      -0.484061       -13.1720
 246   2.0000      -0.481062       -13.0904
 247   2.0000      -0.474172       -12.9029
 248   2.0000      -0.471897       -12.8410
 249   2.0000      -0.467619       -12.7246
 250   2.0000      -0.467440       -12.7197
 251   2.0000      -0.462543       -12.5864
 252   2.0000      -0.459679       -12.5085
 253   2.0000      -0.457162       -12.4400
 254   2.0000      -0.455527       -12.3955
 255   2.0000      -0.454501       -12.3676
 256   2.0000      -0.453113       -12.3298
 257   2.0000      -0.451532       -12.2868
 258   2.0000      -0.451184       -12.2773
 259   2.0000      -0.449508       -12.2317
 260   2.0000      -0.446016       -12.1367
 261   2.0000      -0.442799       -12.0492
 262   2.0000      -0.441617       -12.0170
 263   2.0000      -0.440664       -11.9911
 264   2.0000      -0.438625       -11.9356
 265   2.0000      -0.437995       -11.9185
 266   2.0000      -0.435475       -11.8499
 267   2.0000      -0.435097       -11.8396
 268   2.0000      -0.432572       -11.7709
 269   2.0000      -0.430010       -11.7012
 270   2.0000      -0.427730       -11.6391
 271   2.0000      -0.427190       -11.6244
 272   2.0000      -0.426314       -11.6006
 273   2.0000      -0.422102       -11.4860
 274   2.0000      -0.421234       -11.4623
 275   2.0000      -0.419723       -11.4212
 276   2.0000      -0.416144       -11.3239
 277   2.0000      -0.414038       -11.2666
 278   2.0000      -0.403860       -10.9896
 279   2.0000      -0.403751       -10.9866
 280   2.0000      -0.400480       -10.8976
 281   2.0000      -0.397197       -10.8083
 282   2.0000      -0.393785       -10.7154
 283   2.0000      -0.392601       -10.6832
 284   2.0000      -0.389419       -10.5966
 285   2.0000      -0.386222       -10.5096
 286   2.0000      -0.383461       -10.4345
 287   2.0000      -0.381133       -10.3712
 288   2.0000      -0.371845       -10.1184
 289   2.0000      -0.366381        -9.9697
 290   2.0000      -0.362554        -9.8656
 291   2.0000      -0.359741        -9.7890
 292   2.0000      -0.352787        -9.5998
 293   2.0000      -0.351842        -9.5741
 294   2.0000      -0.345378        -9.3982
 295   2.0000      -0.342636        -9.3236
 296   2.0000      -0.339804        -9.2465
 297   2.0000      -0.337735        -9.1902
 298   2.0000      -0.331183        -9.0119
 299   2.0000      -0.321677        -8.7533
 300   2.0000      -0.317212        -8.6318
 301   2.0000      -0.307233        -8.3602
 302   2.0000      -0.304320        -8.2810
 303   2.0000      -0.292793        -7.9673
 304   2.0000      -0.286911        -7.8073
 305   2.0000      -0.257556        -7.0085
 306   0.0000      -0.137158        -3.7323
 307   0.0000      -0.095779        -2.6063
 308   0.0000      -0.085378        -2.3233
 309   0.0000      -0.074319        -2.0223
 310   0.0000      -0.063242        -1.7209

MULLIKEN ATOMIC CHARGES
-----------------------
   0 C :    0.166976
   1 O :   -0.169186
   2 C :   -0.009620
   3 C :    0.032406
   4 C :   -0.012614
   5 C :   -0.024221
   6 C :   -0.013985
   7 C :   -0.025337
   8 Br:    0.014405
   9 Br:    0.023517
  10 C :    0.312664
  11 C :   -0.341764
  12 C :   -0.187494
  13 N :    0.160769
  14 C :   -0.195073
  15 N :    0.149870
  16 C :   -0.093821
  17 C :   -0.042191
  18 C :   -0.100010
  19 C :    0.089570
  20 O :   -0.339914
  21 C :    0.196687
  22 C :    0.254348
  23 O :   -0.300282
  24 C :    0.189398
  25 C :   -0.259505
  26 S :    0.247700
  27 C :    0.138314
  28 C :   -0.072690
  29 C :   -0.035670
  30 N :   -0.014012
  31 C :   -0.092771
  32 C :   -0.142914
  33 N :    0.089733
  34 C :   -0.228295
  35 N :    0.245779
  36 C :   -0.215299
  37 N :    0.247310
  38 C :    0.176757
  39 C :   -0.052194
  40 C :    0.007233
  41 N :   -0.283816
  42 S :    0.561971
  43 N :   -0.275436
  44 C :   -0.235465
  45 C :    0.175096
  46 O :   -0.275611
  47 C :    0.188513
  48 C :    0.265454
  49 O :   -0.269371
  50 C :    0.169131
  51 C :   -0.236514
  52 S :    0.151762
  53 C :    0.045758
  54 C :   -0.151381
  55 C :    0.139051
  56 O :   -0.142953
  57 C :    0.002454
  58 C :    0.008920
  59 C :    0.275250
  60 C :   -0.329972
  61 C :   -0.182552
  62 N :    0.159817
  63 C :   -0.194842
  64 N :    0.172590
  65 C :    0.011145
  66 C :   -0.028100
  67 C :   -0.016855
  68 C :   -0.027194
  69 Br:    0.008914
  70 Br:    0.022694
  71 H :    0.008716
  72 H :    0.003835
  73 H :    0.030188
  74 H :    0.024445
  75 H :    0.018193
  76 H :    0.059518
  77 H :    0.043558
  78 H :    0.015176
  79 H :    0.036790
  80 H :    0.037490
  81 H :    0.019732
  82 H :    0.040408
  83 H :    0.044470
  84 H :    0.045847
  85 H :    0.037503
  86 H :    0.023842
  87 H :    0.023298
  88 H :    0.003961
Sum of atomic charges:   -0.0000000

LOEWDIN ATOMIC CHARGES
----------------------
   0 C :    0.082716
   1 O :   -0.157608
   2 C :   -0.040903
   3 C :   -0.011323
   4 C :   -0.006346
   5 C :   -0.119423
   6 C :   -0.122955
   7 C :    0.004636
   8 Br:    0.137827
   9 Br:    0.142555
  10 C :    0.076333
  11 C :   -0.137450
  12 C :   -0.020892
  13 N :   -0.044776
  14 C :   -0.016999
  15 N :   -0.050493
  16 C :   -0.109834
  17 C :    0.058059
  18 C :   -0.208056
  19 C :    0.009480
  20 O :   -0.120965
  21 C :    0.086002
  22 C :    0.010654
  23 O :   -0.089985
  24 C :    0.083774
  25 C :   -0.182839
  26 S :    0.552555
  27 C :   -0.039699
  28 C :   -0.001662
  29 C :   -0.011504
  30 N :   -0.014610
  31 C :   -0.024536
  32 C :   -0.026425
  33 N :    0.019577
  34 C :   -0.036813
  35 N :   -0.004023
  36 C :   -0.023373
  37 N :   -0.000409
  38 C :   -0.026469
  39 C :   -0.046991
  40 C :   -0.041158
  41 N :   -0.290285
  42 S :    0.693228
  43 N :   -0.267893
  44 C :   -0.194140
  45 C :    0.034785
  46 O :   -0.070334
  47 C :    0.083389
  48 C :    0.034856
  49 O :   -0.064973
  50 C :    0.084555
  51 C :   -0.226693
  52 S :    0.485272
  53 C :    0.043430
  54 C :   -0.099847
  55 C :    0.083513
  56 O :   -0.141842
  57 C :   -0.046531
  58 C :   -0.009238
  59 C :    0.059642
  60 C :   -0.137174
  61 C :   -0.025228
  62 N :   -0.062148
  63 C :   -0.023792
  64 N :   -0.044871
  65 C :    0.002183
  66 C :   -0.118110
  67 C :   -0.124133
  68 C :    0.002997
  69 Br:    0.133896
  70 Br:    0.143967
  71 H :    0.045092
  72 H :    0.045223
  73 H :    0.050328
  74 H :    0.014511
  75 H :    0.010359
  76 H :    0.034441
  77 H :    0.024877
  78 H :    0.015005
  79 H :    0.026326
  80 H :    0.022410
  81 H :    0.005331
  82 H :    0.029364
  83 H :    0.024769
  84 H :    0.034304
  85 H :    0.019642
  86 H :    0.046031
  87 H :    0.042838
  88 H :    0.045017

  Mayer bond orders larger than 0.100000
B(  0-C ,  1-O ) :   2.1484 B(  0-C ,  2-C ) :   0.9526 B(  0-C , 16-C ) :   0.9791
B(  2-C ,  3-C ) :   1.3321 B(  2-C ,  7-C ) :   1.3708 B(  3-C ,  4-C ) :   1.3684
B(  3-C , 10-C ) :   0.9872 B(  4-C ,  5-C ) :   1.3622 B(  4-C , 71-H ) :   0.9807
B(  5-C ,  6-C ) :   1.4276 B(  5-C ,  9-Br) :   1.0580 B(  6-C ,  7-C ) :   1.3463
B(  6-C ,  8-Br) :   1.0332 B(  7-C , 72-H ) :   1.0090 B( 10-C , 11-C ) :   1.6334
B( 10-C , 16-C ) :   1.0817 B( 11-C , 12-C ) :   1.1384 B( 11-C , 14-C ) :   1.1507
B( 12-C , 13-N ) :   2.9745 B( 14-C , 15-N ) :   2.9688 B( 16-C , 17-C ) :   1.4816
B( 17-C , 18-C ) :   1.2717 B( 17-C , 73-H ) :   0.9384 B( 18-C , 19-C ) :   1.3305
B( 18-C , 25-C ) :   0.1215 B( 18-C , 26-S ) :   1.0799 B( 19-C , 20-O ) :   1.1444
B( 19-C , 22-C ) :   1.2922 B( 19-C , 26-S ) :   0.1014 B( 20-O , 21-C ) :   0.9057
B( 21-C , 74-H ) :   0.9682 B( 21-C , 75-H ) :   0.9638 B( 21-C , 76-H ) :   0.9811
B( 22-C , 23-O ) :   1.2196 B( 22-C , 25-C ) :   1.3648 B( 23-O , 24-C ) :   0.9260
B( 24-C , 77-H ) :   0.9716 B( 24-C , 78-H ) :   0.9751 B( 24-C , 79-H ) :   0.9772
B( 25-C , 26-S ) :   1.1372 B( 25-C , 27-C ) :   1.1017 B( 27-C , 28-C ) :   1.2943
B( 27-C , 38-C ) :   0.1195 B( 27-C , 40-C ) :   1.2243 B( 28-C , 29-C ) :   1.1061
B( 28-C , 33-N ) :   1.4397 B( 29-C , 30-N ) :   1.3858 B( 29-C , 38-C ) :   1.2426
B( 30-N , 31-C ) :   1.6873 B( 31-C , 32-C ) :   1.1962 B( 31-C , 36-C ) :   1.1661
B( 32-C , 33-N ) :   1.7468 B( 32-C , 34-C ) :   1.1677 B( 34-C , 35-N ) :   3.0446
B( 36-C , 37-N ) :   3.0059 B( 38-C , 39-C ) :   1.2105 B( 38-C , 44-C ) :   1.1623
B( 39-C , 40-C ) :   1.1003 B( 39-C , 43-N ) :   1.4867 B( 40-C , 41-N ) :   1.5042
B( 41-N , 42-S ) :   1.2833 B( 41-N , 43-N ) :   0.1520 B( 42-S , 43-N ) :   1.2898
B( 44-C , 45-C ) :   1.4288 B( 44-C , 51-C ) :   0.1073 B( 44-C , 52-S ) :   1.0830
B( 45-C , 46-O ) :   1.2746 B( 45-C , 48-C ) :   1.2003 B( 46-O , 47-C ) :   0.9310
B( 47-C , 80-H ) :   0.9654 B( 47-C , 81-H ) :   0.9593 B( 47-C , 82-H ) :   0.9794
B( 48-C , 49-O ) :   1.2517 B( 48-C , 51-C ) :   1.4189 B( 49-O , 50-C ) :   0.9415
B( 50-C , 83-H ) :   0.9595 B( 50-C , 84-H ) :   0.9754 B( 50-C , 85-H ) :   0.9702
B( 51-C , 52-S ) :   1.0200 B( 51-C , 53-C ) :   1.1237 B( 53-C , 54-C ) :   1.6649
B( 53-C , 86-H ) :   0.9384 B( 54-C , 55-C ) :   0.9459 B( 54-C , 59-C ) :   1.0272
B( 55-C , 56-O ) :   2.2621 B( 55-C , 57-C ) :   0.9252 B( 57-C , 58-C ) :   1.3228
B( 57-C , 68-C ) :   1.3686 B( 58-C , 59-C ) :   1.0101 B( 58-C , 65-C ) :   1.3798
B( 59-C , 60-C ) :   1.6625 B( 60-C , 61-C ) :   1.1642 B( 60-C , 63-C ) :   1.1429
B( 61-C , 62-N ) :   2.9882 B( 63-C , 64-N ) :   2.9870 B( 65-C , 66-C ) :   1.3711
B( 65-C , 87-H ) :   0.9687 B( 66-C , 67-C ) :   1.4179 B( 66-C , 70-Br) :   1.0586
B( 67-C , 68-C ) :   1.3565 B( 67-C , 69-Br) :   1.0305 B( 68-C , 88-H ) :   1.0088

-----------------------------------------------------------------------------
         ABSORPTION SPECTRUM VIA TRANSITION ELECTRIC DIPOLE MOMENTS
-----------------------------------------------------------------------------
State   Energy  Wavelength   fosc         T2         TX        TY        TZ
        (cm-1)    (nm)                  (au**2)     (au)      (au)      (au)
-----------------------------------------------------------------------------
   0    9710.2   1029.8   0.508398631  17.23666  -1.99306  -2.33828   2.79227
   1   14532.5    688.1   0.020539380   0.46529  -0.66803   0.11005  -0.08318
   2   17093.7    585.0   0.004706712   0.09065   0.29266  -0.00386  -0.07059
   3   19210.0    520.6   0.070482414   1.20790   0.53650   0.30897  -0.90808
   4   20093.9    497.7   0.718614099  11.77354  -2.13500  -1.00068   2.49279
   5   21057.5    474.9   0.014542891   0.22736   0.25450  -0.33392   0.22603
   6   22421.1    446.0   0.027838100   0.40875   0.27280  -0.20532  -0.54053
   7   23730.9    421.4   0.104343371   1.44753  -1.10270   0.47393   0.08341
   8   24311.0    411.3   0.039745981   0.53823   0.55647  -0.33917  -0.33694
   9   24559.8    407.2   0.006736098   0.09029   0.18362   0.10194  -0.21491
  10   25414.4    393.5   0.088182104   1.14229   0.41390   0.54549  -0.82062
  11   25787.6    387.8   0.039481821   0.50404   0.54609   0.37101  -0.26110
  12   26670.3    374.9   0.013800838   0.17035   0.19089  -0.21795  -0.29396
  13   26864.5    372.2   0.008757591   0.10732  -0.25869  -0.05313  -0.19385
  14   27214.7    367.4   0.019218856   0.23249   0.20191  -0.41728  -0.13267
  15   27568.4    362.7   0.107258874   1.28084   0.63904  -0.78156  -0.51149
  16   27883.1    358.6   0.074471564   0.87928   0.84128   0.41403  -0.01010
  17   28677.6    348.7   0.036013710   0.41343  -0.33096   0.02793   0.55056
  18   29248.7    341.9   0.025526130   0.28731   0.11532  -0.24314   0.46357
  19   29372.3    340.5   0.020475494   0.22949  -0.03458  -0.44852  -0.16470
  20   29778.4    335.8   0.036856516   0.40746  -0.14255   0.55629  -0.27872
  21   30097.5    332.3   0.082006594   0.89700  -0.00246   0.71875   0.61676
  22   30300.1    330.0   0.087368613   0.94926   0.96735   0.11535   0.01354
  23   30727.1    325.4   0.035433862   0.37964   0.00053  -0.59790   0.14885
  24   31212.6    320.4   0.362322190   3.82155   1.86306  -0.52442  -0.27487
  25   31411.2    318.4   0.160823856   1.68555  -1.24389  -0.32885  -0.17365
  26   31677.1    315.7   0.014406738   0.14973  -0.35461   0.07480   0.13557
  27   31817.8    314.3   0.119801573   1.23956  -1.04354   0.35112   0.16519
  28   32006.7    312.4   0.033373532   0.34327   0.51272  -0.25976  -0.11363
  29   32226.2    310.3   0.075492291   0.77120   0.62430  -0.57033   0.23702
  30   32733.9    305.5   0.041946366   0.42186   0.11638   0.59527  -0.23234
  31   32818.3    304.7   0.035896623   0.36009   0.12005  -0.55544  -0.19278
  32   32990.6    303.1   0.071732575   0.71582  -0.75968  -0.27438  -0.25184
  33   33356.1    299.8   0.046918925   0.46307   0.32369  -0.32211  -0.50452
  34   33431.1    299.1   0.018514435   0.18232   0.09238   0.19891   0.36636
  35   33612.1    297.5   0.000156404   0.00153  -0.03597   0.00557   0.01438
  36   33685.1    296.9   0.015970988   0.15609  -0.30030   0.20977  -0.14800
  37   33794.3    295.9   0.038382506   0.37391   0.11809  -0.11719  -0.58841
  38   34062.8    293.6   0.022825372   0.22060   0.15085  -0.44436   0.01973
  39   34324.4    291.3   0.143096190   1.37246   0.52682  -1.04637  -0.00625
  40   34385.4    290.8   0.528871691   5.06351  -0.16901  -2.10953  -0.76474
  41   34660.0    288.5   0.060622290   0.57581   0.04915   0.35515   0.66878
  42   34763.3    287.7   0.617796183   5.85059  -2.31282   0.67573  -0.21181
  43   35016.9    285.6   0.152621156   1.43487  -0.93588  -0.74565  -0.05486
  44   35523.5    281.5   0.068590753   0.63566   0.76419   0.19988   0.10826
  45   35570.3    281.1   0.168759287   1.56191  -0.67266   1.04472   0.13418
  46   35828.2    279.1   0.062691074   0.57605  -0.33100   0.07737  -0.67860
  47   36133.3    276.8   0.012278739   0.11187  -0.14470   0.29872  -0.04126
  48   36234.2    276.0   0.074030786   0.67262  -0.30701  -0.60615   0.45929
  49   36339.5    275.2   0.032155471   0.29131   0.14092   0.43858  -0.28125
  50   36624.8    273.0   0.056059462   0.50391  -0.48977  -0.46068   0.22759
  51   36826.9    271.5   0.142320916   1.27227   0.16986   1.05324  -0.36620
  52   36959.0    270.6   0.117217153   1.04411   0.55959  -0.60337  -0.60573
  53   37371.7    267.6   0.017221394   0.15171  -0.29108  -0.25733   0.02750
  54   37555.2    266.3   0.012563966   0.11014  -0.09703   0.05553   0.31247
  55   37826.1    264.4   0.104116298   0.90616   0.82480  -0.31345  -0.35721
  56   37973.1    263.3   0.078728035   0.68254  -0.08650   0.25101  -0.78234
  57   38308.2    261.0   0.035237334   0.30282   0.27215  -0.29872  -0.37353
  58   38526.2    259.6   0.028518929   0.24370   0.33734  -0.25712   0.25257
  59   38647.7    258.7   0.003845828   0.03276  -0.15099  -0.04982  -0.08648
  60   39284.0    254.6   0.028317178   0.23731  -0.37483   0.21834   0.22167
  61   39612.3    252.4   0.032713886   0.27188  -0.45247   0.03991  -0.25604
  62   39617.7    252.4   0.005473553   0.04548   0.03737   0.05742   0.20197
  63   39699.0    251.9   0.034708080   0.28782  -0.26315   0.41343  -0.21828
  64   39816.3    251.2   0.001821027   0.01506   0.01117  -0.03859   0.11594
  65   40284.2    248.2   0.062173587   0.50810   0.38880  -0.58476   0.12239

FINAL SINGLE POINT ENERGY    -14325.101746160042

DIPOLE MOMENT
-------------
                                X             Y             Z
Electronic contribution:    -60.28005     -31.45043    -119.25684
Nuclear contribution   :     62.47453      29.26967     119.66324
                        -----------------------------------------
Total Dipole Moment    :      2.19448      -2.18075       0.40640
                        -----------------------------------------
Magnitude (a.u.)       :      3.12035
Magnitude (Debye)      :      7.93130

Rotational constants in cm-1:     0.001185     0.000237     0.000227
Rotational constants in MHz :    35.535041     7.113422     6.805300

                             ****ORCA TERMINATED NORMALLY****
TOTAL RUN TIME: 0 days 0 hours 11 minutes 0 seconds 421 msec
