                         Program Version 4.2.0 -  RELEASE  -
|  1> # ORCA input file
|  2> # SCF done       -182.781270825571          0.000841659101
|  3> ! CAM-B3LYP def2-SVP def2/J RIJCOSX Grid4 TightSCF
|  4> %maxcore 5000
|  5> %tddft
|  6>     Mode sTDDFT
|  7>     Ethresh 5.0
|  8>     maxcore 5000
|  9> end
| 10>
| 11> %pal
| 12>   nprocs 6
| 13>   end
| 14> * xyz 0 1
| 15>    C       -6.92950         4.05275         5.13041
| 16>    C       -7.31205         4.19497         3.82164
| 17>    C       -8.61987         4.53259         3.42085
| 18>    N       -9.66492         4.82454         3.04615
| 19>    C       -6.45313         3.92953         2.73605
| 20>    N       -5.78541         3.68593         1.83426
| 21>    C       -7.83216         4.02036         6.27500
| 22>    C       -7.18606         3.32263         7.33790
| 23>    C       -7.81165         3.09773         8.53006
| 24>    C       -9.12628         3.58068         8.72037
| 25>    C       -9.76914         4.29519         7.66802
| 26>    C       -9.10137         4.50439         6.43937
| 27>    C      -11.07624         4.78008         7.87590
| 28>    C      -11.72113         4.56757         9.06389
| 29>    C      -11.08877         3.86192        10.09837
| 30>    C       -9.81952         3.37854         9.93003
| 31>    C       -5.82211         2.95049         6.92022
| 32>    O       -5.00032         2.30624         7.52916
| 33>    C       -5.63206         3.60892         5.59400
| 34>    C       -4.37220         3.78825         5.11486
| 35>    C       -3.89341         4.71395         4.15895
| 36>    C       -2.65438         4.66427         3.53726
| 37>    C       -2.44151         5.74843         2.69271
| 38>    C       -3.51868         6.65805         2.69412
| 39>    S       -4.78427         6.17116         3.72037
| 40>    C       -3.21323         7.72362         1.81687
| 41>    C       -1.94263         7.49565         1.25660
| 42>    C       -1.41748         6.24531         1.78909
| 43>    C       -0.21918         5.66468         1.49712
| 44>    C        0.69625         6.24667         0.59429
| 45>    N        1.44111         6.72029        -0.13719
| 46>    C        0.18938         4.44678         2.08217
| 47>    N        0.52994         3.46174         2.55926
| 48>    C       -1.55722         8.49641         0.36919
| 49>    C       -2.52487         9.48234         0.23741
| 50>    S       -3.93229         9.16054         1.24267
| 51>    C       -2.45408        10.62507        -0.59522
| 52>    C       -3.46294        11.51898        -0.74704
| 53>    C       -3.42387        12.66456        -1.57915
| 54>    C       -2.37824        13.16729        -2.34114
| 55>    C       -2.74082        14.31841        -3.03322
| 56>    C       -4.07678        14.70011        -2.80360
| 57>    S       -4.87560        13.64361        -1.72743
| 58>    C       -4.35041        15.86593        -3.55413
| 59>    C       -3.18198        16.23102        -4.26295
| 60>    C       -2.13228        15.27611        -3.94799
| 61>    C       -0.84311        15.27234        -4.39027
| 62>    C       -0.31232        16.25390        -5.25629
| 63>    N        0.16002        17.03705        -5.94671
| 64>    C        0.07225        14.27420        -3.99148
| 65>    N        0.81359        13.46298        -3.66428
| 66>    C       -3.35082        17.36505        -5.04582
| 67>    C       -4.63772        17.88063        -4.95183
| 68>    S       -5.64433        16.92453        -3.84935
| 69>    C       -5.27365        19.00031        -5.52475
| 70>    C       -4.85379        19.90558        -6.45974
| 71>    C       -5.65976        21.03445        -6.90215
| 72>    C       -6.80569        21.51200        -6.31903
| 73>    C       -7.52761        22.62661        -6.79681
| 74>    N       -8.16810        23.51903        -7.13072
| 75>    C       -7.41953        21.01057        -5.15203
| 76>    N       -7.97687        20.67906        -4.20320
| 77>    C       -4.99476        21.63662        -8.05105
| 78>    C       -3.76041        20.96107        -8.26194
| 79>    C       -3.61095        19.88172        -7.27306
| 80>    O       -2.66497        19.12764        -7.18259
| 81>    C       -2.90049        21.31658        -9.26070
| 82>    C       -3.24830        22.38286       -10.11948
| 83>    C       -4.48977        23.05519        -9.92633
| 84>    C       -5.35611        22.66713        -8.87863
| 85>    C       -4.83216        24.11107       -10.79548
| 86>    C       -3.98868        24.48835       -11.80474
| 87>    C       -2.76489        23.82824       -11.99135
| 88>    C       -2.40251        22.79782       -11.16670
| 89>    H       -7.31055         2.55824         9.31994
| 90>    H       -9.60545         5.05499         5.66016
| 91>    H      -11.56026         5.31946         7.07500
| 92>    H      -12.72292         4.94168         9.21276
| 93>    H      -11.61210         3.70348        11.02936
| 94>    H       -9.32774         2.83457        10.72314
| 95>    H       -3.60577         3.18941         5.59876
| 96>    H       -1.96692         3.85143         3.68749
| 97>    H       -0.62723         8.52154        -0.16923
| 98>    H       -1.52741        10.75007        -1.13700
| 99>    H       -4.38821        11.35720        -0.20799
|100>    H       -1.40643        12.71163        -2.37807
|101>    H       -2.59800        17.81169        -5.67119
|102>    H       -6.28145        19.14087        -5.15091
|103>    H       -1.96744        20.78914        -9.39254
|104>    H       -6.28885        23.19540        -8.76243
|105>    H       -5.77450        24.61762       -10.64659
|106>    H       -4.25989        25.29850       -12.46495
|107>    H       -2.11104        24.13999       -12.79205
|108>    H       -1.46188        22.28530       -11.30550
|109> *
|110>
|111>                          ****END OF INPUT****

CARTESIAN COORDINATES (ANGSTROEM)
---------------------------------
  C     -6.929500    4.052750    5.130410
  C     -7.312050    4.194970    3.821640
  C     -8.619870    4.532590    3.420850
  N     -9.664920    4.824540    3.046150
  C     -6.453130    3.929530    2.736050
  N     -5.785410    3.685930    1.834260
  C     -7.832160    4.020360    6.275000
  C     -7.186060    3.322630    7.337900
  C     -7.811650    3.097730    8.530060
  C     -9.126280    3.580680    8.720370
  C     -9.769140    4.295190    7.668020
  C     -9.101370    4.504390    6.439370
  C    -11.076240    4.780080    7.875900
  C    -11.721130    4.567570    9.063890
  C    -11.088770    3.861920   10.098370
  C     -9.819520    3.378540    9.930030
  C     -5.822110    2.950490    6.920220
  O     -5.000320    2.306240    7.529160
  C     -5.632060    3.608920    5.594000
  C     -4.372200    3.788250    5.114860
  C     -3.893410    4.713950    4.158950
  C     -2.654380    4.664270    3.537260
  C     -2.441510    5.748430    2.692710
  C     -3.518680    6.658050    2.694120
  S     -4.784270    6.171160    3.720370
  C     -3.213230    7.723620    1.816870
  C     -1.942630    7.495650    1.256600
  C     -1.417480    6.245310    1.789090
  C     -0.219180    5.664680    1.497120
  C      0.696250    6.246670    0.594290
  N      1.441110    6.720290   -0.137190
  C      0.189380    4.446780    2.082170
  N      0.529940    3.461740    2.559260
  C     -1.557220    8.496410    0.369190
  C     -2.524870    9.482340    0.237410
  S     -3.932290    9.160540    1.242670
  C     -2.454080   10.625070   -0.595220
  C     -3.462940   11.518980   -0.747040
  C     -3.423870   12.664560   -1.579150
  C     -2.378240   13.167290   -2.341140
  C     -2.740820   14.318410   -3.033220
  C     -4.076780   14.700110   -2.803600
  S     -4.875600   13.643610   -1.727430
  C     -4.350410   15.865930   -3.554130
  C     -3.181980   16.231020   -4.262950
  C     -2.132280   15.276110   -3.947990
  C     -0.843110   15.272340   -4.390270
  C     -0.312320   16.253900   -5.256290
  N      0.160020   17.037050   -5.946710
  C      0.072250   14.274200   -3.991480
  N      0.813590   13.462980   -3.664280
  C     -3.350820   17.365050   -5.045820
  C     -4.637720   17.880630   -4.951830
  S     -5.644330   16.924530   -3.849350
  C     -5.273650   19.000310   -5.524750
  C     -4.853790   19.905580   -6.459740
  C     -5.659760   21.034450   -6.902150
  C     -6.805690   21.512000   -6.319030
  C     -7.527610   22.626610   -6.796810
  N     -8.168100   23.519030   -7.130720
  C     -7.419530   21.010570   -5.152030
  N     -7.976870   20.679060   -4.203200
  C     -4.994760   21.636620   -8.051050
  C     -3.760410   20.961070   -8.261940
  C     -3.610950   19.881720   -7.273060
  O     -2.664970   19.127640   -7.182590
  C     -2.900490   21.316580   -9.260700
  C     -3.248300   22.382860  -10.119480
  C     -4.489770   23.055190   -9.926330
  C     -5.356110   22.667130   -8.878630
  C     -4.832160   24.111070  -10.795480
  C     -3.988680   24.488350  -11.804740
  C     -2.764890   23.828240  -11.991350
  C     -2.402510   22.797820  -11.166700
  H     -7.310550    2.558240    9.319940
  H     -9.605450    5.054990    5.660160
  H    -11.560260    5.319460    7.075000
  H    -12.722920    4.941680    9.212760
  H    -11.612100    3.703480   11.029360
  H     -9.327740    2.834570   10.723140
  H     -3.605770    3.189410    5.598760
  H     -1.966920    3.851430    3.687490
  H     -0.627230    8.521540   -0.169230
  H     -1.527410   10.750070   -1.137000
  H     -4.388210   11.357200   -0.207990
  H     -1.406430   12.711630   -2.378070
  H     -2.598000   17.811690   -5.671190
  H     -6.281450   19.140870   -5.150910
  H     -1.967440   20.789140   -9.392540
  H     -6.288850   23.195400   -8.762430
  H     -5.774500   24.617620  -10.646590
  H     -4.259890   25.298500  -12.464950
  H     -2.111040   24.139990  -12.792050
  H     -1.461880   22.285300  -11.305500

 Total Charge           Charge          ....    0
 Multiplicity           Mult            ....    1
 Number of Electrons    NEL             ....  516
 Basis Dimension        Dim             .... 1152

ORBITAL ENERGIES
----------------

  NO   OCC          E(Eh)            E(eV)
   0   2.0000     -89.000558     -2421.8283
   1   2.0000     -89.000503     -2421.8268
   2   2.0000     -88.999676     -2421.8043
   3   2.0000     -88.998484     -2421.7719
   4   2.0000     -19.219091      -522.9781
   5   2.0000     -19.217336      -522.9303
   6   2.0000     -14.437029      -392.8515
   7   2.0000     -14.436985      -392.8503
   8   2.0000     -14.436730      -392.8434
   9   2.0000     -14.432189      -392.7198
  10   2.0000     -14.420371      -392.3982
  11   2.0000     -14.419469      -392.3737
  12   2.0000     -14.418268      -392.3410
  13   2.0000     -14.413849      -392.2208
  14   2.0000     -10.373485      -282.2769
  15   2.0000     -10.372481      -282.2495
  16   2.0000     -10.370019      -282.1826
  17   2.0000     -10.369416      -282.1661
  18   2.0000     -10.360509      -281.9238
  19   2.0000     -10.358920      -281.8806
  20   2.0000     -10.349772      -281.6316
  21   2.0000     -10.349448      -281.6228
  22   2.0000     -10.348128      -281.5869
  23   2.0000     -10.346858      -281.5523
  24   2.0000     -10.342886      -281.4442
  25   2.0000     -10.341980      -281.4196
  26   2.0000     -10.341379      -281.4032
  27   2.0000     -10.340696      -281.3846
  28   2.0000     -10.338745      -281.3316
  29   2.0000     -10.337107      -281.2870
  30   2.0000     -10.336959      -281.2830
  31   2.0000     -10.336794      -281.2785
  32   2.0000     -10.336443      -281.2689
  33   2.0000     -10.333355      -281.1849
  34   2.0000     -10.331363      -281.1307
  35   2.0000     -10.331010      -281.1211
  36   2.0000     -10.329148      -281.0704
  37   2.0000     -10.328596      -281.0554
  38   2.0000     -10.322813      -280.8980
  39   2.0000     -10.321394      -280.8594
  40   2.0000     -10.321349      -280.8582
  41   2.0000     -10.318595      -280.7832
  42   2.0000     -10.318505      -280.7808
  43   2.0000     -10.317118      -280.7431
  44   2.0000     -10.317072      -280.7418
  45   2.0000     -10.314437      -280.6701
  46   2.0000     -10.313768      -280.6519
  47   2.0000     -10.313455      -280.6434
  48   2.0000     -10.312247      -280.6105
  49   2.0000     -10.311763      -280.5973
  50   2.0000     -10.311320      -280.5853
  51   2.0000     -10.308352      -280.5045
  52   2.0000     -10.307647      -280.4853
  53   2.0000     -10.303151      -280.3630
  54   2.0000     -10.302938      -280.3572
  55   2.0000     -10.302251      -280.3385
  56   2.0000     -10.301529      -280.3189
  57   2.0000     -10.301101      -280.3072
  58   2.0000     -10.300949      -280.3031
  59   2.0000     -10.300556      -280.2924
  60   2.0000     -10.297131      -280.1992
  61   2.0000     -10.296895      -280.1928
  62   2.0000     -10.296327      -280.1773
  63   2.0000     -10.295706      -280.1604
  64   2.0000     -10.293257      -280.0938
  65   2.0000     -10.289702      -279.9970
  66   2.0000     -10.289347      -279.9874
  67   2.0000     -10.289100      -279.9806
  68   2.0000     -10.288734      -279.9707
  69   2.0000     -10.287771      -279.9445
  70   2.0000     -10.286044      -279.8975
  71   2.0000     -10.285519      -279.8832
  72   2.0000     -10.285336      -279.8782
  73   2.0000     -10.284893      -279.8662
  74   2.0000      -8.095355      -220.2858
  75   2.0000      -8.094757      -220.2695
  76   2.0000      -8.094396      -220.2597
  77   2.0000      -8.093299      -220.2299
  78   2.0000      -6.064512      -165.0238
  79   2.0000      -6.064011      -165.0101
  80   2.0000      -6.063599      -164.9989
  81   2.0000      -6.062383      -164.9658
  82   2.0000      -6.060415      -164.9123
  83   2.0000      -6.059758      -164.8944
  84   2.0000      -6.059499      -164.8874
  85   2.0000      -6.058265      -164.8538
  86   2.0000      -6.057801      -164.8411
  87   2.0000      -6.057160      -164.8237
  88   2.0000      -6.056748      -164.8125
  89   2.0000      -6.055848      -164.7880
  90   2.0000      -1.134360       -30.8675
  91   2.0000      -1.132937       -30.8288
  92   2.0000      -1.055792       -28.7296
  93   2.0000      -1.054352       -28.6904
  94   2.0000      -1.029367       -28.0105
  95   2.0000      -1.027526       -27.9604
  96   2.0000      -1.023918       -27.8622
  97   2.0000      -1.019433       -27.7402
  98   2.0000      -1.014414       -27.6036
  99   2.0000      -1.011715       -27.5302
 100   2.0000      -1.009884       -27.4803
 101   2.0000      -1.007195       -27.4072
 102   2.0000      -1.002380       -27.2762
 103   2.0000      -0.999205       -27.1897
 104   2.0000      -0.997935       -27.1552
 105   2.0000      -0.993967       -27.0472
 106   2.0000      -0.976855       -26.5816
 107   2.0000      -0.973220       -26.4827
 108   2.0000      -0.969500       -26.3814
 109   2.0000      -0.966405       -26.2972
 110   2.0000      -0.937788       -25.5185
 111   2.0000      -0.931209       -25.3395
 112   2.0000      -0.926662       -25.2158
 113   2.0000      -0.921609       -25.0782
 114   2.0000      -0.911040       -24.7907
 115   2.0000      -0.901486       -24.5307
 116   2.0000      -0.894902       -24.3515
 117   2.0000      -0.885626       -24.0991
 118   2.0000      -0.882537       -24.0150
 119   2.0000      -0.881507       -23.9870
 120   2.0000      -0.879174       -23.9235
 121   2.0000      -0.873007       -23.7557
 122   2.0000      -0.866317       -23.5737
 123   2.0000      -0.864931       -23.5360
 124   2.0000      -0.862096       -23.4588
 125   2.0000      -0.832026       -22.6406
 126   2.0000      -0.830699       -22.6045
 127   2.0000      -0.827801       -22.5256
 128   2.0000      -0.815550       -22.1922
 129   2.0000      -0.803264       -21.8579
 130   2.0000      -0.786665       -21.4062
 131   2.0000      -0.784663       -21.3518
 132   2.0000      -0.772974       -21.0337
 133   2.0000      -0.763902       -20.7868
 134   2.0000      -0.762576       -20.7507
 135   2.0000      -0.751000       -20.4358
 136   2.0000      -0.728171       -19.8145
 137   2.0000      -0.719498       -19.5785
 138   2.0000      -0.712921       -19.3996
 139   2.0000      -0.706844       -19.2342
 140   2.0000      -0.704954       -19.1828
 141   2.0000      -0.704512       -19.1707
 142   2.0000      -0.700719       -19.0675
 143   2.0000      -0.696843       -18.9621
 144   2.0000      -0.693677       -18.8759
 145   2.0000      -0.689607       -18.7652
 146   2.0000      -0.681974       -18.5575
 147   2.0000      -0.680478       -18.5167
 148   2.0000      -0.671222       -18.2649
 149   2.0000      -0.663952       -18.0670
 150   2.0000      -0.652244       -17.7484
 151   2.0000      -0.649360       -17.6700
 152   2.0000      -0.638749       -17.3812
 153   2.0000      -0.637371       -17.3437
 154   2.0000      -0.635483       -17.2924
 155   2.0000      -0.629493       -17.1294
 156   2.0000      -0.626872       -17.0580
 157   2.0000      -0.622361       -16.9353
 158   2.0000      -0.616281       -16.7699
 159   2.0000      -0.611153       -16.6303
 160   2.0000      -0.607684       -16.5359
 161   2.0000      -0.605415       -16.4742
 162   2.0000      -0.598535       -16.2870
 163   2.0000      -0.595811       -16.2128
 164   2.0000      -0.582081       -15.8392
 165   2.0000      -0.574960       -15.6455
 166   2.0000      -0.564843       -15.3702
 167   2.0000      -0.560251       -15.2452
 168   2.0000      -0.558100       -15.1867
 169   2.0000      -0.556437       -15.1414
 170   2.0000      -0.552183       -15.0257
 171   2.0000      -0.550572       -14.9818
 172   2.0000      -0.548499       -14.9254
 173   2.0000      -0.546618       -14.8742
 174   2.0000      -0.542741       -14.7687
 175   2.0000      -0.540649       -14.7118
 176   2.0000      -0.538104       -14.6425
 177   2.0000      -0.535750       -14.5785
 178   2.0000      -0.529986       -14.4216
 179   2.0000      -0.526433       -14.3250
 180   2.0000      -0.523495       -14.2450
 181   2.0000      -0.520978       -14.1765
 182   2.0000      -0.520289       -14.1578
 183   2.0000      -0.516029       -14.0419
 184   2.0000      -0.515049       -14.0152
 185   2.0000      -0.513661       -13.9774
 186   2.0000      -0.512439       -13.9442
 187   2.0000      -0.512034       -13.9332
 188   2.0000      -0.509855       -13.8739
 189   2.0000      -0.508328       -13.8323
 190   2.0000      -0.507096       -13.7988
 191   2.0000      -0.504490       -13.7279
 192   2.0000      -0.502417       -13.6715
 193   2.0000      -0.497832       -13.5467
 194   2.0000      -0.497218       -13.5300
 195   2.0000      -0.495855       -13.4929
 196   2.0000      -0.495308       -13.4780
 197   2.0000      -0.492671       -13.4063
 198   2.0000      -0.489119       -13.3096
 199   2.0000      -0.485643       -13.2150
 200   2.0000      -0.484153       -13.1745
 201   2.0000      -0.476192       -12.9578
 202   2.0000      -0.472604       -12.8602
 203   2.0000      -0.468877       -12.7588
 204   2.0000      -0.467041       -12.7088
 205   2.0000      -0.466455       -12.6929
 206   2.0000      -0.464781       -12.6473
 207   2.0000      -0.463465       -12.6115
 208   2.0000      -0.460908       -12.5420
 209   2.0000      -0.456300       -12.4166
 210   2.0000      -0.455681       -12.3997
 211   2.0000      -0.453007       -12.3270
 212   2.0000      -0.451540       -12.2870
 213   2.0000      -0.450508       -12.2589
 214   2.0000      -0.449521       -12.2321
 215   2.0000      -0.447955       -12.1895
 216   2.0000      -0.447342       -12.1728
 217   2.0000      -0.446545       -12.1511
 218   2.0000      -0.445722       -12.1287
 219   2.0000      -0.444409       -12.0930
 220   2.0000      -0.444002       -12.0819
 221   2.0000      -0.443144       -12.0586
 222   2.0000      -0.442442       -12.0395
 223   2.0000      -0.439625       -11.9628
 224   2.0000      -0.438467       -11.9313
 225   2.0000      -0.436345       -11.8736
 226   2.0000      -0.433742       -11.8027
 227   2.0000      -0.433662       -11.8005
 228   2.0000      -0.432762       -11.7761
 229   2.0000      -0.432421       -11.7668
 230   2.0000      -0.430863       -11.7244
 231   2.0000      -0.429456       -11.6861
 232   2.0000      -0.426624       -11.6090
 233   2.0000      -0.421728       -11.4758
 234   2.0000      -0.419581       -11.4174
 235   2.0000      -0.414282       -11.2732
 236   2.0000      -0.409266       -11.1367
 237   2.0000      -0.408114       -11.1054
 238   2.0000      -0.405587       -11.0366
 239   2.0000      -0.404130       -10.9969
 240   2.0000      -0.389945       -10.6109
 241   2.0000      -0.381789       -10.3890
 242   2.0000      -0.376402       -10.2424
 243   2.0000      -0.369543       -10.0558
 244   2.0000      -0.359187        -9.7740
 245   2.0000      -0.358048        -9.7430
 246   2.0000      -0.350623        -9.5409
 247   2.0000      -0.340694        -9.2707
 248   2.0000      -0.338512        -9.2114
 249   2.0000      -0.332027        -9.0349
 250   2.0000      -0.329945        -8.9783
 251   2.0000      -0.322433        -8.7739
 252   2.0000      -0.318728        -8.6730
 253   2.0000      -0.314623        -8.5613
 254   2.0000      -0.299201        -8.1417
 255   2.0000      -0.294863        -8.0236
 256   2.0000      -0.283747        -7.7211
 257   2.0000      -0.253563        -6.8998
 258   0.0000      -0.124450        -3.3865
 259   0.0000      -0.113043        -3.0761
 260   0.0000      -0.093608        -2.5472
 261   0.0000      -0.091992        -2.5032
 262   0.0000      -0.063383        -1.7247

MULLIKEN ATOMIC CHARGES
-----------------------
   0 C :    0.240859
   1 C :   -0.327127
   2 C :   -0.172527
   3 N :    0.155490
   4 C :   -0.211118
   5 N :    0.174103
   6 C :    0.037225
   7 C :    0.015586
   8 C :   -0.083527
   9 C :    0.096410
  10 C :    0.095272
  11 C :   -0.082108
  12 C :   -0.018992
  13 C :    0.037612
  14 C :    0.037241
  15 C :   -0.016437
  16 C :    0.139893
  17 O :   -0.139940
  18 C :   -0.136382
  19 C :    0.047056
  20 C :   -0.087382
  21 C :    0.002464
  22 C :    0.022525
  23 C :   -0.076683
  24 S :    0.206130
  25 C :   -0.099023
  26 C :    0.022396
  27 C :    0.301543
  28 C :   -0.288321
  29 C :   -0.188588
  30 N :    0.176668
  31 C :   -0.191303
  32 N :    0.185630
  33 C :   -0.038553
  34 C :   -0.042283
  35 S :    0.180441
  36 C :    0.015207
  37 C :    0.036091
  38 C :   -0.072369
  39 C :   -0.034518
  40 C :    0.011859
  41 C :   -0.108462
  42 S :    0.201236
  43 C :   -0.079228
  44 C :   -0.007143
  45 C :    0.313011
  46 C :   -0.294052
  47 C :   -0.190877
  48 N :    0.197981
  49 C :   -0.188004
  50 N :    0.168605
  51 C :   -0.012374
  52 C :   -0.114639
  53 S :    0.205507
  54 C :    0.038039
  55 C :   -0.089185
  56 C :    0.318600
  57 C :   -0.361877
  58 C :   -0.181724
  59 N :    0.145548
  60 C :   -0.191091
  61 N :    0.151481
  62 C :    0.045970
  63 C :   -0.004968
  64 C :    0.159121
  65 O :   -0.147632
  66 C :   -0.079364
  67 C :    0.096156
  68 C :    0.095525
  69 C :   -0.079240
  70 C :   -0.017663
  71 C :    0.035719
  72 C :    0.035488
  73 C :   -0.013584
  74 H :   -0.010026
  75 H :   -0.005694
  76 H :   -0.011134
  77 H :   -0.004340
  78 H :   -0.004312
  79 H :   -0.015890
  80 H :    0.033365
  81 H :    0.020662
  82 H :    0.013535
  83 H :    0.011285
  84 H :   -0.005323
  85 H :    0.009088
  86 H :    0.039561
  87 H :    0.006090
  88 H :   -0.009351
  89 H :   -0.009131
  90 H :   -0.009550
  91 H :   -0.004702
  92 H :   -0.004631
  93 H :   -0.016902
Sum of atomic charges:    0.0000000

LOEWDIN ATOMIC CHARGES
----------------------
   0 C :    0.060636
   1 C :   -0.146507
   2 C :   -0.020135
   3 N :   -0.050967
   4 C :   -0.038063
   5 N :   -0.048598
   6 C :   -0.023583
   7 C :   -0.056811
   8 C :    0.033376
   9 C :   -0.008787
  10 C :   -0.005435
  11 C :    0.015436
  12 C :   -0.006780
  13 C :   -0.012000
  14 C :   -0.012179
  15 C :   -0.008630
  16 C :    0.083499
  17 O :   -0.141224
  18 C :   -0.099085
  19 C :    0.050288
  20 C :   -0.176553
  21 C :    0.014187
  22 C :   -0.072177
  23 C :   -0.153052
  24 S :    0.512379
  25 C :   -0.182865
  26 C :   -0.055893
  27 C :    0.078960
  28 C :   -0.093928
  29 C :   -0.017041
  30 N :   -0.026002
  31 C :   -0.017654
  32 N :   -0.024138
  33 C :   -0.023363
  34 C :   -0.152984
  35 S :    0.477566
  36 C :   -0.022645
  37 C :   -0.051188
  38 C :   -0.152893
  39 C :   -0.027995
  40 C :   -0.049706
  41 C :   -0.195260
  42 S :    0.484132
  43 C :   -0.158463
  44 C :   -0.075923
  45 C :    0.075139
  46 C :   -0.092067
  47 C :   -0.023804
  48 N :   -0.011500
  49 C :   -0.014353
  50 N :   -0.031287
  51 C :    0.016894
  52 C :   -0.175538
  53 S :    0.496624
  54 C :    0.040427
  55 C :   -0.094670
  56 C :    0.077999
  57 C :   -0.144504
  58 C :   -0.017073
  59 N :   -0.055369
  60 C :   -0.024100
  61 N :   -0.056297
  62 C :   -0.026880
  63 C :   -0.055555
  64 C :    0.087181
  65 O :   -0.137090
  66 C :    0.033767
  67 C :   -0.008124
  68 C :   -0.006346
  69 C :    0.019817
  70 C :   -0.005429
  71 C :   -0.013329
  72 C :   -0.011972
  73 C :   -0.008730
  74 H :    0.040039
  75 H :    0.038435
  76 H :    0.034066
  77 H :    0.033459
  78 H :    0.033179
  79 H :    0.032387
  80 H :    0.055449
  81 H :    0.047824
  82 H :    0.044352
  83 H :    0.043758
  84 H :    0.023156
  85 H :    0.040350
  86 H :    0.043369
  87 H :    0.042105
  88 H :    0.040374
  89 H :    0.038799
  90 H :    0.034637
  91 H :    0.033195
  92 H :    0.032970
  93 H :    0.032314

  Mayer bond orders larger than 0.100000
B(  0-C ,  1-C ) :   1.6515 B(  0-C ,  6-C ) :   1.0035 B(  0-C , 18-C ) :   1.0350
B(  1-C ,  2-C ) :   1.1349 B(  1-C ,  4-C ) :   1.1546 B(  2-C ,  3-N ) :   2.9915
B(  4-C ,  5-N ) :   3.0235 B(  6-C ,  7-C ) :   1.2141 B(  6-C , 11-C ) :   1.4590
B(  7-C ,  8-C ) :   1.4759 B(  7-C , 16-C ) :   0.9217 B(  8-C ,  9-C ) :   1.1851
B(  8-C , 74-H ) :   1.0159 B(  9-C , 10-C ) :   1.2566 B(  9-C , 15-C ) :   1.2443
B( 10-C , 11-C ) :   1.2025 B( 10-C , 12-C ) :   1.2431 B( 11-C , 75-H ) :   0.9943
B( 12-C , 13-C ) :   1.4889 B( 12-C , 76-H ) :   0.9972 B( 13-C , 14-C ) :   1.2613
B( 13-C , 77-H ) :   0.9884 B( 14-C , 15-C ) :   1.4893 B( 14-C , 78-H ) :   0.9886
B( 15-C , 79-H ) :   0.9978 B( 16-C , 17-O ) :   2.2742 B( 16-C , 18-C ) :   0.9348
B( 18-C , 19-C ) :   1.6376 B( 19-C , 20-C ) :   1.1478 B( 19-C , 80-H ) :   0.9462
B( 20-C , 21-C ) :   1.3982 B( 20-C , 24-S ) :   1.0843 B( 21-C , 22-C ) :   1.3060
B( 21-C , 81-H ) :   1.0014 B( 22-C , 23-C ) :   1.3936 B( 22-C , 27-C ) :   0.9953
B( 23-C , 24-S ) :   1.1577 B( 23-C , 25-C ) :   1.2159 B( 25-C , 26-C ) :   1.4293
B( 25-C , 35-S ) :   1.1177 B( 26-C , 27-C ) :   0.9947 B( 26-C , 33-C ) :   1.2889
B( 27-C , 28-C ) :   1.7194 B( 28-C , 29-C ) :   1.1320 B( 28-C , 31-C ) :   1.1346
B( 29-C , 30-N ) :   2.9928 B( 31-C , 32-N ) :   2.9952 B( 33-C , 34-C ) :   1.4210
B( 33-C , 82-H ) :   1.0038 B( 34-C , 35-S ) :   1.0977 B( 34-C , 36-C ) :   1.1767
B( 36-C , 37-C ) :   1.6548 B( 36-C , 83-H ) :   0.9757 B( 37-C , 38-C ) :   1.1393
B( 37-C , 84-H ) :   0.9527 B( 38-C , 39-C ) :   1.4398 B( 38-C , 42-S ) :   1.1164
B( 39-C , 40-C ) :   1.3190 B( 39-C , 85-H ) :   0.9892 B( 40-C , 41-C ) :   1.4239
B( 40-C , 45-C ) :   0.9927 B( 41-C , 42-S ) :   1.1131 B( 41-C , 43-C ) :   1.2088
B( 43-C , 44-C ) :   1.3791 B( 43-C , 53-S ) :   1.1672 B( 44-C , 45-C ) :   0.9990
B( 44-C , 51-C ) :   1.3041 B( 45-C , 46-C ) :   1.7160 B( 46-C , 47-C ) :   1.1338
B( 46-C , 49-C ) :   1.1355 B( 47-C , 48-N ) :   2.9991 B( 49-C , 50-N ) :   2.9836
B( 51-C , 52-C ) :   1.4006 B( 51-C , 86-H ) :   0.9696 B( 52-C , 53-S ) :   1.0748
B( 52-C , 54-C ) :   1.2194 B( 54-C , 55-C ) :   1.5954 B( 54-C , 87-H ) :   0.9081
B( 55-C , 56-C ) :   1.0801 B( 55-C , 64-C ) :   0.9349 B( 56-C , 57-C ) :   1.6190
B( 56-C , 62-C ) :   0.9856 B( 57-C , 58-C ) :   1.1501 B( 57-C , 60-C ) :   1.1399
B( 58-C , 59-N ) :   2.9632 B( 60-C , 61-N ) :   2.9729 B( 62-C , 63-C ) :   1.2141
B( 62-C , 69-C ) :   1.4484 B( 63-C , 64-C ) :   0.9550 B( 63-C , 66-C ) :   1.4740
B( 64-C , 65-O ) :   2.1665 B( 66-C , 67-C ) :   1.1751 B( 66-C , 88-H ) :   1.0168
B( 67-C , 68-C ) :   1.2547 B( 67-C , 73-C ) :   1.2470 B( 68-C , 69-C ) :   1.2091
B( 68-C , 70-C ) :   1.2386 B( 69-C , 89-H ) :   0.9891 B( 70-C , 71-C ) :   1.4892
B( 70-C , 90-H ) :   0.9974 B( 71-C , 72-C ) :   1.2588 B( 71-C , 91-H ) :   0.9892
B( 72-C , 73-C ) :   1.4879 B( 72-C , 92-H ) :   0.9893 B( 73-C , 93-H ) :   0.9974

-----------------------------------------------------------------------------
         ABSORPTION SPECTRUM VIA TRANSITION ELECTRIC DIPOLE MOMENTS
-----------------------------------------------------------------------------
State   Energy  Wavelength   fosc         T2         TX        TY        TZ
        (cm-1)    (nm)                  (au**2)     (au)      (au)      (au)
-----------------------------------------------------------------------------
   0   12080.1    827.8   0.721133437  19.65262   0.38339   3.57114  -2.59857
   1   13647.5    732.7   0.066063824   1.59362  -0.64048   0.95530  -0.52041
   2   19268.0    519.0   1.414888611  24.17470  -0.81692  -3.90733   2.87057
   3   21124.6    473.4   0.753052174  11.73578  -2.45626   2.14717  -1.04512
   4   21434.2    466.5   0.008168747   0.12547   0.05152   0.34024  -0.08395
   5   23554.6    424.5   0.013458490   0.18810   0.14497  -0.38151  -0.14675
   6   24853.1    402.4   0.034301716   0.45437   0.45309  -0.29274  -0.40422
   7   25371.4    394.1   0.032623677   0.42332   0.07876   0.38323  -0.51985
   8   26833.6    372.7   0.235658779   2.89122  -0.37528  -1.19847   1.14632
   9   27535.1    363.2   0.215397050   2.57530   0.05609  -0.98506   1.26563
  10   27871.0    358.8   0.045029487   0.53189  -0.19887  -0.39962   0.57676
  11   28456.1    351.4   0.009584452   0.11088   0.00760   0.03748   0.33079
  12   28534.9    350.4   0.035426211   0.40872  -0.23910  -0.36328   0.46859
  13   28691.0    348.5   0.019718781   0.22626   0.23662   0.12585  -0.39298
  14   29101.5    343.6   0.004037344   0.04567  -0.01040  -0.14259  -0.15884
  15   29165.8    342.9   0.018816849   0.21240   0.35267   0.08648  -0.28380
  16   29606.2    337.8   0.041171173   0.45781  -0.27538   0.61322   0.07706
  17   30149.8    331.7   0.019792546   0.21612   0.11881  -0.44640  -0.05229
  18   30269.0    330.4   0.775288254   8.43221   2.72051  -0.78084  -0.64910
  19   30441.9    328.5   0.294540418   3.18529   0.55341   0.97517  -1.38855
  20   30868.1    324.0   0.110432434   1.17778  -0.19429  -0.15227   1.05681
  21   31000.8    322.6   0.181043590   1.92258   0.64794   0.82372  -0.90788
  22   31539.3    317.1   0.459167543   4.79286   1.95015  -0.68462  -0.72185
  23   32019.9    312.3   0.034840646   0.35821   0.32437  -0.41168  -0.28899
  24   32529.7    307.4   0.084680682   0.85700   0.80229  -0.26210  -0.38032
  25   32726.7    305.6   0.323427494   3.25350   0.64546   0.99595  -1.35830
  26   32836.8    304.5   0.218291826   2.18853  -0.36332  -1.00617   1.02183
  27   33052.2    302.6   0.009818090   0.09779   0.24390   0.18942  -0.04921
  28   33209.5    301.1   0.047371120   0.46960  -0.06235   0.50292  -0.46129
  29   33656.0    297.1   0.096713100   0.94602  -0.87022   0.41997   0.11120
  30   34223.8    292.2   0.069114050   0.66484  -0.05988  -0.02054   0.81291
  31   34375.3    290.9   0.128933933   1.23480  -0.53440  -0.24809   0.94216
  32   34595.9    289.1   0.112369535   1.06930   0.50561   0.29898  -0.85104
  33   34721.9    288.0   0.345975735   3.28033  -1.43539  -0.14879   1.09446
  34   34967.3    286.0   0.528206953   4.97300  -1.51647   0.05417   1.63413
  35   35134.3    284.6   0.108710598   1.01863  -0.73395   0.42700  -0.54554
  36   35475.9    281.9   0.025297197   0.23475  -0.13441   0.23763   0.40028
  37   35861.0    278.9   0.054221365   0.49776   0.65313  -0.26415   0.03752
  38   36360.0    275.0   0.090257391   0.81721   0.29470   0.18200  -0.83501
  39   36494.5    274.0   0.300146222   2.70758   0.97675   0.14464  -1.31629
  40   36715.8    272.4   0.022986449   0.20611   0.15551  -0.07696  -0.41952
  41   37086.4    269.6   0.058021110   0.51505   0.62546   0.07094  -0.34470
  42   37525.4    266.5   0.018255161   0.16015  -0.32370  -0.01671  -0.23471
  43   37623.2    265.8   0.051456471   0.45026   0.56853  -0.33187   0.12998
  44   37884.1    264.0   0.033086642   0.28752   0.51682   0.05811  -0.13056
  45   38086.0    262.6   0.086578389   0.74838  -0.64641   0.02292   0.57447
  46   38253.1    261.4   0.002268861   0.01953  -0.04075  -0.13335  -0.00907
  47   38374.5    260.6   0.024756314   0.21238  -0.37153   0.27026   0.03612
  48   38935.9    256.8   0.006570616   0.05556   0.07009  -0.22321   0.02868
  49   39088.6    255.8   0.017378350   0.14636   0.35949  -0.12392  -0.04214
  50   39182.4    255.2   0.006967229   0.05854   0.20309   0.10989  -0.07224
  51   39429.9    253.6   0.088219899   0.73657   0.57808  -0.63045  -0.07019
  52   39868.7    250.8   0.025913320   0.21398   0.18251   0.40932  -0.11455
  53   40034.5    249.8   0.110202766   0.90622   0.56048  -0.75564   0.14524
  54   40206.2    248.7   0.030887458   0.25291  -0.08831   0.25733  -0.42296

FINAL SINGLE POINT ENERGY     -4475.301795123987

DIPOLE MOMENT
-------------
                                X             Y             Z
Electronic contribution:     13.07390     -12.62019       2.01744
Nuclear contribution   :    -14.48132      13.41431      -0.66517
                        -----------------------------------------
Total Dipole Moment    :     -1.40743       0.79412       1.35228
                        -----------------------------------------
Magnitude (a.u.)       :      2.10716
Magnitude (Debye)      :      5.35598

Rotational constants in cm-1:     0.001639     0.000195     0.000177
Rotational constants in MHz :    49.131048     5.845509     5.297109

                             ****ORCA TERMINATED NORMALLY****
TOTAL RUN TIME: 0 days 0 hours 10 minutes 31 seconds 515 msec
