                         Program Version 4.2.0 -  RELEASE  -
|  1> # ORCA input file
|  2> # SCF done       -195.768870342600          0.000280941626
|  3> ! CAM-B3LYP def2-SVP def2/J RIJCOSX Grid4 TightSCF
|  4> %maxcore 5000
|  5> %tddft
|  6>     Mode sTDDFT
|  7>     Ethresh 5.0
|  8>     maxcore 5000
|  9> end
| 10>
| 11> %pal
| 12>   nprocs 6
| 13>   end
| 14> * xyz 0 1
| 15>    C       -6.59646         2.61683         8.14962
| 16>    C       -7.40379         3.71051         8.29590
| 17>    F       -7.70064         4.16928         9.51758
| 18>    C       -7.93273         4.36775         7.16691
| 19>    F       -8.72083         5.43663         7.33905
| 20>    C       -7.64687         3.92200         5.90668
| 21>    C       -6.81806         2.79829         5.72383
| 22>    C       -6.28260         2.13265         6.86436
| 23>    C       -5.44701         1.00219         6.70519
| 24>    C       -5.15558         0.55245         5.44560
| 25>    C       -5.69543         1.22515         4.31081
| 26>    C       -6.50520         2.31779         4.43305
| 27>    C       -5.23116         0.54999         3.09425
| 28>    O       -5.48333         0.85056         1.93055
| 29>    C       -4.39186        -0.56677         3.53971
| 30>    C       -4.33606        -0.56788         4.98322
| 31>    C       -3.64912        -1.44205         5.78379
| 32>    C       -2.86813        -2.50954         5.29509
| 33>    N       -2.22440        -3.38857         4.93403
| 34>    C       -3.63512        -1.38270         7.19254
| 35>    N       -3.58771        -1.38080         8.33923
| 36>    C       -3.80038        -1.42002         2.63793
| 37>    N       -3.99594        -1.23415         1.32916
| 38>    C       -3.51338        -1.97110         0.30104
| 39>    S       -2.49221        -3.34976         0.55190
| 40>    C       -2.43617        -3.58695        -1.16496
| 41>    N       -1.67777        -4.66901        -1.64359
| 42>    O       -1.63837        -4.84247        -2.84456
| 43>    O       -1.11690        -5.35032        -0.80541
| 44>    C       -3.15542        -2.66808        -1.87775
| 45>    C       -3.78986        -1.71762        -1.05115
| 46>    C       -4.63215        -0.64363        -1.48781
| 47>    C       -5.01678        -0.41767        -2.76059
| 48>    C       -5.91990         0.61911        -3.12340
| 49>    C       -6.44527         0.83824        -4.39002
| 50>    C       -6.08522         0.02885        -5.47852
| 51>    N       -5.76423        -0.66853        -6.33043
| 52>    C       -7.39179         1.89431        -4.41527
| 53>    C       -7.54747         2.45327        -3.15040
| 54>    S       -6.56566         1.73139        -1.93877
| 55>    S       -8.74253         3.70071        -3.04133
| 56>    C       -9.05570         3.47137        -4.73288
| 57>    C       -8.27946         2.50051        -5.34890
| 58>    C       -8.64675         2.34830        -6.71828
| 59>    C       -8.03997         1.49623        -7.65770
| 60>    N       -7.55923         0.84260        -8.46685
| 61>    C       -9.70795         3.14653        -7.07060
| 62>    S      -10.22487         4.19147        -5.77213
| 63>    C      -10.38941         3.23874        -8.36381
| 64>    C       -9.96279         4.23929        -9.25338
| 65>    C      -10.65374         4.42454       -10.48797
| 66>    C      -10.21446         5.43580       -11.37989
| 67>    C       -9.14980         6.22438       -11.07171
| 68>    C       -8.46377         6.04213        -9.85345
| 69>    C       -8.85622         5.08171        -8.97208
| 70>    C      -11.74984         3.61956       -10.77164
| 71>    C      -12.17593         2.62286        -9.89933
| 72>    C      -11.47787         2.40160        -8.66693
| 73>    C      -11.94082         1.34454        -7.82119
| 74>    C      -13.04238         0.61343        -8.18089
| 75>    C      -13.74078         0.85938        -9.37570
| 76>    C      -13.30762         1.83168       -10.22075
| 77>    C      -11.24715         0.91373        -6.59341
| 78>    C      -11.47320         1.29830        -5.29414
| 79>    C      -10.60100         0.54181        -4.43540
| 80>    C      -10.38539         0.58264        -3.08390
| 81>    C       -9.41677        -0.29433        -2.55064
| 82>    C       -8.95691        -0.47919        -1.25498
| 83>    C       -7.96734        -1.51295        -1.25517
| 84>    C       -7.81660        -1.95874        -2.55489
| 85>    C       -8.70085        -1.21924        -3.40194
| 86>    C       -8.91630        -1.25921        -4.75625
| 87>    C       -9.86183        -0.36274        -5.28815
| 88>    C      -10.27219        -0.13106        -6.59461
| 89>    C       -7.24854        -2.02423        -0.11410
| 90>    C       -7.34949        -1.57434         1.13422
| 91>    H       -6.19995         2.12589         9.02460
| 92>    H       -8.05915         4.43651         5.05284
| 93>    H       -5.05827         0.52146         7.58815
| 94>    H       -6.90011         2.80956         3.55702
| 95>    H       -3.17565        -2.25073         2.94037
| 96>    H       -4.61836        -0.43046         1.11761
| 97>    H       -3.20948        -2.69000        -2.95065
| 98>    H       -5.01530         0.02192        -0.72547
| 99>    H       -4.67971        -1.04398        -3.57444
|100>    H      -10.74749         5.56149       -12.31108
|101>    H       -8.81844         6.99288       -11.75389
|102>    H       -7.61742         6.67314        -9.62624
|103>    H       -8.31488         4.94769        -8.04688
|104>    H      -12.29253         3.77373       -11.69370
|105>    H      -13.37489        -0.18339        -7.53084
|106>    H      -14.60542         0.25912        -9.61550
|107>    H      -13.81398         2.02319       -11.15528
|108>    H      -12.17526         2.04162        -4.96201
|109>    H      -10.92638         1.26086        -2.43803
|110>    H       -9.28981         0.06109        -0.38767
|111>    H       -7.15135        -2.73410        -2.88843
|112>    H       -8.37911        -1.93627        -5.40442
|113>    H       -9.92173        -0.63999        -7.47404
|114>    H       -6.58624        -2.85399        -0.33237
|115>    H       -7.99096        -0.75234         1.39914
|116>    H       -6.79716        -2.02351         1.94263
|117> *
|118>
|119>                          ****END OF INPUT****

CARTESIAN COORDINATES (ANGSTROEM)
---------------------------------
  C     -6.596460    2.616830    8.149620
  C     -7.403790    3.710510    8.295900
  F     -7.700640    4.169280    9.517580
  C     -7.932730    4.367750    7.166910
  F     -8.720830    5.436630    7.339050
  C     -7.646870    3.922000    5.906680
  C     -6.818060    2.798290    5.723830
  C     -6.282600    2.132650    6.864360
  C     -5.447010    1.002190    6.705190
  C     -5.155580    0.552450    5.445600
  C     -5.695430    1.225150    4.310810
  C     -6.505200    2.317790    4.433050
  C     -5.231160    0.549990    3.094250
  O     -5.483330    0.850560    1.930550
  C     -4.391860   -0.566770    3.539710
  C     -4.336060   -0.567880    4.983220
  C     -3.649120   -1.442050    5.783790
  C     -2.868130   -2.509540    5.295090
  N     -2.224400   -3.388570    4.934030
  C     -3.635120   -1.382700    7.192540
  N     -3.587710   -1.380800    8.339230
  C     -3.800380   -1.420020    2.637930
  N     -3.995940   -1.234150    1.329160
  C     -3.513380   -1.971100    0.301040
  S     -2.492210   -3.349760    0.551900
  C     -2.436170   -3.586950   -1.164960
  N     -1.677770   -4.669010   -1.643590
  O     -1.638370   -4.842470   -2.844560
  O     -1.116900   -5.350320   -0.805410
  C     -3.155420   -2.668080   -1.877750
  C     -3.789860   -1.717620   -1.051150
  C     -4.632150   -0.643630   -1.487810
  C     -5.016780   -0.417670   -2.760590
  C     -5.919900    0.619110   -3.123400
  C     -6.445270    0.838240   -4.390020
  C     -6.085220    0.028850   -5.478520
  N     -5.764230   -0.668530   -6.330430
  C     -7.391790    1.894310   -4.415270
  C     -7.547470    2.453270   -3.150400
  S     -6.565660    1.731390   -1.938770
  S     -8.742530    3.700710   -3.041330
  C     -9.055700    3.471370   -4.732880
  C     -8.279460    2.500510   -5.348900
  C     -8.646750    2.348300   -6.718280
  C     -8.039970    1.496230   -7.657700
  N     -7.559230    0.842600   -8.466850
  C     -9.707950    3.146530   -7.070600
  S    -10.224870    4.191470   -5.772130
  C    -10.389410    3.238740   -8.363810
  C     -9.962790    4.239290   -9.253380
  C    -10.653740    4.424540  -10.487970
  C    -10.214460    5.435800  -11.379890
  C     -9.149800    6.224380  -11.071710
  C     -8.463770    6.042130   -9.853450
  C     -8.856220    5.081710   -8.972080
  C    -11.749840    3.619560  -10.771640
  C    -12.175930    2.622860   -9.899330
  C    -11.477870    2.401600   -8.666930
  C    -11.940820    1.344540   -7.821190
  C    -13.042380    0.613430   -8.180890
  C    -13.740780    0.859380   -9.375700
  C    -13.307620    1.831680  -10.220750
  C    -11.247150    0.913730   -6.593410
  C    -11.473200    1.298300   -5.294140
  C    -10.601000    0.541810   -4.435400
  C    -10.385390    0.582640   -3.083900
  C     -9.416770   -0.294330   -2.550640
  C     -8.956910   -0.479190   -1.254980
  C     -7.967340   -1.512950   -1.255170
  C     -7.816600   -1.958740   -2.554890
  C     -8.700850   -1.219240   -3.401940
  C     -8.916300   -1.259210   -4.756250
  C     -9.861830   -0.362740   -5.288150
  C    -10.272190   -0.131060   -6.594610
  C     -7.248540   -2.024230   -0.114100
  C     -7.349490   -1.574340    1.134220
  H     -6.199950    2.125890    9.024600
  H     -8.059150    4.436510    5.052840
  H     -5.058270    0.521460    7.588150
  H     -6.900110    2.809560    3.557020
  H     -3.175650   -2.250730    2.940370
  H     -4.618360   -0.430460    1.117610
  H     -3.209480   -2.690000   -2.950650
  H     -5.015300    0.021920   -0.725470
  H     -4.679710   -1.043980   -3.574440
  H    -10.747490    5.561490  -12.311080
  H     -8.818440    6.992880  -11.753890
  H     -7.617420    6.673140   -9.626240
  H     -8.314880    4.947690   -8.046880
  H    -12.292530    3.773730  -11.693700
  H    -13.374890   -0.183390   -7.530840
  H    -14.605420    0.259120   -9.615500
  H    -13.813980    2.023190  -11.155280
  H    -12.175260    2.041620   -4.962010
  H    -10.926380    1.260860   -2.438030
  H     -9.289810    0.061090   -0.387670
  H     -7.151350   -2.734100   -2.888430
  H     -8.379110   -1.936270   -5.404420
  H     -9.921730   -0.639990   -7.474040
  H     -6.586240   -2.853990   -0.332370
  H     -7.990960   -0.752340    1.399140
  H     -6.797160   -2.023510    1.942630

 Total Charge           Charge          ....    0
 Multiplicity           Mult            ....    1
 Number of Electrons    NEL             ....  540
 Basis Dimension        Dim             .... 1210

ORBITAL ENERGIES
----------------

  NO   OCC          E(Eh)            E(eV)
   0   2.0000     -88.997703     -2421.7506
   1   2.0000     -88.990048     -2421.5423
   2   2.0000     -88.985597     -2421.4212
   3   2.0000     -88.981579     -2421.3119
   4   2.0000     -24.807135      -675.0365
   5   2.0000     -24.805857      -675.0017
   6   2.0000     -19.245229      -523.6893
   7   2.0000     -19.244827      -523.6784
   8   2.0000     -19.243460      -523.6412
   9   2.0000     -14.656838      -398.8328
  10   2.0000     -14.504901      -394.6984
  11   2.0000     -14.427225      -392.5847
  12   2.0000     -14.422483      -392.4557
  13   2.0000     -14.408296      -392.0697
  14   2.0000     -14.400253      -391.8508
  15   2.0000     -10.390817      -282.7485
  16   2.0000     -10.390083      -282.7285
  17   2.0000     -10.389478      -282.7121
  18   2.0000     -10.379503      -282.4406
  19   2.0000     -10.379432      -282.4387
  20   2.0000     -10.355662      -281.7919
  21   2.0000     -10.354690      -281.7654
  22   2.0000     -10.350525      -281.6521
  23   2.0000     -10.337978      -281.3107
  24   2.0000     -10.335031      -281.2305
  25   2.0000     -10.333704      -281.1944
  26   2.0000     -10.329656      -281.0842
  27   2.0000     -10.329365      -281.0763
  28   2.0000     -10.325568      -280.9730
  29   2.0000     -10.322312      -280.8844
  30   2.0000     -10.320870      -280.8452
  31   2.0000     -10.320470      -280.8343
  32   2.0000     -10.319357      -280.8040
  33   2.0000     -10.318768      -280.7880
  34   2.0000     -10.317838      -280.7626
  35   2.0000     -10.316387      -280.7232
  36   2.0000     -10.315972      -280.7119
  37   2.0000     -10.312803      -280.6256
  38   2.0000     -10.311102      -280.5793
  39   2.0000     -10.309542      -280.5369
  40   2.0000     -10.309315      -280.5307
  41   2.0000     -10.308509      -280.5088
  42   2.0000     -10.307756      -280.4883
  43   2.0000     -10.307631      -280.4849
  44   2.0000     -10.307299      -280.4759
  45   2.0000     -10.306063      -280.4422
  46   2.0000     -10.304107      -280.3890
  47   2.0000     -10.300526      -280.2916
  48   2.0000     -10.297701      -280.2147
  49   2.0000     -10.295671      -280.1595
  50   2.0000     -10.293918      -280.1117
  51   2.0000     -10.292003      -280.0596
  52   2.0000     -10.287264      -279.9307
  53   2.0000     -10.284025      -279.8425
  54   2.0000     -10.283791      -279.8362
  55   2.0000     -10.282794      -279.8090
  56   2.0000     -10.282405      -279.7985
  57   2.0000     -10.282268      -279.7947
  58   2.0000     -10.280519      -279.7471
  59   2.0000     -10.277212      -279.6572
  60   2.0000     -10.275253      -279.6038
  61   2.0000     -10.275092      -279.5995
  62   2.0000     -10.274569      -279.5852
  63   2.0000     -10.274529      -279.5841
  64   2.0000     -10.274090      -279.5722
  65   2.0000     -10.273318      -279.5512
  66   2.0000     -10.273140      -279.5463
  67   2.0000     -10.272561      -279.5306
  68   2.0000     -10.272354      -279.5250
  69   2.0000     -10.272221      -279.5213
  70   2.0000     -10.267224      -279.3854
  71   2.0000     -10.266402      -279.3630
  72   2.0000     -10.265626      -279.3419
  73   2.0000     -10.264129      -279.3012
  74   2.0000     -10.262800      -279.2650
  75   2.0000     -10.262081      -279.2454
  76   2.0000      -8.092876      -220.2183
  77   2.0000      -8.084519      -219.9910
  78   2.0000      -8.079825      -219.8632
  79   2.0000      -8.076192      -219.7644
  80   2.0000      -6.062501      -164.9691
  81   2.0000      -6.058148      -164.8506
  82   2.0000      -6.054479      -164.7507
  83   2.0000      -6.054376      -164.7479
  84   2.0000      -6.050230      -164.6351
  85   2.0000      -6.049424      -164.6132
  86   2.0000      -6.045860      -164.5162
  87   2.0000      -6.045559      -164.5080
  88   2.0000      -6.045256      -164.4998
  89   2.0000      -6.041522      -164.3982
  90   2.0000      -6.041497      -164.3975
  91   2.0000      -6.037797      -164.2968
  92   2.0000      -1.329757       -36.1845
  93   2.0000      -1.327520       -36.1236
  94   2.0000      -1.314838       -35.7786
  95   2.0000      -1.158390       -31.5214
  96   2.0000      -1.147016       -31.2119
  97   2.0000      -1.112823       -30.2815
  98   2.0000      -1.041357       -28.3368
  99   2.0000      -1.030600       -28.0441
 100   2.0000      -1.018654       -27.7190
 101   2.0000      -1.015077       -27.6217
 102   2.0000      -1.010998       -27.5107
 103   2.0000      -1.003613       -27.3097
 104   2.0000      -0.993396       -27.0317
 105   2.0000      -0.991630       -26.9836
 106   2.0000      -0.987398       -26.8685
 107   2.0000      -0.983280       -26.7564
 108   2.0000      -0.979798       -26.6617
 109   2.0000      -0.962769       -26.1983
 110   2.0000      -0.951971       -25.9045
 111   2.0000      -0.947546       -25.7840
 112   2.0000      -0.942383       -25.6435
 113   2.0000      -0.929739       -25.2995
 114   2.0000      -0.914447       -24.8834
 115   2.0000      -0.904232       -24.6054
 116   2.0000      -0.902707       -24.5639
 117   2.0000      -0.900531       -24.5047
 118   2.0000      -0.898433       -24.4476
 119   2.0000      -0.890467       -24.2308
 120   2.0000      -0.884000       -24.0549
 121   2.0000      -0.871570       -23.7166
 122   2.0000      -0.869588       -23.6627
 123   2.0000      -0.861588       -23.4450
 124   2.0000      -0.860794       -23.4234
 125   2.0000      -0.858955       -23.3734
 126   2.0000      -0.851600       -23.1732
 127   2.0000      -0.841405       -22.8958
 128   2.0000      -0.832037       -22.6409
 129   2.0000      -0.826041       -22.4777
 130   2.0000      -0.823434       -22.4068
 131   2.0000      -0.810148       -22.0453
 132   2.0000      -0.795769       -21.6540
 133   2.0000      -0.792703       -21.5705
 134   2.0000      -0.780426       -21.2365
 135   2.0000      -0.776200       -21.1215
 136   2.0000      -0.768450       -20.9106
 137   2.0000      -0.751632       -20.4529
 138   2.0000      -0.747372       -20.3370
 139   2.0000      -0.744753       -20.2658
 140   2.0000      -0.737658       -20.0727
 141   2.0000      -0.731150       -19.8956
 142   2.0000      -0.725236       -19.7347
 143   2.0000      -0.720213       -19.5980
 144   2.0000      -0.709349       -19.3024
 145   2.0000      -0.707853       -19.2617
 146   2.0000      -0.705380       -19.1944
 147   2.0000      -0.697168       -18.9709
 148   2.0000      -0.693247       -18.8642
 149   2.0000      -0.682449       -18.5704
 150   2.0000      -0.674946       -18.3662
 151   2.0000      -0.670692       -18.2505
 152   2.0000      -0.669318       -18.2131
 153   2.0000      -0.667188       -18.1551
 154   2.0000      -0.660573       -17.9751
 155   2.0000      -0.652612       -17.7585
 156   2.0000      -0.648810       -17.6550
 157   2.0000      -0.642333       -17.4788
 158   2.0000      -0.641277       -17.4500
 159   2.0000      -0.638439       -17.3728
 160   2.0000      -0.637456       -17.3461
 161   2.0000      -0.634444       -17.2641
 162   2.0000      -0.627304       -17.0698
 163   2.0000      -0.625040       -17.0082
 164   2.0000      -0.622236       -16.9319
 165   2.0000      -0.620999       -16.8982
 166   2.0000      -0.615754       -16.7555
 167   2.0000      -0.611615       -16.6429
 168   2.0000      -0.607039       -16.5184
 169   2.0000      -0.594888       -16.1877
 170   2.0000      -0.594248       -16.1703
 171   2.0000      -0.594157       -16.1678
 172   2.0000      -0.586205       -15.9515
 173   2.0000      -0.582932       -15.8624
 174   2.0000      -0.578338       -15.7374
 175   2.0000      -0.572634       -15.5822
 176   2.0000      -0.570304       -15.5188
 177   2.0000      -0.568064       -15.4578
 178   2.0000      -0.564021       -15.3478
 179   2.0000      -0.562530       -15.3072
 180   2.0000      -0.556886       -15.1536
 181   2.0000      -0.555559       -15.1175
 182   2.0000      -0.552820       -15.0430
 183   2.0000      -0.550806       -14.9882
 184   2.0000      -0.549440       -14.9510
 185   2.0000      -0.546568       -14.8729
 186   2.0000      -0.543061       -14.7774
 187   2.0000      -0.541241       -14.7279
 188   2.0000      -0.539951       -14.6928
 189   2.0000      -0.538831       -14.6623
 190   2.0000      -0.534740       -14.5510
 191   2.0000      -0.533534       -14.5182
 192   2.0000      -0.529060       -14.3965
 193   2.0000      -0.526524       -14.3275
 194   2.0000      -0.525856       -14.3093
 195   2.0000      -0.518138       -14.0992
 196   2.0000      -0.514999       -14.0138
 197   2.0000      -0.514728       -14.0064
 198   2.0000      -0.513188       -13.9646
 199   2.0000      -0.509139       -13.8544
 200   2.0000      -0.504361       -13.7244
 201   2.0000      -0.500772       -13.6267
 202   2.0000      -0.500086       -13.6080
 203   2.0000      -0.498839       -13.5741
 204   2.0000      -0.497585       -13.5400
 205   2.0000      -0.495285       -13.4774
 206   2.0000      -0.489427       -13.3180
 207   2.0000      -0.485499       -13.2111
 208   2.0000      -0.484346       -13.1797
 209   2.0000      -0.481473       -13.1015
 210   2.0000      -0.479298       -13.0424
 211   2.0000      -0.476410       -12.9638
 212   2.0000      -0.474223       -12.9043
 213   2.0000      -0.474045       -12.8994
 214   2.0000      -0.471232       -12.8229
 215   2.0000      -0.469163       -12.7666
 216   2.0000      -0.466968       -12.7069
 217   2.0000      -0.462520       -12.5858
 218   2.0000      -0.461105       -12.5473
 219   2.0000      -0.458502       -12.4765
 220   2.0000      -0.457989       -12.4625
 221   2.0000      -0.456797       -12.4301
 222   2.0000      -0.456466       -12.4211
 223   2.0000      -0.453210       -12.3325
 224   2.0000      -0.452283       -12.3073
 225   2.0000      -0.449545       -12.2327
 226   2.0000      -0.444672       -12.1001
 227   2.0000      -0.443088       -12.0570
 228   2.0000      -0.441269       -12.0075
 229   2.0000      -0.440614       -11.9897
 230   2.0000      -0.436710       -11.8835
 231   2.0000      -0.436470       -11.8770
 232   2.0000      -0.436280       -11.8718
 233   2.0000      -0.430026       -11.7016
 234   2.0000      -0.428121       -11.6498
 235   2.0000      -0.427662       -11.6373
 236   2.0000      -0.426353       -11.6016
 237   2.0000      -0.421870       -11.4797
 238   2.0000      -0.420738       -11.4489
 239   2.0000      -0.419379       -11.4119
 240   2.0000      -0.417938       -11.3727
 241   2.0000      -0.407408       -11.0861
 242   2.0000      -0.405588       -11.0366
 243   2.0000      -0.402573       -10.9546
 244   2.0000      -0.395876       -10.7723
 245   2.0000      -0.393815       -10.7163
 246   2.0000      -0.391832       -10.6623
 247   2.0000      -0.390528       -10.6268
 248   2.0000      -0.384150       -10.4533
 249   2.0000      -0.383642       -10.4394
 250   2.0000      -0.380238       -10.3468
 251   2.0000      -0.376405       -10.2425
 252   2.0000      -0.375068       -10.2061
 253   2.0000      -0.374033       -10.1780
 254   2.0000      -0.365803        -9.9540
 255   2.0000      -0.360466        -9.8088
 256   2.0000      -0.354618        -9.6496
 257   2.0000      -0.349416        -9.5081
 258   2.0000      -0.330324        -8.9886
 259   2.0000      -0.329474        -8.9654
 260   2.0000      -0.325712        -8.8631
 261   2.0000      -0.315582        -8.5874
 262   2.0000      -0.312258        -8.4970
 263   2.0000      -0.310212        -8.4413
 264   2.0000      -0.298990        -8.1359
 265   2.0000      -0.295268        -8.0346
 266   2.0000      -0.265937        -7.2365
 267   2.0000      -0.262065        -7.1312
 268   2.0000      -0.258413        -7.0318
 269   2.0000      -0.243775        -6.6334
 270   0.0000      -0.101079        -2.7505
 271   0.0000      -0.095062        -2.5868
 272   0.0000      -0.078071        -2.1244
 273   0.0000      -0.058453        -1.5906
 274   0.0000      -0.050424        -1.3721

MULLIKEN ATOMIC CHARGES
-----------------------
   0 C :   -0.105791
   1 C :    0.243228
   2 F :   -0.167814
   3 C :    0.239025
   4 F :   -0.169841
   5 C :   -0.103800
   6 C :    0.114425
   7 C :    0.111711
   8 C :   -0.081152
   9 C :    0.045431
  10 C :    0.003960
  11 C :   -0.078432
  12 C :    0.171532
  13 O :   -0.221483
  14 C :   -0.130117
  15 C :    0.333736
  16 C :   -0.343027
  17 C :   -0.198520
  18 N :    0.148481
  19 C :   -0.182509
  20 N :    0.150848
  21 C :    0.022214
  22 N :   -0.006281
  23 C :   -0.123681
  24 S :    0.182875
  25 C :    0.009901
  26 N :    0.273302
  27 O :   -0.238026
  28 O :   -0.252702
  29 C :   -0.001838
  30 C :    0.132535
  31 C :   -0.042102
  32 C :    0.006462
  33 C :   -0.088866
  34 C :    0.001882
  35 C :   -0.345950
  36 N :    0.220366
  37 C :    0.155506
  38 C :   -0.228006
  39 S :    0.152139
  40 S :    0.168563
  41 C :   -0.251205
  42 C :    0.170840
  43 C :    0.033375
  44 C :   -0.331322
  45 N :    0.260738
  46 C :   -0.281872
  47 S :    0.184818
  48 C :   -0.073056
  49 C :    0.109876
  50 C :    0.075438
  51 C :   -0.006209
  52 C :    0.029306
  53 C :    0.031992
  54 C :   -0.017000
  55 C :   -0.085408
  56 C :    0.063852
  57 C :    0.195268
  58 C :   -0.001875
  59 C :   -0.017709
  60 C :    0.037974
  61 C :   -0.006288
  62 C :   -0.035413
  63 C :    0.002777
  64 C :    0.074633
  65 C :   -0.026986
  66 C :    0.049888
  67 C :   -0.026902
  68 C :    0.038180
  69 C :   -0.013849
  70 C :    0.047971
  71 C :    0.003700
  72 C :    0.014270
  73 C :    0.030406
  74 C :    0.001345
  75 C :   -0.035463
  76 H :    0.010384
  77 H :   -0.001403
  78 H :   -0.004492
  79 H :   -0.013740
  80 H :    0.047463
  81 H :    0.201330
  82 H :    0.022177
  83 H :    0.006864
  84 H :    0.009979
  85 H :   -0.027176
  86 H :   -0.012224
  87 H :   -0.012907
  88 H :   -0.010940
  89 H :   -0.035554
  90 H :   -0.020661
  91 H :   -0.013696
  92 H :   -0.026100
  93 H :   -0.031917
  94 H :   -0.034554
  95 H :   -0.036665
  96 H :   -0.031775
  97 H :   -0.011101
  98 H :   -0.003937
  99 H :   -0.016504
 100 H :    0.010313
 101 H :    0.012565
Sum of atomic charges:   -0.0000000

LOEWDIN ATOMIC CHARGES
----------------------
   0 C :   -0.027638
   1 C :    0.068363
   2 F :   -0.045866
   3 C :    0.068385
   4 F :   -0.047484
   5 C :   -0.032840
   6 C :   -0.010293
   7 C :   -0.005805
   8 C :    0.020821
   9 C :   -0.019949
  10 C :   -0.052646
  11 C :    0.031049
  12 C :    0.096407
  13 O :   -0.173003
  14 C :   -0.145441
  15 C :    0.077546
  16 C :   -0.146390
  17 C :   -0.020675
  18 N :   -0.050698
  19 C :   -0.019323
  20 N :   -0.051958
  21 C :    0.113117
  22 N :    0.089331
  23 C :   -0.115123
  24 S :    0.476046
  25 C :   -0.195559
  26 N :    0.272201
  27 O :   -0.204650
  28 O :   -0.219700
  29 C :    0.003699
  30 C :   -0.082475
  31 C :   -0.020780
  32 C :   -0.024944
  33 C :   -0.123304
  34 C :   -0.093836
  35 C :   -0.036982
  36 N :   -0.040990
  37 C :   -0.060008
  38 C :   -0.328347
  39 S :    0.469511
  40 S :    0.422376
  41 C :   -0.333747
  42 C :   -0.057694
  43 C :   -0.095174
  44 C :   -0.037132
  45 N :   -0.037730
  46 C :   -0.111930
  47 S :    0.461075
  48 C :   -0.051493
  49 C :   -0.002758
  50 C :   -0.018613
  51 C :   -0.008776
  52 C :   -0.023869
  53 C :   -0.015638
  54 C :   -0.018431
  55 C :    0.008783
  56 C :   -0.016486
  57 C :    0.001317
  58 C :   -0.016874
  59 C :   -0.009046
  60 C :   -0.025977
  61 C :   -0.008500
  62 C :   -0.056128
  63 C :    0.002491
  64 C :   -0.058798
  65 C :    0.055293
  66 C :   -0.067488
  67 C :    0.025824
  68 C :   -0.071850
  69 C :    0.010902
  70 C :   -0.066611
  71 C :    0.075116
  72 C :   -0.073836
  73 C :    0.053289
  74 C :   -0.021777
  75 C :   -0.068081
  76 H :    0.048906
  77 H :    0.044409
  78 H :    0.041345
  79 H :    0.039343
  80 H :    0.037303
  81 H :    0.083883
  82 H :    0.049249
  83 H :    0.023458
  84 H :    0.040212
  85 H :    0.028539
  86 H :    0.029885
  87 H :    0.030539
  88 H :    0.028183
  89 H :    0.029009
  90 H :    0.031781
  91 H :    0.030386
  92 H :    0.028660
  93 H :    0.017690
  94 H :    0.028215
  95 H :    0.019641
  96 H :    0.021968
  97 H :    0.039905
  98 H :    0.032947
  99 H :    0.027857
 100 H :    0.017607
 101 H :    0.017287

  Mayer bond orders larger than 0.100000
B(  0-C ,  1-C ) :   1.4368 B(  0-C ,  5-C ) :   0.1073 B(  0-C ,  7-C ) :   1.1929
B(  0-C , 76-H ) :   1.0070 B(  1-C ,  2-F ) :   1.1381 B(  1-C ,  3-C ) :   1.1923
B(  3-C ,  4-F ) :   1.1355 B(  3-C ,  5-C ) :   1.4412 B(  5-C ,  6-C ) :   1.1929
B(  5-C , 77-H ) :   1.0067 B(  6-C ,  7-C ) :   1.2594 B(  6-C , 11-C ) :   1.1844
B(  7-C ,  8-C ) :   1.2075 B(  8-C ,  9-C ) :   1.4646 B(  8-C , 78-H ) :   0.9898
B(  9-C , 10-C ) :   1.2203 B(  9-C , 15-C ) :   0.9857 B( 10-C , 11-C ) :   1.4692
B( 10-C , 12-C ) :   0.9796 B( 11-C , 79-H ) :   1.0179 B( 12-C , 13-O ) :   2.0167
B( 12-C , 14-C ) :   1.0131 B( 13-O , 81-H ) :   0.1338 B( 14-C , 15-C ) :   1.0951
B( 14-C , 21-C ) :   1.4339 B( 15-C , 16-C ) :   1.6322 B( 16-C , 17-C ) :   1.1467
B( 16-C , 19-C ) :   1.1455 B( 17-C , 18-N ) :   2.9551 B( 19-C , 20-N ) :   2.9610
B( 21-C , 22-N ) :   1.3471 B( 21-C , 80-H ) :   0.9335 B( 22-N , 23-C ) :   1.2009
B( 22-N , 81-H ) :   0.8143 B( 23-C , 24-S ) :   1.1331 B( 23-C , 30-C ) :   1.3687
B( 24-S , 25-C ) :   1.0849 B( 25-C , 26-N ) :   0.9557 B( 25-C , 29-C ) :   1.5077
B( 26-N , 27-O ) :   1.5424 B( 26-N , 28-O ) :   1.5183 B( 27-O , 28-O ) :   0.2659
B( 29-C , 30-C ) :   1.2125 B( 29-C , 82-H ) :   1.0029 B( 30-C , 31-C ) :   1.0868
B( 31-C , 32-C ) :   1.6944 B( 31-C , 83-H ) :   0.9588 B( 32-C , 33-C ) :   1.1713
B( 32-C , 84-H ) :   0.9667 B( 33-C , 34-C ) :   1.4805 B( 33-C , 39-S ) :   1.1279
B( 34-C , 35-C ) :   1.1878 B( 34-C , 37-C ) :   1.2630 B( 35-C , 36-N ) :   2.9527
B( 37-C , 38-C ) :   1.4079 B( 37-C , 42-C ) :   1.0635 B( 38-C , 39-S ) :   1.0993
B( 38-C , 40-S ) :   1.0848 B( 40-S , 41-C ) :   1.0795 B( 41-C , 42-C ) :   1.4109
B( 41-C , 47-S ) :   1.0725 B( 42-C , 43-C ) :   1.2533 B( 43-C , 44-C ) :   1.1884
B( 43-C , 46-C ) :   1.5642 B( 44-C , 45-N ) :   2.9857 B( 46-C , 47-S ) :   1.1698
B( 46-C , 48-C ) :   0.9936 B( 48-C , 49-C ) :   1.3595 B( 48-C , 55-C ) :   0.1019
B( 48-C , 57-C ) :   1.3386 B( 49-C , 50-C ) :   1.1863 B( 49-C , 54-C ) :   1.2087
B( 50-C , 51-C ) :   1.1857 B( 50-C , 55-C ) :   1.2976 B( 51-C , 52-C ) :   1.5475
B( 51-C , 85-H ) :   0.9967 B( 52-C , 53-C ) :   1.2042 B( 52-C , 86-H ) :   0.9893
B( 53-C , 54-C ) :   1.5490 B( 53-C , 87-H ) :   0.9855 B( 54-C , 88-H ) :   0.9750
B( 55-C , 56-C ) :   1.3062 B( 55-C , 89-H ) :   1.0084 B( 56-C , 57-C ) :   1.1832
B( 56-C , 61-C ) :   1.1829 B( 57-C , 58-C ) :   1.2222 B( 58-C , 59-C ) :   1.6000
B( 58-C , 62-C ) :   0.8870 B( 59-C , 60-C ) :   1.1838 B( 59-C , 90-H ) :   0.9934
B( 60-C , 61-C ) :   1.5317 B( 60-C , 91-H ) :   0.9896 B( 61-C , 92-H ) :   1.0000
B( 62-C , 63-C ) :   1.5692 B( 62-C , 73-C ) :   1.2047 B( 63-C , 64-C ) :   1.0637
B( 63-C , 93-H ) :   1.0152 B( 64-C , 65-C ) :   1.4556 B( 64-C , 72-C ) :   1.1462
B( 65-C , 66-C ) :   1.1076 B( 65-C , 94-H ) :   1.0082 B( 66-C , 67-C ) :   1.4243
B( 66-C , 70-C ) :   1.1579 B( 67-C , 68-C ) :   1.1503 B( 67-C , 95-H ) :   1.0151
B( 68-C , 69-C ) :   1.4871 B( 68-C , 74-C ) :   1.0893 B( 69-C , 70-C ) :   1.0993
B( 69-C , 96-H ) :   1.0165 B( 70-C , 71-C ) :   1.4229 B( 71-C , 72-C ) :   1.1437
B( 71-C , 97-H ) :   1.0058 B( 72-C , 73-C ) :   1.3889 B( 73-C , 98-H ) :   1.0123
B( 74-C , 75-C ) :   1.9200 B( 74-C , 99-H ) :   0.9603 B( 75-C ,100-H ) :   0.9477
B( 75-C ,101-H ) :   0.9427

-----------------------------------------------------------------------------
         ABSORPTION SPECTRUM VIA TRANSITION ELECTRIC DIPOLE MOMENTS
-----------------------------------------------------------------------------
State   Energy  Wavelength   fosc         T2         TX        TY        TZ
        (cm-1)    (nm)                  (au**2)     (au)      (au)      (au)
-----------------------------------------------------------------------------
   0    9933.8   1006.7   0.000205217   0.00680   0.00974   0.04243   0.07004
   1   17590.9    568.5   0.029990456   0.56127  -0.32933  -0.12483  -0.66123
   2   18649.5    536.2   0.126669745   2.23604   0.49442  -0.34490   1.36845
   3   19787.8    505.4   0.067502114   1.12304  -0.21081   0.33476  -0.98313
   4   20524.0    487.2   0.650007938  10.42635   0.07845  -0.57976  -3.17554
   5   21103.5    473.9   0.111692915   1.74240   0.90741  -0.53254   0.79713
   6   22956.5    435.6   0.045247275   0.64888  -0.42575   0.02639  -0.68331
   7   23083.1    433.2   0.058602536   0.83579   0.27118  -0.26310   0.83248
   8   23478.1    425.9   0.016243265   0.22776   0.02699   0.13990   0.45548
   9   24463.6    408.8   0.129905020   1.74816  -0.14868  -0.52405   1.20475
  10   25113.3    398.2   0.046651584   0.61156   0.48984  -0.56594   0.22654
  11   26877.9    372.1   0.000295873   0.00362  -0.04064   0.03525   0.02701
  12   26907.9    371.6   0.163757013   2.00353   0.57872  -0.33662   1.24712
  13   27133.4    368.5   0.007639714   0.09269  -0.21040   0.21668   0.03841
  14   27488.7    363.8   0.056122391   0.67214  -0.40072   0.25593   0.66788
  15   27753.3    360.3   0.179928524   2.13433  -0.74757   0.82985  -0.94171
  16   28245.6    354.0   0.338784697   3.94865   1.36170  -1.44237   0.11830
  17   28597.9    349.7   0.005768425   0.06640  -0.14284   0.19942  -0.07895
  18   28899.6    346.0   0.014037748   0.15991   0.33890  -0.16098   0.13835
  19   29460.9    339.4   0.225826161   2.52351  -0.78037   0.50723  -1.28734
  20   29811.3    335.4   0.109547251   1.20975   0.38513  -0.97524  -0.33216
  21   29938.4    334.0   0.005764099   0.06338  -0.10865  -0.19774   0.11171
  22   30376.2    329.2   0.289519013   3.13776   0.89861  -1.31166  -0.78091
  23   30546.0    327.4   0.184765654   1.99133  -0.61386   0.59075   1.12495
  24   30860.0    324.0   0.080083581   0.85432  -0.07993   0.75463  -0.52770
  25   31261.9    319.9   0.030556138   0.32178  -0.26481   0.17805  -0.46899
  26   31772.1    314.7   0.019440090   0.20143   0.16156  -0.10620  -0.40503
  27   31920.2    313.3   0.066952321   0.69052   0.55474  -0.54655   0.28995
  28   32099.6    311.5   0.072522325   0.74378  -0.44489   0.68311  -0.28145
  29   32267.3    309.9   0.065543508   0.66872   0.39253  -0.63090   0.34148
  30   32326.1    309.3   0.011603989   0.11818  -0.07601   0.08743   0.32366
  31   32698.6    305.8   0.291875295   2.93862   1.02255  -1.35192  -0.25557
  32   33221.5    301.0   0.003077253   0.03049   0.06989  -0.15765  -0.02748
  33   33251.7    300.7   0.000342935   0.00340  -0.03982   0.03410  -0.02543
  34   33419.2    299.2   0.004020348   0.03960  -0.01543   0.17023  -0.10192
  35   33595.1    297.7   0.008655585   0.08482  -0.01512   0.29074  -0.00765
  36   33751.7    296.3   0.003288057   0.03207  -0.16082  -0.07225   0.03145
  37   33796.2    295.9   0.005475421   0.05334  -0.03615   0.15549   0.16689
  38   34189.7    292.5   0.000296331   0.00285  -0.00362  -0.04874  -0.02155
  39   34739.1    287.9   0.072530038   0.68735  -0.54481   0.62195   0.06080
  40   34769.8    287.6   0.716184481   6.78108  -1.54805   2.06488   0.34767
  41   34891.9    286.6   0.069010682   0.65113   0.39111  -0.70009   0.08964
  42   35149.9    284.5   0.073519259   0.68858  -0.42788   0.58221  -0.40808
  43   35376.1    282.7   0.023678173   0.22035  -0.22835   0.27727  -0.30221
  44   35817.1    279.2   0.015124328   0.13901   0.15226  -0.33952  -0.02357
  45   36280.7    275.6   0.320400222   2.90732  -0.68122   0.48527  -1.48586
  46   36335.4    275.2   0.004415721   0.04001   0.15072  -0.09699   0.08879
  47   36518.0    273.8   0.497967339   4.48921  -0.79067   0.79281  -1.79875
  48   36595.0    273.3   0.015734529   0.14155   0.07145  -0.05635   0.36506
  49   36830.6    271.5   0.012025862   0.10749   0.10787  -0.07645  -0.30002
  50   36962.7    270.5   0.381524814   3.39809   0.58482  -0.73846   1.58453
  51   36981.9    270.4   0.022317662   0.19867   0.00901   0.13017  -0.42620
  52   37264.0    268.4   0.212255607   1.87519   0.25335  -0.18482   1.33298
  53   37389.3    267.5   0.019475275   0.17148  -0.19512   0.19596  -0.30824
  54   37723.9    265.1   0.005475333   0.04778   0.05459  -0.00554   0.21159
  55   37914.9    263.7   0.171290744   1.48730   0.04349  -0.00663   1.21876
  56   38180.0    261.9   0.025849605   0.22289  -0.13547  -0.10791   0.43920
  57   38508.8    259.7   0.237736454   2.03241  -0.45219   0.48390  -1.26245
  58   38634.2    258.8   0.026051011   0.22199   0.28460  -0.32219   0.19284
  59   38672.1    258.6   0.001594321   0.01357  -0.05190   0.09855   0.03414
  60   39047.9    256.1   0.017360446   0.14637   0.15059   0.02015   0.35112
  61   39498.1    253.2   0.016177441   0.13484   0.00005   0.18066   0.31968
  62   39903.5    250.6   0.137519953   1.13457  -0.52793   0.29814  -0.87577
  63   39963.2    250.2   0.018074819   0.14890  -0.29228   0.19786   0.15596
  64   40106.3    249.3   0.045909330   0.37685   0.27316  -0.23901   0.49508

FINAL SINGLE POINT ENERGY     -4682.193087241430

DIPOLE MOMENT
-------------
                                X             Y             Z
Electronic contribution:     20.54704       7.80681      50.63032
Nuclear contribution   :    -23.71784      -4.09365     -50.58698
                        -----------------------------------------
Total Dipole Moment    :     -3.17080       3.71316       0.04334
                        -----------------------------------------
Magnitude (a.u.)       :      4.88297
Magnitude (Debye)      :     12.41153

Rotational constants in cm-1:     0.001325     0.000405     0.000338
Rotational constants in MHz :    39.720123    12.149753    10.131581

                             ****ORCA TERMINATED NORMALLY****
TOTAL RUN TIME: 0 days 0 hours 13 minutes 3 seconds 402 msec
