                         Program Version 4.2.0 -  RELEASE  -
|  1> # ORCA input file
|  2> # SCF done       -153.202521318887          0.000443029693
|  3> ! CAM-B3LYP def2-SVP def2/J RIJCOSX Grid4 TightSCF
|  4> %maxcore 5000
|  5> %tddft
|  6>     Mode sTDDFT
|  7>     Ethresh 5.0
|  8>     maxcore 5000
|  9> end
| 10>
| 11> %pal
| 12>   nprocs 6
| 13>   end
| 14> * xyz 0 1
| 15>    C       14.46047        -4.16119         2.70289
| 16>    C       13.93570        -4.33915         3.92794
| 17>    C       13.66275        -3.34967         4.92116
| 18>    C       13.08564        -3.83871         6.05073
| 19>    C       12.84245        -5.22854         6.02302
| 20>    S       13.41115        -5.92071         4.52357
| 21>    C       12.25438        -6.00719         7.01207
| 22>    C       11.75842        -5.60288         8.25792
| 23>    C       11.21813        -6.63571         8.98635
| 24>    C       11.23575        -7.87832         8.34048
| 25>    S       12.00447        -7.72209         6.78671
| 26>    C       10.77271        -9.05753         8.94989
| 27>    C       10.62715       -10.35308         8.53658
| 28>    C       10.79637       -11.03331         7.31373
| 29>    C       10.60790       -12.40915         7.19120
| 30>    C       10.77343       -12.90062         5.90929
| 31>    C       11.08803       -11.91541         4.98343
| 32>    S       11.16943       -10.35296         5.75518
| 33>    C       11.33997       -12.06895         3.60461
| 34>    C       11.34113       -13.23282         2.84812
| 35>    C       11.65118       -13.03282         1.51357
| 36>    C       11.89980       -11.70556         1.17498
| 37>    S       11.73397       -10.70028         2.60123
| 38>    C       12.21855       -11.23051        -0.10723
| 39>    C       12.43753        -9.93323        -0.49517
| 40>    N       12.41262        -8.81000         0.29067
| 41>    C       12.59327        -7.64026        -0.41280
| 42>    C       12.78856        -8.03737        -1.77909
| 43>    C       12.69965        -9.45723        -1.82844
| 44>    N       12.83713       -10.13815        -2.95948
| 45>    C       13.06849        -9.39421        -4.03020
| 46>    C       13.16228        -8.00068        -3.98194
| 47>    N       13.02208        -7.30624        -2.86363
| 48>    C       12.52323        -6.41750         0.20274
| 49>    C       12.65062        -5.16239        -0.40596
| 50>    C       12.39814        -3.96790         0.21945
| 51>    C       11.82998        -3.76616         1.49692
| 52>    C       11.75476        -2.55911         2.19267
| 53>    C       11.13664        -2.64545         3.42745
| 54>    C       10.65375        -3.91914         3.71579
| 55>    S       10.99412        -5.00287         2.39893
| 56>    C       10.04719        -4.42872         4.87380
| 57>    C        9.76900        -3.79924         6.08598
| 58>    C        9.20750        -4.63827         7.02604
| 59>    C        9.00413        -5.94678         6.57573
| 60>    S        9.54497        -6.09861         4.92053
| 61>    C        8.49409        -7.03198         7.28772
| 62>    C        8.33151        -8.28995         6.75087
| 63>    C        7.86404        -9.40348         7.43469
| 64>    C        7.70091       -10.69739         6.91313
| 65>    C        7.26976       -11.62242         7.82363
| 66>    C        7.06694       -11.09539         9.11406
| 67>    S        7.40650        -9.37654         9.12545
| 68>    C        6.67827       -11.76843        10.25673
| 69>    C        6.37151       -13.14552        10.38493
| 70>    C        6.03114       -13.52992        11.63945
| 71>    C        6.04483       -12.47282        12.60484
| 72>    S        6.51785       -10.96472        11.80568
| 73>    C        5.75818       -12.54608        13.91400
| 74>    H       14.77155        -3.18464         2.37812
| 75>    H       14.62143        -4.98251         2.02964
| 76>    H       13.92235        -2.31915         4.75830
| 77>    H       12.81485        -3.23916         6.90152
| 78>    H       11.82066        -4.58722         8.60374
| 79>    H       10.79408        -6.51821         9.96849
| 80>    H       10.46402        -8.88304         9.97533
| 81>    H       10.28464       -11.02827         9.31485
| 82>    H       10.36064       -13.02502         8.03836
| 83>    H       10.67490       -13.93851         5.64704
| 84>    H       11.12281       -14.19637         3.27190
| 85>    H       11.69903       -13.82318         0.78567
| 86>    H       12.28283       -11.97127        -0.89114
| 87>    H       12.23394        -8.81685         1.28163
| 88>    H       13.18341        -9.92939        -4.96248
| 89>    H       13.35603        -7.42376        -4.87547
| 90>    H       12.36148        -6.45898         1.27045
| 91>    H       12.98759        -5.14719        -1.43285
| 92>    H       12.64890        -3.05671        -0.30892
| 93>    H       12.18435        -1.65194         1.80447
| 94>    H       11.01502        -1.81475         4.09925
| 95>    H        9.99265        -2.76146         6.25801
| 96>    H        8.92887        -4.33241         8.01909
| 97>    H        8.20157        -6.85786         8.31511
| 98>    H        8.61032        -8.44399         5.71537
| 99>    H        7.91648       -10.91787         5.88207
|100>    H        7.10453       -12.66017         7.59674
|101>    H        6.41164       -13.80912         9.53904
|102>    H        5.76718       -14.53250        11.92558
|103>    H        5.47499       -13.48217        14.36152
|104>    H        5.80116       -11.68225        14.55123
|105> *
|106>
|107>                          ****END OF INPUT****

CARTESIAN COORDINATES (ANGSTROEM)
---------------------------------
  C     14.460470   -4.161190    2.702890
  C     13.935700   -4.339150    3.927940
  C     13.662750   -3.349670    4.921160
  C     13.085640   -3.838710    6.050730
  C     12.842450   -5.228540    6.023020
  S     13.411150   -5.920710    4.523570
  C     12.254380   -6.007190    7.012070
  C     11.758420   -5.602880    8.257920
  C     11.218130   -6.635710    8.986350
  C     11.235750   -7.878320    8.340480
  S     12.004470   -7.722090    6.786710
  C     10.772710   -9.057530    8.949890
  C     10.627150  -10.353080    8.536580
  C     10.796370  -11.033310    7.313730
  C     10.607900  -12.409150    7.191200
  C     10.773430  -12.900620    5.909290
  C     11.088030  -11.915410    4.983430
  S     11.169430  -10.352960    5.755180
  C     11.339970  -12.068950    3.604610
  C     11.341130  -13.232820    2.848120
  C     11.651180  -13.032820    1.513570
  C     11.899800  -11.705560    1.174980
  S     11.733970  -10.700280    2.601230
  C     12.218550  -11.230510   -0.107230
  C     12.437530   -9.933230   -0.495170
  N     12.412620   -8.810000    0.290670
  C     12.593270   -7.640260   -0.412800
  C     12.788560   -8.037370   -1.779090
  C     12.699650   -9.457230   -1.828440
  N     12.837130  -10.138150   -2.959480
  C     13.068490   -9.394210   -4.030200
  C     13.162280   -8.000680   -3.981940
  N     13.022080   -7.306240   -2.863630
  C     12.523230   -6.417500    0.202740
  C     12.650620   -5.162390   -0.405960
  C     12.398140   -3.967900    0.219450
  C     11.829980   -3.766160    1.496920
  C     11.754760   -2.559110    2.192670
  C     11.136640   -2.645450    3.427450
  C     10.653750   -3.919140    3.715790
  S     10.994120   -5.002870    2.398930
  C     10.047190   -4.428720    4.873800
  C      9.769000   -3.799240    6.085980
  C      9.207500   -4.638270    7.026040
  C      9.004130   -5.946780    6.575730
  S      9.544970   -6.098610    4.920530
  C      8.494090   -7.031980    7.287720
  C      8.331510   -8.289950    6.750870
  C      7.864040   -9.403480    7.434690
  C      7.700910  -10.697390    6.913130
  C      7.269760  -11.622420    7.823630
  C      7.066940  -11.095390    9.114060
  S      7.406500   -9.376540    9.125450
  C      6.678270  -11.768430   10.256730
  C      6.371510  -13.145520   10.384930
  C      6.031140  -13.529920   11.639450
  C      6.044830  -12.472820   12.604840
  S      6.517850  -10.964720   11.805680
  C      5.758180  -12.546080   13.914000
  H     14.771550   -3.184640    2.378120
  H     14.621430   -4.982510    2.029640
  H     13.922350   -2.319150    4.758300
  H     12.814850   -3.239160    6.901520
  H     11.820660   -4.587220    8.603740
  H     10.794080   -6.518210    9.968490
  H     10.464020   -8.883040    9.975330
  H     10.284640  -11.028270    9.314850
  H     10.360640  -13.025020    8.038360
  H     10.674900  -13.938510    5.647040
  H     11.122810  -14.196370    3.271900
  H     11.699030  -13.823180    0.785670
  H     12.282830  -11.971270   -0.891140
  H     12.233940   -8.816850    1.281630
  H     13.183410   -9.929390   -4.962480
  H     13.356030   -7.423760   -4.875470
  H     12.361480   -6.458980    1.270450
  H     12.987590   -5.147190   -1.432850
  H     12.648900   -3.056710   -0.308920
  H     12.184350   -1.651940    1.804470
  H     11.015020   -1.814750    4.099250
  H      9.992650   -2.761460    6.258010
  H      8.928870   -4.332410    8.019090
  H      8.201570   -6.857860    8.315110
  H      8.610320   -8.443990    5.715370
  H      7.916480  -10.917870    5.882070
  H      7.104530  -12.660170    7.596740
  H      6.411640  -13.809120    9.539040
  H      5.767180  -14.532500   11.925580
  H      5.474990  -13.482170   14.361520
  H      5.801160  -11.682250   14.551230

 Total Charge           Charge          ....    0
 Multiplicity           Mult            ....    1
 Number of Electrons    NEL             ....  468
 Basis Dimension        Dim             .... 1013

ORBITAL ENERGIES
----------------

  NO   OCC          E(Eh)            E(eV)
   0   2.0000     -88.955154     -2420.5928
   1   2.0000     -88.949483     -2420.4385
   2   2.0000     -88.943478     -2420.2751
   3   2.0000     -88.942803     -2420.2567
   4   2.0000     -88.937631     -2420.1160
   5   2.0000     -88.934342     -2420.0265
   6   2.0000     -88.929633     -2419.8983
   7   2.0000     -88.925936     -2419.7977
   8   2.0000     -14.453069      -393.2880
   9   2.0000     -14.428310      -392.6143
  10   2.0000     -14.427123      -392.5820
  11   2.0000     -10.318106      -280.7699
  12   2.0000     -10.317873      -280.7636
  13   2.0000     -10.317576      -280.7555
  14   2.0000     -10.317114      -280.7429
  15   2.0000     -10.315565      -280.7008
  16   2.0000     -10.314714      -280.6777
  17   2.0000     -10.303573      -280.3745
  18   2.0000     -10.301431      -280.3162
  19   2.0000     -10.301221      -280.3105
  20   2.0000     -10.300611      -280.2939
  21   2.0000     -10.299928      -280.2753
  22   2.0000     -10.299146      -280.2540
  23   2.0000     -10.296399      -280.1793
  24   2.0000     -10.296047      -280.1697
  25   2.0000     -10.295532      -280.1557
  26   2.0000     -10.294977      -280.1406
  27   2.0000     -10.294306      -280.1223
  28   2.0000     -10.293827      -280.1093
  29   2.0000     -10.293364      -280.0967
  30   2.0000     -10.293188      -280.0919
  31   2.0000     -10.291715      -280.0518
  32   2.0000     -10.288186      -279.9558
  33   2.0000     -10.276747      -279.6445
  34   2.0000     -10.274276      -279.5773
  35   2.0000     -10.273768      -279.5635
  36   2.0000     -10.273493      -279.5560
  37   2.0000     -10.272473      -279.5282
  38   2.0000     -10.271733      -279.5081
  39   2.0000     -10.271063      -279.4898
  40   2.0000     -10.270844      -279.4839
  41   2.0000     -10.270473      -279.4738
  42   2.0000     -10.270277      -279.4684
  43   2.0000     -10.270020      -279.4614
  44   2.0000     -10.269570      -279.4492
  45   2.0000     -10.269497      -279.4472
  46   2.0000     -10.269366      -279.4437
  47   2.0000     -10.268787      -279.4279
  48   2.0000     -10.268326      -279.4154
  49   2.0000     -10.268106      -279.4094
  50   2.0000     -10.267937      -279.4048
  51   2.0000     -10.267531      -279.3937
  52   2.0000     -10.267196      -279.3846
  53   2.0000     -10.266142      -279.3559
  54   2.0000     -10.266049      -279.3534
  55   2.0000     -10.265547      -279.3397
  56   2.0000     -10.263793      -279.2920
  57   2.0000     -10.261094      -279.2186
  58   2.0000     -10.255699      -279.0717
  59   2.0000      -8.050695      -219.0705
  60   2.0000      -8.044460      -218.9009
  61   2.0000      -8.038345      -218.7345
  62   2.0000      -8.037953      -218.7238
  63   2.0000      -8.033153      -218.5932
  64   2.0000      -8.029900      -218.5047
  65   2.0000      -8.025451      -218.3836
  66   2.0000      -8.022570      -218.3052
  67   2.0000      -6.020030      -163.8134
  68   2.0000      -6.016145      -163.7076
  69   2.0000      -6.013852      -163.6452
  70   2.0000      -6.012559      -163.6101
  71   2.0000      -6.009681      -163.5317
  72   2.0000      -6.007738      -163.4789
  73   2.0000      -6.007425      -163.4704
  74   2.0000      -6.006404      -163.4425
  75   2.0000      -6.003569      -163.3654
  76   2.0000      -6.003309      -163.3584
  77   2.0000      -6.002630      -163.3399
  78   2.0000      -6.000329      -163.2772
  79   2.0000      -5.999603      -163.2575
  80   2.0000      -5.999557      -163.2562
  81   2.0000      -5.998689      -163.2326
  82   2.0000      -5.995704      -163.1514
  83   2.0000      -5.995164      -163.1367
  84   2.0000      -5.994655      -163.1228
  85   2.0000      -5.992359      -163.0604
  86   2.0000      -5.991283      -163.0311
  87   2.0000      -5.990969      -163.0226
  88   2.0000      -5.988501      -162.9554
  89   2.0000      -5.986386      -162.8978
  90   2.0000      -5.983162      -162.8101
  91   2.0000      -1.096849       -29.8468
  92   2.0000      -1.060780       -28.8653
  93   2.0000      -1.004254       -27.3271
  94   2.0000      -0.990070       -26.9412
  95   2.0000      -0.988474       -26.8978
  96   2.0000      -0.979361       -26.6498
  97   2.0000      -0.978376       -26.6230
  98   2.0000      -0.967032       -26.3143
  99   2.0000      -0.964542       -26.2465
 100   2.0000      -0.956829       -26.0366
 101   2.0000      -0.954860       -25.9831
 102   2.0000      -0.905657       -24.6442
 103   2.0000      -0.894682       -24.3455
 104   2.0000      -0.886728       -24.1291
 105   2.0000      -0.881752       -23.9937
 106   2.0000      -0.878909       -23.9163
 107   2.0000      -0.865729       -23.5577
 108   2.0000      -0.856979       -23.3196
 109   2.0000      -0.847668       -23.0662
 110   2.0000      -0.842763       -22.9328
 111   2.0000      -0.835689       -22.7402
 112   2.0000      -0.832998       -22.6670
 113   2.0000      -0.830175       -22.5902
 114   2.0000      -0.824512       -22.4361
 115   2.0000      -0.821963       -22.3667
 116   2.0000      -0.818106       -22.2618
 117   2.0000      -0.811797       -22.0901
 118   2.0000      -0.809026       -22.0147
 119   2.0000      -0.804646       -21.8955
 120   2.0000      -0.799744       -21.7621
 121   2.0000      -0.790875       -21.5208
 122   2.0000      -0.782080       -21.2815
 123   2.0000      -0.776709       -21.1353
 124   2.0000      -0.760804       -20.7025
 125   2.0000      -0.748588       -20.3701
 126   2.0000      -0.734721       -19.9928
 127   2.0000      -0.732225       -19.9249
 128   2.0000      -0.712644       -19.3920
 129   2.0000      -0.698358       -19.0033
 130   2.0000      -0.687482       -18.7073
 131   2.0000      -0.677603       -18.4385
 132   2.0000      -0.670559       -18.2468
 133   2.0000      -0.668450       -18.1895
 134   2.0000      -0.661666       -18.0048
 135   2.0000      -0.658196       -17.9104
 136   2.0000      -0.655429       -17.8351
 137   2.0000      -0.643741       -17.5171
 138   2.0000      -0.634384       -17.2625
 139   2.0000      -0.625375       -17.0173
 140   2.0000      -0.622929       -16.9508
 141   2.0000      -0.618118       -16.8199
 142   2.0000      -0.615200       -16.7404
 143   2.0000      -0.612136       -16.6571
 144   2.0000      -0.610473       -16.6118
 145   2.0000      -0.608876       -16.5684
 146   2.0000      -0.603757       -16.4291
 147   2.0000      -0.600485       -16.3400
 148   2.0000      -0.594056       -16.1651
 149   2.0000      -0.589126       -16.0309
 150   2.0000      -0.588255       -16.0072
 151   2.0000      -0.584610       -15.9081
 152   2.0000      -0.583634       -15.8815
 153   2.0000      -0.579670       -15.7736
 154   2.0000      -0.575213       -15.6523
 155   2.0000      -0.571284       -15.5454
 156   2.0000      -0.556167       -15.1341
 157   2.0000      -0.550793       -14.9878
 158   2.0000      -0.545932       -14.8556
 159   2.0000      -0.544176       -14.8078
 160   2.0000      -0.537565       -14.6279
 161   2.0000      -0.531601       -14.4656
 162   2.0000      -0.529216       -14.4007
 163   2.0000      -0.517690       -14.0871
 164   2.0000      -0.515089       -14.0163
 165   2.0000      -0.511433       -13.9168
 166   2.0000      -0.507301       -13.8044
 167   2.0000      -0.505833       -13.7644
 168   2.0000      -0.501513       -13.6469
 169   2.0000      -0.497462       -13.5366
 170   2.0000      -0.496706       -13.5161
 171   2.0000      -0.493918       -13.4402
 172   2.0000      -0.487298       -13.2601
 173   2.0000      -0.486591       -13.2408
 174   2.0000      -0.485710       -13.2168
 175   2.0000      -0.484099       -13.1730
 176   2.0000      -0.481844       -13.1116
 177   2.0000      -0.481475       -13.1016
 178   2.0000      -0.479057       -13.0358
 179   2.0000      -0.477222       -12.9859
 180   2.0000      -0.475743       -12.9456
 181   2.0000      -0.473937       -12.8965
 182   2.0000      -0.469172       -12.7668
 183   2.0000      -0.468455       -12.7473
 184   2.0000      -0.467163       -12.7121
 185   2.0000      -0.463717       -12.6184
 186   2.0000      -0.460519       -12.5314
 187   2.0000      -0.454097       -12.3566
 188   2.0000      -0.451767       -12.2932
 189   2.0000      -0.450384       -12.2556
 190   2.0000      -0.449534       -12.2324
 191   2.0000      -0.444965       -12.1081
 192   2.0000      -0.442293       -12.0354
 193   2.0000      -0.439194       -11.9511
 194   2.0000      -0.436907       -11.8888
 195   2.0000      -0.435494       -11.8504
 196   2.0000      -0.430136       -11.7046
 197   2.0000      -0.426957       -11.6181
 198   2.0000      -0.425018       -11.5653
 199   2.0000      -0.420076       -11.4308
 200   2.0000      -0.417488       -11.3604
 201   2.0000      -0.415638       -11.3101
 202   2.0000      -0.414484       -11.2787
 203   2.0000      -0.411808       -11.2059
 204   2.0000      -0.406433       -11.0596
 205   2.0000      -0.401445       -10.9239
 206   2.0000      -0.399614       -10.8741
 207   2.0000      -0.394325       -10.7301
 208   2.0000      -0.393103       -10.6969
 209   2.0000      -0.389762       -10.6060
 210   2.0000      -0.385853       -10.4996
 211   2.0000      -0.380618       -10.3571
 212   2.0000      -0.375038       -10.2053
 213   2.0000      -0.368226       -10.0199
 214   2.0000      -0.353233        -9.6120
 215   2.0000      -0.349605        -9.5132
 216   2.0000      -0.344562        -9.3760
 217   2.0000      -0.338487        -9.2107
 218   2.0000      -0.336581        -9.1588
 219   2.0000      -0.328598        -8.9416
 220   2.0000      -0.326589        -8.8870
 221   2.0000      -0.323470        -8.8021
 222   2.0000      -0.321297        -8.7429
 223   2.0000      -0.316571        -8.6143
 224   2.0000      -0.309034        -8.4093
 225   2.0000      -0.296896        -8.0790
 226   2.0000      -0.295143        -8.0312
 227   2.0000      -0.294860        -8.0235
 228   2.0000      -0.281962        -7.6726
 229   2.0000      -0.276838        -7.5331
 230   2.0000      -0.238066        -6.4781
 231   2.0000      -0.218855        -5.9553
 232   2.0000      -0.205593        -5.5945
 233   2.0000      -0.175349        -4.7715
 234   0.0000      -0.081890        -2.2284
 235   0.0000      -0.065596        -1.7849
 236   0.0000      -0.049241        -1.3399
 237   0.0000      -0.025380        -0.6906
 238   0.0000      -0.018878        -0.5137

MULLIKEN ATOMIC CHARGES
-----------------------
   0 C :    0.035150
   1 C :   -0.115839
   2 C :    0.090468
   3 C :    0.008975
   4 C :   -0.049079
   5 S :    0.081279
   6 C :   -0.073002
   7 C :    0.078671
   8 C :   -0.013472
   9 C :   -0.018659
  10 S :    0.096307
  11 C :   -0.001024
  12 C :    0.018309
  13 C :   -0.042498
  14 C :    0.028195
  15 C :   -0.004265
  16 C :   -0.029533
  17 S :    0.093605
  18 C :   -0.032450
  19 C :    0.013647
  20 C :    0.009269
  21 C :   -0.016889
  22 S :    0.048900
  23 C :   -0.069905
  24 C :    0.055998
  25 N :   -0.092667
  26 C :    0.109080
  27 C :   -0.033292
  28 C :   -0.020052
  29 N :   -0.000558
  30 C :    0.031418
  31 C :    0.032607
  32 N :    0.003464
  33 C :   -0.098225
  34 C :    0.005448
  35 C :    0.020092
  36 C :   -0.047650
  37 C :    0.000153
  38 C :    0.061675
  39 C :   -0.080788
  40 S :    0.096154
  41 C :   -0.013493
  42 C :   -0.011007
  43 C :    0.068479
  44 C :   -0.067925
  45 S :    0.079672
  46 C :    0.040753
  47 C :   -0.029897
  48 C :   -0.056585
  49 C :    0.089111
  50 C :   -0.007531
  51 C :   -0.048735
  52 S :    0.061684
  53 C :   -0.071491
  54 C :    0.025341
  55 C :    0.040717
  56 C :   -0.056985
  57 S :    0.066059
  58 C :   -0.040560
  59 H :    0.009660
  60 H :    0.015508
  61 H :   -0.024372
  62 H :   -0.024408
  63 H :   -0.026013
  64 H :   -0.023251
  65 H :   -0.011247
  66 H :   -0.001443
  67 H :   -0.019891
  68 H :   -0.023552
  69 H :   -0.021171
  70 H :   -0.016807
  71 H :   -0.010060
  72 H :    0.132561
  73 H :    0.011382
  74 H :    0.009859
  75 H :   -0.023103
  76 H :   -0.004988
  77 H :   -0.018378
  78 H :   -0.029032
  79 H :   -0.026589
  80 H :   -0.026845
  81 H :   -0.025567
  82 H :   -0.016147
  83 H :   -0.006609
  84 H :   -0.014895
  85 H :   -0.026274
  86 H :   -0.016685
  87 H :   -0.018351
  88 H :    0.013977
  89 H :    0.016103
Sum of atomic charges:   -0.0000000

LOEWDIN ATOMIC CHARGES
----------------------
   0 C :   -0.060891
   1 C :   -0.150464
   2 C :   -0.038369
   3 C :   -0.039449
   4 C :   -0.176812
   5 S :    0.367235
   6 C :   -0.188027
   7 C :   -0.040485
   8 C :   -0.050106
   9 C :   -0.154872
  10 S :    0.415444
  11 C :   -0.057662
  12 C :   -0.044689
  13 C :   -0.170714
  14 C :   -0.046028
  15 C :   -0.060237
  16 C :   -0.188035
  17 S :    0.423828
  18 C :   -0.187732
  19 C :   -0.051776
  20 C :   -0.055815
  21 C :   -0.159500
  22 S :    0.405650
  23 C :   -0.077627
  24 C :    0.003692
  25 N :    0.054439
  26 C :    0.018801
  27 C :   -0.017401
  28 C :   -0.009586
  29 N :   -0.039254
  30 C :    0.002935
  31 C :   -0.000544
  32 N :   -0.035895
  33 C :   -0.079789
  34 C :   -0.029731
  35 C :   -0.056388
  36 C :   -0.152580
  37 C :   -0.056221
  38 C :   -0.046937
  39 C :   -0.191557
  40 S :    0.445575
  41 C :   -0.175605
  42 C :   -0.051956
  43 C :   -0.042265
  44 C :   -0.152683
  45 S :    0.401069
  46 C :   -0.059162
  47 C :   -0.059721
  48 C :   -0.156752
  49 C :   -0.025397
  50 C :   -0.049846
  51 C :   -0.176968
  52 S :    0.370389
  53 C :   -0.192775
  54 C :   -0.029048
  55 C :   -0.045139
  56 C :   -0.138401
  57 S :    0.342613
  58 C :   -0.091639
  59 H :    0.025941
  60 H :    0.025346
  61 H :    0.027763
  62 H :    0.027486
  63 H :    0.026285
  64 H :    0.028187
  65 H :    0.036407
  66 H :    0.042380
  67 H :    0.029344
  68 H :    0.027877
  69 H :    0.029727
  70 H :    0.031080
  71 H :    0.044816
  72 H :    0.062906
  73 H :    0.027076
  74 H :    0.026984
  75 H :    0.005254
  76 H :    0.032683
  77 H :    0.032765
  78 H :    0.025916
  79 H :    0.025968
  80 H :    0.026273
  81 H :    0.027582
  82 H :    0.025001
  83 H :    0.021735
  84 H :    0.032018
  85 H :    0.026526
  86 H :    0.030335
  87 H :    0.030185
  88 H :    0.025764
  89 H :    0.023250

  Mayer bond orders larger than 0.100000
B(  0-C ,  1-C ) :   1.8147 B(  0-C , 59-H ) :   0.9445 B(  0-C , 60-H ) :   0.9311
B(  1-C ,  2-C ) :   1.1112 B(  1-C ,  5-S ) :   1.0137 B(  2-C ,  3-C ) :   1.5634
B(  2-C , 61-H ) :   0.9879 B(  3-C ,  4-C ) :   1.2319 B(  3-C , 62-H ) :   0.9921
B(  4-C ,  5-S ) :   1.0752 B(  4-C ,  6-C ) :   1.3756 B(  6-C ,  7-C ) :   1.3031
B(  6-C , 10-S ) :   1.0782 B(  7-C ,  8-C ) :   1.4028 B(  7-C , 63-H ) :   0.9859
B(  8-C ,  9-C ) :   1.3161 B(  8-C , 64-H ) :   1.0054 B(  9-C , 10-S ) :   1.0817
B(  9-C , 11-C ) :   1.2492 B( 11-C , 12-C ) :   1.5785 B( 11-C , 65-H ) :   0.9470
B( 12-C , 13-C ) :   1.2198 B( 12-C , 66-H ) :   0.9463 B( 13-C , 14-C ) :   1.4089
B( 13-C , 17-S ) :   1.0863 B( 14-C , 15-C ) :   1.3121 B( 14-C , 67-H ) :   0.9983
B( 15-C , 16-C ) :   1.4457 B( 15-C , 68-H ) :   0.9965 B( 16-C , 17-S ) :   1.1100
B( 16-C , 18-C ) :   1.1692 B( 18-C , 19-C ) :   1.4613 B( 18-C , 22-S ) :   1.1034
B( 19-C , 20-C ) :   1.3103 B( 19-C , 69-H ) :   0.9945 B( 20-C , 21-C ) :   1.4126
B( 20-C , 70-H ) :   1.0009 B( 21-C , 22-S ) :   1.0760 B( 21-C , 23-C ) :   1.1810
B( 23-C , 24-C ) :   1.5629 B( 23-C , 71-H ) :   0.9618 B( 24-C , 25-N ) :   1.1608
B( 24-C , 28-C ) :   1.0378 B( 25-N , 26-C ) :   1.1463 B( 25-N , 72-H ) :   0.9122
B( 26-C , 27-C ) :   1.0329 B( 26-C , 33-C ) :   1.5747 B( 27-C , 28-C ) :   1.3155
B( 27-C , 32-N ) :   1.5512 B( 28-C , 29-N ) :   1.5716 B( 29-N , 30-C ) :   1.5510
B( 30-C , 31-C ) :   1.3274 B( 30-C , 73-H ) :   0.9756 B( 31-C , 32-N ) :   1.5467
B( 31-C , 74-H ) :   0.9757 B( 33-C , 34-C ) :   1.1903 B( 33-C , 75-H ) :   0.8948
B( 34-C , 35-C ) :   1.5901 B( 34-C , 76-H ) :   0.9704 B( 35-C , 36-C ) :   1.1758
B( 35-C , 77-H ) :   0.9702 B( 36-C , 37-C ) :   1.3726 B( 36-C , 40-S ) :   1.1034
B( 37-C , 38-C ) :   1.3497 B( 37-C , 78-H ) :   1.0027 B( 38-C , 39-C ) :   1.3815
B( 38-C , 79-H ) :   0.9923 B( 39-C , 40-S ) :   1.0985 B( 39-C , 41-C ) :   1.2523
B( 41-C , 42-C ) :   1.3457 B( 41-C , 45-S ) :   1.0859 B( 42-C , 43-C ) :   1.4085
B( 42-C , 80-H ) :   0.9980 B( 43-C , 44-C ) :   1.2615 B( 43-C , 81-H ) :   0.9973
B( 44-C , 45-S ) :   1.0643 B( 44-C , 46-C ) :   1.4154 B( 46-C , 47-C ) :   1.2623
B( 46-C , 82-H ) :   0.9722 B( 47-C , 48-C ) :   1.4813 B( 47-C , 83-H ) :   0.9685
B( 48-C , 49-C ) :   1.1925 B( 48-C , 52-S ) :   1.0308 B( 49-C , 50-C ) :   1.5351
B( 49-C , 84-H ) :   0.9978 B( 50-C , 51-C ) :   1.2074 B( 50-C , 85-H ) :   0.9967
B( 51-C , 52-S ) :   1.0483 B( 51-C , 53-C ) :   1.4976 B( 53-C , 54-C ) :   1.1776
B( 53-C , 57-S ) :   1.0397 B( 54-C , 55-C ) :   1.6311 B( 54-C , 86-H ) :   0.9940
B( 55-C , 56-C ) :   1.0915 B( 55-C , 87-H ) :   0.9934 B( 56-C , 57-S ) :   1.0096
B( 56-C , 58-C ) :   1.8466 B( 58-C , 88-H ) :   0.9506 B( 58-C , 89-H ) :   0.9423

-----------------------------------------------------------------------------
         ABSORPTION SPECTRUM VIA TRANSITION ELECTRIC DIPOLE MOMENTS
-----------------------------------------------------------------------------
State   Energy  Wavelength   fosc         T2         TX        TY        TZ
        (cm-1)    (nm)                  (au**2)     (au)      (au)      (au)
-----------------------------------------------------------------------------
   0    7423.2   1347.1   0.377901202  16.75965   3.15386   1.37462  -2.21884
   1   10467.8    955.3   0.042216593   1.32772  -0.06233  -0.34552  -1.09747
   2   11756.3    850.6   0.132731109   3.71686  -1.06153  -1.03530   1.23215
   3   13474.6    742.1   0.202249743   4.94138  -0.35214  -0.78559  -2.04944
   4   13803.9    724.4   0.128367575   3.06146  -0.46271  -0.20188   1.67529
   5   18020.2    554.9   0.074219924   1.35593   0.21842   1.12681  -0.19628
   6   18127.3    551.7   0.015117921   0.27456  -0.01879  -0.47209   0.22658
   7   18581.5    538.2   1.796777938  31.83377  -0.75287  -4.68289   3.05573
   8   19765.2    505.9   0.429055883   7.14643   0.01881   0.29043   2.65739
   9   21059.9    474.8   0.267311542   4.17866   0.08287  -2.01203   0.35145
  10   21460.8    466.0   0.452830990   6.94648   0.43357  -1.12437  -2.34399
  11   22815.5    438.3   0.250157568   3.60960   0.94285   1.41384  -0.84953
  12   24008.0    416.5   0.191794223   2.63000   0.89787   0.41281  -1.28585
  13   24242.0    412.5   0.125209692   1.70038  -0.44256   1.17375   0.35612
  14   25152.8    397.6   0.246955105   3.23226   0.98325   1.16391  -0.95435
  15   25544.4    391.5   0.006469672   0.08338  -0.23608  -0.01929   0.16515
  16   26124.6    382.8   0.036430954   0.45909  -0.09418  -0.66399  -0.09664
  17   26743.7    373.9   0.187894268   2.31295   0.35071  -0.68405  -1.31226
  18   27534.2    363.2   0.041925875   0.50129   0.28425  -0.42719  -0.48785
  19   27916.9    358.2   0.069082454   0.81466   0.21939  -0.00184  -0.87551
  20   28011.8    357.0   0.127760142   1.50152   0.30070   0.13494  -1.18021
  21   28384.5    352.3   0.051056834   0.59217   0.33301   0.69374   0.00233
  22   28806.7    347.1   0.045548897   0.52055   0.36830   0.33606   0.52151
  23   29273.3    341.6   0.007198754   0.08096   0.02205  -0.06082   0.27708
  24   29617.6    337.6   0.037870364   0.42095  -0.24963  -0.29626   0.52044
  25   30264.9    330.4   0.384065113   4.17774  -0.32250  -1.05169   1.72270
  26   30633.6    326.4   0.002669428   0.02869  -0.00913  -0.06629  -0.15560
  27   30791.2    324.8   0.011221747   0.11998   0.00525  -0.27841  -0.20602
  28   31269.8    319.8   0.041982934   0.44200  -0.12111   0.62093   0.20440
  29   31813.5    314.3   0.174437791   1.80512   0.22815  -0.82906  -1.03234
  30   32287.3    309.7   0.082615921   0.84238   0.00561  -0.80608  -0.43885
  31   32514.8    307.6   0.027608696   0.27954   0.18167  -0.15154  -0.47283
  32   32685.7    305.9   0.060341866   0.60777   0.31208  -0.12573  -0.70325
  33   32826.2    304.6   0.012372380   0.12408  -0.06404   0.33889  -0.07165
  34   32900.6    303.9   0.006054368   0.06058  -0.13656  -0.00919   0.20457
  35   33341.9    299.9   0.009586253   0.09465  -0.19504   0.16836   0.16813
  36   33487.8    298.6   0.017023597   0.16736   0.16443   0.21197   0.30885
  37   33671.1    297.0   0.001643213   0.01607  -0.03205   0.04162   0.11536
  38   34158.4    292.8   0.007960914   0.07673  -0.03662  -0.07068  -0.26531
  39   34203.8    292.4   0.008456310   0.08139   0.25962   0.10022   0.06283
  40   34480.6    290.0   0.003828620   0.03655  -0.03273   0.07226   0.17396
  41   34532.4    289.6   0.031263338   0.29805  -0.20573   0.37202   0.34252
  42   34727.3    288.0   0.063452442   0.60152   0.15398  -0.17544  -0.73962
  43   34785.1    287.5   0.058545003   0.55408  -0.33976   0.04915   0.66047
  44   35176.7    284.3   0.028274101   0.26461  -0.22358  -0.02492   0.46260
  45   35235.9    283.8   0.037882094   0.35394  -0.22600   0.16843   0.52392
  46   35735.6    279.8   0.049283465   0.45402  -0.27813  -0.49555   0.36207
  47   35800.1    279.3   0.000252646   0.00232   0.04718   0.00901   0.00398
  48   35981.9    277.9   0.054065069   0.49466  -0.19653  -0.57222   0.35861
  49   36147.8    276.6   0.013607574   0.12393  -0.28389   0.09955   0.18282
  50   36360.6    275.0   0.036069354   0.32657  -0.21899   0.00331   0.52783
  51   36758.4    272.0   0.002915823   0.02611   0.10923  -0.11565  -0.02843
  52   36810.0    271.7   0.026320807   0.23540  -0.23252   0.04290   0.42367
  53   37264.3    268.4   0.077238069   0.68236   0.42760  -0.18948  -0.68090
  54   37629.1    265.8   0.045821572   0.40089   0.15990  -0.23639  -0.56519
  55   37887.7    263.9   0.009020196   0.07838  -0.14508  -0.22026   0.09390
  56   38331.8    260.9   0.091531222   0.78611   0.05752  -0.75948  -0.45387
  57   38418.8    260.3   0.025839466   0.22142   0.10645  -0.42821  -0.16348
  58   38648.7    258.7   0.093357333   0.79522   0.19916  -0.04271  -0.86818
  59   38857.5    257.4   0.030831349   0.26121   0.03118  -0.24254   0.44879
  60   39135.5    255.5   0.001860033   0.01565   0.00161  -0.06832  -0.10477
  61   39241.0    254.8   0.050713828   0.42546   0.02375  -0.63215   0.15901
  62   39637.1    252.3   0.001873612   0.01556   0.08408  -0.04873  -0.07821
  63   39872.1    250.8   0.025587131   0.21127  -0.19946  -0.03115   0.41293
  64   40107.3    249.3   0.031167469   0.25583   0.05589   0.44567   0.23256
  65   40311.6    248.1   0.042405094   0.34631  -0.13893  -0.51013  -0.25841

FINAL SINGLE POINT ENERGY     -5193.814838889635

DIPOLE MOMENT
-------------
                                X             Y             Z
Electronic contribution:      1.71321      -1.42765      -7.43311
Nuclear contribution   :     -1.20415       1.55368       6.95864
                        -----------------------------------------
Total Dipole Moment    :      0.50906       0.12603      -0.47447
                        -----------------------------------------
Magnitude (a.u.)       :      0.70721
Magnitude (Debye)      :      1.79760

Rotational constants in cm-1:     0.001886     0.000782     0.000609
Rotational constants in MHz :    56.530284    23.444665    18.268166

                             ****ORCA TERMINATED NORMALLY****
TOTAL RUN TIME: 0 days 0 hours 13 minutes 21 seconds 459 msec
