                         Program Version 4.2.0 -  RELEASE  -
|  1> # ORCA input file
|  2> # SCF done       -198.950998987709          0.000254545739
|  3> ! CAM-B3LYP def2-SVP def2/J RIJCOSX Grid4 TightSCF
|  4> %maxcore 5000
|  5> %tddft
|  6>     Mode sTDDFT
|  7>     Ethresh 5.0
|  8>     maxcore 5000
|  9> end
| 10>
| 11> %pal
| 12>   nprocs 6
| 13>   end
| 14> * xyz 0 1
| 15>    C       12.78125       -18.24025         8.56598
| 16>    C       12.97151       -17.52540         7.44946
| 17>    C       14.20993       -17.27189         6.76851
| 18>    C       14.09245       -16.51489         5.65675
| 19>    C       12.76053       -16.10516         5.36214
| 20>    S       11.65474       -16.72933         6.57348
| 21>    C       12.33659       -15.34098         4.30585
| 22>    C       13.11511       -14.78218         3.25876
| 23>    C       12.39518       -14.07694         2.35394
| 24>    C       10.99153       -14.01864         2.61045
| 25>    S       10.64848       -14.91939         4.08408
| 26>    C       10.10027       -13.36977         1.80857
| 27>    C        8.68265       -13.21789         1.92047
| 28>    C        7.92954       -13.70720         3.00242
| 29>    C        6.57151       -13.52314         3.02397
| 30>    C        5.91571       -12.84740         1.97894
| 31>    C        6.64588       -12.34821         0.90597
| 32>    C        8.00926       -12.53441         0.88853
| 33>    C        4.50124       -12.83338         2.25823
| 34>    C        4.27562       -13.50221         3.47822
| 35>    C        5.58588       -13.93066         4.09800
| 36>    C        5.92107       -13.09560         5.35723
| 37>    C        4.93501       -13.20872         6.51248
| 38>    C        5.63453       -15.43716         4.38966
| 39>    C        5.43677       -16.27736         3.13321
| 40>    C        2.99504       -13.69730         3.92755
| 41>    C        1.90773       -13.17276         3.20339
| 42>    C        2.15374       -12.48865         2.00196
| 43>    C        3.43512       -12.32858         1.52256
| 44>    C        0.59334       -13.35284         3.74563
| 45>    C       -0.54927       -12.75409         3.33251
| 46>    C       -1.79381       -12.90355         3.98352
| 47>    S       -1.93591       -13.76636         5.47908
| 48>    C       -3.57668       -13.24810         5.74407
| 49>    C       -4.02102       -12.47537         4.65813
| 50>    C       -3.02232       -12.32045         3.64649
| 51>    C       -3.33299       -11.57770         2.47978
| 52>    C       -2.49030       -11.54801         1.27943
| 53>    O       -2.15708       -10.57187         0.65910
| 54>    C       -2.20199       -12.94697         0.63467
| 55>    F       -0.94128       -13.06296         0.20617
| 56>    F       -2.45367       -14.00140         1.41968
| 57>    F       -2.99826       -13.08060        -0.43961
| 58>    C       -4.53504       -10.90198         2.41142
| 59>    C       -5.48454       -11.01722         3.43454
| 60>    C       -5.25156       -11.80765         4.52896
| 61>    C       -4.28678       -13.67973         6.88138
| 62>    S       -6.00592       -13.97791         6.79716
| 63>    C       -6.02674       -14.76963         8.34159
| 64>    C       -4.74086       -14.79171         8.91452
| 65>    C       -3.77265       -14.10953         8.11539
| 66>    C       -2.46608       -13.91239         8.64422
| 67>    C       -1.58982       -12.85650         8.13442
| 68>    O       -1.93816       -11.75978         7.77596
| 69>    C       -0.06178       -13.17222         8.18165
| 70>    F        0.47965       -12.86800         9.37306
| 71>    F        0.20786       -14.46862         7.95722
| 72>    F        0.60570       -12.47594         7.26003
| 73>    C       -2.11263       -14.56121         9.81397
| 74>    C       -3.04489       -15.32227        10.52718
| 75>    C       -4.35091       -15.40195        10.11645
| 76>    C       -7.25270       -15.25341         8.81266
| 77>    C       -8.45449       -15.12344         8.09945
| 78>    N       -8.55189       -14.55059         6.89388
| 79>    C       -9.75443       -14.50805         6.37583
| 80>    C      -10.88188       -15.03703         7.04704
| 81>    N      -10.81779       -15.60476         8.22208
| 82>    C       -9.59105       -15.66151         8.78187
| 83>    C       -9.27292       -16.21346        10.02175
| 84>    S       -7.56681       -16.05089        10.32246
| 85>    C      -10.17873       -16.82592        10.93574
| 86>    C       -9.84508       -17.34195        12.12045
| 87>    H       13.61054       -18.70854         9.06601
| 88>    H       11.80473       -18.36951         8.99522
| 89>    H       15.13401       -17.67188         7.14684
| 90>    H       14.91653       -16.22930         5.02695
| 91>    H       14.18016       -14.92217         3.20922
| 92>    H       12.81705       -13.58523         1.49460
| 93>    H       10.54069       -12.89563         0.93836
| 94>    H        8.41671       -14.22533         3.81172
| 95>    H        6.15286       -11.82467         0.10048
| 96>    H        8.58718       -12.15221         0.05885
| 97>    H        5.98651       -12.04676         5.05537
| 98>    H        6.91180       -13.40217         5.70047
| 99>    H        3.96088       -12.81556         6.23481
|100>    H        5.30360       -12.62775         7.35530
|101>    H        4.82271       -14.23900         6.83938
|102>    H        4.85485       -15.68705         5.11010
|103>    H        6.60018       -15.67738         4.83928
|104>    H        4.47455       -16.06024         2.67413
|105>    H        5.46940       -17.33579         3.38132
|106>    H        6.21826       -16.07066         2.40543
|107>    H        2.79785       -14.24628         4.83603
|108>    H        1.32630       -12.10541         1.42621
|109>    H        3.60736       -11.82179         0.58498
|110>    H        0.52673       -14.01322         4.60295
|111>    H       -0.53395       -12.05973         2.50283
|112>    H       -4.75761       -10.31735         1.53185
|113>    H       -6.41868       -10.48593         3.34037
|114>    H       -5.99777       -11.90753         5.30064
|115>    H       -1.12849       -14.42933        10.23466
|116>    H       -2.73453       -15.80771        11.43897
|117>    H       -5.07808       -15.93328        10.70915
|118>    H       -9.84755       -14.04985         5.40175
|119>    H      -11.86194       -14.98906         6.59249
|120>    H      -11.20228       -16.84157        10.58542
|121>    H       -8.82675       -17.32670        12.47367
|122>    H      -10.57829       -17.79036        12.76579
|123> *
|124>
|125>                          ****END OF INPUT****

CARTESIAN COORDINATES (ANGSTROEM)
---------------------------------
  C     12.781250  -18.240250    8.565980
  C     12.971510  -17.525400    7.449460
  C     14.209930  -17.271890    6.768510
  C     14.092450  -16.514890    5.656750
  C     12.760530  -16.105160    5.362140
  S     11.654740  -16.729330    6.573480
  C     12.336590  -15.340980    4.305850
  C     13.115110  -14.782180    3.258760
  C     12.395180  -14.076940    2.353940
  C     10.991530  -14.018640    2.610450
  S     10.648480  -14.919390    4.084080
  C     10.100270  -13.369770    1.808570
  C      8.682650  -13.217890    1.920470
  C      7.929540  -13.707200    3.002420
  C      6.571510  -13.523140    3.023970
  C      5.915710  -12.847400    1.978940
  C      6.645880  -12.348210    0.905970
  C      8.009260  -12.534410    0.888530
  C      4.501240  -12.833380    2.258230
  C      4.275620  -13.502210    3.478220
  C      5.585880  -13.930660    4.098000
  C      5.921070  -13.095600    5.357230
  C      4.935010  -13.208720    6.512480
  C      5.634530  -15.437160    4.389660
  C      5.436770  -16.277360    3.133210
  C      2.995040  -13.697300    3.927550
  C      1.907730  -13.172760    3.203390
  C      2.153740  -12.488650    2.001960
  C      3.435120  -12.328580    1.522560
  C      0.593340  -13.352840    3.745630
  C     -0.549270  -12.754090    3.332510
  C     -1.793810  -12.903550    3.983520
  S     -1.935910  -13.766360    5.479080
  C     -3.576680  -13.248100    5.744070
  C     -4.021020  -12.475370    4.658130
  C     -3.022320  -12.320450    3.646490
  C     -3.332990  -11.577700    2.479780
  C     -2.490300  -11.548010    1.279430
  O     -2.157080  -10.571870    0.659100
  C     -2.201990  -12.946970    0.634670
  F     -0.941280  -13.062960    0.206170
  F     -2.453670  -14.001400    1.419680
  F     -2.998260  -13.080600   -0.439610
  C     -4.535040  -10.901980    2.411420
  C     -5.484540  -11.017220    3.434540
  C     -5.251560  -11.807650    4.528960
  C     -4.286780  -13.679730    6.881380
  S     -6.005920  -13.977910    6.797160
  C     -6.026740  -14.769630    8.341590
  C     -4.740860  -14.791710    8.914520
  C     -3.772650  -14.109530    8.115390
  C     -2.466080  -13.912390    8.644220
  C     -1.589820  -12.856500    8.134420
  O     -1.938160  -11.759780    7.775960
  C     -0.061780  -13.172220    8.181650
  F      0.479650  -12.868000    9.373060
  F      0.207860  -14.468620    7.957220
  F      0.605700  -12.475940    7.260030
  C     -2.112630  -14.561210    9.813970
  C     -3.044890  -15.322270   10.527180
  C     -4.350910  -15.401950   10.116450
  C     -7.252700  -15.253410    8.812660
  C     -8.454490  -15.123440    8.099450
  N     -8.551890  -14.550590    6.893880
  C     -9.754430  -14.508050    6.375830
  C    -10.881880  -15.037030    7.047040
  N    -10.817790  -15.604760    8.222080
  C     -9.591050  -15.661510    8.781870
  C     -9.272920  -16.213460   10.021750
  S     -7.566810  -16.050890   10.322460
  C    -10.178730  -16.825920   10.935740
  C     -9.845080  -17.341950   12.120450
  H     13.610540  -18.708540    9.066010
  H     11.804730  -18.369510    8.995220
  H     15.134010  -17.671880    7.146840
  H     14.916530  -16.229300    5.026950
  H     14.180160  -14.922170    3.209220
  H     12.817050  -13.585230    1.494600
  H     10.540690  -12.895630    0.938360
  H      8.416710  -14.225330    3.811720
  H      6.152860  -11.824670    0.100480
  H      8.587180  -12.152210    0.058850
  H      5.986510  -12.046760    5.055370
  H      6.911800  -13.402170    5.700470
  H      3.960880  -12.815560    6.234810
  H      5.303600  -12.627750    7.355300
  H      4.822710  -14.239000    6.839380
  H      4.854850  -15.687050    5.110100
  H      6.600180  -15.677380    4.839280
  H      4.474550  -16.060240    2.674130
  H      5.469400  -17.335790    3.381320
  H      6.218260  -16.070660    2.405430
  H      2.797850  -14.246280    4.836030
  H      1.326300  -12.105410    1.426210
  H      3.607360  -11.821790    0.584980
  H      0.526730  -14.013220    4.602950
  H     -0.533950  -12.059730    2.502830
  H     -4.757610  -10.317350    1.531850
  H     -6.418680  -10.485930    3.340370
  H     -5.997770  -11.907530    5.300640
  H     -1.128490  -14.429330   10.234660
  H     -2.734530  -15.807710   11.438970
  H     -5.078080  -15.933280   10.709150
  H     -9.847550  -14.049850    5.401750
  H    -11.861940  -14.989060    6.592490
  H    -11.202280  -16.841570   10.585420
  H     -8.826750  -17.326700   12.473670
  H    -10.578290  -17.790360   12.765790

 Total Charge           Charge          ....    0
 Multiplicity           Mult            ....    1
 Number of Electrons    NEL             ....  542
 Basis Dimension        Dim             .... 1208

ORBITAL ENERGIES
----------------

  NO   OCC          E(Eh)            E(eV)
   0   2.0000     -88.982292     -2421.3313
   1   2.0000     -88.968627     -2420.9594
   2   2.0000     -88.967329     -2420.9241
   3   2.0000     -88.936981     -2420.0983
   4   2.0000     -88.930885     -2419.9324
   5   2.0000     -24.806948      -675.0314
   6   2.0000     -24.805782      -674.9997
   7   2.0000     -24.802049      -674.8981
   8   2.0000     -24.801370      -674.8796
   9   2.0000     -24.800776      -674.8634
  10   2.0000     -24.796204      -674.7390
  11   2.0000     -19.235808      -523.4330
  12   2.0000     -19.232144      -523.3332
  13   2.0000     -14.436481      -392.8366
  14   2.0000     -14.431354      -392.6971
  15   2.0000     -10.515321      -286.1364
  16   2.0000     -10.511829      -286.0414
  17   2.0000     -10.386027      -282.6182
  18   2.0000     -10.385331      -282.5992
  19   2.0000     -10.326250      -280.9915
  20   2.0000     -10.324042      -280.9315
  21   2.0000     -10.322871      -280.8996
  22   2.0000     -10.316991      -280.7396
  23   2.0000     -10.316803      -280.7345
  24   2.0000     -10.316006      -280.7128
  25   2.0000     -10.311473      -280.5894
  26   2.0000     -10.311101      -280.5793
  27   2.0000     -10.308843      -280.5179
  28   2.0000     -10.307917      -280.4927
  29   2.0000     -10.301849      -280.3276
  30   2.0000     -10.300784      -280.2986
  31   2.0000     -10.299957      -280.2761
  32   2.0000     -10.299542      -280.2648
  33   2.0000     -10.297970      -280.2220
  34   2.0000     -10.296367      -280.1784
  35   2.0000     -10.295711      -280.1605
  36   2.0000     -10.295163      -280.1456
  37   2.0000     -10.294534      -280.1285
  38   2.0000     -10.293279      -280.0944
  39   2.0000     -10.290514      -280.0191
  40   2.0000     -10.289983      -280.0047
  41   2.0000     -10.288917      -279.9757
  42   2.0000     -10.287356      -279.9332
  43   2.0000     -10.286596      -279.9125
  44   2.0000     -10.283341      -279.8239
  45   2.0000     -10.282809      -279.8095
  46   2.0000     -10.280002      -279.7331
  47   2.0000     -10.278721      -279.6982
  48   2.0000     -10.278337      -279.6878
  49   2.0000     -10.278041      -279.6797
  50   2.0000     -10.277066      -279.6532
  51   2.0000     -10.274854      -279.5930
  52   2.0000     -10.271040      -279.4892
  53   2.0000     -10.270313      -279.4694
  54   2.0000     -10.269808      -279.4557
  55   2.0000     -10.269177      -279.4385
  56   2.0000     -10.268699      -279.4255
  57   2.0000     -10.262981      -279.2699
  58   2.0000     -10.262880      -279.2672
  59   2.0000     -10.262368      -279.2532
  60   2.0000     -10.262173      -279.2479
  61   2.0000     -10.261668      -279.2342
  62   2.0000     -10.261553      -279.2310
  63   2.0000     -10.261171      -279.2206
  64   2.0000     -10.260843      -279.2117
  65   2.0000     -10.259464      -279.1742
  66   2.0000     -10.258713      -279.1538
  67   2.0000     -10.258159      -279.1387
  68   2.0000     -10.253426      -279.0099
  69   2.0000     -10.252960      -278.9972
  70   2.0000     -10.241357      -278.6815
  71   2.0000     -10.236875      -278.5595
  72   2.0000      -8.076395      -219.7699
  73   2.0000      -8.061910      -219.3757
  74   2.0000      -8.061843      -219.3739
  75   2.0000      -8.032446      -218.5740
  76   2.0000      -8.027633      -218.4430
  77   2.0000      -6.045491      -164.5062
  78   2.0000      -6.041419      -164.3954
  79   2.0000      -6.039086      -164.3319
  80   2.0000      -6.031216      -164.1177
  81   2.0000      -6.031002      -164.1119
  82   2.0000      -6.026993      -164.0028
  83   2.0000      -6.026566      -163.9912
  84   2.0000      -6.024432      -163.9331
  85   2.0000      -6.024381      -163.9317
  86   2.0000      -6.002290      -163.3306
  87   2.0000      -5.998270      -163.2212
  88   2.0000      -5.997496      -163.2002
  89   2.0000      -5.993560      -163.0931
  90   2.0000      -5.993269      -163.0851
  91   2.0000      -5.988092      -162.9443
  92   2.0000      -1.394163       -37.9371
  93   2.0000      -1.389319       -37.8053
  94   2.0000      -1.297155       -35.2974
  95   2.0000      -1.295545       -35.2536
  96   2.0000      -1.293669       -35.2025
  97   2.0000      -1.289259       -35.0825
  98   2.0000      -1.151626       -31.3373
  99   2.0000      -1.149556       -31.2810
 100   2.0000      -1.088497       -29.6195
 101   2.0000      -1.016655       -27.6646
 102   2.0000      -1.009199       -27.4617
 103   2.0000      -0.997958       -27.1558
 104   2.0000      -0.984423       -26.7875
 105   2.0000      -0.983529       -26.7632
 106   2.0000      -0.977818       -26.6078
 107   2.0000      -0.961368       -26.1601
 108   2.0000      -0.946112       -25.7450
 109   2.0000      -0.942467       -25.6458
 110   2.0000      -0.936442       -25.4819
 111   2.0000      -0.915734       -24.9184
 112   2.0000      -0.906056       -24.6550
 113   2.0000      -0.890393       -24.2288
 114   2.0000      -0.883466       -24.0403
 115   2.0000      -0.882422       -24.0119
 116   2.0000      -0.874018       -23.7832
 117   2.0000      -0.860063       -23.4035
 118   2.0000      -0.858385       -23.3578
 119   2.0000      -0.852769       -23.2050
 120   2.0000      -0.843184       -22.9442
 121   2.0000      -0.838145       -22.8071
 122   2.0000      -0.835830       -22.7441
 123   2.0000      -0.835031       -22.7223
 124   2.0000      -0.826464       -22.4892
 125   2.0000      -0.824896       -22.4466
 126   2.0000      -0.822195       -22.3731
 127   2.0000      -0.816724       -22.2242
 128   2.0000      -0.814396       -22.1608
 129   2.0000      -0.812832       -22.1183
 130   2.0000      -0.805631       -21.9223
 131   2.0000      -0.794947       -21.6316
 132   2.0000      -0.776650       -21.1337
 133   2.0000      -0.761387       -20.7184
 134   2.0000      -0.760473       -20.6935
 135   2.0000      -0.754661       -20.5354
 136   2.0000      -0.744446       -20.2574
 137   2.0000      -0.739636       -20.1265
 138   2.0000      -0.735785       -20.0217
 139   2.0000      -0.724150       -19.7051
 140   2.0000      -0.721832       -19.6421
 141   2.0000      -0.713289       -19.4096
 142   2.0000      -0.709774       -19.3139
 143   2.0000      -0.702384       -19.1128
 144   2.0000      -0.700776       -19.0691
 145   2.0000      -0.690037       -18.7769
 146   2.0000      -0.681570       -18.5465
 147   2.0000      -0.679819       -18.4988
 148   2.0000      -0.677167       -18.4267
 149   2.0000      -0.675574       -18.3833
 150   2.0000      -0.673231       -18.3195
 151   2.0000      -0.671956       -18.2848
 152   2.0000      -0.669753       -18.2249
 153   2.0000      -0.662018       -18.0144
 154   2.0000      -0.660241       -17.9661
 155   2.0000      -0.653047       -17.7703
 156   2.0000      -0.649515       -17.6742
 157   2.0000      -0.643784       -17.5183
 158   2.0000      -0.637097       -17.3363
 159   2.0000      -0.629705       -17.1351
 160   2.0000      -0.626961       -17.0605
 161   2.0000      -0.618432       -16.8284
 162   2.0000      -0.611602       -16.6425
 163   2.0000      -0.607467       -16.5300
 164   2.0000      -0.600873       -16.3506
 165   2.0000      -0.596481       -16.2311
 166   2.0000      -0.594771       -16.1845
 167   2.0000      -0.591801       -16.1037
 168   2.0000      -0.587206       -15.9787
 169   2.0000      -0.582463       -15.8496
 170   2.0000      -0.577463       -15.7136
 171   2.0000      -0.572901       -15.5894
 172   2.0000      -0.566885       -15.4257
 173   2.0000      -0.564609       -15.3638
 174   2.0000      -0.558663       -15.2020
 175   2.0000      -0.556810       -15.1516
 176   2.0000      -0.555083       -15.1046
 177   2.0000      -0.554126       -15.0785
 178   2.0000      -0.551906       -15.0181
 179   2.0000      -0.548505       -14.9256
 180   2.0000      -0.546544       -14.8722
 181   2.0000      -0.544034       -14.8039
 182   2.0000      -0.543355       -14.7854
 183   2.0000      -0.539933       -14.6923
 184   2.0000      -0.537475       -14.6254
 185   2.0000      -0.533450       -14.5159
 186   2.0000      -0.531474       -14.4622
 187   2.0000      -0.530721       -14.4416
 188   2.0000      -0.526530       -14.3276
 189   2.0000      -0.522649       -14.2220
 190   2.0000      -0.520675       -14.1683
 191   2.0000      -0.518719       -14.1151
 192   2.0000      -0.517257       -14.0753
 193   2.0000      -0.514461       -13.9992
 194   2.0000      -0.511825       -13.9275
 195   2.0000      -0.511037       -13.9060
 196   2.0000      -0.509723       -13.8703
 197   2.0000      -0.508926       -13.8486
 198   2.0000      -0.508120       -13.8267
 199   2.0000      -0.507087       -13.7985
 200   2.0000      -0.506502       -13.7826
 201   2.0000      -0.505229       -13.7480
 202   2.0000      -0.501699       -13.6519
 203   2.0000      -0.496042       -13.4980
 204   2.0000      -0.494725       -13.4621
 205   2.0000      -0.491875       -13.3846
 206   2.0000      -0.491685       -13.3794
 207   2.0000      -0.489700       -13.3254
 208   2.0000      -0.488685       -13.2978
 209   2.0000      -0.487571       -13.2675
 210   2.0000      -0.486311       -13.2332
 211   2.0000      -0.484381       -13.1807
 212   2.0000      -0.482540       -13.1306
 213   2.0000      -0.479826       -13.0567
 214   2.0000      -0.475375       -12.9356
 215   2.0000      -0.474268       -12.9055
 216   2.0000      -0.471142       -12.8204
 217   2.0000      -0.468660       -12.7529
 218   2.0000      -0.464797       -12.6478
 219   2.0000      -0.463561       -12.6141
 220   2.0000      -0.460260       -12.5243
 221   2.0000      -0.458949       -12.4886
 222   2.0000      -0.456771       -12.4294
 223   2.0000      -0.454515       -12.3680
 224   2.0000      -0.449862       -12.2414
 225   2.0000      -0.449363       -12.2278
 226   2.0000      -0.445868       -12.1327
 227   2.0000      -0.442547       -12.0423
 228   2.0000      -0.442120       -12.0307
 229   2.0000      -0.440454       -11.9854
 230   2.0000      -0.439055       -11.9473
 231   2.0000      -0.436736       -11.8842
 232   2.0000      -0.432226       -11.7615
 233   2.0000      -0.430225       -11.7070
 234   2.0000      -0.425472       -11.5777
 235   2.0000      -0.423130       -11.5140
 236   2.0000      -0.420574       -11.4444
 237   2.0000      -0.419236       -11.4080
 238   2.0000      -0.419001       -11.4016
 239   2.0000      -0.417814       -11.3693
 240   2.0000      -0.415356       -11.3024
 241   2.0000      -0.408659       -11.1202
 242   2.0000      -0.407931       -11.1004
 243   2.0000      -0.403410       -10.9773
 244   2.0000      -0.399946       -10.8831
 245   2.0000      -0.390638       -10.6298
 246   2.0000      -0.385417       -10.4877
 247   2.0000      -0.383292       -10.4299
 248   2.0000      -0.381602       -10.3839
 249   2.0000      -0.376217       -10.2374
 250   2.0000      -0.374329       -10.1860
 251   2.0000      -0.368682       -10.0324
 252   2.0000      -0.363094        -9.8803
 253   2.0000      -0.355383        -9.6705
 254   2.0000      -0.350952        -9.5499
 255   2.0000      -0.349463        -9.5094
 256   2.0000      -0.338610        -9.2140
 257   2.0000      -0.336161        -9.1474
 258   2.0000      -0.331018        -9.0074
 259   2.0000      -0.326277        -8.8784
 260   2.0000      -0.324101        -8.8192
 261   2.0000      -0.320497        -8.7212
 262   2.0000      -0.319341        -8.6897
 263   2.0000      -0.312135        -8.4936
 264   2.0000      -0.310269        -8.4428
 265   2.0000      -0.305639        -8.3169
 266   2.0000      -0.302574        -8.2335
 267   2.0000      -0.277209        -7.5432
 268   2.0000      -0.253534        -6.8990
 269   2.0000      -0.217690        -5.9236
 270   2.0000      -0.206371        -5.6156
 271   0.0000      -0.096284        -2.6200
 272   0.0000      -0.065208        -1.7744
 273   0.0000      -0.055183        -1.5016
 274   0.0000      -0.045711        -1.2439
 275   0.0000      -0.023303        -0.6341

MULLIKEN ATOMIC CHARGES
-----------------------
   0 C :   -0.033511
   1 C :   -0.061789
   2 C :    0.051951
   3 C :    0.030465
   4 C :   -0.067359
   5 S :    0.073580
   6 C :   -0.029707
   7 C :    0.029271
   8 C :    0.032174
   9 C :   -0.002267
  10 S :    0.034677
  11 C :   -0.045863
  12 C :    0.120587
  13 C :   -0.091144
  14 C :    0.005463
  15 C :    0.094009
  16 C :   -0.043532
  17 C :   -0.020643
  18 C :    0.102305
  19 C :    0.029210
  20 C :   -0.131573
  21 C :    0.079304
  22 C :    0.030453
  23 C :    0.050863
  24 C :    0.025918
  25 C :   -0.113269
  26 C :    0.126216
  27 C :   -0.009484
  28 C :   -0.046534
  29 C :   -0.021736
  30 C :    0.002177
  31 C :   -0.107931
  32 S :    0.134205
  33 C :   -0.108684
  34 C :    0.108706
  35 C :    0.152720
  36 C :   -0.047575
  37 C :   -0.044750
  38 O :   -0.142282
  39 C :    0.504584
  40 F :   -0.151282
  41 F :   -0.146265
  42 F :   -0.162224
  43 C :    0.019341
  44 C :    0.023927
  45 C :   -0.013258
  46 C :   -0.132969
  47 S :    0.191032
  48 C :   -0.111393
  49 C :    0.062886
  50 C :    0.129950
  51 C :   -0.035099
  52 C :   -0.045555
  53 O :   -0.124710
  54 C :    0.504347
  55 F :   -0.164301
  56 F :   -0.163262
  57 F :   -0.141873
  58 C :    0.013246
  59 C :    0.020162
  60 C :   -0.015550
  61 C :   -0.118242
  62 C :    0.021588
  63 N :   -0.047316
  64 C :    0.032835
  65 C :    0.018626
  66 N :   -0.011201
  67 C :    0.049885
  68 C :   -0.162027
  69 S :    0.146960
  70 C :    0.012361
  71 C :   -0.026709
  72 H :    0.017028
  73 H :    0.019366
  74 H :   -0.014340
  75 H :   -0.013249
  76 H :   -0.016415
  77 H :   -0.014891
  78 H :   -0.027110
  79 H :   -0.026142
  80 H :   -0.037238
  81 H :   -0.031261
  82 H :    0.004690
  83 H :   -0.001698
  84 H :    0.021218
  85 H :    0.011053
  86 H :    0.001838
  87 H :    0.004348
  88 H :    0.002055
  89 H :    0.017778
  90 H :    0.007924
  91 H :    0.022302
  92 H :   -0.037000
  93 H :   -0.029194
  94 H :   -0.035499
  95 H :   -0.017726
  96 H :    0.004843
  97 H :   -0.001199
  98 H :   -0.009069
  99 H :   -0.009113
 100 H :    0.001450
 101 H :   -0.006273
 102 H :   -0.011963
 103 H :    0.012681
 104 H :    0.015323
 105 H :    0.007288
 106 H :    0.015745
 107 H :    0.029332
Sum of atomic charges:   -0.0000000

LOEWDIN ATOMIC CHARGES
----------------------
   0 C :   -0.082041
   1 C :   -0.138690
   2 C :   -0.033784
   3 C :   -0.026102
   4 C :   -0.179973
   5 S :    0.344982
   6 C :   -0.179680
   7 C :   -0.039280
   8 C :   -0.028716
   9 C :   -0.146098
  10 S :    0.371392
  11 C :   -0.050281
  12 C :   -0.027263
  13 C :   -0.028575
  14 C :    0.008900
  15 C :   -0.018912
  16 C :   -0.020567
  17 C :   -0.017191
  18 C :   -0.011866
  19 C :    0.002355
  20 C :   -0.034584
  21 C :   -0.008773
  22 C :   -0.059325
  23 C :   -0.015581
  24 C :   -0.056548
  25 C :   -0.016781
  26 C :   -0.028843
  27 C :   -0.008580
  28 C :   -0.017489
  29 C :   -0.005292
  30 C :   -0.057029
  31 C :   -0.160672
  32 S :    0.508151
  33 C :   -0.185474
  34 C :   -0.039925
  35 C :   -0.041679
  36 C :   -0.067144
  37 C :    0.035550
  38 O :   -0.093686
  39 C :    0.137754
  40 F :   -0.045966
  41 F :   -0.045248
  42 F :   -0.056677
  43 C :    0.017233
  44 C :   -0.029244
  45 C :    0.004672
  46 C :   -0.188630
  47 S :    0.534364
  48 C :   -0.188514
  49 C :   -0.044716
  50 C :   -0.035804
  51 C :   -0.073484
  52 C :    0.014543
  53 O :   -0.094760
  54 C :    0.134180
  55 F :   -0.056935
  56 F :   -0.061415
  57 F :   -0.040245
  58 C :    0.006044
  59 C :   -0.024732
  60 C :    0.001641
  61 C :   -0.193487
  62 C :   -0.062086
  63 N :   -0.051007
  64 C :    0.005409
  65 C :    0.004268
  66 N :   -0.035566
  67 C :   -0.046843
  68 C :   -0.187771
  69 S :    0.495525
  70 C :   -0.032751
  71 C :   -0.051246
  72 H :    0.027437
  73 H :    0.025248
  74 H :    0.032302
  75 H :    0.031766
  76 H :    0.030447
  77 H :    0.032214
  78 H :    0.032051
  79 H :    0.007227
  80 H :    0.026443
  81 H :    0.024787
  82 H :    0.026646
  83 H :    0.020885
  84 H :    0.024284
  85 H :    0.027450
  86 H :    0.019258
  87 H :    0.019177
  88 H :    0.021736
  89 H :    0.024641
  90 H :    0.023373
  91 H :    0.025615
  92 H :    0.024331
  93 H :    0.025236
  94 H :    0.027467
  95 H :    0.019517
  96 H :    0.030698
  97 H :    0.037615
  98 H :    0.032717
  99 H :    0.021763
 100 H :    0.030973
 101 H :    0.033941
 102 H :    0.018853
 103 H :    0.027359
 104 H :    0.027576
 105 H :    0.042099
 106 H :    0.015393
 107 H :    0.028060

  Mayer bond orders larger than 0.100000
B(  0-C ,  1-C ) :   1.8652 B(  0-C , 72-H ) :   0.9507 B(  0-C , 73-H ) :   0.9419
B(  1-C ,  2-C ) :   1.0784 B(  1-C ,  5-S ) :   1.0085 B(  2-C ,  3-C ) :   1.6657
B(  2-C , 74-H ) :   0.9929 B(  3-C ,  4-C ) :   1.1472 B(  3-C , 75-H ) :   0.9911
B(  4-C ,  5-S ) :   1.0370 B(  4-C ,  6-C ) :   1.5738 B(  6-C ,  7-C ) :   1.1566
B(  6-C , 10-S ) :   1.0289 B(  7-C ,  8-C ) :   1.6252 B(  7-C , 76-H ) :   0.9913
B(  8-C ,  9-C ) :   1.1193 B(  8-C , 77-H ) :   0.9990 B(  9-C , 10-S ) :   1.0206
B(  9-C , 11-C ) :   1.6120 B( 11-C , 12-C ) :   1.1021 B( 11-C , 78-H ) :   0.9695
B( 12-C , 13-C ) :   1.2830 B( 12-C , 17-C ) :   1.3105 B( 13-C , 14-C ) :   1.4395
B( 13-C , 79-H ) :   0.9756 B( 14-C , 15-C ) :   1.3671 B( 14-C , 20-C ) :   0.9271
B( 15-C , 16-C ) :   1.3253 B( 15-C , 18-C ) :   1.0053 B( 16-C , 17-C ) :   1.3950
B( 16-C , 80-H ) :   0.9898 B( 17-C , 81-H ) :   0.9923 B( 18-C , 19-C ) :   1.3775
B( 18-C , 28-C ) :   1.3191 B( 19-C , 20-C ) :   0.9163 B( 19-C , 25-C ) :   1.3872
B( 20-C , 21-C ) :   1.0150 B( 20-C , 23-C ) :   1.0317 B( 21-C , 22-C ) :   1.1152
B( 21-C , 82-H ) :   0.9385 B( 21-C , 83-H ) :   0.9362 B( 22-C , 84-H ) :   0.9601
B( 22-C , 85-H ) :   0.9592 B( 22-C , 86-H ) :   0.9627 B( 23-C , 24-C ) :   1.1041
B( 23-C , 87-H ) :   0.9377 B( 23-C , 88-H ) :   0.9391 B( 24-C , 89-H ) :   0.9651
B( 24-C , 90-H ) :   0.9646 B( 24-C , 91-H ) :   0.9630 B( 25-C , 26-C ) :   1.2690
B( 25-C , 92-H ) :   1.0079 B( 26-C , 27-C ) :   1.3341 B( 26-C , 29-C ) :   1.0918
B( 27-C , 28-C ) :   1.4056 B( 27-C , 93-H ) :   0.9827 B( 28-C , 94-H ) :   0.9900
B( 29-C , 30-C ) :   1.6515 B( 29-C , 95-H ) :   0.9815 B( 30-C , 31-C ) :   1.1791
B( 30-C , 96-H ) :   0.9381 B( 31-C , 32-S ) :   1.1333 B( 31-C , 33-C ) :   0.1029
B( 31-C , 35-C ) :   1.3493 B( 32-S , 33-C ) :   1.1426 B( 33-C , 34-C ) :   1.3325
B( 33-C , 46-C ) :   1.1799 B( 34-C , 35-C ) :   1.2024 B( 34-C , 45-C ) :   1.2132
B( 35-C , 36-C ) :   1.1908 B( 36-C , 37-C ) :   0.9176 B( 36-C , 43-C ) :   1.5486
B( 37-C , 38-O ) :   2.2058 B( 37-C , 39-C ) :   0.8682 B( 39-C , 40-F ) :   1.1353
B( 39-C , 41-F ) :   1.1405 B( 39-C , 42-F ) :   1.1556 B( 43-C , 44-C ) :   1.2170
B( 43-C , 97-H ) :   0.9902 B( 44-C , 45-C ) :   1.5292 B( 44-C , 98-H ) :   0.9856
B( 45-C , 99-H ) :   0.9769 B( 46-C , 47-S ) :   1.1115 B( 46-C , 48-C ) :   0.1053
B( 46-C , 50-C ) :   1.3505 B( 47-S , 48-C ) :   1.1651 B( 48-C , 49-C ) :   1.2893
B( 48-C , 61-C ) :   1.2701 B( 49-C , 50-C ) :   1.2196 B( 49-C , 60-C ) :   1.2166
B( 50-C , 51-C ) :   1.1942 B( 51-C , 52-C ) :   0.9135 B( 51-C , 58-C ) :   1.5058
B( 52-C , 53-O ) :   2.2203 B( 52-C , 54-C ) :   0.8585 B( 54-C , 55-F ) :   1.1131
B( 54-C , 56-F ) :   1.1379 B( 54-C , 57-F ) :   1.1748 B( 58-C , 59-C ) :   1.2445
B( 58-C ,100-H ) :   0.9739 B( 59-C , 60-C ) :   1.5231 B( 59-C ,101-H ) :   0.9837
B( 60-C ,102-H ) :   0.9817 B( 61-C , 62-C ) :   1.3044 B( 61-C , 68-C ) :   0.1200
B( 61-C , 69-S ) :   1.1636 B( 62-C , 63-N ) :   1.3897 B( 62-C , 67-C ) :   1.2028
B( 63-N , 64-C ) :   1.6637 B( 64-C , 65-C ) :   1.1932 B( 64-C ,103-H ) :   0.9742
B( 65-C , 66-N ) :   1.7004 B( 65-C ,104-H ) :   0.9744 B( 66-N , 67-C ) :   1.4143
B( 67-C , 68-C ) :   1.3530 B( 68-C , 69-S ) :   1.1180 B( 68-C , 70-C ) :   1.1702
B( 70-C , 71-C ) :   1.8682 B( 70-C ,105-H ) :   0.9627 B( 71-C ,106-H ) :   0.9571
B( 71-C ,107-H ) :   0.9516

-----------------------------------------------------------------------------
         ABSORPTION SPECTRUM VIA TRANSITION ELECTRIC DIPOLE MOMENTS
-----------------------------------------------------------------------------
State   Energy  Wavelength   fosc         T2         TX        TY        TZ
        (cm-1)    (nm)                  (au**2)     (au)      (au)      (au)
-----------------------------------------------------------------------------
   0   10871.3    919.9   0.983764371  29.79103   4.73966   1.20017  -2.42616
   1   15827.3    631.8   0.204201696   4.24746   1.89664  -0.46594  -0.65811
   2   17123.4    584.0   0.217177084   4.17542  -1.24946   1.18138  -1.10390
   3   19156.3    522.0   0.028913953   0.49690   0.66027  -0.19156  -0.15571
   4   20028.3    499.3   1.271800185  20.90498   3.25670  -1.88123   2.59998
   5   20651.2    484.2   0.074810189   1.19259   0.60088  -0.81579   0.40744
   6   23031.5    434.2   0.011154123   0.15944   0.08591   0.06465  -0.38455
   7   24221.5    412.9   0.244066000   3.31728   1.04010   0.67807  -1.33255
   8   25639.0    390.0   0.099871792   1.28238  -0.93525  -0.25798   0.58406
   9   26350.7    379.5   0.020871899   0.26076   0.43798  -0.21108   0.15615
  10   26506.5    377.3   0.012680332   0.15749   0.34303  -0.02147   0.19839
  11   27511.7    363.5   0.015997235   0.19143  -0.39788   0.17362   0.05452
  12   28273.7    353.7   0.015433492   0.17970  -0.31986   0.08000   0.26645
  13   28736.0    348.0   0.113467127   1.29993   1.13588  -0.09217  -0.03485
  14   29437.7    339.7   0.020957964   0.23438   0.34233   0.10444   0.32601
  15   30217.3    330.9   0.039298002   0.42815  -0.48884  -0.41522   0.12949
  16   30772.7    325.0   0.017608347   0.18838  -0.06880  -0.17763   0.38999
  17   31846.2    314.0   0.205560913   2.12500  -1.02217  -0.44959   0.93704
  18   31943.9    313.0   0.076712512   0.79060  -0.61728  -0.21515   0.60271
  19   32520.1    307.5   0.093697711   0.94853  -0.49562  -0.63614   0.54610
  20   32821.3    304.7   0.514151515   5.15716   2.22489   0.12683  -0.43699
  21   33281.6    300.5   0.042314780   0.41857  -0.59484   0.16289  -0.19543
  22   33622.4    297.4   0.041935588   0.41061  -0.59067  -0.22881  -0.09675
  23   33889.7    295.1   0.001962972   0.01907  -0.04642   0.05280   0.11885
  24   34145.7    292.9   0.002743020   0.02645   0.08554  -0.11700   0.07376
  25   34413.2    290.6   0.018899313   0.18080   0.33581   0.08651  -0.24607
  26   34614.5    288.9   0.003189290   0.03033  -0.11058  -0.04318   0.12744
  27   35322.8    283.1   0.024969477   0.23272   0.32169  -0.23761   0.26977
  28   35433.9    282.2   0.005473633   0.05085   0.03643   0.09442  -0.20153
  29   35534.0    281.4   0.004665216   0.04322  -0.08114  -0.06888   0.17859
  30   36016.1    277.7   0.003222702   0.02946  -0.15141   0.06318   0.05041
  31   36532.2    273.7   0.009771927   0.08806   0.16535   0.17784  -0.17057
  32   36933.8    270.8   0.009829397   0.08761  -0.24183   0.01810  -0.16972
  33   37108.8    269.5   0.030213392   0.26804  -0.51409  -0.01004  -0.06039
  34   37262.3    268.4   0.088001815   0.77750  -0.83915  -0.10449   0.24980
  35   37382.6    267.5   0.042255455   0.37212   0.39881   0.06795   0.45658
  36   37610.3    265.9   0.008500903   0.07441   0.13283   0.16361  -0.17320
  37   37731.2    265.0   0.024969014   0.21786   0.38093  -0.16807   0.21096
  38   37853.3    264.2   0.148551784   1.29196   0.39860  -0.46083   0.95954
  39   38013.9    263.1   0.235558963   2.04001  -0.28210   0.71282  -1.20512
  40   38242.7    261.5   0.191634848   1.64969   0.77143  -0.43649   0.92954
  41   38404.6    260.4   0.101725672   0.87201  -0.87347   0.04922  -0.32655
  42   38734.3    258.2   0.008106827   0.06890  -0.09579   0.19866   0.14234
  43   39112.4    255.7   0.060092984   0.50581   0.40787  -0.10312   0.57343
  44   39488.1    253.2   0.032098198   0.26760   0.48582   0.04008   0.17314
  45   39714.0    251.8   0.013014995   0.10789  -0.00230  -0.08780   0.31650
  46   40075.4    249.5   0.001703689   0.01400  -0.05413  -0.09932   0.03465
  47   40273.7    248.3   0.117898095   0.96374   0.67464  -0.50061   0.50793

FINAL SINGLE POINT ENERGY     -5039.308755670551

DIPOLE MOMENT
-------------
                                X             Y             Z
Electronic contribution:    -78.43488      15.87651      -4.24404
Nuclear contribution   :     77.95664     -16.82399       5.43782
                        -----------------------------------------
Total Dipole Moment    :     -0.47824      -0.94748       1.19378
                        -----------------------------------------
Magnitude (a.u.)       :      1.59735
Magnitude (Debye)      :      4.06015

Rotational constants in cm-1:     0.001493     0.000297     0.000257
Rotational constants in MHz :    44.772116     8.908857     7.708879

                             ****ORCA TERMINATED NORMALLY****
TOTAL RUN TIME: 0 days 0 hours 11 minutes 25 seconds 354 msec
