                         Program Version 4.2.0 -  RELEASE  -
|  1> # ORCA input file
|  2> # SCF done       -195.989994574306          0.000883870893
|  3> ! CAM-B3LYP def2-SVP def2/J RIJCOSX Grid4 TightSCF
|  4> %maxcore 5000
|  5> %tddft
|  6>     Mode sTDDFT
|  7>     Ethresh 5.0
|  8>     maxcore 5000
|  9> end
| 10>
| 11> %pal
| 12>   nprocs 6
| 13>   end
| 14> * xyz 0 1
| 15>    C        3.20738        -0.53659        -0.37916
| 16>    O        3.46089        -1.69003        -0.14563
| 17>    C        4.17768         0.58099        -0.43024
| 18>    C        3.53653         1.76066        -0.84558
| 19>    C        4.27156         2.92872        -0.97975
| 20>    C        5.63028         2.89803        -0.69018
| 21>    C        6.25754         1.72012        -0.27319
| 22>    C        5.52723         0.54615        -0.14561
| 23>   Br        8.10437         1.70714         0.11978
| 24>   Br        6.62955         4.49124        -0.87416
| 25>    C        2.11954         1.48258        -1.05910
| 26>    C        1.16648         2.41101        -1.37743
| 27>    C        1.43886         3.77972        -1.59806
| 28>    N        1.59953         4.89875        -1.79207
| 29>    C       -0.21589         2.15184        -1.50980
| 30>    N       -1.35053         2.02467        -1.62538
| 31>    C        1.90401         0.06810        -0.79245
| 32>    C        0.75478        -0.61965        -1.02033
| 33>    C        0.48939        -1.95838        -0.62813
| 34>    S       -0.78607        -2.89290        -1.42257
| 35>    C       -0.37531        -4.16127        -0.28290
| 36>    N        0.57856        -3.80075         0.54339
| 37>    N        1.04215        -2.61313         0.35290
| 38>    C       -0.98029        -5.44263        -0.22620
| 39>    C       -1.96983        -5.84018        -1.06284
| 40>    C       -2.66446        -7.07514        -1.12490
| 41>    N       -2.55479        -8.20257        -0.34243
| 42>    C       -1.64402        -8.46905         0.74592
| 43>    C       -0.24981        -8.83799         0.24498
| 44>    C       -3.45292        -9.20748        -0.75144
| 45>    O       -3.53369       -10.29348        -0.21086
| 46>    C       -4.16963        -8.63030        -1.86561
| 47>    C       -3.66250        -7.32972        -2.06617
| 48>    C       -4.37881        -6.72747        -3.17383
| 49>    O       -4.29261        -5.64203        -3.70134
| 50>    N       -5.29641        -7.72470        -3.56657
| 51>    C       -6.18405        -7.52685        -4.68883
| 52>    C       -5.68044        -8.23163        -5.94541
| 53>    C       -5.18129        -8.86004        -2.80409
| 54>    C       -5.98642       -10.01001        -2.97973
| 55>    C       -5.82272       -11.12563        -2.21618
| 56>    C       -6.58363       -12.31274        -2.32235
| 57>    S       -6.24288       -13.64989        -1.27959
| 58>    C       -7.50402       -14.63259        -1.96722
| 59>    C       -8.15917       -13.92779        -2.98083
| 60>    C       -7.64523       -12.64159        -3.17454
| 61>    O       -8.07818       -11.73433        -4.08982
| 62>    C       -9.08875       -11.89346        -4.95896
| 63>    O       -9.34608       -10.99663        -5.71055
| 64>    C       -9.89454       -13.18160        -5.01571
| 65>    O      -10.80029       -13.31494        -5.78560
| 66>    S       -9.48665       -14.54535        -3.94782
| 67>    C       -7.72220       -15.91586        -1.42054
| 68>    C       -8.71764       -16.78040        -1.75457
| 69>    C       -8.89799       -18.01579        -1.09685
| 70>    C       -9.99017       -18.82910        -1.17675
| 71>    C       -9.89085       -20.24891        -0.74451
| 72>    O       -8.99664       -20.75491        -0.11013
| 73>    C      -11.09131       -20.90411        -1.30880
| 74>    C      -11.90774       -19.93804        -1.92677
| 75>    C      -11.30890       -18.61661        -1.73342
| 76>    C      -11.97842       -17.42690        -1.84996
| 77>    C      -11.49151       -16.17649        -1.41397
| 78>    N      -11.17479       -15.13687        -1.04425
| 79>    C      -13.30326       -17.32062        -2.32869
| 80>    N      -14.37247       -17.18154        -2.72015
| 81>    C      -13.07534       -20.32799        -2.56008
| 82>    C      -13.41543       -21.67646        -2.55782
| 83>    C      -12.60759       -22.62652        -1.92846
| 84>    C      -11.43100       -22.24091        -1.29835
| 85>   Br      -13.10178       -24.44981        -1.93225
| 86>   Br      -15.00290       -22.21389        -3.43048
| 87>    H        3.82526         3.85475        -1.30387
| 88>    H        5.99779        -0.37158         0.17161
| 89>    H       -0.05762        -0.13583        -1.54684
| 90>    H       -0.56913        -6.07291         0.54541
| 91>    H       -2.31394        -5.13895        -1.81579
| 92>    H       -2.06938        -9.32131         1.28480
| 93>    H       -1.61766        -7.61119         1.42130
| 94>    H       -0.29990        -9.75253        -0.34089
| 95>    H        0.41178        -9.00396         1.09040
| 96>    H        0.16886        -8.05175        -0.37887
| 97>    H       -6.21603        -6.44757        -4.86100
| 98>    H       -7.18790        -7.87227        -4.42847
| 99>    H       -4.70470        -7.84313        -6.22702
|100>    H       -6.37443        -8.05785        -6.76251
|101>    H       -5.59503        -9.30401        -5.78501
|102>    H       -6.74659        -9.97868        -3.74344
|103>    H       -5.05343       -11.13509        -1.45359
|104>    H       -7.05102       -16.18782        -0.61558
|105>    H       -9.40423       -16.52734        -2.54638
|106>    H       -8.07221       -18.40015        -0.50751
|107>    H      -13.71962       -19.62331        -3.06071
|108>    H      -10.79768       -22.96710        -0.81287
|109> *
|110>
|111>                          ****END OF INPUT****

CARTESIAN COORDINATES (ANGSTROEM)
---------------------------------
  C      3.207380   -0.536590   -0.379160
  O      3.460890   -1.690030   -0.145630
  C      4.177680    0.580990   -0.430240
  C      3.536530    1.760660   -0.845580
  C      4.271560    2.928720   -0.979750
  C      5.630280    2.898030   -0.690180
  C      6.257540    1.720120   -0.273190
  C      5.527230    0.546150   -0.145610
  Br     8.104370    1.707140    0.119780
  Br     6.629550    4.491240   -0.874160
  C      2.119540    1.482580   -1.059100
  C      1.166480    2.411010   -1.377430
  C      1.438860    3.779720   -1.598060
  N      1.599530    4.898750   -1.792070
  C     -0.215890    2.151840   -1.509800
  N     -1.350530    2.024670   -1.625380
  C      1.904010    0.068100   -0.792450
  C      0.754780   -0.619650   -1.020330
  C      0.489390   -1.958380   -0.628130
  S     -0.786070   -2.892900   -1.422570
  C     -0.375310   -4.161270   -0.282900
  N      0.578560   -3.800750    0.543390
  N      1.042150   -2.613130    0.352900
  C     -0.980290   -5.442630   -0.226200
  C     -1.969830   -5.840180   -1.062840
  C     -2.664460   -7.075140   -1.124900
  N     -2.554790   -8.202570   -0.342430
  C     -1.644020   -8.469050    0.745920
  C     -0.249810   -8.837990    0.244980
  C     -3.452920   -9.207480   -0.751440
  O     -3.533690  -10.293480   -0.210860
  C     -4.169630   -8.630300   -1.865610
  C     -3.662500   -7.329720   -2.066170
  C     -4.378810   -6.727470   -3.173830
  O     -4.292610   -5.642030   -3.701340
  N     -5.296410   -7.724700   -3.566570
  C     -6.184050   -7.526850   -4.688830
  C     -5.680440   -8.231630   -5.945410
  C     -5.181290   -8.860040   -2.804090
  C     -5.986420  -10.010010   -2.979730
  C     -5.822720  -11.125630   -2.216180
  C     -6.583630  -12.312740   -2.322350
  S     -6.242880  -13.649890   -1.279590
  C     -7.504020  -14.632590   -1.967220
  C     -8.159170  -13.927790   -2.980830
  C     -7.645230  -12.641590   -3.174540
  O     -8.078180  -11.734330   -4.089820
  C     -9.088750  -11.893460   -4.958960
  O     -9.346080  -10.996630   -5.710550
  C     -9.894540  -13.181600   -5.015710
  O    -10.800290  -13.314940   -5.785600
  S     -9.486650  -14.545350   -3.947820
  C     -7.722200  -15.915860   -1.420540
  C     -8.717640  -16.780400   -1.754570
  C     -8.897990  -18.015790   -1.096850
  C     -9.990170  -18.829100   -1.176750
  C     -9.890850  -20.248910   -0.744510
  O     -8.996640  -20.754910   -0.110130
  C    -11.091310  -20.904110   -1.308800
  C    -11.907740  -19.938040   -1.926770
  C    -11.308900  -18.616610   -1.733420
  C    -11.978420  -17.426900   -1.849960
  C    -11.491510  -16.176490   -1.413970
  N    -11.174790  -15.136870   -1.044250
  C    -13.303260  -17.320620   -2.328690
  N    -14.372470  -17.181540   -2.720150
  C    -13.075340  -20.327990   -2.560080
  C    -13.415430  -21.676460   -2.557820
  C    -12.607590  -22.626520   -1.928460
  C    -11.431000  -22.240910   -1.298350
  Br   -13.101780  -24.449810   -1.932250
  Br   -15.002900  -22.213890   -3.430480
  H      3.825260    3.854750   -1.303870
  H      5.997790   -0.371580    0.171610
  H     -0.057620   -0.135830   -1.546840
  H     -0.569130   -6.072910    0.545410
  H     -2.313940   -5.138950   -1.815790
  H     -2.069380   -9.321310    1.284800
  H     -1.617660   -7.611190    1.421300
  H     -0.299900   -9.752530   -0.340890
  H      0.411780   -9.003960    1.090400
  H      0.168860   -8.051750   -0.378870
  H     -6.216030   -6.447570   -4.861000
  H     -7.187900   -7.872270   -4.428470
  H     -4.704700   -7.843130   -6.227020
  H     -6.374430   -8.057850   -6.762510
  H     -5.595030   -9.304010   -5.785010
  H     -6.746590   -9.978680   -3.743440
  H     -5.053430  -11.135090   -1.453590
  H     -7.051020  -16.187820   -0.615580
  H     -9.404230  -16.527340   -2.546380
  H     -8.072210  -18.400150   -0.507510
  H    -13.719620  -19.623310   -3.060710
  H    -10.797680  -22.967100   -0.812870

 Total Charge           Charge          ....    0
 Multiplicity           Mult            ....    1
 Number of Electrons    NEL             ....  622
 Basis Dimension        Dim             .... 1202

ORBITAL ENERGIES
----------------

  NO   OCC          E(Eh)            E(eV)
   0   2.0000    -482.882304    -13139.8955
   1   2.0000    -482.881166    -13139.8645
   2   2.0000    -482.880409    -13139.8440
   3   2.0000    -482.878859    -13139.8018
   4   2.0000     -88.998593     -2421.7748
   5   2.0000     -88.994964     -2421.6761
   6   2.0000     -88.985718     -2421.4245
   7   2.0000     -62.559932     -1702.3423
   8   2.0000     -62.558776     -1702.3108
   9   2.0000     -62.558017     -1702.2902
  10   2.0000     -62.556436     -1702.2472
  11   2.0000     -56.393887     -1534.5557
  12   2.0000     -56.392745     -1534.5246
  13   2.0000     -56.391968     -1534.5035
  14   2.0000     -56.391226     -1534.4833
  15   2.0000     -56.391128     -1534.4806
  16   2.0000     -56.390406     -1534.4609
  17   2.0000     -56.390064     -1534.4517
  18   2.0000     -56.389969     -1534.4491
  19   2.0000     -56.389318     -1534.4314
  20   2.0000     -56.389213     -1534.4285
  21   2.0000     -56.387729     -1534.3881
  22   2.0000     -56.387632     -1534.3855
  23   2.0000     -19.332615      -526.0672
  24   2.0000     -19.264465      -524.2127
  25   2.0000     -19.253335      -523.9099
  26   2.0000     -19.230673      -523.2932
  27   2.0000     -19.224526      -523.1259
  28   2.0000     -19.205390      -522.6052
  29   2.0000     -19.202414      -522.5243
  30   2.0000     -14.465576      -393.6283
  31   2.0000     -14.464894      -393.6098
  32   2.0000     -14.452361      -393.2687
  33   2.0000     -14.448886      -393.1742
  34   2.0000     -14.429648      -392.6507
  35   2.0000     -14.429104      -392.6359
  36   2.0000     -14.428130      -392.6094
  37   2.0000     -14.426747      -392.5717
  38   2.0000     -10.455830      -284.5176
  39   2.0000     -10.430373      -283.8249
  40   2.0000     -10.392359      -282.7905
  41   2.0000     -10.388212      -282.6776
  42   2.0000     -10.385136      -282.5939
  43   2.0000     -10.381506      -282.4951
  44   2.0000     -10.377592      -282.3886
  45   2.0000     -10.361201      -281.9426
  46   2.0000     -10.360607      -281.9265
  47   2.0000     -10.359906      -281.9074
  48   2.0000     -10.359286      -281.8905
  49   2.0000     -10.358305      -281.8638
  50   2.0000     -10.357777      -281.8494
  51   2.0000     -10.357597      -281.8446
  52   2.0000     -10.357408      -281.8394
  53   2.0000     -10.356857      -281.8244
  54   2.0000     -10.356453      -281.8134
  55   2.0000     -10.355490      -281.7872
  56   2.0000     -10.354073      -281.7486
  57   2.0000     -10.350875      -281.6616
  58   2.0000     -10.348956      -281.6094
  59   2.0000     -10.346488      -281.5423
  60   2.0000     -10.334867      -281.2260
  61   2.0000     -10.332481      -281.1611
  62   2.0000     -10.331598      -281.1371
  63   2.0000     -10.330715      -281.1131
  64   2.0000     -10.330312      -281.1021
  65   2.0000     -10.329788      -281.0878
  66   2.0000     -10.328412      -281.0504
  67   2.0000     -10.326397      -280.9955
  68   2.0000     -10.323299      -280.9113
  69   2.0000     -10.319204      -280.7998
  70   2.0000     -10.318883      -280.7911
  71   2.0000     -10.318582      -280.7829
  72   2.0000     -10.317893      -280.7641
  73   2.0000     -10.316099      -280.7153
  74   2.0000     -10.315517      -280.6995
  75   2.0000     -10.315487      -280.6987
  76   2.0000     -10.315042      -280.6866
  77   2.0000     -10.314263      -280.6654
  78   2.0000     -10.313728      -280.6508
  79   2.0000     -10.312355      -280.6134
  80   2.0000     -10.311607      -280.5931
  81   2.0000     -10.310619      -280.5662
  82   2.0000     -10.307966      -280.4940
  83   2.0000     -10.307160      -280.4721
  84   2.0000     -10.277927      -279.6766
  85   2.0000     -10.273464      -279.5552
  86   2.0000     -10.269672      -279.4520
  87   2.0000     -10.269219      -279.4397
  88   2.0000      -8.789270      -239.1682
  89   2.0000      -8.788093      -239.1362
  90   2.0000      -8.787342      -239.1157
  91   2.0000      -8.785733      -239.0719
  92   2.0000      -8.094150      -220.2530
  93   2.0000      -8.090852      -220.1633
  94   2.0000      -8.081726      -219.9149
  95   2.0000      -6.625429      -180.2871
  96   2.0000      -6.624280      -180.2558
  97   2.0000      -6.623485      -180.2342
  98   2.0000      -6.621921      -180.1916
  99   2.0000      -6.611380      -179.9048
 100   2.0000      -6.610585      -179.8832
 101   2.0000      -6.610185      -179.8723
 102   2.0000      -6.609481      -179.8531
 103   2.0000      -6.609401      -179.8509
 104   2.0000      -6.608648      -179.8304
 105   2.0000      -6.607825      -179.8080
 106   2.0000      -6.607037      -179.7866
 107   2.0000      -6.063335      -164.9917
 108   2.0000      -6.060677      -164.9194
 109   2.0000      -6.059398      -164.8846
 110   2.0000      -6.056162      -164.7965
 111   2.0000      -6.056115      -164.7953
 112   2.0000      -6.051774      -164.6771
 113   2.0000      -6.050292      -164.6368
 114   2.0000      -6.047062      -164.5489
 115   2.0000      -6.044156      -164.4698
 116   2.0000      -2.741313       -74.5949
 117   2.0000      -2.740177       -74.5640
 118   2.0000      -2.739380       -74.5423
 119   2.0000      -2.737796       -74.4992
 120   2.0000      -2.737577       -74.4933
 121   2.0000      -2.736938       -74.4759
 122   2.0000      -2.736392       -74.4610
 123   2.0000      -2.735773       -74.4442
 124   2.0000      -2.735618       -74.4399
 125   2.0000      -2.735025       -74.4238
 126   2.0000      -2.734000       -74.3959
 127   2.0000      -2.733460       -74.3812
 128   2.0000      -2.725774       -74.1721
 129   2.0000      -2.725761       -74.1717
 130   2.0000      -2.724570       -74.1393
 131   2.0000      -2.724545       -74.1386
 132   2.0000      -2.723851       -74.1197
 133   2.0000      -2.723846       -74.1196
 134   2.0000      -2.722205       -74.0750
 135   2.0000      -2.722193       -74.0746
 136   2.0000      -1.260527       -34.3007
 137   2.0000      -1.189225       -32.3605
 138   2.0000      -1.158772       -31.5318
 139   2.0000      -1.155802       -31.4510
 140   2.0000      -1.146444       -31.1963
 141   2.0000      -1.146251       -31.1911
 142   2.0000      -1.141700       -31.0672
 143   2.0000      -1.139485       -31.0070
 144   2.0000      -1.076536       -29.2940
 145   2.0000      -1.066519       -29.0215
 146   2.0000      -1.036376       -28.2012
 147   2.0000      -1.034457       -28.1490
 148   2.0000      -1.033019       -28.1099
 149   2.0000      -1.017964       -27.7002
 150   2.0000      -1.016093       -27.6493
 151   2.0000      -1.007170       -27.4065
 152   2.0000      -1.006037       -27.3757
 153   2.0000      -0.986637       -26.8478
 154   2.0000      -0.985353       -26.8128
 155   2.0000      -0.960773       -26.1440
 156   2.0000      -0.958981       -26.0952
 157   2.0000      -0.945334       -25.7238
 158   2.0000      -0.943852       -25.6835
 159   2.0000      -0.939696       -25.5704
 160   2.0000      -0.929100       -25.2821
 161   2.0000      -0.926863       -25.2212
 162   2.0000      -0.923413       -25.1273
 163   2.0000      -0.918239       -24.9865
 164   2.0000      -0.916590       -24.9417
 165   2.0000      -0.904758       -24.6197
 166   2.0000      -0.898779       -24.4570
 167   2.0000      -0.894512       -24.3409
 168   2.0000      -0.884555       -24.0700
 169   2.0000      -0.879304       -23.9271
 170   2.0000      -0.867220       -23.5983
 171   2.0000      -0.860252       -23.4086
 172   2.0000      -0.858808       -23.3694
 173   2.0000      -0.855442       -23.2778
 174   2.0000      -0.843649       -22.9568
 175   2.0000      -0.829504       -22.5719
 176   2.0000      -0.817395       -22.2424
 177   2.0000      -0.802713       -21.8429
 178   2.0000      -0.795191       -21.6382
 179   2.0000      -0.791398       -21.5350
 180   2.0000      -0.786497       -21.4017
 181   2.0000      -0.778578       -21.1862
 182   2.0000      -0.773461       -21.0469
 183   2.0000      -0.769067       -20.9274
 184   2.0000      -0.759224       -20.6595
 185   2.0000      -0.744865       -20.2688
 186   2.0000      -0.732995       -19.9458
 187   2.0000      -0.726459       -19.7680
 188   2.0000      -0.718502       -19.5514
 189   2.0000      -0.716164       -19.4878
 190   2.0000      -0.711825       -19.3697
 191   2.0000      -0.702110       -19.1054
 192   2.0000      -0.699710       -19.0401
 193   2.0000      -0.695424       -18.9235
 194   2.0000      -0.692379       -18.8406
 195   2.0000      -0.686744       -18.6873
 196   2.0000      -0.684713       -18.6320
 197   2.0000      -0.680600       -18.5201
 198   2.0000      -0.665141       -18.0994
 199   2.0000      -0.659938       -17.9578
 200   2.0000      -0.644764       -17.5449
 201   2.0000      -0.639238       -17.3945
 202   2.0000      -0.631425       -17.1820
 203   2.0000      -0.627153       -17.0657
 204   2.0000      -0.623599       -16.9690
 205   2.0000      -0.619531       -16.8583
 206   2.0000      -0.617952       -16.8153
 207   2.0000      -0.613241       -16.6871
 208   2.0000      -0.608503       -16.5582
 209   2.0000      -0.600805       -16.3487
 210   2.0000      -0.593570       -16.1519
 211   2.0000      -0.589016       -16.0279
 212   2.0000      -0.587812       -15.9952
 213   2.0000      -0.584691       -15.9103
 214   2.0000      -0.583678       -15.8827
 215   2.0000      -0.580135       -15.7863
 216   2.0000      -0.570507       -15.5243
 217   2.0000      -0.564340       -15.3565
 218   2.0000      -0.560201       -15.2438
 219   2.0000      -0.559337       -15.2203
 220   2.0000      -0.559065       -15.2129
 221   2.0000      -0.556638       -15.1469
 222   2.0000      -0.555170       -15.1070
 223   2.0000      -0.553497       -15.0614
 224   2.0000      -0.552345       -15.0301
 225   2.0000      -0.548734       -14.9318
 226   2.0000      -0.546737       -14.8775
 227   2.0000      -0.542457       -14.7610
 228   2.0000      -0.542146       -14.7525
 229   2.0000      -0.540516       -14.7082
 230   2.0000      -0.536922       -14.6104
 231   2.0000      -0.535298       -14.5662
 232   2.0000      -0.531819       -14.4715
 233   2.0000      -0.529160       -14.3992
 234   2.0000      -0.527292       -14.3483
 235   2.0000      -0.525281       -14.2936
 236   2.0000      -0.523929       -14.2568
 237   2.0000      -0.521034       -14.1781
 238   2.0000      -0.520109       -14.1529
 239   2.0000      -0.515540       -14.0286
 240   2.0000      -0.514586       -14.0026
 241   2.0000      -0.510228       -13.8840
 242   2.0000      -0.508923       -13.8485
 243   2.0000      -0.507545       -13.8110
 244   2.0000      -0.504146       -13.7185
 245   2.0000      -0.501550       -13.6479
 246   2.0000      -0.498209       -13.5569
 247   2.0000      -0.495670       -13.4879
 248   2.0000      -0.493208       -13.4209
 249   2.0000      -0.483980       -13.1698
 250   2.0000      -0.479909       -13.0590
 251   2.0000      -0.475822       -12.9478
 252   2.0000      -0.474514       -12.9122
 253   2.0000      -0.473493       -12.8844
 254   2.0000      -0.469180       -12.7670
 255   2.0000      -0.467692       -12.7265
 256   2.0000      -0.467486       -12.7210
 257   2.0000      -0.466852       -12.7037
 258   2.0000      -0.466254       -12.6874
 259   2.0000      -0.463949       -12.6247
 260   2.0000      -0.462765       -12.5925
 261   2.0000      -0.461933       -12.5698
 262   2.0000      -0.459580       -12.5058
 263   2.0000      -0.457496       -12.4491
 264   2.0000      -0.457176       -12.4404
 265   2.0000      -0.454765       -12.3748
 266   2.0000      -0.453783       -12.3481
 267   2.0000      -0.452925       -12.3247
 268   2.0000      -0.451170       -12.2770
 269   2.0000      -0.447138       -12.1672
 270   2.0000      -0.440976       -11.9996
 271   2.0000      -0.439266       -11.9530
 272   2.0000      -0.439053       -11.9472
 273   2.0000      -0.436848       -11.8872
 274   2.0000      -0.436239       -11.8707
 275   2.0000      -0.435760       -11.8576
 276   2.0000      -0.431855       -11.7514
 277   2.0000      -0.429843       -11.6966
 278   2.0000      -0.421993       -11.4830
 279   2.0000      -0.421261       -11.4631
 280   2.0000      -0.420171       -11.4334
 281   2.0000      -0.415512       -11.3066
 282   2.0000      -0.415339       -11.3019
 283   2.0000      -0.405822       -11.0430
 284   2.0000      -0.404547       -11.0083
 285   2.0000      -0.402083       -10.9412
 286   2.0000      -0.398904       -10.8547
 287   2.0000      -0.396247       -10.7824
 288   2.0000      -0.395463       -10.7611
 289   2.0000      -0.392954       -10.6928
 290   2.0000      -0.381148       -10.3716
 291   2.0000      -0.375115       -10.2074
 292   2.0000      -0.371089       -10.0978
 293   2.0000      -0.361130        -9.8268
 294   2.0000      -0.356425        -9.6988
 295   2.0000      -0.354878        -9.6567
 296   2.0000      -0.352550        -9.5934
 297   2.0000      -0.350947        -9.5498
 298   2.0000      -0.347423        -9.4539
 299   2.0000      -0.346927        -9.4404
 300   2.0000      -0.344747        -9.3811
 301   2.0000      -0.339668        -9.2428
 302   2.0000      -0.337216        -9.1761
 303   2.0000      -0.329961        -8.9787
 304   2.0000      -0.328085        -8.9277
 305   2.0000      -0.326145        -8.8749
 306   2.0000      -0.318865        -8.6768
 307   2.0000      -0.318731        -8.6731
 308   2.0000      -0.308971        -8.4075
 309   2.0000      -0.292566        -7.9611
 310   2.0000      -0.247776        -6.7423
 311   0.0000      -0.125590        -3.4175
 312   0.0000      -0.109349        -2.9755
 313   0.0000      -0.089798        -2.4435
 314   0.0000      -0.078098        -2.1251
 315   0.0000      -0.070816        -1.9270

MULLIKEN ATOMIC CHARGES
-----------------------
   0 C :    0.147517
   1 O :   -0.090332
   2 C :   -0.026004
   3 C :    0.040689
   4 C :   -0.008264
   5 C :   -0.024881
   6 C :   -0.014906
   7 C :   -0.015610
   8 Br:    0.019775
   9 Br:    0.024806
  10 C :    0.297071
  11 C :   -0.333604
  12 C :   -0.182439
  13 N :    0.164539
  14 C :   -0.192929
  15 N :    0.167518
  16 C :   -0.065184
  17 C :    0.041536
  18 C :   -0.123530
  19 S :    0.123563
  20 C :   -0.076319
  21 N :   -0.048783
  22 N :    0.008443
  23 C :    0.048886
  24 C :   -0.031314
  25 C :    0.113154
  26 N :   -0.265896
  27 C :    0.092049
  28 C :    0.003005
  29 C :    0.168709
  30 O :   -0.217497
  31 C :   -0.072817
  32 C :   -0.039821
  33 C :    0.157896
  34 O :   -0.179022
  35 N :   -0.266705
  36 C :    0.091219
  37 C :    0.005065
  38 C :    0.152921
  39 C :   -0.036082
  40 C :    0.067295
  41 C :   -0.127117
  42 S :    0.213576
  43 C :   -0.159031
  44 C :   -0.004757
  45 C :    0.174825
  46 O :   -0.214467
  47 C :    0.215537
  48 O :   -0.111764
  49 C :    0.028139
  50 O :   -0.102929
  51 S :    0.108767
  52 C :    0.065321
  53 C :   -0.004887
  54 C :    0.019104
  55 C :   -0.106714
  56 C :    0.145226
  57 O :   -0.130047
  58 C :   -0.009965
  59 C :    0.022812
  60 C :    0.275395
  61 C :   -0.325947
  62 C :   -0.211929
  63 N :    0.173329
  64 C :   -0.185311
  65 N :    0.167962
  66 C :   -0.007451
  67 C :   -0.024472
  68 C :   -0.016272
  69 C :   -0.018532
  70 Br:    0.018727
  71 Br:    0.026185
  72 H :    0.008370
  73 H :    0.008896
  74 H :    0.030823
  75 H :    0.010442
  76 H :    0.018591
  77 H :    0.045082
  78 H :    0.031051
  79 H :    0.026318
  80 H :    0.028298
  81 H :    0.024370
  82 H :    0.047164
  83 H :    0.035093
  84 H :    0.026895
  85 H :    0.033617
  86 H :    0.015014
  87 H :    0.002523
  88 H :    0.006028
  89 H :    0.005620
  90 H :    0.036982
  91 H :    0.021347
  92 H :    0.011553
  93 H :    0.008893
Sum of atomic charges:   -0.0000000

LOEWDIN ATOMIC CHARGES
----------------------
   0 C :    0.077206
   1 O :   -0.096346
   2 C :   -0.039807
   3 C :   -0.014467
   4 C :   -0.006661
   5 C :   -0.118546
   6 C :   -0.120474
   7 C :    0.008026
   8 Br:    0.142327
   9 Br:    0.143872
  10 C :    0.070997
  11 C :   -0.123525
  12 C :   -0.019227
  13 N :   -0.037110
  14 C :   -0.022795
  15 N :   -0.037417
  16 C :   -0.060806
  17 C :    0.034063
  18 C :   -0.160751
  19 S :    0.412820
  20 C :   -0.135564
  21 N :   -0.070898
  22 N :   -0.024581
  23 C :   -0.038391
  24 C :   -0.009366
  25 C :    0.059144
  26 N :    0.000301
  27 C :    0.035060
  28 C :   -0.061932
  29 C :    0.080712
  30 O :   -0.204945
  31 C :   -0.127308
  32 C :   -0.098668
  33 C :    0.082790
  34 O :   -0.181174
  35 N :   -0.001163
  36 C :    0.037172
  37 C :   -0.059508
  38 C :    0.088388
  39 C :   -0.037041
  40 C :    0.008751
  41 C :   -0.180231
  42 S :    0.505599
  43 C :   -0.184850
  44 C :   -0.203245
  45 C :    0.006447
  46 O :   -0.013315
  47 C :    0.051389
  48 O :   -0.088631
  49 C :   -0.099964
  50 O :   -0.081395
  51 S :    0.415838
  52 C :    0.003727
  53 C :   -0.031913
  54 C :    0.066163
  55 C :   -0.088421
  56 C :    0.082814
  57 O :   -0.132050
  58 C :   -0.044531
  59 C :   -0.009911
  60 C :    0.067017
  61 C :   -0.129554
  62 C :   -0.024087
  63 N :   -0.047637
  64 C :   -0.021621
  65 N :   -0.036604
  66 C :   -0.008177
  67 C :   -0.117588
  68 C :   -0.122950
  69 C :    0.008155
  70 Br:    0.140991
  71 Br:    0.145426
  72 H :    0.044600
  73 H :    0.047422
  74 H :    0.047729
  75 H :    0.044057
  76 H :    0.042336
  77 H :    0.038167
  78 H :    0.024072
  79 H :    0.031989
  80 H :    0.033353
  81 H :    0.023364
  82 H :    0.039394
  83 H :    0.027754
  84 H :    0.030952
  85 H :    0.035398
  86 H :    0.022046
  87 H :    0.031930
  88 H :    0.038990
  89 H :    0.039501
  90 H :    0.017082
  91 H :    0.047387
  92 H :    0.045134
  93 H :    0.047296

  Mayer bond orders larger than 0.100000
B(  0-C ,  1-O ) :   2.2948 B(  0-C ,  2-C ) :   0.9343 B(  0-C , 16-C ) :   0.9103
B(  2-C ,  3-C ) :   1.3290 B(  2-C ,  7-C ) :   1.3743 B(  3-C ,  4-C ) :   1.3558
B(  3-C , 10-C ) :   0.9999 B(  4-C ,  5-C ) :   1.3798 B(  4-C , 72-H ) :   0.9782
B(  5-C ,  6-C ) :   1.4128 B(  5-C ,  9-Br) :   1.0593 B(  6-C ,  7-C ) :   1.3553
B(  6-C ,  8-Br) :   1.0383 B(  7-C , 73-H ) :   1.0073 B( 10-C , 11-C ) :   1.6598
B( 10-C , 16-C ) :   1.0612 B( 11-C , 12-C ) :   1.1359 B( 11-C , 14-C ) :   1.1385
B( 12-C , 13-N ) :   2.9731 B( 14-C , 15-N ) :   2.9807 B( 16-C , 17-C ) :   1.6870
B( 17-C , 18-C ) :   1.1251 B( 17-C , 74-H ) :   0.9209 B( 18-C , 19-S ) :   1.0764
B( 18-C , 22-N ) :   1.6322 B( 19-S , 20-C ) :   1.1229 B( 19-S , 22-N ) :   0.1077
B( 20-C , 21-N ) :   1.6087 B( 20-C , 23-C ) :   1.1352 B( 21-N , 22-N ) :   1.2793
B( 23-C , 24-C ) :   1.5441 B( 23-C , 75-H ) :   0.9801 B( 24-C , 25-C ) :   1.1992
B( 24-C , 76-H ) :   0.9464 B( 25-C , 26-N ) :   1.1592 B( 25-C , 32-C ) :   1.3512
B( 26-N , 27-C ) :   0.9401 B( 26-N , 29-C ) :   1.0687 B( 27-C , 28-C ) :   1.1181
B( 27-C , 77-H ) :   0.9242 B( 27-C , 78-H ) :   0.9512 B( 28-C , 79-H ) :   0.9612
B( 28-C , 80-H ) :   0.9679 B( 28-C , 81-H ) :   0.9683 B( 29-C , 30-O ) :   2.0046
B( 29-C , 31-C ) :   0.9955 B( 30-O , 88-H ) :   0.1221 B( 31-C , 32-C ) :   1.2625
B( 31-C , 38-C ) :   1.3038 B( 32-C , 33-C ) :   0.9644 B( 33-C , 34-O ) :   2.1438
B( 33-C , 35-N ) :   1.0307 B( 35-N , 36-C ) :   0.9370 B( 35-N , 38-C ) :   1.1755
B( 36-C , 37-C ) :   1.1232 B( 36-C , 82-H ) :   0.9285 B( 36-C , 83-H ) :   0.9497
B( 37-C , 84-H ) :   0.9637 B( 37-C , 85-H ) :   0.9675 B( 37-C , 86-H ) :   0.9678
B( 38-C , 39-C ) :   1.1712 B( 39-C , 40-C ) :   1.5877 B( 39-C , 87-H ) :   0.9645
B( 40-C , 41-C ) :   1.1572 B( 40-C , 88-H ) :   0.9250 B( 41-C , 42-S ) :   1.1478
B( 41-C , 43-C ) :   0.1080 B( 41-C , 45-C ) :   1.4250 B( 42-S , 43-C ) :   1.1323
B( 43-C , 44-C ) :   1.4730 B( 43-C , 52-C ) :   1.1614 B( 44-C , 45-C ) :   1.3137
B( 44-C , 51-S ) :   0.9749 B( 45-C , 46-O ) :   1.0684 B( 46-O , 47-C ) :   1.0655
B( 47-C , 48-O ) :   2.2337 B( 47-C , 49-C ) :   0.8079 B( 49-C , 50-O ) :   2.1857
B( 49-C , 51-S ) :   1.0394 B( 50-O , 51-S ) :   0.1364 B( 52-C , 53-C ) :   1.6323
B( 52-C , 89-H ) :   0.9623 B( 53-C , 54-C ) :   1.1567 B( 53-C , 90-H ) :   0.9441
B( 54-C , 55-C ) :   1.6092 B( 54-C , 91-H ) :   0.9593 B( 55-C , 56-C ) :   0.9401
B( 55-C , 60-C ) :   1.0429 B( 56-C , 57-O ) :   2.2783 B( 56-C , 58-C ) :   0.9226
B( 58-C , 59-C ) :   1.3261 B( 58-C , 69-C ) :   1.3759 B( 59-C , 60-C ) :   1.0043
B( 59-C , 66-C ) :   1.3669 B( 60-C , 61-C ) :   1.6499 B( 61-C , 62-C ) :   1.1637
B( 61-C , 64-C ) :   1.1286 B( 62-C , 63-N ) :   2.9986 B( 64-C , 65-N ) :   2.9897
B( 66-C , 67-C ) :   1.3698 B( 66-C , 92-H ) :   0.9823 B( 67-C , 68-C ) :   1.4198
B( 67-C , 71-Br) :   1.0566 B( 68-C , 69-C ) :   1.3544 B( 68-C , 70-Br) :   1.0365
B( 69-C , 93-H ) :   1.0082

-----------------------------------------------------------------------------
         ABSORPTION SPECTRUM VIA TRANSITION ELECTRIC DIPOLE MOMENTS
-----------------------------------------------------------------------------
State   Energy  Wavelength   fosc         T2         TX        TY        TZ
        (cm-1)    (nm)                  (au**2)     (au)      (au)      (au)
-----------------------------------------------------------------------------
   0   12744.9    784.6   1.498648901  38.71154  -3.84839  -4.79662  -0.94544
   1   17850.0    560.2   0.011445908   0.21110  -0.04882  -0.26694  -0.37076
   2   21364.7    468.1   0.602596418   9.28552   1.32134   2.52830  -1.07112
   3   21603.8    462.9   0.013578027   0.20691   0.29915  -0.31918   0.12469
   4   22500.1    444.4   0.155601161   2.27669  -1.09570  -0.95345  -0.40874
   5   24510.7    408.0   0.018403734   0.24719   0.10584  -0.41430   0.25365
   6   25449.0    392.9   0.129347045   1.67325   0.33058   1.20937  -0.31841
   7   25941.6    385.5   0.061513065   0.78063  -0.00652  -0.79062   0.39434
   8   25996.5    384.7   0.227734858   2.88396   0.55771   1.59142  -0.20077
   9   26692.2    374.6   0.011582552   0.14286   0.04412   0.30198   0.22298
  10   27579.2    362.6   0.142315930   1.69882   0.34048  -1.12724   0.55876
  11   27891.5    358.5   0.163263552   1.92705   0.18333  -1.36372   0.18360
  12   27997.2    357.2   0.044144935   0.51909  -0.35814   0.62489  -0.01831
  13   28102.5    355.8   0.184076511   2.15640  -0.90076  -0.98926  -0.60532
  14   28608.7    349.5   0.506226088   5.82534  -1.99003  -1.33410  -0.29208
  15   28668.1    348.8   0.058514445   0.67195   0.10713   0.62113  -0.52409
  16   29516.8    338.8   0.009324786   0.10400  -0.28133  -0.08205  -0.13463
  17   29586.1    338.0   0.040596257   0.45172   0.10803  -0.66214  -0.04027
  18   30273.9    330.3   0.004923764   0.05354   0.05662  -0.10377   0.19892
  19   31440.4    318.1   0.024461890   0.25614  -0.00733  -0.49803   0.08971
  20   31536.5    317.1   0.023090760   0.24105  -0.06294   0.48492  -0.04402
  21   31689.2    315.6   0.000460359   0.00478  -0.01031   0.02847  -0.06217
  22   32048.6    312.0   0.049111438   0.50449  -0.46378  -0.49565  -0.20911
  23   32293.9    309.7   0.050943235   0.51933  -0.68912  -0.19468  -0.08091
  24   32440.3    308.3   0.077742937   0.78895  -0.23364   0.82086  -0.24609
  25   32608.5    306.7   0.031348078   0.31649   0.32576   0.42355  -0.17598
  26   32695.6    305.9   0.003171146   0.03193  -0.01689  -0.17773   0.00747
  27   32805.4    304.8   0.000112703   0.00113   0.00546  -0.01421   0.02999
  28   33900.7    295.0   0.074707695   0.72549  -0.29900  -0.79719  -0.02410
  29   34414.7    290.6   0.107002318   1.02359  -0.77831  -0.63550  -0.11810
  30   34936.4    286.2   0.015021765   0.14155  -0.33870  -0.00040  -0.16381
  31   35090.5    285.0   0.104954170   0.98466  -0.10973   0.98088  -0.10242
  32   35230.6    283.8   0.223656915   2.08996  -1.14942  -0.86803  -0.12376
  33   35433.3    282.2   0.519773152   4.82924   1.89581  -1.03976   0.39250
  34   35820.5    279.2   0.560820154   5.15427  -0.57055   2.14821  -0.46256
  35   36506.4    273.9   0.050922578   0.45922  -0.01854   0.61028  -0.29399
  36   36517.3    273.8   0.080614328   0.72676  -0.01071  -0.77955   0.34488
  37   36859.2    271.3   0.000653088   0.00583  -0.03326  -0.02752  -0.06300
  38   36931.8    270.8   0.072974548   0.65050  -0.37209   0.67529  -0.23671
  39   37283.3    268.2   0.034632995   0.30581  -0.04829  -0.54937   0.04084
  40   37298.6    268.1   0.039832813   0.35158  -0.43769   0.29569  -0.26941
  41   37489.4    266.7   0.018003722   0.15810  -0.31893   0.22543   0.07458
  42   37642.3    265.7   0.026848993   0.23482   0.40692  -0.23906   0.10991
  43   37950.5    263.5   0.000500298   0.00434   0.03156  -0.05556   0.01604
  44   38115.3    262.4   0.000567196   0.00490   0.01352   0.06533  -0.02117
  45   38403.6    260.4   0.002547857   0.02184   0.10686  -0.02832   0.09808
  46   38661.2    258.7   0.286788186   2.44209  -0.96736   0.57041  -1.08671
  47   38759.9    258.0   0.103809850   0.88172   0.54499   0.68308   0.34367
  48   39101.0    255.7   0.055757958   0.46946   0.07864  -0.59314   0.33386
  49   39338.6    254.2   0.058478065   0.48938   0.02657   0.63470  -0.29299
  50   39472.4    253.3   0.069315031   0.57811  -0.64661   0.15364  -0.36932
  51   40030.8    249.8   0.008351657   0.06868   0.20656   0.09947  -0.12698
  52   40066.7    249.6   0.084301213   0.69267   0.30052  -0.63573   0.44519

FINAL SINGLE POINT ENERGY    -14369.504227903966

DIPOLE MOMENT
-------------
                                X             Y             Z
Electronic contribution:     31.74781     -30.27398      11.43726
Nuclear contribution   :    -30.20218      27.18780     -11.48299
                        -----------------------------------------
Total Dipole Moment    :      1.54563      -3.08619      -0.04573
                        -----------------------------------------
Magnitude (a.u.)       :      3.45190
Magnitude (Debye)      :      8.77403

Rotational constants in cm-1:     0.002628     0.000097     0.000095
Rotational constants in MHz :    78.792028     2.919924     2.843359

                             ****ORCA TERMINATED NORMALLY****
TOTAL RUN TIME: 0 days 0 hours 14 minutes 57 seconds 185 msec
