                         Program Version 4.2.0 -  RELEASE  -
|  1> # ORCA input file
|  2> # SCF done       -189.193252194841          0.000894697967
|  3> ! CAM-B3LYP def2-SVP def2/J RIJCOSX Grid4 TightSCF
|  4> %maxcore 5000
|  5> %tddft
|  6>     Mode sTDDFT
|  7>     Ethresh 5.0
|  8>     maxcore 5000
|  9> end
| 10>
| 11> %pal
| 12>   nprocs 6
| 13>   end
| 14> * xyz 0 1
| 15>    C        3.49729         3.06469        -3.48892
| 16>    C        2.90698         4.09566        -4.15318
| 17>    S        2.88903         3.81199        -5.85451
| 18>    C        3.69437         2.27114        -5.67299
| 19>   Cl        4.05810         1.30084        -7.01209
| 20>    C        3.94750         2.01863        -4.35725
| 21>    C        4.56782         0.94275        -3.57716
| 22>    O        5.05981        -0.07873        -3.99255
| 23>    C        4.51552         1.42977        -2.15772
| 24>    C        3.80530         2.70669        -2.12120
| 25>    C        3.42972         3.42565        -1.02039
| 26>    C        2.72614         4.64336        -1.14529
| 27>    N        2.15898         5.63645        -1.23151
| 28>    C        3.65698         3.05438         0.32063
| 29>    N        3.79551         2.80147         1.43162
| 30>    C        5.18743         0.88584        -1.11600
| 31>    C        5.87616        -0.38487        -1.08663
| 32>    C        7.08748        -0.47485        -0.40788
| 33>    C        7.79875        -1.66578        -0.34109
| 34>    N        9.09405        -1.56799         0.28285
| 35>    O        9.66929        -0.50554         0.17242
| 36>    O        9.54184        -2.52472         0.87958
| 37>    C        7.30841        -2.83737        -0.94844
| 38>    C        6.08983        -2.71803        -1.63988
| 39>    C        5.37804        -1.54575        -1.69530
| 40>    C        7.94313        -4.13701        -1.02421
| 41>    C        8.51945        -4.85386        -0.03841
| 42>    C        9.06419        -6.14884        -0.29030
| 43>    N        9.76131        -6.87505         0.64299
| 44>    C       10.12933        -6.44676         1.97154
| 45>    C       11.23779        -5.39750         1.95430
| 46>    C       10.17991        -8.12352         0.13511
| 47>    O       10.81230        -8.93636         0.77729
| 48>    C        9.66935        -8.13984        -1.21603
| 49>    C        8.99625        -6.91448        -1.44966
| 50>    C        8.46277        -6.96820        -2.78933
| 51>    O        7.80982        -6.16843        -3.43460
| 52>    N        8.84486        -8.23067        -3.28222
| 53>    C        8.51962        -8.57987        -4.64520
| 54>    C        9.71792        -8.41810        -5.57721
| 55>    C        9.57344        -8.93807        -2.35045
| 56>    C       10.13893       -10.24325        -2.41998
| 57>    C       10.09622       -11.12941        -3.43754
| 58>    C       10.69232       -12.43746        -3.41452
| 59>    C       11.44086       -12.97270        -2.39756
| 60>    S       12.00265       -14.55418        -2.73749
| 61>    C       11.25290       -14.53993        -4.26733
| 62>    C       10.58798       -13.36645        -4.51331
| 63>    C        9.84693       -13.12457        -5.74674
| 64>    O        9.09242       -12.21412        -5.98037
| 65>    O       10.11500       -14.10002        -6.67369
| 66>    C        9.43562       -14.07810        -7.83685
| 67>    C        9.69339       -14.97218        -8.80728
| 68>    C        8.97518       -14.95946       -10.03191
| 69>    C        9.05785       -15.83382       -11.06756
| 70>    C        8.48336       -15.42657       -12.39077
| 71>    O        7.73073       -14.50457       -12.59033
| 72>    C        9.08381       -16.35745       -13.35219
| 73>    C        9.09902       -16.53017       -14.70386
| 74>    S       10.09973       -17.89702       -15.13487
| 75>    C       10.47490       -18.22504       -13.48243
| 76>    C        9.87165       -17.33120       -12.65400
| 77>    C        9.75732       -17.09796       -11.22488
| 78>    C       10.09265       -18.01992       -10.27006
| 79>    C       10.74750       -19.22209       -10.61571
| 80>    N       11.29492       -20.19618       -10.87531
| 81>    C        9.75936       -17.95489        -8.90229
| 82>    N        9.49215       -17.98754        -7.78647
| 83>   Cl        8.30284       -15.61282       -15.88413
| 84>    H        2.48646         5.00246        -3.76598
| 85>    H        5.27409         1.46809        -0.20597
| 86>    H        7.51667         0.40300         0.05384
| 87>    H        5.70553        -3.59742        -2.13369
| 88>    H        4.42608        -1.52252        -2.19856
| 89>    H        7.84429        -4.60392        -1.99855
| 90>    H        8.57464        -4.48119         0.97103
| 91>    H       10.47894        -7.34763         2.48445
| 92>    H        9.24631        -6.06520         2.49240
| 93>    H       12.10304        -5.77900         1.41744
| 94>    H       11.53593        -5.16926         2.97376
| 95>    H       10.90397        -4.47929         1.47798
| 96>    H        7.73263        -7.88164        -4.94679
| 97>    H        8.11549        -9.59322        -4.68680
| 98>    H       10.02244        -7.37479        -5.61206
| 99>    H        9.44558        -8.73728        -6.57908
|100>    H       10.56288        -9.01322        -5.23861
|101>    H       10.64975       -10.50709        -1.50303
|102>    H        9.58641       -10.89795        -4.35588
|103>    H       11.69565       -12.51897        -1.46115
|104>    H       11.31838       -15.39533        -4.91001
|105>    H        8.66806       -13.31528        -7.92333
|106>    H       10.47598       -15.69705        -8.64881
|107>    H        8.32416       -14.10849       -10.20384
|108>    H       11.12047       -19.04678       -13.24386
|109> *
|110>
|111>                          ****END OF INPUT****

CARTESIAN COORDINATES (ANGSTROEM)
---------------------------------
  C      3.497290    3.064690   -3.488920
  C      2.906980    4.095660   -4.153180
  S      2.889030    3.811990   -5.854510
  C      3.694370    2.271140   -5.672990
  Cl     4.058100    1.300840   -7.012090
  C      3.947500    2.018630   -4.357250
  C      4.567820    0.942750   -3.577160
  O      5.059810   -0.078730   -3.992550
  C      4.515520    1.429770   -2.157720
  C      3.805300    2.706690   -2.121200
  C      3.429720    3.425650   -1.020390
  C      2.726140    4.643360   -1.145290
  N      2.158980    5.636450   -1.231510
  C      3.656980    3.054380    0.320630
  N      3.795510    2.801470    1.431620
  C      5.187430    0.885840   -1.116000
  C      5.876160   -0.384870   -1.086630
  C      7.087480   -0.474850   -0.407880
  C      7.798750   -1.665780   -0.341090
  N      9.094050   -1.567990    0.282850
  O      9.669290   -0.505540    0.172420
  O      9.541840   -2.524720    0.879580
  C      7.308410   -2.837370   -0.948440
  C      6.089830   -2.718030   -1.639880
  C      5.378040   -1.545750   -1.695300
  C      7.943130   -4.137010   -1.024210
  C      8.519450   -4.853860   -0.038410
  C      9.064190   -6.148840   -0.290300
  N      9.761310   -6.875050    0.642990
  C     10.129330   -6.446760    1.971540
  C     11.237790   -5.397500    1.954300
  C     10.179910   -8.123520    0.135110
  O     10.812300   -8.936360    0.777290
  C      9.669350   -8.139840   -1.216030
  C      8.996250   -6.914480   -1.449660
  C      8.462770   -6.968200   -2.789330
  O      7.809820   -6.168430   -3.434600
  N      8.844860   -8.230670   -3.282220
  C      8.519620   -8.579870   -4.645200
  C      9.717920   -8.418100   -5.577210
  C      9.573440   -8.938070   -2.350450
  C     10.138930  -10.243250   -2.419980
  C     10.096220  -11.129410   -3.437540
  C     10.692320  -12.437460   -3.414520
  C     11.440860  -12.972700   -2.397560
  S     12.002650  -14.554180   -2.737490
  C     11.252900  -14.539930   -4.267330
  C     10.587980  -13.366450   -4.513310
  C      9.846930  -13.124570   -5.746740
  O      9.092420  -12.214120   -5.980370
  O     10.115000  -14.100020   -6.673690
  C      9.435620  -14.078100   -7.836850
  C      9.693390  -14.972180   -8.807280
  C      8.975180  -14.959460  -10.031910
  C      9.057850  -15.833820  -11.067560
  C      8.483360  -15.426570  -12.390770
  O      7.730730  -14.504570  -12.590330
  C      9.083810  -16.357450  -13.352190
  C      9.099020  -16.530170  -14.703860
  S     10.099730  -17.897020  -15.134870
  C     10.474900  -18.225040  -13.482430
  C      9.871650  -17.331200  -12.654000
  C      9.757320  -17.097960  -11.224880
  C     10.092650  -18.019920  -10.270060
  C     10.747500  -19.222090  -10.615710
  N     11.294920  -20.196180  -10.875310
  C      9.759360  -17.954890   -8.902290
  N      9.492150  -17.987540   -7.786470
  Cl     8.302840  -15.612820  -15.884130
  H      2.486460    5.002460   -3.765980
  H      5.274090    1.468090   -0.205970
  H      7.516670    0.403000    0.053840
  H      5.705530   -3.597420   -2.133690
  H      4.426080   -1.522520   -2.198560
  H      7.844290   -4.603920   -1.998550
  H      8.574640   -4.481190    0.971030
  H     10.478940   -7.347630    2.484450
  H      9.246310   -6.065200    2.492400
  H     12.103040   -5.779000    1.417440
  H     11.535930   -5.169260    2.973760
  H     10.903970   -4.479290    1.477980
  H      7.732630   -7.881640   -4.946790
  H      8.115490   -9.593220   -4.686800
  H     10.022440   -7.374790   -5.612060
  H      9.445580   -8.737280   -6.579080
  H     10.562880   -9.013220   -5.238610
  H     10.649750  -10.507090   -1.503030
  H      9.586410  -10.897950   -4.355880
  H     11.695650  -12.518970   -1.461150
  H     11.318380  -15.395330   -4.910010
  H      8.668060  -13.315280   -7.923330
  H     10.475980  -15.697050   -8.648810
  H      8.324160  -14.108490  -10.203840
  H     11.120470  -19.046780  -13.243860

 Total Charge           Charge          ....    0
 Multiplicity           Mult            ....    1
 Number of Electrons    NEL             ....  514
 Basis Dimension        Dim             .... 1111

ORBITAL ENERGIES
----------------

  NO   OCC          E(Eh)            E(eV)
   0   2.0000    -101.623054     -2765.3039
   1   2.0000    -101.617831     -2765.1617
   2   2.0000     -89.000336     -2421.8223
   3   2.0000     -88.993852     -2421.6458
   4   2.0000     -88.983873     -2421.3743
   5   2.0000     -19.309064      -525.4264
   6   2.0000     -19.252019      -523.8741
   7   2.0000     -19.249210      -523.7976
   8   2.0000     -19.242048      -523.6027
   9   2.0000     -19.229710      -523.2670
  10   2.0000     -19.219089      -522.9780
  11   2.0000     -19.190652      -522.2042
  12   2.0000     -19.186770      -522.0986
  13   2.0000     -14.656052      -398.8114
  14   2.0000     -14.451684      -393.2503
  15   2.0000     -14.450220      -393.2105
  16   2.0000     -14.427581      -392.5944
  17   2.0000     -14.426707      -392.5707
  18   2.0000     -14.422334      -392.4517
  19   2.0000     -14.421734      -392.4353
  20   2.0000     -10.439139      -284.0634
  21   2.0000     -10.387397      -282.6554
  22   2.0000     -10.382779      -282.5298
  23   2.0000     -10.376568      -282.3608
  24   2.0000     -10.375503      -282.3318
  25   2.0000     -10.372689      -282.2552
  26   2.0000     -10.372386      -282.2470
  27   2.0000     -10.370480      -282.1951
  28   2.0000     -10.356470      -281.8139
  29   2.0000     -10.355863      -281.7974
  30   2.0000     -10.352040      -281.6933
  31   2.0000     -10.350987      -281.6647
  32   2.0000     -10.341437      -281.4048
  33   2.0000     -10.337786      -281.3055
  34   2.0000     -10.336421      -281.2683
  35   2.0000     -10.335683      -281.2482
  36   2.0000     -10.331450      -281.1331
  37   2.0000     -10.330044      -281.0948
  38   2.0000     -10.329413      -281.0776
  39   2.0000     -10.328407      -281.0502
  40   2.0000     -10.325271      -280.9649
  41   2.0000     -10.324936      -280.9558
  42   2.0000     -10.324312      -280.9388
  43   2.0000     -10.324139      -280.9341
  44   2.0000     -10.323326      -280.9120
  45   2.0000     -10.319575      -280.8099
  46   2.0000     -10.317420      -280.7513
  47   2.0000     -10.313959      -280.6571
  48   2.0000     -10.311735      -280.5966
  49   2.0000     -10.310768      -280.5703
  50   2.0000     -10.310327      -280.5583
  51   2.0000     -10.307452      -280.4800
  52   2.0000     -10.306810      -280.4625
  53   2.0000     -10.304788      -280.4075
  54   2.0000     -10.303911      -280.3837
  55   2.0000     -10.302767      -280.3525
  56   2.0000     -10.301977      -280.3310
  57   2.0000     -10.301708      -280.3237
  58   2.0000     -10.300677      -280.2957
  59   2.0000     -10.299036      -280.2510
  60   2.0000     -10.294562      -280.1293
  61   2.0000     -10.292206      -280.0652
  62   2.0000     -10.291532      -280.0468
  63   2.0000     -10.290219      -280.0111
  64   2.0000     -10.289276      -279.9854
  65   2.0000     -10.258604      -279.1508
  66   2.0000     -10.257912      -279.1320
  67   2.0000     -10.257633      -279.1244
  68   2.0000     -10.252575      -278.9868
  69   2.0000      -9.577809      -260.6254
  70   2.0000      -9.572613      -260.4840
  71   2.0000      -8.096085      -220.3057
  72   2.0000      -8.089558      -220.1281
  73   2.0000      -8.080131      -219.8715
  74   2.0000      -7.348471      -199.9621
  75   2.0000      -7.343241      -199.8197
  76   2.0000      -7.337836      -199.6727
  77   2.0000      -7.337286      -199.6577
  78   2.0000      -7.332655      -199.5317
  79   2.0000      -7.332117      -199.5170
  80   2.0000      -6.065431      -165.0488
  81   2.0000      -6.060839      -164.9238
  82   2.0000      -6.058965      -164.8728
  83   2.0000      -6.058368      -164.8566
  84   2.0000      -6.054332      -164.7468
  85   2.0000      -6.051792      -164.6776
  86   2.0000      -6.049188      -164.6068
  87   2.0000      -6.044606      -164.4821
  88   2.0000      -6.043032      -164.4393
  89   2.0000      -1.331773       -36.2394
  90   2.0000      -1.238472       -33.7005
  91   2.0000      -1.149555       -31.2810
  92   2.0000      -1.147773       -31.2325
  93   2.0000      -1.141963       -31.0744
  94   2.0000      -1.136470       -30.9249
  95   2.0000      -1.130843       -30.7718
  96   2.0000      -1.123568       -30.5738
  97   2.0000      -1.060274       -28.8515
  98   2.0000      -1.051543       -28.6139
  99   2.0000      -1.045074       -28.4379
 100   2.0000      -1.038805       -28.2673
 101   2.0000      -1.024398       -27.8753
 102   2.0000      -1.019185       -27.7334
 103   2.0000      -1.009028       -27.4571
 104   2.0000      -1.005605       -27.3639
 105   2.0000      -1.000615       -27.2281
 106   2.0000      -1.000535       -27.2259
 107   2.0000      -0.993720       -27.0405
 108   2.0000      -0.989108       -26.9150
 109   2.0000      -0.961997       -26.1773
 110   2.0000      -0.956563       -26.0294
 111   2.0000      -0.933108       -25.3911
 112   2.0000      -0.930932       -25.3319
 113   2.0000      -0.924948       -25.1691
 114   2.0000      -0.912921       -24.8419
 115   2.0000      -0.911172       -24.7943
 116   2.0000      -0.908470       -24.7207
 117   2.0000      -0.907179       -24.6856
 118   2.0000      -0.888882       -24.1877
 119   2.0000      -0.885662       -24.1001
 120   2.0000      -0.870214       -23.6797
 121   2.0000      -0.856859       -23.3163
 122   2.0000      -0.853835       -23.2340
 123   2.0000      -0.842313       -22.9205
 124   2.0000      -0.839486       -22.8436
 125   2.0000      -0.833407       -22.6782
 126   2.0000      -0.815075       -22.1793
 127   2.0000      -0.811502       -22.0821
 128   2.0000      -0.797314       -21.6960
 129   2.0000      -0.796084       -21.6625
 130   2.0000      -0.783259       -21.3135
 131   2.0000      -0.764168       -20.7941
 132   2.0000      -0.762272       -20.7425
 133   2.0000      -0.760459       -20.6931
 134   2.0000      -0.755141       -20.5484
 135   2.0000      -0.742385       -20.2013
 136   2.0000      -0.724776       -19.7222
 137   2.0000      -0.712966       -19.4008
 138   2.0000      -0.709265       -19.3001
 139   2.0000      -0.701980       -19.1018
 140   2.0000      -0.698610       -19.0102
 141   2.0000      -0.695826       -18.9344
 142   2.0000      -0.690774       -18.7969
 143   2.0000      -0.687658       -18.7121
 144   2.0000      -0.683926       -18.6106
 145   2.0000      -0.681136       -18.5346
 146   2.0000      -0.677333       -18.4312
 147   2.0000      -0.665588       -18.1116
 148   2.0000      -0.662398       -18.0248
 149   2.0000      -0.657224       -17.8840
 150   2.0000      -0.644345       -17.5335
 151   2.0000      -0.638818       -17.3831
 152   2.0000      -0.636413       -17.3177
 153   2.0000      -0.632501       -17.2112
 154   2.0000      -0.622358       -16.9352
 155   2.0000      -0.620020       -16.8716
 156   2.0000      -0.619294       -16.8519
 157   2.0000      -0.611748       -16.6465
 158   2.0000      -0.610291       -16.6069
 159   2.0000      -0.604981       -16.4624
 160   2.0000      -0.600528       -16.3412
 161   2.0000      -0.595789       -16.2123
 162   2.0000      -0.592693       -16.1280
 163   2.0000      -0.587212       -15.9789
 164   2.0000      -0.584260       -15.8985
 165   2.0000      -0.583251       -15.8711
 166   2.0000      -0.575574       -15.6622
 167   2.0000      -0.567161       -15.4332
 168   2.0000      -0.564937       -15.3727
 169   2.0000      -0.561035       -15.2665
 170   2.0000      -0.557021       -15.1573
 171   2.0000      -0.552416       -15.0320
 172   2.0000      -0.550363       -14.9761
 173   2.0000      -0.545218       -14.8361
 174   2.0000      -0.543755       -14.7963
 175   2.0000      -0.541063       -14.7231
 176   2.0000      -0.539366       -14.6769
 177   2.0000      -0.538347       -14.6492
 178   2.0000      -0.535737       -14.5782
 179   2.0000      -0.532612       -14.4931
 180   2.0000      -0.530505       -14.4358
 181   2.0000      -0.529525       -14.4091
 182   2.0000      -0.526402       -14.3241
 183   2.0000      -0.522570       -14.2199
 184   2.0000      -0.520610       -14.1665
 185   2.0000      -0.516468       -14.0538
 186   2.0000      -0.512680       -13.9507
 187   2.0000      -0.511737       -13.9251
 188   2.0000      -0.507324       -13.8050
 189   2.0000      -0.505333       -13.7508
 190   2.0000      -0.502995       -13.6872
 191   2.0000      -0.502509       -13.6740
 192   2.0000      -0.499335       -13.5876
 193   2.0000      -0.498490       -13.5646
 194   2.0000      -0.496964       -13.5231
 195   2.0000      -0.496063       -13.4986
 196   2.0000      -0.488834       -13.3018
 197   2.0000      -0.487377       -13.2622
 198   2.0000      -0.485344       -13.2069
 199   2.0000      -0.484304       -13.1786
 200   2.0000      -0.476543       -12.9674
 201   2.0000      -0.474112       -12.9012
 202   2.0000      -0.470205       -12.7949
 203   2.0000      -0.468524       -12.7492
 204   2.0000      -0.467617       -12.7245
 205   2.0000      -0.465818       -12.6755
 206   2.0000      -0.463239       -12.6054
 207   2.0000      -0.459763       -12.5108
 208   2.0000      -0.458694       -12.4817
 209   2.0000      -0.457812       -12.4577
 210   2.0000      -0.454966       -12.3802
 211   2.0000      -0.454589       -12.3700
 212   2.0000      -0.452334       -12.3086
 213   2.0000      -0.450550       -12.2601
 214   2.0000      -0.449485       -12.2311
 215   2.0000      -0.448141       -12.1945
 216   2.0000      -0.447793       -12.1851
 217   2.0000      -0.444565       -12.0972
 218   2.0000      -0.442248       -12.0342
 219   2.0000      -0.439673       -11.9641
 220   2.0000      -0.438467       -11.9313
 221   2.0000      -0.438072       -11.9205
 222   2.0000      -0.437624       -11.9084
 223   2.0000      -0.435292       -11.8449
 224   2.0000      -0.431792       -11.7497
 225   2.0000      -0.429953       -11.6996
 226   2.0000      -0.426160       -11.5964
 227   2.0000      -0.424273       -11.5451
 228   2.0000      -0.421009       -11.4562
 229   2.0000      -0.418512       -11.3883
 230   2.0000      -0.415373       -11.3029
 231   2.0000      -0.414730       -11.2854
 232   2.0000      -0.409040       -11.1305
 233   2.0000      -0.404080       -10.9956
 234   2.0000      -0.395581       -10.7643
 235   2.0000      -0.391644       -10.6572
 236   2.0000      -0.389059       -10.5868
 237   2.0000      -0.388054       -10.5595
 238   2.0000      -0.387258       -10.5378
 239   2.0000      -0.384657       -10.4670
 240   2.0000      -0.381797       -10.3892
 241   2.0000      -0.359981        -9.7956
 242   2.0000      -0.351674        -9.5695
 243   2.0000      -0.345607        -9.4045
 244   2.0000      -0.344501        -9.3743
 245   2.0000      -0.343880        -9.3575
 246   2.0000      -0.342629        -9.3234
 247   2.0000      -0.338996        -9.2246
 248   2.0000      -0.336194        -9.1483
 249   2.0000      -0.329389        -8.9631
 250   2.0000      -0.321934        -8.7603
 251   2.0000      -0.319381        -8.6908
 252   2.0000      -0.313397        -8.5280
 253   2.0000      -0.310377        -8.4458
 254   2.0000      -0.306087        -8.3290
 255   2.0000      -0.301520        -8.2048
 256   2.0000      -0.238520        -6.4905
 257   0.0000      -0.103259        -2.8098
 258   0.0000      -0.094096        -2.5605
 259   0.0000      -0.079313        -2.1582
 260   0.0000      -0.058099        -1.5809
 261   0.0000      -0.051094        -1.3903

MULLIKEN ATOMIC CHARGES
-----------------------
   0 C :    0.032195
   1 C :   -0.126822
   2 S :    0.192991
   3 C :   -0.168132
   4 Cl:    0.004249
   5 C :    0.073007
   6 C :    0.144736
   7 O :   -0.122574
   8 C :   -0.090636
   9 C :    0.281217
  10 C :   -0.317009
  11 C :   -0.191611
  12 N :    0.159323
  13 C :   -0.198506
  14 N :    0.169486
  15 C :   -0.030586
  16 C :    0.057955
  17 C :   -0.044099
  18 C :    0.128764
  19 N :    0.254547
  20 O :   -0.227676
  21 O :   -0.235122
  22 C :    0.085161
  23 C :   -0.042579
  24 C :    0.111868
  25 C :   -0.079612
  26 C :    0.052699
  27 C :    0.103883
  28 N :   -0.260524
  29 C :    0.096354
  30 C :   -0.002576
  31 C :    0.146695
  32 O :   -0.198017
  33 C :   -0.042032
  34 C :   -0.049218
  35 C :    0.160763
  36 O :   -0.220883
  37 N :   -0.263047
  38 C :    0.097983
  39 C :    0.009460
  40 C :    0.108330
  41 C :   -0.017950
  42 C :   -0.004135
  43 C :    0.115173
  44 C :   -0.145527
  45 S :    0.171564
  46 C :   -0.080758
  47 C :   -0.029954
  48 C :    0.233778
  49 O :   -0.190318
  50 O :   -0.236189
  51 C :    0.171205
  52 C :    0.016638
  53 C :    0.011635
  54 C :   -0.128036
  55 C :    0.137996
  56 O :   -0.131271
  57 C :    0.086483
  58 C :   -0.171959
  59 S :    0.184490
  60 C :   -0.129852
  61 C :    0.017000
  62 C :    0.286234
  63 C :   -0.326548
  64 C :   -0.186513
  65 N :    0.151769
  66 C :   -0.210264
  67 N :    0.173038
  68 Cl:   -0.000230
  69 H :    0.055807
  70 H :    0.039346
  71 H :    0.007035
  72 H :    0.008139
  73 H :   -0.002768
  74 H :    0.045819
  75 H :   -0.003547
  76 H :    0.041065
  77 H :    0.022391
  78 H :    0.020195
  79 H :    0.020599
  80 H :    0.031518
  81 H :    0.039728
  82 H :    0.036070
  83 H :    0.023248
  84 H :    0.021170
  85 H :    0.017170
  86 H :   -0.007028
  87 H :    0.003523
  88 H :    0.048126
  89 H :    0.052595
  90 H :    0.046848
  91 H :    0.028568
  92 H :    0.022582
  93 H :    0.053897
Sum of atomic charges:   -0.0000000

LOEWDIN ATOMIC CHARGES
----------------------
   0 C :   -0.060247
   1 C :   -0.147597
   2 S :    0.481899
   3 C :   -0.270990
   4 Cl:    0.195925
   5 C :   -0.117844
   6 C :    0.080768
   7 O :   -0.119943
   8 C :   -0.080478
   9 C :    0.073864
  10 C :   -0.130387
  11 C :   -0.015320
  12 N :   -0.045930
  13 C :   -0.026019
  14 N :   -0.039844
  15 C :    0.079725
  16 C :   -0.040248
  17 C :    0.023844
  18 C :   -0.030301
  19 N :    0.287865
  20 O :   -0.195299
  21 O :   -0.190630
  22 C :    0.010960
  23 C :   -0.001067
  24 C :    0.042566
  25 C :    0.007209
  26 C :   -0.015545
  27 C :    0.078847
  28 N :   -0.000932
  29 C :    0.035704
  30 C :   -0.063296
  31 C :    0.079208
  32 O :   -0.200127
  33 C :   -0.115377
  34 C :   -0.125580
  35 C :    0.082836
  36 O :   -0.204747
  37 N :   -0.000943
  38 C :    0.035011
  39 C :   -0.061664
  40 C :    0.073261
  41 C :   -0.023850
  42 C :   -0.007101
  43 C :   -0.045199
  44 C :   -0.171407
  45 S :    0.498673
  46 C :   -0.141694
  47 C :   -0.115287
  48 C :    0.123589
  49 O :   -0.153909
  50 O :   -0.032564
  51 C :    0.116676
  52 C :   -0.064454
  53 C :    0.075092
  54 C :   -0.096552
  55 C :    0.080173
  56 O :   -0.135447
  57 C :   -0.117947
  58 C :   -0.272991
  59 S :    0.473767
  60 C :   -0.151889
  61 C :   -0.057643
  62 C :    0.072466
  63 C :   -0.138019
  64 C :   -0.015904
  65 N :   -0.050697
  66 C :   -0.025928
  67 N :   -0.047752
  68 Cl:    0.191565
  69 H :    0.038567
  70 H :    0.049152
  71 H :    0.042475
  72 H :    0.043975
  73 H :    0.037245
  74 H :    0.043753
  75 H :    0.029240
  76 H :    0.036040
  77 H :    0.022840
  78 H :    0.028903
  79 H :    0.030697
  80 H :    0.024438
  81 H :    0.036184
  82 H :    0.025664
  83 H :    0.030227
  84 H :    0.031235
  85 H :    0.021304
  86 H :    0.040891
  87 H :    0.029533
  88 H :    0.031298
  89 H :    0.035543
  90 H :    0.031970
  91 H :    0.039960
  92 H :    0.046544
  93 H :    0.037418

  Mayer bond orders larger than 0.100000
B(  0-C ,  1-C ) :   1.5410 B(  0-C ,  5-C ) :   1.2198 B(  0-C ,  9-C ) :   1.0058
B(  1-C ,  2-S ) :   1.1657 B(  1-C , 69-H ) :   0.9542 B(  2-S ,  3-C ) :   1.1545
B(  3-C ,  4-Cl) :   1.1317 B(  3-C ,  5-C ) :   1.4747 B(  5-C ,  6-C ) :   0.9535
B(  6-C ,  7-O ) :   2.2453 B(  6-C ,  8-C ) :   0.9193 B(  8-C ,  9-C ) :   1.0416
B(  8-C , 15-C ) :   1.7076 B(  9-C , 10-C ) :   1.6769 B( 10-C , 11-C ) :   1.1409
B( 10-C , 13-C ) :   1.1325 B( 11-C , 12-N ) :   2.9936 B( 13-C , 14-N ) :   2.9901
B( 15-C , 16-C ) :   1.0470 B( 15-C , 70-H ) :   0.9484 B( 16-C , 17-C ) :   1.3105
B( 16-C , 24-C ) :   1.3147 B( 17-C , 18-C ) :   1.3637 B( 17-C , 71-H ) :   0.9972
B( 18-C , 19-N ) :   0.8790 B( 18-C , 22-C ) :   1.3691 B( 19-N , 20-O ) :   1.5621
B( 19-N , 21-O ) :   1.5032 B( 20-O , 21-O ) :   0.2619 B( 22-C , 23-C ) :   1.3286
B( 22-C , 25-C ) :   1.0256 B( 23-C , 24-C ) :   1.4218 B( 23-C , 72-H ) :   0.9956
B( 24-C , 73-H ) :   0.9851 B( 25-C , 26-C ) :   1.7087 B( 25-C , 74-H ) :   0.9265
B( 26-C , 27-C ) :   1.1378 B( 26-C , 75-H ) :   0.9522 B( 27-C , 28-N ) :   1.1745
B( 27-C , 34-C ) :   1.3447 B( 28-N , 29-C ) :   0.9410 B( 28-N , 31-C ) :   1.0344
B( 29-C , 30-C ) :   1.1207 B( 29-C , 76-H ) :   0.9281 B( 29-C , 77-H ) :   0.9495
B( 30-C , 78-H ) :   0.9617 B( 30-C , 79-H ) :   0.9654 B( 30-C , 80-H ) :   0.9626
B( 31-C , 32-O ) :   2.1237 B( 31-C , 33-C ) :   0.9810 B( 33-C , 34-C ) :   1.2321
B( 33-C , 40-C ) :   1.3555 B( 34-C , 35-C ) :   0.9900 B( 35-C , 36-O ) :   2.0051
B( 35-C , 37-N ) :   1.0677 B( 36-O , 74-H ) :   0.1134 B( 37-N , 38-C ) :   0.9387
B( 37-N , 40-C ) :   1.1643 B( 38-C , 39-C ) :   1.1186 B( 38-C , 81-H ) :   0.9224
B( 38-C , 82-H ) :   0.9505 B( 39-C , 83-H ) :   0.9613 B( 39-C , 84-H ) :   0.9678
B( 39-C , 85-H ) :   0.9675 B( 40-C , 41-C ) :   1.1689 B( 41-C , 42-C ) :   1.6122
B( 41-C , 86-H ) :   0.9496 B( 42-C , 43-C ) :   1.0964 B( 42-C , 87-H ) :   0.9631
B( 43-C , 44-C ) :   1.5414 B( 43-C , 47-C ) :   1.2114 B( 44-C , 45-S ) :   1.1752
B( 44-C , 88-H ) :   0.9520 B( 45-S , 46-C ) :   1.2296 B( 46-C , 47-C ) :   1.5067
B( 46-C , 89-H ) :   0.9626 B( 47-C , 48-C ) :   0.9825 B( 48-C , 49-O ) :   2.0658
B( 48-C , 50-O ) :   1.1005 B( 50-O , 51-C ) :   1.0685 B( 51-C , 52-C ) :   1.6868
B( 51-C , 90-H ) :   0.9720 B( 52-C , 53-C ) :   1.1250 B( 52-C , 91-H ) :   0.9480
B( 53-C , 54-C ) :   1.6669 B( 53-C , 92-H ) :   0.9445 B( 54-C , 55-C ) :   0.9373
B( 54-C , 62-C ) :   1.0300 B( 55-C , 56-O ) :   2.2722 B( 55-C , 57-C ) :   0.9298
B( 57-C , 58-C ) :   1.4843 B( 57-C , 61-C ) :   1.2224 B( 58-C , 59-S ) :   1.1501
B( 58-C , 68-Cl) :   1.1288 B( 59-S , 60-C ) :   1.1601 B( 60-C , 61-C ) :   1.5492
B( 60-C , 93-H ) :   0.9553 B( 61-C , 62-C ) :   1.0116 B( 62-C , 63-C ) :   1.6577
B( 63-C , 64-C ) :   1.1324 B( 63-C , 66-C ) :   1.1550 B( 64-C , 65-N ) :   2.9976
B( 66-C , 67-N ) :   3.0131

-----------------------------------------------------------------------------
         ABSORPTION SPECTRUM VIA TRANSITION ELECTRIC DIPOLE MOMENTS
-----------------------------------------------------------------------------
State   Energy  Wavelength   fosc         T2         TX        TY        TZ
        (cm-1)    (nm)                  (au**2)     (au)      (au)      (au)
-----------------------------------------------------------------------------
   0   16363.8    611.1   0.724827009  14.58228  -1.06357   3.43107   1.29571
   1   20717.2    482.7   0.189159520   3.00589   0.39557   0.77275   1.50076
   2   21874.3    457.2   0.001440346   0.02168   0.08809   0.03572   0.11244
   3   25200.1    396.8   0.052292062   0.68314   0.35448  -0.50719  -0.54794
   4   26108.0    383.0   0.280797969   3.54076  -0.95533   1.60667  -0.21615
   5   26936.0    371.2   0.001832902   0.02240   0.08195  -0.10214  -0.07248
   6   27487.8    363.8   0.467185375   5.59533  -0.14224   1.99688   1.25999
   7   28469.2    351.3   0.039279709   0.45422   0.17042  -0.55893  -0.33582
   8   29234.7    342.1   0.064544749   0.72684  -0.41274   0.74592  -0.00909
   9   29425.1    339.8   0.057001856   0.63775   0.49725  -0.55855  -0.28020
  10   29698.7    336.7   0.101635662   1.12664  -0.06367   0.57279   0.89134
  11   29898.2    334.5   0.009231226   0.10165   0.02745   0.23244   0.21648
  12   30419.4    328.7   0.094213067   1.01961   0.43728  -0.76065  -0.49982
  13   30483.8    328.0   0.407764619   4.40368   0.98967  -1.58740   0.95100
  14   30740.0    325.3   0.070345537   0.75337  -0.47385   0.72634  -0.03555
  15   32365.3    309.0   0.115748573   1.17737   0.04957  -1.07341  -0.15070
  16   32757.4    305.3   0.020692732   0.20796   0.23748  -0.36741  -0.12875
  17   33229.7    300.9   0.025578873   0.25341   0.11423  -0.49015   0.01106
  18   33366.8    299.7   0.007131854   0.07037   0.10454  -0.24319   0.01725
  19   33526.0    298.3   0.115051362   1.12976   0.29873  -0.48810  -0.89570
  20   33709.4    296.7   0.006331882   0.06184  -0.11407  -0.03345   0.21842
  21   33972.3    294.4   0.049170018   0.47649  -0.45103  -0.23204  -0.46820
  22   34697.2    288.2   0.121571261   1.15348  -0.41321   0.33961  -0.93135
  23   34764.8    287.6   0.061161409   0.57918  -0.18360   0.21255  -0.70731
  24   35128.7    284.7   0.001507536   0.01413   0.04751  -0.04543  -0.09903
  25   35736.6    279.8   0.034069863   0.31386  -0.11875   0.38877   0.38550
  26   36074.2    277.2   0.343721929   3.13679   0.61799  -0.35073   1.62230
  27   36111.0    276.9   0.192209138   1.75231   0.03557   0.23758   1.30177
  28   36823.8    271.6   0.585002460   5.23003  -0.28725  -0.05940  -2.26804
  29   37131.9    269.3   0.480495533   4.26008   0.04713   0.34287   2.03477
  30   37429.4    267.2   0.305877029   2.69035  -0.85760   1.21451  -0.69271
  31   38180.0    261.9   0.071404603   0.61570   0.31066  -0.53879   0.47842
  32   38316.6    261.0   0.014879138   0.12784  -0.11717   0.26176  -0.21353
  33   38578.6    259.2   0.327747167   2.79684  -0.05385   0.19192   1.66045
  34   38750.3    258.1   0.011524768   0.09791   0.20779   0.16944  -0.16132
  35   39126.0    255.6   0.006163793   0.05186  -0.03189  -0.11619   0.19325
  36   39279.8    254.6   0.180184911   1.51016   0.10849  -0.55455   1.09127
  37   39455.7    253.4   0.059093065   0.49306  -0.31899   0.55499  -0.28862
  38   39701.8    251.9   0.018837010   0.15620  -0.11698   0.17169  -0.33621
  39   40080.0    249.5   0.074721408   0.61375  -0.42761   0.58569  -0.29642
  40   40326.9    248.0   0.000229420   0.00187  -0.02868   0.03203   0.00497

FINAL SINGLE POINT ENERGY     -4977.889560028448

DIPOLE MOMENT
-------------
                                X             Y             Z
Electronic contribution:    -27.15898       1.38605     -65.49560
Nuclear contribution   :     27.29276      -1.62453      63.38241
                        -----------------------------------------
Total Dipole Moment    :      0.13378      -0.23848      -2.11319
                        -----------------------------------------
Magnitude (a.u.)       :      2.13080
Magnitude (Debye)      :      5.41607

Rotational constants in cm-1:     0.001102     0.000218     0.000184
Rotational constants in MHz :    33.034615     6.544548     5.528513

                             ****ORCA TERMINATED NORMALLY****
TOTAL RUN TIME: 0 days 0 hours 8 minutes 28 seconds 612 msec
