                         Program Version 4.2.0 -  RELEASE  -
|  1> # ORCA input file
|  2> # SCF done       -182.828362166663          0.000353789824
|  3> ! CAM-B3LYP def2-SVP def2/J RIJCOSX Grid4 TightSCF
|  4> %maxcore 5000
|  5> %tddft
|  6>     Mode sTDDFT
|  7>     Ethresh 5.0
|  8>     maxcore 5000
|  9> end
| 10>
| 11> %pal
| 12>   nprocs 6
| 13>   end
| 14> * xyz 0 1
| 15>    C        3.72825         4.96567         2.28429
| 16>    C        3.61060         6.21285         2.83718
| 17>    C        4.60720         7.20607         2.74364
| 18>    N        5.38479         8.04789         2.68473
| 19>    C        2.52523         6.60619         3.64761
| 20>    N        1.68370         6.94572         4.35071
| 21>    C        4.93888         4.40895         1.69521
| 22>    C        4.84722         2.98582         1.73267
| 23>    C        5.86664         2.19158         1.29176
| 24>    C        7.03735         2.79377         0.77839
| 25>    C        7.12627         4.21534         0.72134
| 26>    C        6.05755         5.01380         1.18860
| 27>    C        8.29803         4.80234         0.20195
| 28>    C        9.33549         4.02500        -0.23572
| 29>    C        9.24816         2.62592        -0.17729
| 30>    C        8.12383         2.02356         0.31859
| 31>    C        3.54092         2.59079         2.28926
| 32>    O        3.12878         1.47976         2.51923
| 33>    C        2.78690         3.87341         2.44669
| 34>    C        1.44145         3.86209         2.59993
| 35>    C        0.52690         4.92873         2.38260
| 36>    S        0.77249         6.20061         1.19613
| 37>    C       -0.69391         5.11745         2.98262
| 38>    C       -1.47614         4.43994         4.03048
| 39>    O       -1.25404         3.42402         4.63630
| 40>    N       -2.61135         5.23017         4.17801
| 41>    C       -3.64336         4.94700         5.15270
| 42>    C       -3.33350         5.60872         6.49067
| 43>    C       -2.63652         6.34226         3.34987
| 44>    O       -3.53367         7.15513         3.33130
| 45>    C       -1.39526         6.26821         2.56318
| 46>    C       -0.74969         6.98220         1.56904
| 47>    C       -1.11408         8.15388         0.86057
| 48>    C       -2.22277         8.87744         1.14659
| 49>    C       -2.59517        10.04627         0.43877
| 50>    N       -3.70154        10.80373         0.86056
| 51>    C       -3.77960        11.81934        -0.01049
| 52>    N       -4.44608        12.93040        -0.36849
| 53>    C       -3.78342        13.39112        -1.51554
| 54>    N       -2.76412        12.63479        -1.86445
| 55>    C       -2.72563        11.64613        -0.94627
| 56>    N       -2.01398        10.54762        -0.63499
| 57>    C       -4.20216        14.55354        -2.21521
| 58>    S       -5.47223        15.57876        -1.61101
| 59>    C       -5.34310        16.63891        -2.98403
| 60>    C       -4.34706        16.18470        -3.84970
| 61>    C       -3.70345        15.01723        -3.41107
| 62>    C       -4.02415        16.85724        -5.04291
| 63>    N       -3.75148        17.40632        -6.01135
| 64>    C       -6.16860        17.77231        -3.16177
| 65>    C       -7.01537        18.25081        -2.21463
| 66>    C       -7.86891        19.37343        -2.36272
| 67>    C       -8.47642        19.80666        -3.50596
| 68>    C       -9.29348        21.00201        -3.61371
| 69>    C       -9.22651        22.09614        -2.79125
| 70>    C      -10.01862        23.25168        -2.95143
| 71>    N      -10.64359        24.21158        -3.02812
| 72>    C       -8.33390        22.22632        -1.70652
| 73>    N       -7.62266        22.40487        -0.82280
| 74>    C      -10.12641        20.87052        -4.80057
| 75>    C       -9.76675        19.66646        -5.47054
| 76>    C       -8.68553        18.98875        -4.73352
| 77>    O       -8.14473        17.94959        -5.04471
| 78>    C      -10.38565        19.26931        -6.62070
| 79>    C      -11.41473        20.07265        -7.16115
| 80>    C      -11.78372        21.27647        -6.49370
| 81>    C      -11.12234        21.66358        -5.30559
| 82>    C      -12.81700        22.06550        -7.03860
| 83>    C      -13.45642        21.68567        -8.18723
| 84>    C      -13.09214        20.50065        -8.84376
| 85>    C      -12.09215        19.71209        -8.34248
| 86>    H        5.78288         1.11593         1.33684
| 87>    H        6.14426         6.08745         1.12628
| 88>    H        8.36179         5.87978         0.16248
| 89>    H       10.23013         4.48407        -0.62878
| 90>    H       10.07623         2.02794        -0.52715
| 91>    H        8.05121         0.94691         0.36600
| 92>    H        0.99270         2.91360         2.88099
| 93>    H       -3.69261         3.86160         5.26730
| 94>    H       -4.58722         5.32184         4.74938
| 95>    H       -2.38529         5.24371         6.87797
| 96>    H       -4.11726         5.37692         7.20622
| 97>    H       -3.27388         6.68808         6.37174
| 98>    H       -0.46296         8.48265         0.06376
| 99>    H       -2.87432         8.57386         1.95427
|100>    H       -4.27725        10.59162         1.65924
|101>    H       -5.24886        13.36305         0.05865
|102>    H       -2.91070        14.51687        -3.93540
|103>    H       -6.05904        18.28168        -4.10817
|104>    H       -7.00277        17.78978        -1.23306
|105>    H       -8.10189        19.89710        -1.44220
|106>    H      -10.09374        18.35288        -7.11178
|107>    H      -11.42835        22.57551        -4.81756
|108>    H      -13.09273        22.97782        -6.53034
|109>    H      -14.24687        22.29677        -8.59645
|110>    H      -13.60798        20.21551        -9.74842
|111>    H      -11.80699        18.79875        -8.84377
|112> *
|113>
|114>                          ****END OF INPUT****

CARTESIAN COORDINATES (ANGSTROEM)
---------------------------------
  C      3.728250    4.965670    2.284290
  C      3.610600    6.212850    2.837180
  C      4.607200    7.206070    2.743640
  N      5.384790    8.047890    2.684730
  C      2.525230    6.606190    3.647610
  N      1.683700    6.945720    4.350710
  C      4.938880    4.408950    1.695210
  C      4.847220    2.985820    1.732670
  C      5.866640    2.191580    1.291760
  C      7.037350    2.793770    0.778390
  C      7.126270    4.215340    0.721340
  C      6.057550    5.013800    1.188600
  C      8.298030    4.802340    0.201950
  C      9.335490    4.025000   -0.235720
  C      9.248160    2.625920   -0.177290
  C      8.123830    2.023560    0.318590
  C      3.540920    2.590790    2.289260
  O      3.128780    1.479760    2.519230
  C      2.786900    3.873410    2.446690
  C      1.441450    3.862090    2.599930
  C      0.526900    4.928730    2.382600
  S      0.772490    6.200610    1.196130
  C     -0.693910    5.117450    2.982620
  C     -1.476140    4.439940    4.030480
  O     -1.254040    3.424020    4.636300
  N     -2.611350    5.230170    4.178010
  C     -3.643360    4.947000    5.152700
  C     -3.333500    5.608720    6.490670
  C     -2.636520    6.342260    3.349870
  O     -3.533670    7.155130    3.331300
  C     -1.395260    6.268210    2.563180
  C     -0.749690    6.982200    1.569040
  C     -1.114080    8.153880    0.860570
  C     -2.222770    8.877440    1.146590
  C     -2.595170   10.046270    0.438770
  N     -3.701540   10.803730    0.860560
  C     -3.779600   11.819340   -0.010490
  N     -4.446080   12.930400   -0.368490
  C     -3.783420   13.391120   -1.515540
  N     -2.764120   12.634790   -1.864450
  C     -2.725630   11.646130   -0.946270
  N     -2.013980   10.547620   -0.634990
  C     -4.202160   14.553540   -2.215210
  S     -5.472230   15.578760   -1.611010
  C     -5.343100   16.638910   -2.984030
  C     -4.347060   16.184700   -3.849700
  C     -3.703450   15.017230   -3.411070
  C     -4.024150   16.857240   -5.042910
  N     -3.751480   17.406320   -6.011350
  C     -6.168600   17.772310   -3.161770
  C     -7.015370   18.250810   -2.214630
  C     -7.868910   19.373430   -2.362720
  C     -8.476420   19.806660   -3.505960
  C     -9.293480   21.002010   -3.613710
  C     -9.226510   22.096140   -2.791250
  C    -10.018620   23.251680   -2.951430
  N    -10.643590   24.211580   -3.028120
  C     -8.333900   22.226320   -1.706520
  N     -7.622660   22.404870   -0.822800
  C    -10.126410   20.870520   -4.800570
  C     -9.766750   19.666460   -5.470540
  C     -8.685530   18.988750   -4.733520
  O     -8.144730   17.949590   -5.044710
  C    -10.385650   19.269310   -6.620700
  C    -11.414730   20.072650   -7.161150
  C    -11.783720   21.276470   -6.493700
  C    -11.122340   21.663580   -5.305590
  C    -12.817000   22.065500   -7.038600
  C    -13.456420   21.685670   -8.187230
  C    -13.092140   20.500650   -8.843760
  C    -12.092150   19.712090   -8.342480
  H      5.782880    1.115930    1.336840
  H      6.144260    6.087450    1.126280
  H      8.361790    5.879780    0.162480
  H     10.230130    4.484070   -0.628780
  H     10.076230    2.027940   -0.527150
  H      8.051210    0.946910    0.366000
  H      0.992700    2.913600    2.880990
  H     -3.692610    3.861600    5.267300
  H     -4.587220    5.321840    4.749380
  H     -2.385290    5.243710    6.877970
  H     -4.117260    5.376920    7.206220
  H     -3.273880    6.688080    6.371740
  H     -0.462960    8.482650    0.063760
  H     -2.874320    8.573860    1.954270
  H     -4.277250   10.591620    1.659240
  H     -5.248860   13.363050    0.058650
  H     -2.910700   14.516870   -3.935400
  H     -6.059040   18.281680   -4.108170
  H     -7.002770   17.789780   -1.233060
  H     -8.101890   19.897100   -1.442200
  H    -10.093740   18.352880   -7.111780
  H    -11.428350   22.575510   -4.817560
  H    -13.092730   22.977820   -6.530340
  H    -14.246870   22.296770   -8.596450
  H    -13.607980   20.215510   -9.748420
  H    -11.806990   18.798750   -8.843770

 Total Charge           Charge          ....    0
 Multiplicity           Mult            ....    1
 Number of Electrons    NEL             ....  490
 Basis Dimension        Dim             .... 1132

ORBITAL ENERGIES
----------------

  NO   OCC          E(Eh)            E(eV)
   0   2.0000     -88.990972     -2421.5674
   1   2.0000     -88.982058     -2421.3249
   2   2.0000     -19.220787      -523.0242
   3   2.0000     -19.217377      -522.9314
   4   2.0000     -19.217225      -522.9273
   5   2.0000     -19.216709      -522.9132
   6   2.0000     -14.504109      -394.6769
   7   2.0000     -14.498474      -394.5235
   8   2.0000     -14.459636      -393.4667
   9   2.0000     -14.418617      -392.3505
  10   2.0000     -14.417398      -392.3173
  11   2.0000     -14.413832      -392.2203
  12   2.0000     -14.413357      -392.2074
  13   2.0000     -14.413062      -392.1993
  14   2.0000     -14.412645      -392.1880
  15   2.0000     -14.407401      -392.0453
  16   2.0000     -10.402960      -283.0789
  17   2.0000     -10.398983      -282.9707
  18   2.0000     -10.368879      -282.1515
  19   2.0000     -10.368779      -282.1488
  20   2.0000     -10.360558      -281.9251
  21   2.0000     -10.359097      -281.8854
  22   2.0000     -10.347866      -281.5797
  23   2.0000     -10.347284      -281.5639
  24   2.0000     -10.344722      -281.4942
  25   2.0000     -10.341020      -281.3935
  26   2.0000     -10.340942      -281.3913
  27   2.0000     -10.338706      -281.3305
  28   2.0000     -10.336980      -281.2835
  29   2.0000     -10.336850      -281.2800
  30   2.0000     -10.334247      -281.2092
  31   2.0000     -10.330783      -281.1149
  32   2.0000     -10.324507      -280.9441
  33   2.0000     -10.320579      -280.8372
  34   2.0000     -10.319496      -280.8078
  35   2.0000     -10.318693      -280.7859
  36   2.0000     -10.318098      -280.7697
  37   2.0000     -10.316550      -280.7276
  38   2.0000     -10.316251      -280.7195
  39   2.0000     -10.314198      -280.6636
  40   2.0000     -10.312425      -280.6153
  41   2.0000     -10.309280      -280.5298
  42   2.0000     -10.306247      -280.4472
  43   2.0000     -10.304853      -280.4093
  44   2.0000     -10.304565      -280.4015
  45   2.0000     -10.303260      -280.3660
  46   2.0000     -10.302099      -280.3344
  47   2.0000     -10.300045      -280.2785
  48   2.0000     -10.299990      -280.2770
  49   2.0000     -10.299702      -280.2692
  50   2.0000     -10.299332      -280.2591
  51   2.0000     -10.299221      -280.2560
  52   2.0000     -10.297436      -280.2075
  53   2.0000     -10.297415      -280.2069
  54   2.0000     -10.297199      -280.2010
  55   2.0000     -10.297098      -280.1983
  56   2.0000     -10.296431      -280.1801
  57   2.0000     -10.296225      -280.1745
  58   2.0000     -10.296130      -280.1719
  59   2.0000     -10.294888      -280.1381
  60   2.0000     -10.292039      -280.0606
  61   2.0000     -10.288555      -279.9658
  62   2.0000     -10.288136      -279.9544
  63   2.0000     -10.287767      -279.9444
  64   2.0000     -10.287522      -279.9377
  65   2.0000     -10.287052      -279.9249
  66   2.0000     -10.286334      -279.9054
  67   2.0000     -10.285798      -279.8908
  68   2.0000     -10.285579      -279.8848
  69   2.0000     -10.285111      -279.8721
  70   2.0000     -10.260914      -279.2137
  71   2.0000      -8.086420      -220.0427
  72   2.0000      -8.076770      -219.7801
  73   2.0000      -6.055624      -164.7819
  74   2.0000      -6.051665      -164.6742
  75   2.0000      -6.048577      -164.5901
  76   2.0000      -6.046219      -164.5260
  77   2.0000      -6.041885      -164.4081
  78   2.0000      -6.038783      -164.3236
  79   2.0000      -1.164785       -31.6954
  80   2.0000      -1.157694       -31.5025
  81   2.0000      -1.141321       -31.0569
  82   2.0000      -1.133109       -30.8335
  83   2.0000      -1.132112       -30.8063
  84   2.0000      -1.106203       -30.1013
  85   2.0000      -1.056103       -28.7380
  86   2.0000      -1.023121       -27.8405
  87   2.0000      -1.022414       -27.8213
  88   2.0000      -1.016844       -27.6697
  89   2.0000      -1.012463       -27.5505
  90   2.0000      -1.007590       -27.4179
  91   2.0000      -1.000775       -27.2325
  92   2.0000      -0.997474       -27.1426
  93   2.0000      -0.995362       -27.0852
  94   2.0000      -0.992157       -26.9980
  95   2.0000      -0.991864       -26.9900
  96   2.0000      -0.974022       -26.5045
  97   2.0000      -0.971474       -26.4352
  98   2.0000      -0.968106       -26.3435
  99   2.0000      -0.936229       -25.4761
 100   2.0000      -0.930939       -25.3321
 101   2.0000      -0.922464       -25.1015
 102   2.0000      -0.919823       -25.0297
 103   2.0000      -0.910009       -24.7626
 104   2.0000      -0.902023       -24.5453
 105   2.0000      -0.896202       -24.3869
 106   2.0000      -0.888182       -24.1687
 107   2.0000      -0.883710       -24.0470
 108   2.0000      -0.880493       -23.9594
 109   2.0000      -0.878259       -23.8986
 110   2.0000      -0.870720       -23.6935
 111   2.0000      -0.850954       -23.1556
 112   2.0000      -0.836934       -22.7741
 113   2.0000      -0.831731       -22.6326
 114   2.0000      -0.830454       -22.5978
 115   2.0000      -0.827787       -22.5252
 116   2.0000      -0.817686       -22.2504
 117   2.0000      -0.798045       -21.7159
 118   2.0000      -0.788055       -21.4441
 119   2.0000      -0.771314       -20.9885
 120   2.0000      -0.763777       -20.7834
 121   2.0000      -0.760594       -20.6968
 122   2.0000      -0.754209       -20.5231
 123   2.0000      -0.751056       -20.4373
 124   2.0000      -0.743090       -20.2205
 125   2.0000      -0.739608       -20.1258
 126   2.0000      -0.717401       -19.5215
 127   2.0000      -0.708258       -19.2727
 128   2.0000      -0.706098       -19.2139
 129   2.0000      -0.703815       -19.1518
 130   2.0000      -0.703013       -19.1300
 131   2.0000      -0.700909       -19.0727
 132   2.0000      -0.700181       -19.0529
 133   2.0000      -0.697522       -18.9805
 134   2.0000      -0.692472       -18.8431
 135   2.0000      -0.679821       -18.4989
 136   2.0000      -0.676071       -18.3968
 137   2.0000      -0.671344       -18.2682
 138   2.0000      -0.668340       -18.1865
 139   2.0000      -0.657218       -17.8838
 140   2.0000      -0.649692       -17.6790
 141   2.0000      -0.644087       -17.5265
 142   2.0000      -0.634745       -17.2723
 143   2.0000      -0.632035       -17.1985
 144   2.0000      -0.622650       -16.9432
 145   2.0000      -0.612154       -16.6576
 146   2.0000      -0.609778       -16.5929
 147   2.0000      -0.607213       -16.5231
 148   2.0000      -0.605350       -16.4724
 149   2.0000      -0.601116       -16.3572
 150   2.0000      -0.590208       -16.0604
 151   2.0000      -0.586296       -15.9539
 152   2.0000      -0.585020       -15.9192
 153   2.0000      -0.582282       -15.8447
 154   2.0000      -0.575535       -15.6611
 155   2.0000      -0.563311       -15.3285
 156   2.0000      -0.562613       -15.3095
 157   2.0000      -0.560318       -15.2470
 158   2.0000      -0.553298       -15.0560
 159   2.0000      -0.552351       -15.0302
 160   2.0000      -0.549432       -14.9508
 161   2.0000      -0.548203       -14.9174
 162   2.0000      -0.546634       -14.8747
 163   2.0000      -0.546236       -14.8638
 164   2.0000      -0.541333       -14.7304
 165   2.0000      -0.538680       -14.6582
 166   2.0000      -0.537633       -14.6297
 167   2.0000      -0.535965       -14.5844
 168   2.0000      -0.533027       -14.5044
 169   2.0000      -0.530906       -14.4467
 170   2.0000      -0.527462       -14.3530
 171   2.0000      -0.521817       -14.1994
 172   2.0000      -0.521055       -14.1786
 173   2.0000      -0.520228       -14.1561
 174   2.0000      -0.517500       -14.0819
 175   2.0000      -0.515128       -14.0173
 176   2.0000      -0.514135       -13.9903
 177   2.0000      -0.513488       -13.9727
 178   2.0000      -0.512089       -13.9347
 179   2.0000      -0.511410       -13.9162
 180   2.0000      -0.507063       -13.7979
 181   2.0000      -0.503302       -13.6955
 182   2.0000      -0.500987       -13.6325
 183   2.0000      -0.496713       -13.5163
 184   2.0000      -0.494861       -13.4659
 185   2.0000      -0.493200       -13.4207
 186   2.0000      -0.488972       -13.3056
 187   2.0000      -0.488381       -13.2895
 188   2.0000      -0.485926       -13.2227
 189   2.0000      -0.483568       -13.1585
 190   2.0000      -0.477199       -12.9853
 191   2.0000      -0.474566       -12.9136
 192   2.0000      -0.471012       -12.8169
 193   2.0000      -0.467422       -12.7192
 194   2.0000      -0.464489       -12.6394
 195   2.0000      -0.464213       -12.6319
 196   2.0000      -0.454319       -12.3626
 197   2.0000      -0.452144       -12.3035
 198   2.0000      -0.450234       -12.2515
 199   2.0000      -0.447226       -12.1696
 200   2.0000      -0.447040       -12.1646
 201   2.0000      -0.445737       -12.1291
 202   2.0000      -0.443116       -12.0578
 203   2.0000      -0.442817       -12.0497
 204   2.0000      -0.441393       -12.0109
 205   2.0000      -0.440931       -11.9983
 206   2.0000      -0.439044       -11.9470
 207   2.0000      -0.437340       -11.9006
 208   2.0000      -0.434456       -11.8222
 209   2.0000      -0.433034       -11.7834
 210   2.0000      -0.432486       -11.7686
 211   2.0000      -0.431094       -11.7307
 212   2.0000      -0.429308       -11.6821
 213   2.0000      -0.428228       -11.6527
 214   2.0000      -0.426734       -11.6120
 215   2.0000      -0.425872       -11.5886
 216   2.0000      -0.421970       -11.4824
 217   2.0000      -0.418184       -11.3794
 218   2.0000      -0.417584       -11.3630
 219   2.0000      -0.416216       -11.3258
 220   2.0000      -0.407957       -11.1011
 221   2.0000      -0.406945       -11.0735
 222   2.0000      -0.395728       -10.7683
 223   2.0000      -0.391825       -10.6621
 224   2.0000      -0.388685       -10.5767
 225   2.0000      -0.378185       -10.2909
 226   2.0000      -0.376393       -10.2422
 227   2.0000      -0.369601       -10.0573
 228   2.0000      -0.361754        -9.8438
 229   2.0000      -0.358090        -9.7441
 230   2.0000      -0.356496        -9.7007
 231   2.0000      -0.352546        -9.5933
 232   2.0000      -0.349432        -9.5085
 233   2.0000      -0.346429        -9.4268
 234   2.0000      -0.341950        -9.3049
 235   2.0000      -0.338809        -9.2195
 236   2.0000      -0.336126        -9.1465
 237   2.0000      -0.332236        -9.0406
 238   2.0000      -0.319450        -8.6927
 239   2.0000      -0.316956        -8.6248
 240   2.0000      -0.309337        -8.4175
 241   2.0000      -0.296994        -8.0816
 242   2.0000      -0.294232        -8.0065
 243   2.0000      -0.282789        -7.6951
 244   2.0000      -0.248286        -6.7562
 245   0.0000      -0.105854        -2.8804
 246   0.0000      -0.099371        -2.7040
 247   0.0000      -0.066017        -1.7964
 248   0.0000      -0.059166        -1.6100
 249   0.0000      -0.056917        -1.5488

MULLIKEN ATOMIC CHARGES
-----------------------
   0 C :    0.249342
   1 C :   -0.321699
   2 C :   -0.176851
   3 N :    0.160317
   4 C :   -0.192327
   5 N :    0.167914
   6 C :    0.040980
   7 C :    0.009958
   8 C :   -0.083289
   9 C :    0.097909
  10 C :    0.097065
  11 C :   -0.082777
  12 C :   -0.020948
  13 C :    0.038549
  14 C :    0.037131
  15 C :   -0.018002
  16 C :    0.141033
  17 O :   -0.131005
  18 C :   -0.123229
  19 C :    0.044113
  20 C :   -0.228520
  21 S :    0.182665
  22 C :    0.102883
  23 C :    0.186135
  24 O :   -0.150843
  25 N :   -0.306091
  26 C :    0.131510
  27 C :   -0.007594
  28 C :    0.214698
  29 O :   -0.193478
  30 C :    0.006650
  31 C :   -0.113424
  32 C :    0.027958
  33 C :    0.030325
  34 C :    0.010611
  35 N :   -0.031048
  36 C :    0.014042
  37 N :   -0.049532
  38 C :    0.019226
  39 N :   -0.027386
  40 C :   -0.085334
  41 N :   -0.030287
  42 C :   -0.040258
  43 S :    0.113363
  44 C :   -0.080295
  45 C :   -0.021371
  46 C :   -0.002068
  47 C :   -0.187780
  48 N :    0.148070
  49 C :    0.105698
  50 C :   -0.028024
  51 C :    0.003395
  52 C :   -0.100412
  53 C :    0.289949
  54 C :   -0.334421
  55 C :   -0.181905
  56 N :    0.149344
  57 C :   -0.209627
  58 N :    0.159563
  59 C :    0.053552
  60 C :   -0.009656
  61 C :    0.150557
  62 O :   -0.148564
  63 C :   -0.074922
  64 C :    0.095248
  65 C :    0.094529
  66 C :   -0.081897
  67 C :   -0.016535
  68 C :    0.034692
  69 C :    0.037178
  70 C :   -0.014396
  71 H :   -0.008898
  72 H :   -0.002595
  73 H :   -0.008399
  74 H :   -0.004024
  75 H :   -0.004075
  76 H :   -0.015085
  77 H :    0.047167
  78 H :    0.034672
  79 H :    0.027809
  80 H :    0.032854
  81 H :    0.023443
  82 H :    0.026784
  83 H :    0.006390
  84 H :   -0.010202
  85 H :    0.144311
  86 H :    0.138789
  87 H :    0.019870
  88 H :    0.035253
  89 H :    0.000807
  90 H :    0.033938
  91 H :   -0.012824
  92 H :   -0.008890
  93 H :   -0.010296
  94 H :   -0.004366
  95 H :   -0.005266
  96 H :   -0.017525
Sum of atomic charges:   -0.0000000

LOEWDIN ATOMIC CHARGES
----------------------
   0 C :    0.061088
   1 C :   -0.134817
   2 C :   -0.018745
   3 N :   -0.046406
   4 C :   -0.029992
   5 N :   -0.048722
   6 C :   -0.023631
   7 C :   -0.057918
   8 C :    0.034137
   9 C :   -0.008440
  10 C :   -0.004785
  11 C :    0.017027
  12 C :   -0.006065
  13 C :   -0.011555
  14 C :   -0.011898
  15 C :   -0.008817
  16 C :    0.083954
  17 O :   -0.132581
  18 C :   -0.080831
  19 C :    0.053724
  20 C :   -0.157745
  21 S :    0.480077
  22 C :   -0.053557
  23 C :    0.091656
  24 O :   -0.151213
  25 N :   -0.028262
  26 C :    0.043381
  27 C :   -0.059062
  28 C :    0.099980
  29 O :   -0.177108
  30 C :   -0.101710
  31 C :   -0.107500
  32 C :   -0.035212
  33 C :   -0.006663
  34 C :    0.012477
  35 N :    0.068171
  36 C :   -0.001039
  37 N :    0.056753
  38 C :   -0.003589
  39 N :   -0.094069
  40 C :   -0.058342
  41 N :   -0.096659
  42 C :   -0.163730
  43 S :    0.439125
  44 C :   -0.146668
  45 C :   -0.077711
  46 C :   -0.008251
  47 C :   -0.029277
  48 N :   -0.038638
  49 C :    0.037258
  50 C :   -0.052095
  51 C :    0.064257
  52 C :   -0.089583
  53 C :    0.074469
  54 C :   -0.138627
  55 C :   -0.017564
  56 N :   -0.053187
  57 C :   -0.025441
  58 N :   -0.051907
  59 C :   -0.026080
  60 C :   -0.054861
  61 C :    0.083000
  62 O :   -0.138573
  63 C :    0.033158
  64 C :   -0.008332
  65 C :   -0.006198
  66 C :    0.019436
  67 C :   -0.005302
  68 C :   -0.013338
  69 C :   -0.012184
  70 C :   -0.009092
  71 H :    0.040333
  72 H :    0.039354
  73 H :    0.034962
  74 H :    0.033607
  75 H :    0.033287
  76 H :    0.032546
  77 H :    0.059552
  78 H :    0.033557
  79 H :    0.030615
  80 H :    0.031042
  81 H :    0.030422
  82 H :    0.028121
  83 H :    0.039458
  84 H :    0.030538
  85 H :    0.100386
  86 H :    0.089136
  87 H :    0.050691
  88 H :    0.049504
  89 H :    0.025942
  90 H :    0.046966
  91 H :    0.039178
  92 H :    0.038797
  93 H :    0.034489
  94 H :    0.033250
  95 H :    0.032769
  96 H :    0.031944

  Mayer bond orders larger than 0.100000
B(  0-C ,  1-C ) :   1.6686 B(  0-C ,  6-C ) :   1.0055 B(  0-C , 18-C ) :   1.0217
B(  1-C ,  2-C ) :   1.1336 B(  1-C ,  4-C ) :   1.1558 B(  2-C ,  3-N ) :   2.9929
B(  4-C ,  5-N ) :   3.0145 B(  6-C ,  7-C ) :   1.2120 B(  6-C , 11-C ) :   1.4528
B(  7-C ,  8-C ) :   1.4715 B(  7-C , 16-C ) :   0.9206 B(  8-C ,  9-C ) :   1.1857
B(  8-C , 71-H ) :   1.0171 B(  9-C , 10-C ) :   1.2548 B(  9-C , 15-C ) :   1.2431
B( 10-C , 11-C ) :   1.2045 B( 10-C , 12-C ) :   1.2390 B( 11-C , 72-H ) :   0.9950
B( 12-C , 13-C ) :   1.4912 B( 12-C , 73-H ) :   0.9984 B( 13-C , 14-C ) :   1.2592
B( 13-C , 74-H ) :   0.9880 B( 14-C , 15-C ) :   1.4897 B( 14-C , 75-H ) :   0.9886
B( 15-C , 76-H ) :   0.9986 B( 16-C , 17-O ) :   2.2885 B( 16-C , 18-C ) :   0.9245
B( 18-C , 19-C ) :   1.6909 B( 19-C , 20-C ) :   1.0946 B( 19-C , 77-H ) :   0.9440
B( 20-C , 21-S ) :   1.1123 B( 20-C , 22-C ) :   1.5105 B( 21-S , 31-C ) :   1.1387
B( 22-C , 23-C ) :   0.8841 B( 22-C , 30-C ) :   1.2807 B( 23-C , 24-O ) :   2.2024
B( 23-C , 25-N ) :   1.0663 B( 25-N , 26-C ) :   0.9191 B( 25-N , 28-C ) :   1.0980
B( 26-C , 27-C ) :   1.1272 B( 26-C , 78-H ) :   0.9404 B( 26-C , 79-H ) :   0.9416
B( 27-C , 80-H ) :   0.9685 B( 27-C , 81-H ) :   0.9703 B( 27-C , 82-H ) :   0.9684
B( 28-C , 29-O ) :   2.0643 B( 28-C , 30-C ) :   0.9063 B( 29-O , 84-H ) :   0.1127
B( 30-C , 31-C ) :   1.4651 B( 31-C , 32-C ) :   1.1242 B( 32-C , 33-C ) :   1.6764
B( 32-C , 83-H ) :   0.9745 B( 33-C , 34-C ) :   1.1202 B( 33-C , 84-H ) :   0.9137
B( 34-C , 35-N ) :   1.1159 B( 34-C , 41-N ) :   1.6546 B( 35-N , 36-C ) :   1.2647
B( 35-N , 85-H ) :   0.9194 B( 36-C , 37-N ) :   1.2471 B( 36-C , 40-C ) :   1.2150
B( 37-N , 38-C ) :   1.1538 B( 37-N , 86-H ) :   0.9140 B( 38-C , 39-N ) :   1.7253
B( 38-C , 42-C ) :   1.0522 B( 39-N , 40-C ) :   1.3951 B( 40-C , 41-N ) :   1.4200
B( 42-C , 43-S ) :   1.1154 B( 42-C , 46-C ) :   1.5016 B( 43-S , 44-C ) :   1.1037
B( 44-C , 45-C ) :   1.4350 B( 44-C , 49-C ) :   1.2326 B( 45-C , 46-C ) :   1.2549
B( 45-C , 47-C ) :   1.0980 B( 46-C , 87-H ) :   1.0176 B( 47-C , 48-N ) :   3.0238
B( 49-C , 50-C ) :   1.6205 B( 49-C , 88-H ) :   0.9395 B( 50-C , 51-C ) :   1.1887
B( 50-C , 89-H ) :   0.9559 B( 51-C , 52-C ) :   1.6086 B( 51-C , 90-H ) :   0.9478
B( 52-C , 53-C ) :   1.0580 B( 52-C , 61-C ) :   0.9378 B( 53-C , 54-C ) :   1.6481
B( 53-C , 59-C ) :   0.9948 B( 54-C , 55-C ) :   1.1427 B( 54-C , 57-C ) :   1.1362
B( 55-C , 56-N ) :   2.9701 B( 57-C , 58-N ) :   3.0070 B( 59-C , 60-C ) :   1.2103
B( 59-C , 66-C ) :   1.4520 B( 60-C , 61-C ) :   0.9491 B( 60-C , 63-C ) :   1.4744
B( 61-C , 62-O ) :   2.2104 B( 63-C , 64-C ) :   1.1809 B( 63-C , 91-H ) :   1.0158
B( 64-C , 65-C ) :   1.2572 B( 64-C , 70-C ) :   1.2431 B( 65-C , 66-C ) :   1.2036
B( 65-C , 67-C ) :   1.2419 B( 66-C , 92-H ) :   0.9915 B( 67-C , 68-C ) :   1.4885
B( 67-C , 93-H ) :   0.9973 B( 68-C , 69-C ) :   1.2594 B( 68-C , 94-H ) :   0.9890
B( 69-C , 70-C ) :   1.4894 B( 69-C , 95-H ) :   0.9890 B( 70-C , 96-H ) :   0.9978

-----------------------------------------------------------------------------
         ABSORPTION SPECTRUM VIA TRANSITION ELECTRIC DIPOLE MOMENTS
-----------------------------------------------------------------------------
State   Energy  Wavelength   fosc         T2         TX        TY        TZ
        (cm-1)    (nm)                  (au**2)     (au)      (au)      (au)
-----------------------------------------------------------------------------
   0   16553.0    604.1   2.090788245  41.58225   3.99149  -4.76184   1.72486
   1   19079.0    524.1   0.090764531   1.56616   0.13908   1.21855  -0.24889
   2   23947.9    417.6   0.083983560   1.15452   0.23521   0.43780  -0.95264
   3   25422.2    393.4   0.293733770   3.80379  -0.08849   1.84824  -0.61643
   4   25590.5    390.8   0.067631218   0.87005   0.29720   0.45145  -0.76021
   5   25929.6    385.7   0.125049949   1.58768   0.46557  -0.80184   0.85322
   6   27025.7    370.0   0.075860531   0.92409   0.82688   0.48744   0.05259
   7   27539.6    363.1   0.066200240   0.79137  -0.57765   0.66792   0.10759
   8   27875.9    358.7   0.036451184   0.43048   0.38198  -0.52948  -0.06501
   9   28726.9    348.1   0.023417502   0.26837   0.34930  -0.36755  -0.10613
  10   28888.4    346.2   0.113399559   1.29230  -0.72181   0.79338   0.37663
  11   29462.1    339.4   0.285184421   3.18667  -1.58286   0.24766  -0.78733
  12   29634.3    337.4   0.152442924   1.69351  -0.99575   0.68734   0.47912
  13   31717.4    315.3   0.027067135   0.28094  -0.41461  -0.30129   0.13515
  14   32026.5    312.2   0.081862133   0.84149  -0.52622   0.59279   0.46171
  15   32862.1    304.3   0.091521637   0.91686  -0.81901  -0.49564   0.02080
  16   33005.3    303.0   0.446082213   4.44946   1.46062   0.50867   1.43433
  17   33840.6    295.5   0.271829935   2.64445   1.31713  -0.45817   0.83648
  18   33900.3    295.0   0.558973497   5.42829   1.66461  -1.22768  -1.07246
  19   34280.3    291.7   0.191967422   1.84357  -0.88712   0.16686   1.01427
  20   34355.1    291.1   0.064309398   0.61625   0.58284  -0.10613  -0.51506
  21   34731.9    287.9   0.170355517   1.61474  -1.05454   0.35738   0.61235
  22   35010.5    285.6   0.016479474   0.15496  -0.17386   0.33928   0.09808
  23   35049.5    285.3   0.032083542   0.30135   0.43523   0.28654   0.17271
  24   35862.4    278.8   0.010588508   0.09720   0.24903  -0.18473   0.03253
  25   36119.9    276.9   0.048997577   0.44658  -0.10349   0.11061  -0.65088
  26   36256.8    275.8   0.056214822   0.51043  -0.12210  -0.00167   0.70393
  27   36477.8    274.1   0.024046900   0.21702   0.45962  -0.05251   0.05491
  28   36867.3    271.2   0.023347037   0.20848   0.34180  -0.15141  -0.26216
  29   37181.6    269.0   0.085396811   0.75612  -0.61593   0.55172   0.26898
  30   37641.6    265.7   0.028598215   0.25012  -0.38753  -0.27136  -0.16217
  31   37784.1    264.7   0.026346471   0.22956   0.13462  -0.36079   0.28506
  32   38340.9    260.8   0.126691227   1.08783   0.02460  -0.48695  -0.92201
  33   38569.3    259.3   0.016944265   0.14463   0.17353  -0.33840   0.00087
  34   38868.6    257.3   0.144176266   1.22115   0.39836   0.80426   0.64469
  35   39288.4    254.5   0.183289451   1.53585  -0.44766   0.45237   1.06340
  36   39524.8    253.0   0.022768818   0.18965  -0.27312   0.32725   0.08922
  37   39663.4    252.1   0.042251388   0.35069   0.16867   0.01531  -0.56746
  38   39799.5    251.3   0.044648109   0.36932  -0.37076  -0.36153   0.31804
  39   40081.3    249.5   0.210801021   1.73144   0.08060   1.25869  -0.37502

FINAL SINGLE POINT ENERGY     -3752.285912519889

DIPOLE MOMENT
-------------
                                X             Y             Z
Electronic contribution:      6.52368      11.65638      -0.91554
Nuclear contribution   :     -8.12667     -14.31024       0.34134
                        -----------------------------------------
Total Dipole Moment    :     -1.60299      -2.65385      -0.57421
                        -----------------------------------------
Magnitude (a.u.)       :      3.15313
Magnitude (Debye)      :      8.01462

Rotational constants in cm-1:     0.002027     0.000191     0.000184
Rotational constants in MHz :    60.756395     5.739461     5.510003

                             ****ORCA TERMINATED NORMALLY****
TOTAL RUN TIME: 0 days 0 hours 9 minutes 10 seconds 42 msec
