                         Program Version 4.2.0 -  RELEASE  -
|  1> # ORCA input file
|  2> # SCF done       -190.162702003892          0.000727821084
|  3> ! CAM-B3LYP def2-SVP def2/J RIJCOSX Grid4 TightSCF
|  4> %maxcore 5000
|  5> %tddft
|  6>     Mode sTDDFT
|  7>     Ethresh 5.0
|  8>     maxcore 5000
|  9> end
| 10>
| 11> %pal
| 12>   nprocs 6
| 13>   end
| 14> * xyz 0 1
| 15>    C        8.04307         2.59206         2.18793
| 16>    N        7.04351         3.05170         2.98564
| 17>    C        6.83309         2.69841         4.36705
| 18>    C        7.79335         3.44517         5.28893
| 19>    C        6.24070         3.99962         2.31187
| 20>    O        5.28405         4.54798         2.82672
| 21>    C        6.82871         4.08474         0.99851
| 22>    C        7.94739         3.19212         0.96333
| 23>    C        8.53923         3.27155        -0.35779
| 24>    O        9.49149         2.71966        -0.86054
| 25>    N        7.73674         4.21309        -1.03433
| 26>    C        7.97506         4.53641        -2.42016
| 27>    C        7.01116         3.80200        -3.34892
| 28>    C        6.71989         4.69702        -0.24342
| 29>    C        5.77152         5.65674        -0.68745
| 30>    C        4.77650         6.12097         0.10625
| 31>    C        3.82447         7.06575        -0.36007
| 32>    S        2.53051         7.68055         0.66424
| 33>    C        2.03114         8.60572        -0.74697
| 34>    N        2.80903         8.40062        -1.77693
| 35>    N        3.78194         7.56553        -1.56519
| 36>    C        0.89024         9.45117        -0.72603
| 37>    C        0.46488        10.10442        -1.83244
| 38>    C       -0.67710        10.94344        -1.90298
| 39>    S       -1.19032        11.54262        -3.44529
| 40>    C       -2.51481        12.39266        -2.72620
| 41>    C       -2.57671        12.21416        -1.36038
| 42>    C       -1.52522        11.39204        -0.88993
| 43>    O       -1.28559        11.04831         0.39451
| 44>    C       -1.73118        11.95619         1.39088
| 45>    C       -3.19878        11.76307         1.77348
| 46>    C       -4.10813        11.68208         0.54571
| 47>    C       -3.72485        12.70483        -0.52582
| 48>    C       -3.42319        13.14017        -3.56656
| 49>    C       -3.70302        14.51042        -3.39479
| 50>    C       -2.97816        15.34685        -2.42041
| 51>    O       -2.16802        15.00982        -1.60711
| 52>    S       -3.46820        17.05488        -2.63293
| 53>    C       -4.61491        16.66759        -3.96056
| 54>    O       -5.20847        17.52353        -4.54561
| 55>    C       -4.61200        15.20987        -4.19688
| 56>    C       -5.34032        14.58312        -5.23231
| 57>    C       -4.98012        13.24232        -5.45198
| 58>    C       -4.07569        12.55001        -4.65643
| 59>    C       -4.07478        11.14010        -5.11795
| 60>    O       -3.52738        10.18046        -4.67383
| 61>    O       -4.91695        11.07289        -6.20285
| 62>    C       -5.50024        12.28959        -6.45831
| 63>    O       -6.27678        12.45537        -7.34855
| 64>    C       -6.37823        15.17030        -6.03479
| 65>    C       -7.31105        16.04177        -5.60192
| 66>    C       -8.36760        16.53681        -6.41484
| 67>    C       -9.38931        17.36636        -6.02392
| 68>    C      -10.29710        17.69073        -7.04992
| 69>    C       -9.95545        17.09335        -8.26057
| 70>    S       -8.51882        16.13437        -8.10377
| 71>    C      -10.60427        17.18194        -9.51272
| 72>    C      -11.74596        17.89195        -9.86876
| 73>    C      -12.60643        18.74098        -9.04143
| 74>    O      -13.57533        19.30049        -9.51162
| 75>    N      -12.34875        18.93077        -7.69553
| 76>    C      -11.43030        18.56160        -6.72931
| 77>    O      -11.59795        18.98407        -5.60410
| 78>    C      -12.07396        17.73169       -11.23075
| 79>    C      -11.21644        16.91961       -11.92408
| 80>    S       -9.96119        16.32552       -10.87873
| 81>    C      -11.22915        16.53034       -13.30967
| 82>    C      -12.13058        16.93255       -14.20227
| 83>    H        8.74662         1.86336         2.54614
| 84>    H        6.95490         1.61760         4.48235
| 85>    H        5.80155         2.97208         4.60443
| 86>    H        8.82568         3.20539         5.04376
| 87>    H        7.60528         3.16720         6.32213
| 88>    H        7.65071         4.51789         5.18492
| 89>    H        9.00044         4.21904        -2.63046
| 90>    H        7.90296         5.61814        -2.56193
| 91>    H        7.11883         2.72760        -3.22079
| 92>    H        7.23428         4.05288        -4.38214
| 93>    H        5.98005         4.07579        -3.13739
| 94>    H        5.84242         6.03332        -1.69693
| 95>    H        4.67151         5.77470         1.12492
| 96>    H        0.35845         9.53613         0.20751
| 97>    H        1.01815         9.96804        -2.75171
| 98>    H       -1.55059        12.98163         1.05162
| 99>    H       -1.09189        11.76042         2.25613
|100>    H       -3.48957        12.60645         2.40210
|101>    H       -3.30883        10.84940         2.35930
|102>    H       -5.13989        11.84924         0.85907
|103>    H       -4.05380        10.68120         0.11194
|104>    H       -3.47409        13.66017        -0.05669
|105>    H       -4.57706        12.88273        -1.18660
|106>    H       -6.46109        14.77335        -7.03869
|107>    H       -7.32142        16.38928        -4.57887
|108>    H       -9.50377        17.74908        -5.02573
|109>    H      -13.05686        19.54164        -7.28776
|110>    H      -12.93080        18.21832       -11.65837
|111>    H      -10.43108        15.86277       -13.60633
|112>    H      -12.93691        17.59614       -13.94350
|113>    H      -12.08467        16.60512       -15.22564
|114> *
|115>
|116>                          ****END OF INPUT****

CARTESIAN COORDINATES (ANGSTROEM)
---------------------------------
  C      8.043070    2.592060    2.187930
  N      7.043510    3.051700    2.985640
  C      6.833090    2.698410    4.367050
  C      7.793350    3.445170    5.288930
  C      6.240700    3.999620    2.311870
  O      5.284050    4.547980    2.826720
  C      6.828710    4.084740    0.998510
  C      7.947390    3.192120    0.963330
  C      8.539230    3.271550   -0.357790
  O      9.491490    2.719660   -0.860540
  N      7.736740    4.213090   -1.034330
  C      7.975060    4.536410   -2.420160
  C      7.011160    3.802000   -3.348920
  C      6.719890    4.697020   -0.243420
  C      5.771520    5.656740   -0.687450
  C      4.776500    6.120970    0.106250
  C      3.824470    7.065750   -0.360070
  S      2.530510    7.680550    0.664240
  C      2.031140    8.605720   -0.746970
  N      2.809030    8.400620   -1.776930
  N      3.781940    7.565530   -1.565190
  C      0.890240    9.451170   -0.726030
  C      0.464880   10.104420   -1.832440
  C     -0.677100   10.943440   -1.902980
  S     -1.190320   11.542620   -3.445290
  C     -2.514810   12.392660   -2.726200
  C     -2.576710   12.214160   -1.360380
  C     -1.525220   11.392040   -0.889930
  O     -1.285590   11.048310    0.394510
  C     -1.731180   11.956190    1.390880
  C     -3.198780   11.763070    1.773480
  C     -4.108130   11.682080    0.545710
  C     -3.724850   12.704830   -0.525820
  C     -3.423190   13.140170   -3.566560
  C     -3.703020   14.510420   -3.394790
  C     -2.978160   15.346850   -2.420410
  O     -2.168020   15.009820   -1.607110
  S     -3.468200   17.054880   -2.632930
  C     -4.614910   16.667590   -3.960560
  O     -5.208470   17.523530   -4.545610
  C     -4.612000   15.209870   -4.196880
  C     -5.340320   14.583120   -5.232310
  C     -4.980120   13.242320   -5.451980
  C     -4.075690   12.550010   -4.656430
  C     -4.074780   11.140100   -5.117950
  O     -3.527380   10.180460   -4.673830
  O     -4.916950   11.072890   -6.202850
  C     -5.500240   12.289590   -6.458310
  O     -6.276780   12.455370   -7.348550
  C     -6.378230   15.170300   -6.034790
  C     -7.311050   16.041770   -5.601920
  C     -8.367600   16.536810   -6.414840
  C     -9.389310   17.366360   -6.023920
  C    -10.297100   17.690730   -7.049920
  C     -9.955450   17.093350   -8.260570
  S     -8.518820   16.134370   -8.103770
  C    -10.604270   17.181940   -9.512720
  C    -11.745960   17.891950   -9.868760
  C    -12.606430   18.740980   -9.041430
  O    -13.575330   19.300490   -9.511620
  N    -12.348750   18.930770   -7.695530
  C    -11.430300   18.561600   -6.729310
  O    -11.597950   18.984070   -5.604100
  C    -12.073960   17.731690  -11.230750
  C    -11.216440   16.919610  -11.924080
  S     -9.961190   16.325520  -10.878730
  C    -11.229150   16.530340  -13.309670
  C    -12.130580   16.932550  -14.202270
  H      8.746620    1.863360    2.546140
  H      6.954900    1.617600    4.482350
  H      5.801550    2.972080    4.604430
  H      8.825680    3.205390    5.043760
  H      7.605280    3.167200    6.322130
  H      7.650710    4.517890    5.184920
  H      9.000440    4.219040   -2.630460
  H      7.902960    5.618140   -2.561930
  H      7.118830    2.727600   -3.220790
  H      7.234280    4.052880   -4.382140
  H      5.980050    4.075790   -3.137390
  H      5.842420    6.033320   -1.696930
  H      4.671510    5.774700    1.124920
  H      0.358450    9.536130    0.207510
  H      1.018150    9.968040   -2.751710
  H     -1.550590   12.981630    1.051620
  H     -1.091890   11.760420    2.256130
  H     -3.489570   12.606450    2.402100
  H     -3.308830   10.849400    2.359300
  H     -5.139890   11.849240    0.859070
  H     -4.053800   10.681200    0.111940
  H     -3.474090   13.660170   -0.056690
  H     -4.577060   12.882730   -1.186600
  H     -6.461090   14.773350   -7.038690
  H     -7.321420   16.389280   -4.578870
  H     -9.503770   17.749080   -5.025730
  H    -13.056860   19.541640   -7.287760
  H    -12.930800   18.218320  -11.658370
  H    -10.431080   15.862770  -13.606330
  H    -12.936910   17.596140  -13.943500
  H    -12.084670   16.605120  -15.225640

 Total Charge           Charge          ....    0
 Multiplicity           Mult            ....    1
 Number of Electrons    NEL             ....  514
 Basis Dimension        Dim             .... 1127

ORBITAL ENERGIES
----------------

  NO   OCC          E(Eh)            E(eV)
   0   2.0000     -88.980875     -2421.2927
   1   2.0000     -88.979262     -2421.2488
   2   2.0000     -88.961730     -2420.7717
   3   2.0000     -88.961293     -2420.7599
   4   2.0000     -88.960528     -2420.7390
   5   2.0000     -19.300057      -525.1812
   6   2.0000     -19.254919      -523.9530
   7   2.0000     -19.252305      -523.8819
   8   2.0000     -19.252252      -523.8804
   9   2.0000     -19.249442      -523.8039
  10   2.0000     -19.245290      -523.6910
  11   2.0000     -19.201188      -522.4909
  12   2.0000     -19.200781      -522.4798
  13   2.0000     -19.183699      -522.0150
  14   2.0000     -19.178971      -521.8863
  15   2.0000     -14.459018      -393.4499
  16   2.0000     -14.447095      -393.1254
  17   2.0000     -14.443422      -393.0255
  18   2.0000     -14.429878      -392.6569
  19   2.0000     -14.424521      -392.5112
  20   2.0000     -10.442649      -284.1589
  21   2.0000     -10.440232      -284.0932
  22   2.0000     -10.416942      -283.4594
  23   2.0000     -10.415422      -283.4180
  24   2.0000     -10.399184      -282.9762
  25   2.0000     -10.398950      -282.9698
  26   2.0000     -10.365303      -282.0542
  27   2.0000     -10.365107      -282.0489
  28   2.0000     -10.347806      -281.5781
  29   2.0000     -10.347638      -281.5735
  30   2.0000     -10.344329      -281.4835
  31   2.0000     -10.340961      -281.3918
  32   2.0000     -10.340189      -281.3708
  33   2.0000     -10.338527      -281.3256
  34   2.0000     -10.338273      -281.3187
  35   2.0000     -10.337768      -281.3050
  36   2.0000     -10.336125      -281.2602
  37   2.0000     -10.334023      -281.2031
  38   2.0000     -10.331414      -281.1321
  39   2.0000     -10.329504      -281.0801
  40   2.0000     -10.328915      -281.0641
  41   2.0000     -10.322396      -280.8867
  42   2.0000     -10.322212      -280.8817
  43   2.0000     -10.320540      -280.8362
  44   2.0000     -10.313520      -280.6452
  45   2.0000     -10.312233      -280.6101
  46   2.0000     -10.305704      -280.4325
  47   2.0000     -10.305124      -280.4167
  48   2.0000     -10.304662      -280.4041
  49   2.0000     -10.300907      -280.3019
  50   2.0000     -10.298854      -280.2461
  51   2.0000     -10.298249      -280.2296
  52   2.0000     -10.297357      -280.2053
  53   2.0000     -10.295129      -280.1447
  54   2.0000     -10.292231      -280.0658
  55   2.0000     -10.289588      -279.9939
  56   2.0000     -10.288116      -279.9539
  57   2.0000     -10.287914      -279.9484
  58   2.0000     -10.284289      -279.8497
  59   2.0000     -10.283379      -279.8250
  60   2.0000     -10.281952      -279.7861
  61   2.0000     -10.275407      -279.6080
  62   2.0000     -10.275129      -279.6005
  63   2.0000     -10.274849      -279.5929
  64   2.0000     -10.260904      -279.2134
  65   2.0000     -10.254534      -279.0401
  66   2.0000     -10.252065      -278.9729
  67   2.0000     -10.250956      -278.9427
  68   2.0000      -8.076501      -219.7728
  69   2.0000      -8.075196      -219.7373
  70   2.0000      -8.060552      -219.3388
  71   2.0000      -8.058189      -219.2745
  72   2.0000      -8.055976      -219.2143
  73   2.0000      -6.045804      -164.5147
  74   2.0000      -6.044435      -164.4774
  75   2.0000      -6.041647      -164.4016
  76   2.0000      -6.040222      -164.3628
  77   2.0000      -6.038497      -164.3159
  78   2.0000      -6.037355      -164.2848
  79   2.0000      -6.029398      -164.0682
  80   2.0000      -6.026784      -163.9971
  81   2.0000      -6.026143      -163.9797
  82   2.0000      -6.025289      -163.9565
  83   2.0000      -6.023505      -163.9079
  84   2.0000      -6.021623      -163.8567
  85   2.0000      -6.021296      -163.8478
  86   2.0000      -6.020585      -163.8284
  87   2.0000      -6.017857      -163.7542
  88   2.0000      -1.249976       -34.0136
  89   2.0000      -1.178371       -32.0651
  90   2.0000      -1.175302       -31.9816
  91   2.0000      -1.173988       -31.9458
  92   2.0000      -1.161940       -31.6180
  93   2.0000      -1.153907       -31.3994
  94   2.0000      -1.137352       -30.9489
  95   2.0000      -1.133023       -30.8311
  96   2.0000      -1.131018       -30.7766
  97   2.0000      -1.124372       -30.5957
  98   2.0000      -1.117589       -30.4111
  99   2.0000      -1.055118       -28.7112
 100   2.0000      -1.046518       -28.4772
 101   2.0000      -1.029593       -28.0166
 102   2.0000      -1.024769       -27.8854
 103   2.0000      -1.010495       -27.4970
 104   2.0000      -0.997382       -27.1401
 105   2.0000      -0.991513       -26.9804
 106   2.0000      -0.963422       -26.2160
 107   2.0000      -0.943111       -25.6634
 108   2.0000      -0.937393       -25.5078
 109   2.0000      -0.922224       -25.0950
 110   2.0000      -0.918132       -24.9837
 111   2.0000      -0.912668       -24.8349
 112   2.0000      -0.910784       -24.7837
 113   2.0000      -0.898191       -24.4410
 114   2.0000      -0.887808       -24.1585
 115   2.0000      -0.880788       -23.9675
 116   2.0000      -0.875524       -23.8242
 117   2.0000      -0.870538       -23.6885
 118   2.0000      -0.864052       -23.5121
 119   2.0000      -0.860200       -23.4072
 120   2.0000      -0.854121       -23.2418
 121   2.0000      -0.848235       -23.0816
 122   2.0000      -0.821368       -22.3506
 123   2.0000      -0.813250       -22.1297
 124   2.0000      -0.809635       -22.0313
 125   2.0000      -0.807345       -21.9690
 126   2.0000      -0.799650       -21.7596
 127   2.0000      -0.790736       -21.5170
 128   2.0000      -0.784788       -21.3552
 129   2.0000      -0.775168       -21.0934
 130   2.0000      -0.773773       -21.0554
 131   2.0000      -0.759296       -20.6615
 132   2.0000      -0.755587       -20.5606
 133   2.0000      -0.753904       -20.5148
 134   2.0000      -0.743131       -20.2216
 135   2.0000      -0.740482       -20.1495
 136   2.0000      -0.726346       -19.7649
 137   2.0000      -0.708330       -19.2746
 138   2.0000      -0.703912       -19.1544
 139   2.0000      -0.702465       -19.1150
 140   2.0000      -0.697125       -18.9697
 141   2.0000      -0.684093       -18.6151
 142   2.0000      -0.678589       -18.4654
 143   2.0000      -0.676176       -18.3997
 144   2.0000      -0.672275       -18.2935
 145   2.0000      -0.668578       -18.1929
 146   2.0000      -0.663592       -18.0572
 147   2.0000      -0.656527       -17.8650
 148   2.0000      -0.647521       -17.6199
 149   2.0000      -0.645040       -17.5524
 150   2.0000      -0.644268       -17.5314
 151   2.0000      -0.636941       -17.3321
 152   2.0000      -0.630508       -17.1570
 153   2.0000      -0.621982       -16.9250
 154   2.0000      -0.616817       -16.7844
 155   2.0000      -0.609745       -16.5920
 156   2.0000      -0.607553       -16.5324
 157   2.0000      -0.599859       -16.3230
 158   2.0000      -0.592619       -16.1260
 159   2.0000      -0.586574       -15.9615
 160   2.0000      -0.582168       -15.8416
 161   2.0000      -0.581156       -15.8141
 162   2.0000      -0.575902       -15.6711
 163   2.0000      -0.575119       -15.6498
 164   2.0000      -0.571929       -15.5630
 165   2.0000      -0.568838       -15.4789
 166   2.0000      -0.568017       -15.4565
 167   2.0000      -0.565293       -15.3824
 168   2.0000      -0.563053       -15.3214
 169   2.0000      -0.561997       -15.2927
 170   2.0000      -0.557320       -15.1654
 171   2.0000      -0.556302       -15.1377
 172   2.0000      -0.555786       -15.1237
 173   2.0000      -0.548921       -14.9369
 174   2.0000      -0.548173       -14.9165
 175   2.0000      -0.547158       -14.8889
 176   2.0000      -0.543097       -14.7784
 177   2.0000      -0.534704       -14.5500
 178   2.0000      -0.530989       -14.4489
 179   2.0000      -0.529390       -14.4054
 180   2.0000      -0.527284       -14.3481
 181   2.0000      -0.524019       -14.2593
 182   2.0000      -0.523076       -14.2336
 183   2.0000      -0.520525       -14.1642
 184   2.0000      -0.519561       -14.1380
 185   2.0000      -0.517928       -14.0935
 186   2.0000      -0.517466       -14.0810
 187   2.0000      -0.515778       -14.0350
 188   2.0000      -0.513253       -13.9663
 189   2.0000      -0.511480       -13.9181
 190   2.0000      -0.507645       -13.8137
 191   2.0000      -0.506148       -13.7730
 192   2.0000      -0.505245       -13.7484
 193   2.0000      -0.504715       -13.7340
 194   2.0000      -0.504008       -13.7148
 195   2.0000      -0.502662       -13.6781
 196   2.0000      -0.501282       -13.6406
 197   2.0000      -0.496187       -13.5019
 198   2.0000      -0.493642       -13.4327
 199   2.0000      -0.489389       -13.3169
 200   2.0000      -0.487192       -13.2572
 201   2.0000      -0.485547       -13.2124
 202   2.0000      -0.480257       -13.0685
 203   2.0000      -0.475884       -12.9495
 204   2.0000      -0.474067       -12.9000
 205   2.0000      -0.469220       -12.7681
 206   2.0000      -0.467322       -12.7165
 207   2.0000      -0.465530       -12.6677
 208   2.0000      -0.464047       -12.6274
 209   2.0000      -0.461512       -12.5584
 210   2.0000      -0.461473       -12.5573
 211   2.0000      -0.458203       -12.4683
 212   2.0000      -0.453993       -12.3538
 213   2.0000      -0.451391       -12.2830
 214   2.0000      -0.450977       -12.2717
 215   2.0000      -0.446713       -12.1557
 216   2.0000      -0.445801       -12.1309
 217   2.0000      -0.443103       -12.0574
 218   2.0000      -0.439360       -11.9556
 219   2.0000      -0.434514       -11.8237
 220   2.0000      -0.428971       -11.6729
 221   2.0000      -0.428243       -11.6531
 222   2.0000      -0.427408       -11.6304
 223   2.0000      -0.422616       -11.5000
 224   2.0000      -0.419578       -11.4173
 225   2.0000      -0.417581       -11.3630
 226   2.0000      -0.414402       -11.2765
 227   2.0000      -0.407871       -11.0987
 228   2.0000      -0.406859       -11.0712
 229   2.0000      -0.403357       -10.9759
 230   2.0000      -0.398544       -10.8449
 231   2.0000      -0.396485       -10.7889
 232   2.0000      -0.389205       -10.5908
 233   2.0000      -0.385351       -10.4859
 234   2.0000      -0.380958       -10.3664
 235   2.0000      -0.380569       -10.3558
 236   2.0000      -0.377682       -10.2773
 237   2.0000      -0.372366       -10.1326
 238   2.0000      -0.371292       -10.1034
 239   2.0000      -0.365821        -9.9545
 240   2.0000      -0.359023        -9.7695
 241   2.0000      -0.358515        -9.7557
 242   2.0000      -0.357181        -9.7194
 243   2.0000      -0.348143        -9.4734
 244   2.0000      -0.347674        -9.4607
 245   2.0000      -0.341146        -9.2830
 246   2.0000      -0.339323        -9.2334
 247   2.0000      -0.338055        -9.1989
 248   2.0000      -0.322491        -8.7754
 249   2.0000      -0.321140        -8.7387
 250   2.0000      -0.313566        -8.5326
 251   2.0000      -0.310897        -8.4599
 252   2.0000      -0.305851        -8.3226
 253   2.0000      -0.297944        -8.1075
 254   2.0000      -0.270675        -7.3655
 255   2.0000      -0.258559        -7.0357
 256   2.0000      -0.237162        -6.4535
 257   0.0000      -0.106302        -2.8926
 258   0.0000      -0.091978        -2.5028
 259   0.0000      -0.073709        -2.0057
 260   0.0000      -0.060073        -1.6347
 261   0.0000      -0.040988        -1.1153

MULLIKEN ATOMIC CHARGES
-----------------------
   0 C :    0.035929
   1 N :   -0.256712
   2 C :    0.113522
   3 C :   -0.002538
   4 C :    0.172639
   5 O :   -0.217958
   6 C :   -0.104901
   7 C :    0.004089
   8 C :    0.162015
   9 O :   -0.186290
  10 N :   -0.269158
  11 C :    0.098879
  12 C :   -0.000031
  13 C :    0.165254
  14 C :   -0.033509
  15 C :    0.085009
  16 C :   -0.121093
  17 S :    0.110589
  18 C :   -0.092543
  19 N :   -0.055492
  20 N :   -0.041585
  21 C :    0.038535
  22 C :    0.049474
  23 C :   -0.122394
  24 S :    0.190524
  25 C :   -0.237943
  26 C :    0.011262
  27 C :    0.139771
  28 O :   -0.319330
  29 C :    0.204308
  30 C :    0.002219
  31 C :    0.010514
  32 C :    0.095093
  33 C :    0.004496
  34 C :    0.046300
  35 C :    0.035473
  36 O :   -0.123045
  37 S :    0.028578
  38 C :    0.022297
  39 O :   -0.117381
  40 C :    0.007558
  41 C :    0.054263
  42 C :   -0.075816
  43 C :   -0.068306
  44 C :    0.228553
  45 O :   -0.082547
  46 O :   -0.228334
  47 C :    0.239096
  48 O :   -0.105593
  49 C :   -0.077089
  50 C :    0.111588
  51 C :   -0.046111
  52 C :   -0.016314
  53 C :   -0.001013
  54 C :   -0.067487
  55 S :    0.148204
  56 C :   -0.097869
  57 C :    0.000072
  58 C :    0.092704
  59 O :   -0.186612
  60 N :   -0.065130
  61 C :    0.094962
  62 O :   -0.188835
  63 C :   -0.028741
  64 C :   -0.048076
  65 S :    0.156248
  66 C :    0.044497
  67 C :   -0.007539
  68 H :    0.012955
  69 H :    0.017483
  70 H :    0.039711
  71 H :    0.014784
  72 H :    0.021681
  73 H :    0.031612
  74 H :    0.041110
  75 H :    0.026852
  76 H :    0.027730
  77 H :    0.022763
  78 H :    0.021391
  79 H :    0.000414
  80 H :    0.010587
  81 H :    0.000708
  82 H :    0.006849
  83 H :    0.021090
  84 H :    0.024510
  85 H :    0.011478
  86 H :    0.016311
  87 H :    0.007379
  88 H :    0.025668
  89 H :    0.024283
  90 H :    0.002708
  91 H :    0.028920
  92 H :    0.001248
  93 H :    0.010138
  94 H :    0.153957
  95 H :    0.003711
  96 H :   -0.004470
  97 H :    0.030150
  98 H :    0.035087
Sum of atomic charges:   -0.0000000

LOEWDIN ATOMIC CHARGES
----------------------
   0 C :    0.085809
   1 N :    0.000491
   2 C :    0.038346
   3 C :   -0.060981
   4 C :    0.076319
   5 O :   -0.209096
   6 C :   -0.132460
   7 C :   -0.127811
   8 C :    0.081749
   9 O :   -0.190560
  10 N :   -0.007133
  11 C :    0.035819
  12 C :   -0.061206
  13 C :    0.084593
  14 C :   -0.023135
  15 C :    0.000250
  16 C :   -0.161687
  17 S :    0.394764
  18 C :   -0.140004
  19 N :   -0.086550
  20 N :   -0.070307
  21 C :   -0.067047
  22 C :    0.005256
  23 C :   -0.195521
  24 S :    0.477552
  25 C :   -0.191489
  26 C :   -0.055573
  27 C :    0.021556
  28 O :   -0.092540
  29 C :    0.085207
  30 C :   -0.046334
  31 C :   -0.030831
  32 C :   -0.032038
  33 C :    0.004351
  34 C :   -0.049007
  35 C :   -0.045949
  36 O :   -0.105054
  37 S :    0.311495
  38 C :   -0.046735
  39 O :   -0.107283
  40 C :   -0.059197
  41 C :    0.032932
  42 C :   -0.045994
  43 C :   -0.043270
  44 C :    0.099713
  45 O :   -0.088084
  46 O :   -0.054080
  47 C :    0.108007
  48 O :   -0.099012
  49 C :   -0.054072
  50 C :    0.021997
  51 C :   -0.167570
  52 C :   -0.001283
  53 C :   -0.103040
  54 C :   -0.155622
  55 S :    0.458512
  56 C :   -0.179153
  57 C :   -0.089601
  58 C :    0.086059
  59 O :   -0.184890
  60 N :    0.004058
  61 C :    0.085797
  62 O :   -0.187639
  63 C :   -0.020752
  64 C :   -0.157318
  65 S :    0.456665
  66 C :   -0.044725
  67 C :   -0.017115
  68 H :    0.031743
  69 H :    0.024326
  70 H :    0.035431
  71 H :    0.022466
  72 H :    0.029276
  73 H :    0.031850
  74 H :    0.036609
  75 H :    0.024658
  76 H :    0.031079
  77 H :    0.030558
  78 H :    0.024191
  79 H :    0.036180
  80 H :    0.037449
  81 H :    0.029431
  82 H :    0.037770
  83 H :    0.020377
  84 H :    0.028057
  85 H :    0.029610
  86 H :    0.028501
  87 H :    0.027568
  88 H :    0.029268
  89 H :    0.028888
  90 H :    0.028960
  91 H :    0.029873
  92 H :    0.037910
  93 H :    0.043436
  94 H :    0.106092
  95 H :    0.039738
  96 H :    0.030917
  97 H :    0.027689
  98 H :    0.031553

  Mayer bond orders larger than 0.100000
B(  0-C ,  1-N ) :   1.1878 B(  0-C ,  7-C ) :   1.4588 B(  0-C , 68-H ) :   0.9904
B(  1-N ,  2-C ) :   0.9454 B(  1-N ,  4-C ) :   1.0569 B(  2-C ,  3-C ) :   1.1168
B(  2-C , 69-H ) :   0.9538 B(  2-C , 70-H ) :   0.9349 B(  3-C , 71-H ) :   0.9693
B(  3-C , 72-H ) :   0.9692 B(  3-C , 73-H ) :   0.9676 B(  4-C ,  5-O ) :   2.0160
B(  4-C ,  6-C ) :   1.0080 B(  5-O , 80-H ) :   0.1108 B(  6-C ,  7-C ) :   1.2043
B(  6-C , 13-C ) :   1.3757 B(  7-C ,  8-C ) :   0.9483 B(  8-C ,  9-O ) :   2.1764
B(  8-C , 10-N ) :   1.0193 B( 10-N , 11-C ) :   0.9464 B( 10-N , 13-C ) :   1.1587
B( 11-C , 12-C ) :   1.1183 B( 11-C , 74-H ) :   0.9287 B( 11-C , 75-H ) :   0.9505
B( 12-C , 76-H ) :   0.9644 B( 12-C , 77-H ) :   0.9682 B( 12-C , 78-H ) :   0.9692
B( 13-C , 14-C ) :   1.1262 B( 14-C , 15-C ) :   1.6659 B( 14-C , 79-H ) :   0.9719
B( 15-C , 16-C ) :   1.1051 B( 15-C , 80-H ) :   0.9259 B( 16-C , 17-S ) :   1.0896
B( 16-C , 20-N ) :   1.6690 B( 17-S , 18-C ) :   1.1012 B( 18-C , 19-N ) :   1.6583
B( 18-C , 21-C ) :   1.1017 B( 19-N , 20-N ) :   1.2358 B( 21-C , 22-C ) :   1.7178
B( 21-C , 81-H ) :   0.9457 B( 22-C , 23-C ) :   1.1207 B( 22-C , 82-H ) :   0.9577
B( 23-C , 24-S ) :   1.1297 B( 23-C , 25-C ) :   0.1223 B( 23-C , 27-C ) :   1.4417
B( 24-S , 25-C ) :   1.1391 B( 25-C , 26-C ) :   1.5365 B( 25-C , 33-C ) :   1.0166
B( 26-C , 27-C ) :   1.2551 B( 26-C , 32-C ) :   1.0661 B( 27-C , 28-O ) :   1.1441
B( 28-O , 29-C ) :   0.9357 B( 29-C , 30-C ) :   1.1004 B( 29-C , 83-H ) :   0.9326
B( 29-C , 84-H ) :   0.9550 B( 30-C , 31-C ) :   1.0924 B( 30-C , 85-H ) :   0.9359
B( 30-C , 86-H ) :   0.9371 B( 31-C , 32-C ) :   1.0938 B( 31-C , 87-H ) :   0.9388
B( 31-C , 88-H ) :   0.9365 B( 32-C , 89-H ) :   0.9022 B( 32-C , 90-H ) :   0.9060
B( 33-C , 34-C ) :   1.4056 B( 33-C , 43-C ) :   1.3632 B( 34-C , 35-C ) :   0.8430
B( 34-C , 40-C ) :   1.3042 B( 35-C , 36-O ) :   2.1611 B( 35-C , 37-S ) :   1.0305
B( 36-O , 37-S ) :   0.1082 B( 37-S , 38-C ) :   1.0275 B( 37-S , 39-O ) :   0.1050
B( 38-C , 39-O ) :   2.1899 B( 38-C , 40-C ) :   0.8440 B( 40-C , 41-C ) :   1.3334
B( 41-C , 42-C ) :   1.3197 B( 41-C , 49-C ) :   1.1272 B( 42-C , 43-C ) :   1.3568
B( 42-C , 47-C ) :   0.9133 B( 43-C , 44-C ) :   0.8959 B( 44-C , 45-O ) :   2.2725
B( 44-C , 46-O ) :   1.0461 B( 46-O , 47-C ) :   1.0634 B( 47-C , 48-O ) :   2.2277
B( 49-C , 50-C ) :   1.6663 B( 49-C , 91-H ) :   0.9393 B( 50-C , 51-C ) :   1.1827
B( 50-C , 92-H ) :   0.9660 B( 51-C , 52-C ) :   1.4630 B( 51-C , 55-S ) :   1.0819
B( 52-C , 53-C ) :   1.2555 B( 52-C , 93-H ) :   1.0098 B( 53-C , 54-C ) :   1.4544
B( 53-C , 61-C ) :   0.9353 B( 54-C , 55-S ) :   1.1582 B( 54-C , 56-C ) :   1.1752
B( 56-C , 57-C ) :   1.4561 B( 56-C , 65-S ) :   1.1490 B( 57-C , 58-C ) :   0.9331
B( 57-C , 63-C ) :   1.2778 B( 58-C , 59-O ) :   2.2091 B( 58-C , 60-N ) :   1.1070
B( 60-N , 61-C ) :   1.1058 B( 60-N , 94-H ) :   0.8743 B( 61-C , 62-O ) :   2.2124
B( 63-C , 64-C ) :   1.5059 B( 63-C , 95-H ) :   1.0023 B( 64-C , 65-S ) :   1.1071
B( 64-C , 66-C ) :   1.0822 B( 66-C , 67-C ) :   1.9559 B( 66-C , 96-H ) :   0.9555
B( 67-C , 97-H ) :   0.9547 B( 67-C , 98-H ) :   0.9489

-----------------------------------------------------------------------------
         ABSORPTION SPECTRUM VIA TRANSITION ELECTRIC DIPOLE MOMENTS
-----------------------------------------------------------------------------
State   Energy  Wavelength   fosc         T2         TX        TY        TZ
        (cm-1)    (nm)                  (au**2)     (au)      (au)      (au)
-----------------------------------------------------------------------------
   0   15098.7    662.3   0.018980832   0.41386  -0.04421  -0.58880  -0.25538
   1   18900.0    529.1   1.747380216  30.43694   3.67395  -3.11509   2.68984
   2   20012.2    499.7   0.035213395   0.57928   0.27914   0.61432   0.35209
   3   21072.3    474.6   0.134352158   2.09898   1.32461  -0.38683   0.44130
   4   22183.0    450.8   0.004560333   0.06768   0.16193  -0.09762   0.17869
   5   23084.2    433.2   0.010173968   0.14509  -0.18902   0.13932  -0.29993
   6   23515.0    425.3   0.523171106   7.32443   1.57892  -0.63823   2.10335
   7   25084.2    398.7   0.317695998   4.16953   1.55111  -1.32616  -0.06995
   8   27138.9    368.5   0.088818776   1.07743   0.87057  -0.56471  -0.02531
   9   27373.8    365.3   0.007115687   0.08558   0.27324  -0.03345   0.09899
  10   28136.0    355.4   0.037058748   0.43361  -0.41620   0.28503   0.42326
  11   28194.6    354.7   0.004398747   0.05136  -0.19200  -0.10462   0.05962
  12   28267.1    353.8   0.007067112   0.08231  -0.23992  -0.00370   0.15726
  13   28640.0    349.2   0.007743238   0.08901  -0.22611   0.08272   0.17618
  14   29981.9    333.5   0.156391285   1.71723  -0.22343  -0.23720  -1.26927
  15   30271.4    330.3   0.001160088   0.01262  -0.11026  -0.00083   0.02140
  16   31104.7    321.5   0.102212553   1.08182  -0.37716   0.74415   0.62114
  17   31294.0    319.5   0.167271875   1.75969   1.11183  -0.37062  -0.62143
  18   32075.3    311.8   0.011848618   0.12161  -0.26631  -0.21105  -0.07842
  19   32496.1    307.7   0.032140422   0.32561  -0.25870   0.39229   0.32372
  20   32773.3    305.1   0.028240095   0.28368   0.44925  -0.27417   0.08175
  21   33636.5    297.3   0.008447364   0.08268   0.18982  -0.21536   0.01634
  22   34078.1    293.4   0.024924272   0.24078   0.28696  -0.38030   0.11749
  23   34368.8    291.0   0.050764877   0.48627   0.61928  -0.32027  -0.01357
  24   34424.4    290.5   0.000533571   0.00510  -0.01856  -0.01818  -0.06654
  25   34554.6    289.4   0.032352270   0.30823  -0.41155   0.31796   0.19432
  26   34571.5    289.3   0.043064797   0.41009   0.38467  -0.41184  -0.30414
  27   35015.8    285.6   0.008270429   0.07776   0.13853  -0.07401   0.23041
  28   35019.4    285.6   0.024188493   0.22739   0.25426  -0.17965   0.36121
  29   35239.8    283.8   0.249885157   2.33444  -1.03891   0.94560  -0.60079
  30   35851.3    278.9   0.057681503   0.52967  -0.53202   0.49654   0.00881
  31   36179.0    276.4   0.020351299   0.18519   0.05849  -0.05628   0.42261
  32   36308.0    275.4   0.005414339   0.04909   0.18158   0.10769   0.06726
  33   36541.1    273.7   0.017868119   0.16098  -0.03730   0.18031  -0.35648
  34   36968.4    270.5   0.004264618   0.03798  -0.17729  -0.03255   0.07407
  35   37013.0    270.2   0.000632177   0.00562   0.06856   0.02980   0.00591
  36   37295.6    268.1   0.016004268   0.14127  -0.01965   0.06693   0.36933
  37   37341.1    267.8   0.008745899   0.07711  -0.07368  -0.09810   0.24911
  38   37657.4    265.6   0.020723037   0.18117   0.32830  -0.27090   0.00066
  39   38301.7    261.1   0.027747566   0.23850  -0.22102   0.18230   0.39549
  40   38604.7    259.0   0.020247130   0.17266   0.20247  -0.27942   0.23150
  41   38885.2    257.2   0.032008062   0.27099  -0.25766   0.18504   0.41275
  42   39068.3    256.0   0.005625122   0.04740  -0.10053   0.19216  -0.01923
  43   39961.0    250.2   0.264926079   2.18255  -1.00423   0.71756   0.81190
  44   40215.1    248.7   0.000576224   0.00472   0.05310   0.01759  -0.03985

FINAL SINGLE POINT ENERGY     -4860.649621211966

DIPOLE MOMENT
-------------
                                X             Y             Z
Electronic contribution:    -58.30311      59.04173     -46.30547
Nuclear contribution   :     57.10344     -58.39890      46.94416
                        -----------------------------------------
Total Dipole Moment    :     -1.19967       0.64283       0.63869
                        -----------------------------------------
Magnitude (a.u.)       :      1.50345
Magnitude (Debye)      :      3.82146

Rotational constants in cm-1:     0.002612     0.000202     0.000192
Rotational constants in MHz :    78.292323     6.054402     5.765958

                             ****ORCA TERMINATED NORMALLY****
TOTAL RUN TIME: 0 days 0 hours 13 minutes 32 seconds 588 msec
