                         Program Version 4.2.0 -  RELEASE  -
|  1> # ORCA input file
|  2> # SCF done       -202.339249907348          0.000843517559
|  3> ! CAM-B3LYP def2-SVP def2/J RIJCOSX Grid4 TightSCF
|  4> %maxcore 5000
|  5> %tddft
|  6>     Mode sTDDFT
|  7>     Ethresh 5.0
|  8>     maxcore 5000
|  9> end
| 10>
| 11> %pal
| 12>   nprocs 6
| 13>   end
| 14> * xyz 0 1
| 15>    C        0.09393         2.24344         3.87794
| 16>    C        0.83823         1.43195         3.06219
| 17>    C        2.10899         0.92095         3.40296
| 18>    N        3.14165         0.47064         3.62243
| 19>    C        0.47089         1.00096         1.76962
| 20>    N        0.25402         0.61898         0.70857
| 21>    C        0.50560         2.71886         5.19511
| 22>    C       -0.49290         3.58950         5.69873
| 23>    C       -0.39491         4.20656         6.92224
| 24>    C        0.74439         3.94889         7.69143
| 25>    C        1.73596         3.07510         7.18378
| 26>    C        1.63676         2.45429         5.94439
| 27>    S        3.05642         2.89190         8.29690
| 28>    C        2.27099         3.97631         9.41383
| 29>    C        1.08043         4.45275         8.97729
| 30>   Br        3.09552         4.37612        11.04953
| 31>    C       -1.58444         3.68694         4.71782
| 32>    O       -2.59666         4.35817         4.82647
| 33>    C       -1.21323         2.81324         3.59923
| 34>    C       -1.99334         2.54792         2.50420
| 35>    C       -3.25971         3.03955         2.14868
| 36>    C       -3.91086         2.61112         0.98498
| 37>    C       -5.13841         3.21961         0.81106
| 38>    C       -5.43451         4.13441         1.85031
| 39>    S       -4.21434         4.22885         3.03392
| 40>    C       -6.70089         4.71028         1.57772
| 41>    C       -7.19943         4.16717         0.37706
| 42>    C       -6.23807         3.21040        -0.14236
| 43>    C       -6.34847         2.46380        -1.27778
| 44>    C       -5.35104         1.54819        -1.67633
| 45>    N       -4.54768         0.80052        -2.00781
| 46>    C       -7.46998         2.55182        -2.13042
| 47>    N       -8.37522         2.61866        -2.83083
| 48>    C       -8.44216         4.68266         0.02385
| 49>    C       -8.89712         5.61511         0.94164
| 50>    S       -7.76408         5.84879         2.26493
| 51>    C      -10.12976         6.34170         0.86561
| 52>    C      -10.53583         7.26590         1.82111
| 53>    F       -9.75080         7.50579         2.88695
| 54>    C      -11.74380         7.97571         1.75636
| 55>    F      -12.02240         8.81584         2.76354
| 56>    C      -12.65404         7.81046         0.72863
| 57>    C      -12.26126         6.91639        -0.29726
| 58>    C      -11.03037         6.17727        -0.22648
| 59>    N      -10.87158         5.40012        -1.29622
| 60>    S      -12.12095         5.59474        -2.28360
| 61>    N      -12.92423         6.67949        -1.42611
| 62>    C      -13.93237         8.47035         0.65860
| 63>    C      -15.11173         7.95531         0.17895
| 64>    C      -15.63294         6.65719        -0.28857
| 65>    O      -15.11856         5.56879        -0.32974
| 66>    N      -16.94610         6.92458        -0.66484
| 67>    C      -17.82313         5.91969        -1.21160
| 68>    C      -17.34895         8.23398        -0.44452
| 69>    O      -18.42466         8.68423        -0.75015
| 70>    C      -16.17723         8.88219         0.17496
| 71>    C      -15.84587        10.12157         0.66385
| 72>    S      -14.15791        10.13566         1.12113
| 73>    C      -16.64199        11.30453         0.73691
| 74>    C      -17.97369        11.30647         0.98218
| 75>    C      -18.89807        12.41915         0.81587
| 76>    C      -18.58574        13.68839         0.40874
| 77>    C      -19.53088        14.72531         0.24982
| 78>    N      -20.24216        15.61402         0.10348
| 79>    C      -17.28902        14.15428         0.10453
| 80>    N      -16.26647        14.60417        -0.16075
| 81>    C      -20.23501        11.92709         1.11844
| 82>    C      -20.14352        10.57340         1.55381
| 83>    C      -18.73713        10.15036         1.55565
| 84>    O      -18.27489         9.14267         2.03951
| 85>    C      -21.24911         9.85283         1.90456
| 86>    C      -22.52222        10.45863         1.82124
| 87>    C      -22.62295        11.81147         1.38346
| 88>    C      -21.46084        12.53582         1.03646
| 89>    C      -23.89867        12.40732         1.30461
| 90>    C      -25.02200        11.70267         1.64119
| 91>    C      -24.92196        10.37104         2.07237
| 92>    C      -23.69936         9.76235         2.15990
| 93>    H       -1.17263         4.86548         7.27513
| 94>    H        2.41941         1.79668         5.60559
| 95>    H        0.46359         5.13094         9.53804
| 96>    H       -1.60087         1.84161         1.78254
| 97>    H       -3.47569         1.88698         0.31896
| 98>    H       -9.00926         4.41715        -0.84890
| 99>    H      -17.33662         4.95299        -1.09490
|100>    H      -18.01094         6.11447        -2.26886
|101>    H      -18.77218         5.93350        -0.67609
|102>    H      -16.11857        12.23287         0.54848
|103>    H      -21.15260         8.82889         2.23311
|104>    H      -21.57106        13.55799         0.71093
|105>    H      -23.97017        13.43244         0.97202
|106>    H      -25.99450        12.16718         1.57701
|107>    H      -25.81898         9.83039         2.33475
|108>    H      -23.61695         8.73759         2.49116
|109> *
|110>
|111>                          ****END OF INPUT****

CARTESIAN COORDINATES (ANGSTROEM)
---------------------------------
  C      0.093930    2.243440    3.877940
  C      0.838230    1.431950    3.062190
  C      2.108990    0.920950    3.402960
  N      3.141650    0.470640    3.622430
  C      0.470890    1.000960    1.769620
  N      0.254020    0.618980    0.708570
  C      0.505600    2.718860    5.195110
  C     -0.492900    3.589500    5.698730
  C     -0.394910    4.206560    6.922240
  C      0.744390    3.948890    7.691430
  C      1.735960    3.075100    7.183780
  C      1.636760    2.454290    5.944390
  S      3.056420    2.891900    8.296900
  C      2.270990    3.976310    9.413830
  C      1.080430    4.452750    8.977290
  Br     3.095520    4.376120   11.049530
  C     -1.584440    3.686940    4.717820
  O     -2.596660    4.358170    4.826470
  C     -1.213230    2.813240    3.599230
  C     -1.993340    2.547920    2.504200
  C     -3.259710    3.039550    2.148680
  C     -3.910860    2.611120    0.984980
  C     -5.138410    3.219610    0.811060
  C     -5.434510    4.134410    1.850310
  S     -4.214340    4.228850    3.033920
  C     -6.700890    4.710280    1.577720
  C     -7.199430    4.167170    0.377060
  C     -6.238070    3.210400   -0.142360
  C     -6.348470    2.463800   -1.277780
  C     -5.351040    1.548190   -1.676330
  N     -4.547680    0.800520   -2.007810
  C     -7.469980    2.551820   -2.130420
  N     -8.375220    2.618660   -2.830830
  C     -8.442160    4.682660    0.023850
  C     -8.897120    5.615110    0.941640
  S     -7.764080    5.848790    2.264930
  C    -10.129760    6.341700    0.865610
  C    -10.535830    7.265900    1.821110
  F     -9.750800    7.505790    2.886950
  C    -11.743800    7.975710    1.756360
  F    -12.022400    8.815840    2.763540
  C    -12.654040    7.810460    0.728630
  C    -12.261260    6.916390   -0.297260
  C    -11.030370    6.177270   -0.226480
  N    -10.871580    5.400120   -1.296220
  S    -12.120950    5.594740   -2.283600
  N    -12.924230    6.679490   -1.426110
  C    -13.932370    8.470350    0.658600
  C    -15.111730    7.955310    0.178950
  C    -15.632940    6.657190   -0.288570
  O    -15.118560    5.568790   -0.329740
  N    -16.946100    6.924580   -0.664840
  C    -17.823130    5.919690   -1.211600
  C    -17.348950    8.233980   -0.444520
  O    -18.424660    8.684230   -0.750150
  C    -16.177230    8.882190    0.174960
  C    -15.845870   10.121570    0.663850
  S    -14.157910   10.135660    1.121130
  C    -16.641990   11.304530    0.736910
  C    -17.973690   11.306470    0.982180
  C    -18.898070   12.419150    0.815870
  C    -18.585740   13.688390    0.408740
  C    -19.530880   14.725310    0.249820
  N    -20.242160   15.614020    0.103480
  C    -17.289020   14.154280    0.104530
  N    -16.266470   14.604170   -0.160750
  C    -20.235010   11.927090    1.118440
  C    -20.143520   10.573400    1.553810
  C    -18.737130   10.150360    1.555650
  O    -18.274890    9.142670    2.039510
  C    -21.249110    9.852830    1.904560
  C    -22.522220   10.458630    1.821240
  C    -22.622950   11.811470    1.383460
  C    -21.460840   12.535820    1.036460
  C    -23.898670   12.407320    1.304610
  C    -25.022000   11.702670    1.641190
  C    -24.921960   10.371040    2.072370
  C    -23.699360    9.762350    2.159900
  H     -1.172630    4.865480    7.275130
  H      2.419410    1.796680    5.605590
  H      0.463590    5.130940    9.538040
  H     -1.600870    1.841610    1.782540
  H     -3.475690    1.886980    0.318960
  H     -9.009260    4.417150   -0.848900
  H    -17.336620    4.952990   -1.094900
  H    -18.010940    6.114470   -2.268860
  H    -18.772180    5.933500   -0.676090
  H    -16.118570   12.232870    0.548480
  H    -21.152600    8.828890    2.233110
  H    -21.571060   13.557990    0.710930
  H    -23.970170   13.432440    0.972020
  H    -25.994500   12.167180    1.577010
  H    -25.818980    9.830390    2.334750
  H    -23.616950    8.737590    2.491160

 Total Charge           Charge          ....    0
 Multiplicity           Mult            ....    1
 Number of Electrons    NEL             ....  586
 Basis Dimension        Dim             .... 1210

ORBITAL ENERGIES
----------------

  NO   OCC          E(Eh)            E(eV)
   0   2.0000    -482.889022    -13140.0783
   1   2.0000     -89.040323     -2422.9104
   2   2.0000     -88.996355     -2421.7139
   3   2.0000     -88.993364     -2421.6325
   4   2.0000     -88.989907     -2421.5385
   5   2.0000     -88.979921     -2421.2668
   6   2.0000     -62.566728     -1702.5272
   7   2.0000     -56.400683     -1534.7406
   8   2.0000     -56.397957     -1534.6664
   9   2.0000     -56.397928     -1534.6656
  10   2.0000     -24.825218      -675.5285
  11   2.0000     -24.820627      -675.4036
  12   2.0000     -19.229644      -523.2652
  13   2.0000     -19.218054      -522.9498
  14   2.0000     -19.217833      -522.9438
  15   2.0000     -19.215791      -522.8883
  16   2.0000     -14.462764      -393.5518
  17   2.0000     -14.454078      -393.3154
  18   2.0000     -14.452973      -393.2854
  19   2.0000     -14.431476      -392.7004
  20   2.0000     -14.431401      -392.6984
  21   2.0000     -14.423262      -392.4769
  22   2.0000     -14.420307      -392.3965
  23   2.0000     -14.420131      -392.3917
  24   2.0000     -14.417810      -392.3286
  25   2.0000     -10.403458      -283.0925
  26   2.0000     -10.401067      -283.0274
  27   2.0000     -10.400509      -283.0123
  28   2.0000     -10.400388      -283.0090
  29   2.0000     -10.377161      -282.3769
  30   2.0000     -10.372113      -282.2395
  31   2.0000     -10.367331      -282.1094
  32   2.0000     -10.362931      -281.9897
  33   2.0000     -10.355242      -281.7804
  34   2.0000     -10.349580      -281.6264
  35   2.0000     -10.349009      -281.6108
  36   2.0000     -10.348304      -281.5917
  37   2.0000     -10.346924      -281.5541
  38   2.0000     -10.346495      -281.5424
  39   2.0000     -10.346371      -281.5391
  40   2.0000     -10.345911      -281.5265
  41   2.0000     -10.338932      -281.3367
  42   2.0000     -10.338366      -281.3212
  43   2.0000     -10.337856      -281.3074
  44   2.0000     -10.337361      -281.2939
  45   2.0000     -10.336410      -281.2680
  46   2.0000     -10.332029      -281.1488
  47   2.0000     -10.331509      -281.1347
  48   2.0000     -10.331170      -281.1254
  49   2.0000     -10.330886      -281.1177
  50   2.0000     -10.330380      -281.1039
  51   2.0000     -10.330210      -281.0993
  52   2.0000     -10.328545      -281.0540
  53   2.0000     -10.325440      -280.9695
  54   2.0000     -10.322697      -280.8949
  55   2.0000     -10.322477      -280.8889
  56   2.0000     -10.320748      -280.8418
  57   2.0000     -10.315969      -280.7118
  58   2.0000     -10.313076      -280.6331
  59   2.0000     -10.312179      -280.6087
  60   2.0000     -10.311590      -280.5926
  61   2.0000     -10.310314      -280.5579
  62   2.0000     -10.309927      -280.5474
  63   2.0000     -10.308800      -280.5167
  64   2.0000     -10.308044      -280.4961
  65   2.0000     -10.306851      -280.4637
  66   2.0000     -10.306803      -280.4624
  67   2.0000     -10.306350      -280.4500
  68   2.0000     -10.305410      -280.4245
  69   2.0000     -10.303656      -280.3767
  70   2.0000     -10.302320      -280.3404
  71   2.0000     -10.301016      -280.3049
  72   2.0000     -10.300772      -280.2983
  73   2.0000     -10.300764      -280.2981
  74   2.0000     -10.300125      -280.2806
  75   2.0000     -10.299401      -280.2609
  76   2.0000     -10.298030      -280.2236
  77   2.0000     -10.291408      -280.0434
  78   2.0000     -10.289624      -279.9949
  79   2.0000     -10.288961      -279.9769
  80   2.0000     -10.288749      -279.9711
  81   2.0000     -10.288259      -279.9578
  82   2.0000      -8.796157      -239.3556
  83   2.0000      -8.131726      -221.2755
  84   2.0000      -8.090411      -220.1513
  85   2.0000      -8.085555      -220.0191
  86   2.0000      -8.085087      -220.0064
  87   2.0000      -8.075831      -219.7545
  88   2.0000      -6.632479      -180.4789
  89   2.0000      -6.617899      -180.0822
  90   2.0000      -6.617663      -180.0758
  91   2.0000      -6.102922      -166.0690
  92   2.0000      -6.095093      -165.8559
  93   2.0000      -6.094261      -165.8333
  94   2.0000      -6.059683      -164.8924
  95   2.0000      -6.055271      -164.7723
  96   2.0000      -6.054973      -164.7642
  97   2.0000      -6.054425      -164.7493
  98   2.0000      -6.052915      -164.7082
  99   2.0000      -6.050208      -164.6345
 100   2.0000      -6.050043      -164.6300
 101   2.0000      -6.048171      -164.5791
 102   2.0000      -6.047260      -164.5543
 103   2.0000      -6.045512      -164.5068
 104   2.0000      -6.041224      -164.3901
 105   2.0000      -6.037104      -164.2780
 106   2.0000      -2.748345       -74.7863
 107   2.0000      -2.744231       -74.6743
 108   2.0000      -2.744118       -74.6712
 109   2.0000      -2.732494       -74.3549
 110   2.0000      -2.732483       -74.3546
 111   2.0000      -1.346407       -36.6376
 112   2.0000      -1.328781       -36.1580
 113   2.0000      -1.164406       -31.6851
 114   2.0000      -1.145137       -31.1608
 115   2.0000      -1.144322       -31.1386
 116   2.0000      -1.140785       -31.0423
 117   2.0000      -1.132896       -30.8277
 118   2.0000      -1.056224       -28.7413
 119   2.0000      -1.049656       -28.5626
 120   2.0000      -1.027690       -27.9649
 121   2.0000      -1.024419       -27.8759
 122   2.0000      -1.023779       -27.8584
 123   2.0000      -1.018651       -27.7189
 124   2.0000      -1.017569       -27.6894
 125   2.0000      -1.010456       -27.4959
 126   2.0000      -1.008112       -27.4321
 127   2.0000      -1.003191       -27.2982
 128   2.0000      -0.999646       -27.2017
 129   2.0000      -0.997853       -27.1530
 130   2.0000      -0.995749       -27.0957
 131   2.0000      -0.994098       -27.0508
 132   2.0000      -0.989939       -26.9376
 133   2.0000      -0.975139       -26.5349
 134   2.0000      -0.962937       -26.2029
 135   2.0000      -0.947021       -25.7697
 136   2.0000      -0.931907       -25.3585
 137   2.0000      -0.926033       -25.1986
 138   2.0000      -0.918237       -24.9865
 139   2.0000      -0.913187       -24.8491
 140   2.0000      -0.908324       -24.7167
 141   2.0000      -0.898753       -24.4563
 142   2.0000      -0.893490       -24.3131
 143   2.0000      -0.890496       -24.2316
 144   2.0000      -0.884548       -24.0698
 145   2.0000      -0.882141       -24.0043
 146   2.0000      -0.878781       -23.9129
 147   2.0000      -0.875638       -23.8273
 148   2.0000      -0.861902       -23.4535
 149   2.0000      -0.859233       -23.3809
 150   2.0000      -0.841769       -22.9057
 151   2.0000      -0.833974       -22.6936
 152   2.0000      -0.831567       -22.6281
 153   2.0000      -0.813631       -22.1400
 154   2.0000      -0.806627       -21.9494
 155   2.0000      -0.798769       -21.7356
 156   2.0000      -0.788144       -21.4465
 157   2.0000      -0.780786       -21.2463
 158   2.0000      -0.768139       -20.9021
 159   2.0000      -0.766248       -20.8507
 160   2.0000      -0.762095       -20.7376
 161   2.0000      -0.753561       -20.5054
 162   2.0000      -0.740447       -20.1486
 163   2.0000      -0.736293       -20.0355
 164   2.0000      -0.721544       -19.6342
 165   2.0000      -0.714073       -19.4309
 166   2.0000      -0.707896       -19.2628
 167   2.0000      -0.702768       -19.1233
 168   2.0000      -0.701030       -19.0760
 169   2.0000      -0.698560       -19.0088
 170   2.0000      -0.695787       -18.9333
 171   2.0000      -0.694464       -18.8973
 172   2.0000      -0.687843       -18.7172
 173   2.0000      -0.681498       -18.5445
 174   2.0000      -0.676794       -18.4165
 175   2.0000      -0.668637       -18.1945
 176   2.0000      -0.665389       -18.1062
 177   2.0000      -0.661010       -17.9870
 178   2.0000      -0.655468       -17.8362
 179   2.0000      -0.650762       -17.7081
 180   2.0000      -0.644497       -17.5377
 181   2.0000      -0.639685       -17.4067
 182   2.0000      -0.633391       -17.2354
 183   2.0000      -0.628811       -17.1108
 184   2.0000      -0.625172       -17.0118
 185   2.0000      -0.620733       -16.8910
 186   2.0000      -0.619651       -16.8616
 187   2.0000      -0.611539       -16.6408
 188   2.0000      -0.610185       -16.6040
 189   2.0000      -0.606866       -16.5137
 190   2.0000      -0.599200       -16.3051
 191   2.0000      -0.590063       -16.0564
 192   2.0000      -0.589029       -16.0283
 193   2.0000      -0.584174       -15.8962
 194   2.0000      -0.577762       -15.7217
 195   2.0000      -0.572368       -15.5749
 196   2.0000      -0.569817       -15.5055
 197   2.0000      -0.567894       -15.4532
 198   2.0000      -0.565488       -15.3877
 199   2.0000      -0.563596       -15.3362
 200   2.0000      -0.558699       -15.2030
 201   2.0000      -0.557536       -15.1713
 202   2.0000      -0.552871       -15.0444
 203   2.0000      -0.550406       -14.9773
 204   2.0000      -0.547824       -14.9070
 205   2.0000      -0.547082       -14.8869
 206   2.0000      -0.546520       -14.8716
 207   2.0000      -0.546245       -14.8641
 208   2.0000      -0.538654       -14.6575
 209   2.0000      -0.536567       -14.6007
 210   2.0000      -0.534757       -14.5515
 211   2.0000      -0.529960       -14.4209
 212   2.0000      -0.526322       -14.3220
 213   2.0000      -0.523355       -14.2412
 214   2.0000      -0.522909       -14.2291
 215   2.0000      -0.522154       -14.2085
 216   2.0000      -0.518838       -14.1183
 217   2.0000      -0.516755       -14.0616
 218   2.0000      -0.514642       -14.0041
 219   2.0000      -0.513791       -13.9810
 220   2.0000      -0.511033       -13.9059
 221   2.0000      -0.508042       -13.8245
 222   2.0000      -0.507215       -13.8020
 223   2.0000      -0.504955       -13.7405
 224   2.0000      -0.502310       -13.6686
 225   2.0000      -0.501927       -13.6581
 226   2.0000      -0.499366       -13.5884
 227   2.0000      -0.497712       -13.5434
 228   2.0000      -0.496303       -13.5051
 229   2.0000      -0.493929       -13.4405
 230   2.0000      -0.491810       -13.3828
 231   2.0000      -0.490682       -13.3521
 232   2.0000      -0.485722       -13.2172
 233   2.0000      -0.481879       -13.1126
 234   2.0000      -0.480076       -13.0635
 235   2.0000      -0.478124       -13.0104
 236   2.0000      -0.477619       -12.9967
 237   2.0000      -0.469237       -12.7686
 238   2.0000      -0.468601       -12.7513
 239   2.0000      -0.464466       -12.6388
 240   2.0000      -0.462038       -12.5727
 241   2.0000      -0.459485       -12.5032
 242   2.0000      -0.457492       -12.4490
 243   2.0000      -0.455459       -12.3937
 244   2.0000      -0.454929       -12.3792
 245   2.0000      -0.452164       -12.3040
 246   2.0000      -0.451569       -12.2878
 247   2.0000      -0.449708       -12.2372
 248   2.0000      -0.446885       -12.1604
 249   2.0000      -0.446797       -12.1580
 250   2.0000      -0.444253       -12.0887
 251   2.0000      -0.443040       -12.0557
 252   2.0000      -0.441325       -12.0091
 253   2.0000      -0.440417       -11.9844
 254   2.0000      -0.439655       -11.9636
 255   2.0000      -0.437294       -11.8994
 256   2.0000      -0.436838       -11.8870
 257   2.0000      -0.434925       -11.8349
 258   2.0000      -0.431569       -11.7436
 259   2.0000      -0.430699       -11.7199
 260   2.0000      -0.428622       -11.6634
 261   2.0000      -0.425902       -11.5894
 262   2.0000      -0.424664       -11.5557
 263   2.0000      -0.420173       -11.4335
 264   2.0000      -0.417156       -11.3514
 265   2.0000      -0.413206       -11.2439
 266   2.0000      -0.412277       -11.2186
 267   2.0000      -0.410537       -11.1713
 268   2.0000      -0.408791       -11.1238
 269   2.0000      -0.396382       -10.7861
 270   2.0000      -0.391623       -10.6566
 271   2.0000      -0.384420       -10.4606
 272   2.0000      -0.382096       -10.3974
 273   2.0000      -0.378345       -10.2953
 274   2.0000      -0.375437       -10.2162
 275   2.0000      -0.370638       -10.0856
 276   2.0000      -0.367292        -9.9945
 277   2.0000      -0.360597        -9.8123
 278   2.0000      -0.353165        -9.6101
 279   2.0000      -0.350866        -9.5476
 280   2.0000      -0.348591        -9.4857
 281   2.0000      -0.345649        -9.4056
 282   2.0000      -0.344452        -9.3730
 283   2.0000      -0.343424        -9.3450
 284   2.0000      -0.335979        -9.1424
 285   2.0000      -0.327401        -8.9090
 286   2.0000      -0.323876        -8.8131
 287   2.0000      -0.320394        -8.7184
 288   2.0000      -0.317209        -8.6317
 289   2.0000      -0.301233        -8.1970
 290   2.0000      -0.297668        -8.1000
 291   2.0000      -0.293994        -8.0000
 292   2.0000      -0.265030        -7.2118
 293   0.0000      -0.117185        -3.1888
 294   0.0000      -0.104605        -2.8464
 295   0.0000      -0.091765        -2.4971
 296   0.0000      -0.083547        -2.2734
 297   0.0000      -0.066081        -1.7981

MULLIKEN ATOMIC CHARGES
-----------------------
   0 C :    0.324541
   1 C :   -0.357126
   2 C :   -0.184657
   3 N :    0.154062
   4 C :   -0.190971
   5 N :    0.155976
   6 C :    0.017424
   7 C :   -0.011777
   8 C :   -0.073402
   9 C :    0.122352
  10 C :   -0.092899
  11 C :   -0.022629
  12 S :    0.190967
  13 C :   -0.122317
  14 C :    0.035558
  15 Br:    0.026979
  16 C :    0.164652
  17 O :   -0.189402
  18 C :   -0.086142
  19 C :   -0.033307
  20 C :   -0.052577
  21 C :   -0.063870
  22 C :    0.050814
  23 C :   -0.072789
  24 S :    0.245123
  25 C :   -0.094500
  26 C :    0.032594
  27 C :    0.311493
  28 C :   -0.299969
  29 C :   -0.195749
  30 N :    0.181653
  31 C :   -0.187199
  32 N :    0.176938
  33 C :   -0.052484
  34 C :   -0.138607
  35 S :    0.216347
  36 C :    0.120268
  37 C :    0.115155
  38 F :   -0.173024
  39 C :    0.167511
  40 F :   -0.159283
  41 C :   -0.000528
  42 C :    0.017334
  43 C :    0.002626
  44 N :   -0.289332
  45 S :    0.555161
  46 N :   -0.253482
  47 C :   -0.188958
  48 C :    0.033234
  49 C :    0.198373
  50 O :   -0.160343
  51 N :   -0.307137
  52 C :    0.140832
  53 C :    0.193370
  54 O :   -0.170106
  55 C :    0.055997
  56 C :   -0.155081
  57 S :    0.215829
  58 C :   -0.010412
  59 C :   -0.049752
  60 C :    0.311565
  61 C :   -0.346371
  62 C :   -0.183139
  63 N :    0.155998
  64 C :   -0.186870
  65 N :    0.154001
  66 C :    0.053248
  67 C :    0.004345
  68 C :    0.160035
  69 O :   -0.148122
  70 C :   -0.069102
  71 C :    0.094063
  72 C :    0.095245
  73 C :   -0.082318
  74 C :   -0.015068
  75 C :    0.035668
  76 C :    0.037126
  77 C :   -0.013481
  78 H :   -0.010044
  79 H :   -0.005811
  80 H :   -0.001807
  81 H :    0.017175
  82 H :    0.029134
  83 H :    0.028288
  84 H :    0.051484
  85 H :    0.039465
  86 H :    0.040710
  87 H :    0.028922
  88 H :   -0.014638
  89 H :   -0.008748
  90 H :   -0.008293
  91 H :   -0.003911
  92 H :   -0.004435
  93 H :   -0.017671
Sum of atomic charges:    0.0000000

LOEWDIN ATOMIC CHARGES
----------------------
   0 C :    0.076069
   1 C :   -0.139892
   2 C :   -0.017959
   3 N :   -0.051467
   4 C :   -0.023511
   5 N :   -0.045997
   6 C :   -0.019488
   7 C :   -0.051789
   8 C :    0.022858
   9 C :   -0.032608
  10 C :   -0.143222
  11 C :   -0.008581
  12 S :    0.436553
  13 C :   -0.270924
  14 C :   -0.070530
  15 Br:    0.139378
  16 C :    0.086293
  17 O :   -0.174297
  18 C :   -0.110151
  19 C :    0.056446
  20 C :   -0.183268
  21 C :    0.011891
  22 C :   -0.075319
  23 C :   -0.167283
  24 S :    0.549046
  25 C :   -0.186082
  26 C :   -0.060151
  27 C :    0.077177
  28 C :   -0.099185
  29 C :   -0.019970
  30 N :   -0.024826
  31 C :   -0.017230
  32 N :   -0.029139
  33 C :   -0.012765
  34 C :   -0.162524
  35 S :    0.499348
  36 C :   -0.054648
  37 C :    0.059079
  38 F :   -0.047633
  39 C :    0.073808
  40 F :   -0.042448
  41 C :   -0.074853
  42 C :   -0.039447
  43 C :   -0.039092
  44 N :   -0.276523
  45 S :    0.681367
  46 N :   -0.262426
  47 C :   -0.129924
  48 C :   -0.075292
  49 C :    0.093198
  50 O :   -0.158373
  51 N :   -0.031074
  52 C :    0.037627
  53 C :    0.093469
  54 O :   -0.157913
  55 C :   -0.059530
  56 C :   -0.148696
  57 S :    0.490416
  58 C :    0.038141
  59 C :   -0.057086
  60 C :    0.076535
  61 C :   -0.130698
  62 C :   -0.016868
  63 N :   -0.047331
  64 C :   -0.019427
  65 N :   -0.046955
  66 C :   -0.024056
  67 C :   -0.048946
  68 C :    0.090552
  69 O :   -0.138482
  70 C :    0.037014
  71 C :   -0.006389
  72 C :   -0.004969
  73 C :    0.021101
  74 C :   -0.004465
  75 C :   -0.012319
  76 C :   -0.010719
  77 C :   -0.008897
  78 H :    0.041147
  79 H :    0.041595
  80 H :    0.039212
  81 H :    0.053868
  82 H :    0.048359
  83 H :    0.039711
  84 H :    0.037432
  85 H :    0.032421
  86 H :    0.034360
  87 H :    0.046054
  88 H :    0.039130
  89 H :    0.039013
  90 H :    0.035127
  91 H :    0.033647
  92 H :    0.033196
  93 H :    0.031997

  Mayer bond orders larger than 0.100000
B(  0-C ,  1-C ) :   1.6272 B(  0-C ,  6-C ) :   1.0004 B(  0-C , 18-C ) :   1.0753
B(  1-C ,  2-C ) :   1.1465 B(  1-C ,  4-C ) :   1.1446 B(  2-C ,  3-N ) :   2.9681
B(  4-C ,  5-N ) :   2.9635 B(  6-C ,  7-C ) :   1.2722 B(  6-C , 11-C ) :   1.4127
B(  7-C ,  8-C ) :   1.4188 B(  7-C , 16-C ) :   0.9639 B(  8-C ,  9-C ) :   1.2438
B(  8-C , 78-H ) :   1.0178 B(  9-C , 10-C ) :   1.3037 B(  9-C , 14-C ) :   1.1633
B( 10-C , 11-C ) :   1.3274 B( 10-C , 12-S ) :   1.0899 B( 11-C , 79-H ) :   0.9802
B( 12-S , 13-C ) :   1.0867 B( 13-C , 14-C ) :   1.6166 B( 13-C , 15-Br) :   1.0206
B( 14-C , 80-H ) :   1.0007 B( 16-C , 17-O ) :   2.1121 B( 16-C , 18-C ) :   0.9823
B( 18-C , 19-C ) :   1.4965 B( 19-C , 20-C ) :   1.2638 B( 19-C , 81-H ) :   0.9407
B( 20-C , 21-C ) :   1.3290 B( 20-C , 24-S ) :   1.0720 B( 21-C , 22-C ) :   1.3285
B( 21-C , 82-H ) :   1.0091 B( 22-C , 23-C ) :   1.3609 B( 22-C , 27-C ) :   0.9817
B( 23-C , 24-S ) :   1.1265 B( 23-C , 25-C ) :   1.1994 B( 25-C , 26-C ) :   1.4184
B( 25-C , 35-S ) :   1.1103 B( 26-C , 27-C ) :   1.0010 B( 26-C , 33-C ) :   1.2590
B( 27-C , 28-C ) :   1.7147 B( 28-C , 29-C ) :   1.1350 B( 28-C , 31-C ) :   1.1381
B( 29-C , 30-N ) :   2.9934 B( 31-C , 32-N ) :   2.9856 B( 33-C , 34-C ) :   1.4621
B( 33-C , 83-H ) :   0.9784 B( 34-C , 35-S ) :   1.1008 B( 34-C , 36-C ) :   1.1481
B( 36-C , 37-C ) :   1.3752 B( 36-C , 41-C ) :   0.1271 B( 36-C , 43-C ) :   1.1727
B( 37-C , 38-F ) :   1.1310 B( 37-C , 39-C ) :   1.1483 B( 39-C , 40-F ) :   1.1888
B( 39-C , 41-C ) :   1.4142 B( 41-C , 42-C ) :   1.2128 B( 41-C , 47-C ) :   1.0355
B( 42-C , 43-C ) :   1.1451 B( 42-C , 46-N ) :   1.5442 B( 43-C , 44-N ) :   1.5341
B( 44-N , 45-S ) :   1.2665 B( 44-N , 46-N ) :   0.1420 B( 45-S , 46-N ) :   1.2840
B( 47-C , 48-C ) :   1.5484 B( 47-C , 57-S ) :   1.1666 B( 48-C , 49-C ) :   0.8842
B( 48-C , 55-C ) :   1.2921 B( 49-C , 50-O ) :   2.1940 B( 49-C , 51-N ) :   1.0690
B( 51-N , 52-C ) :   0.9429 B( 51-N , 53-C ) :   1.0832 B( 52-C , 84-H ) :   0.9605
B( 52-C , 85-H ) :   0.9775 B( 52-C , 86-H ) :   0.9721 B( 53-C , 54-O ) :   2.1769
B( 53-C , 55-C ) :   0.8864 B( 55-C , 56-C ) :   1.5325 B( 56-C , 57-S ) :   1.1245
B( 56-C , 58-C ) :   1.0818 B( 58-C , 59-C ) :   1.7061 B( 58-C , 87-H ) :   0.9275
B( 59-C , 60-C ) :   1.0639 B( 59-C , 68-C ) :   0.9065 B( 60-C , 61-C ) :   1.6429
B( 60-C , 66-C ) :   1.0001 B( 61-C , 62-C ) :   1.1446 B( 61-C , 64-C ) :   1.1415
B( 62-C , 63-N ) :   2.9664 B( 64-C , 65-N ) :   2.9646 B( 66-C , 67-C ) :   1.2133
B( 66-C , 73-C ) :   1.4384 B( 67-C , 68-C ) :   0.9403 B( 67-C , 70-C ) :   1.4716
B( 68-C , 69-O ) :   2.2361 B( 70-C , 71-C ) :   1.1862 B( 70-C , 88-H ) :   1.0137
B( 71-C , 72-C ) :   1.2512 B( 71-C , 77-C ) :   1.2430 B( 72-C , 73-C ) :   1.2156
B( 72-C , 74-C ) :   1.2376 B( 73-C , 89-H ) :   0.9872 B( 74-C , 75-C ) :   1.4921
B( 74-C , 90-H ) :   0.9966 B( 75-C , 76-C ) :   1.2559 B( 75-C , 91-H ) :   0.9890
B( 76-C , 77-C ) :   1.4919 B( 76-C , 92-H ) :   0.9890 B( 77-C , 93-H ) :   0.9966

-----------------------------------------------------------------------------
         ABSORPTION SPECTRUM VIA TRANSITION ELECTRIC DIPOLE MOMENTS
-----------------------------------------------------------------------------
State   Energy  Wavelength   fosc         T2         TX        TY        TZ
        (cm-1)    (nm)                  (au**2)     (au)      (au)      (au)
-----------------------------------------------------------------------------
   0   15037.7    665.0   0.583203884  12.76773   3.19683  -1.33287   0.87834
   1   20015.3    499.6   1.774170210  29.18155   4.76796  -2.32476   1.02157
   2   22396.2    446.5   0.183429403   2.69632  -0.87607  -0.73993  -1.17529
   3   24339.6    410.9   0.030565874   0.41343  -0.26251  -0.02679  -0.58634
   4   24843.1    402.5   0.027613644   0.36593  -0.45049  -0.38381   0.12522
   5   25695.0    389.2   0.009381268   0.12020   0.29736  -0.17787   0.01158
   6   26020.4    384.3   0.009390035   0.11880   0.31758  -0.00037   0.13397
   7   26443.7    378.2   0.035739130   0.44494  -0.34479   0.35820   0.44468
   8   27576.5    362.6   0.236551442   2.82398  -0.16716  -0.83647  -1.44788
   9   28041.5    356.6   0.064057659   0.75205  -0.06229  -0.49776   0.70739
  10   28869.9    346.4   0.005220919   0.05954   0.07745  -0.02540  -0.22998
  11   29061.9    344.1   0.299326069   3.39076   1.51414  -0.09508   1.04360
  12   29468.5    339.3   0.054247362   0.60603  -0.39031   0.55659   0.37934
  13   30107.8    332.1   0.161186040   1.76248   0.31110  -0.99153  -0.82618
  14   30445.5    328.5   0.006239461   0.06747   0.17243   0.18754  -0.05065
  15   30731.5    325.4   0.092150834   0.98717   0.84780   0.49290  -0.15956
  16   31591.2    316.5   0.096849222   1.00927  -0.57690   0.37258   0.73324
  17   31852.8    313.9   0.339673417   3.51066   0.74165   0.38397   1.67725
  18   32079.1    311.7   0.149682388   1.53611   1.16676  -0.32124   0.26757
  19   32320.8    309.4   0.157787355   1.60719   0.48147  -0.69370  -0.94560
  20   32459.0    308.1   0.041503061   0.42094   0.17121   0.53454  -0.32541
  21   32654.9    306.2   0.361141916   3.64087   0.30537   0.94153   1.63130
  22   33019.2    302.9   0.685612186   6.83577  -2.50050  -0.60960   0.46009
  23   33160.2    301.6   0.008932667   0.08868  -0.06809  -0.28837   0.02984
  24   33302.1    300.3   0.030087646   0.29744   0.04952   0.50920  -0.18894
  25   33410.3    299.3   0.033421766   0.32932  -0.18314  -0.29807   0.45491
  26   33745.1    296.3   0.255492014   2.49254   0.04228   0.98879   1.23006
  27   34255.3    291.9   0.126177435   1.21263  -0.76493   0.59585   0.52200
  28   34531.6    289.6   0.111519916   1.06319  -0.22223   0.32684   0.95235
  29   34758.3    287.7   0.064428341   0.61023  -0.74117  -0.11668  -0.21746
  30   35066.5    285.2   0.082795943   0.77731  -0.77337  -0.19610  -0.37518
  31   35302.0    283.3   0.135093887   1.25983   0.29661  -0.54193  -0.93711
  32   35602.3    280.9   0.185794083   1.71802  -1.17709   0.01947  -0.57629
  33   36055.0    277.4   0.041217174   0.37635  -0.43065   0.20983   0.38322
  34   36182.4    276.4   0.015994084   0.14552   0.32318  -0.17988  -0.09340
  35   36308.7    275.4   0.083911466   0.76083  -0.80870  -0.05481  -0.32223
  36   36550.9    273.6   0.081657686   0.73549  -0.76512  -0.16911  -0.34853
  37   36618.0    273.1   0.105055239   0.94449   0.44682  -0.80186  -0.31916
  38   36756.4    272.1   0.019303536   0.17289  -0.36699   0.09036   0.17334
  39   37030.1    270.1   0.023520039   0.20910  -0.24827  -0.29550   0.24524
  40   37148.9    269.2   0.070424107   0.62410   0.03904   0.53221  -0.58252
  41   37491.0    266.7   0.053760376   0.47207   0.63912  -0.03568   0.24965
  42   37648.2    265.6   0.040434410   0.35358  -0.18884  -0.30798  -0.47229
  43   37738.1    265.0   0.011881167   0.10365  -0.25356   0.11816  -0.15936
  44   38091.8    262.5   0.011422476   0.09872   0.30370   0.07791  -0.02037
  45   38127.3    262.3   0.053191769   0.45929   0.46604  -0.23160   0.43411
  46   38261.8    261.4   0.075095901   0.64614  -0.56787   0.21950  -0.52486
  47   38484.6    259.8   0.020809772   0.17801  -0.09208  -0.39910   0.10126
  48   38798.3    257.7   0.232340952   1.97146  -0.86944   1.01568   0.42888
  49   38999.6    256.4   0.114689167   0.96814   0.66943  -0.72005  -0.03914
  50   39416.4    253.7   0.052277181   0.43663  -0.49167   0.24235  -0.36898
  51   39528.6    253.0   0.097109709   0.80877   0.69093  -0.55665   0.14674
  52   39582.6    252.6   0.010068864   0.08374  -0.07613   0.27846   0.02017
  53   39960.7    250.2   0.046561466   0.38359   0.24597  -0.01578  -0.56819
  54   40088.4    249.4   0.120216417   0.98724  -0.39174  -0.91180  -0.04888
  55   40233.3    248.6   0.028972857   0.23707  -0.20254   0.24043  -0.37181

FINAL SINGLE POINT ENERGY     -7735.320770053431

DIPOLE MOMENT
-------------
                                X             Y             Z
Electronic contribution:    181.38432     -27.53384      91.15785
Nuclear contribution   :   -184.09533      28.10365     -88.57834
                        -----------------------------------------
Total Dipole Moment    :     -2.71100       0.56981       2.57951
                        -----------------------------------------
Magnitude (a.u.)       :      3.78525
Magnitude (Debye)      :      9.62133

Rotational constants in cm-1:     0.001346     0.000163     0.000150
Rotational constants in MHz :    40.344324     4.878202     4.491639

                             ****ORCA TERMINATED NORMALLY****
TOTAL RUN TIME: 0 days 0 hours 9 minutes 43 seconds 336 msec
