                         Program Version 4.2.0 -  RELEASE  -
|  1> # ORCA input file
|  2> # SCF done       -190.563137224937          0.000629428348
|  3> ! CAM-B3LYP def2-SVP def2/J RIJCOSX Grid4 TightSCF
|  4> %maxcore 5000
|  5> %tddft
|  6>     Mode sTDDFT
|  7>     Ethresh 5.0
|  8>     maxcore 5000
|  9> end
| 10>
| 11> %pal
| 12>   nprocs 6
| 13>   end
| 14> * xyz 0 1
| 15>    C        1.59072        -0.84948        -0.42998
| 16>    C        0.28132        -1.08273        -0.76261
| 17>    C       -0.36951        -0.48964        -1.86537
| 18>    N       -0.95174        -0.03581        -2.74354
| 19>    C       -0.60294        -1.86141         0.00909
| 20>    N       -1.36937        -2.46299         0.61675
| 21>    C        2.44410         0.14970        -1.07252
| 22>    C        3.49841         0.47635        -0.20044
| 23>    C        4.44279         1.42638        -0.53159
| 24>    C        4.34039         2.05455        -1.76703
| 25>    C        3.30453         1.72069        -2.64724
| 26>    C        2.34779         0.77037        -2.30570
| 27>   Cl        3.20456         2.49041        -4.17785
| 28>   Cl        5.49608         3.24233        -2.21518
| 29>    C        3.40385        -0.35574         1.01843
| 30>    O        4.10281        -0.31663         2.00383
| 31>    C        2.28671        -1.30245         0.75453
| 32>    C        2.15221        -2.39802         1.55901
| 33>    C        1.46049        -3.59664         1.30260
| 34>    C        1.03101        -4.11178         0.08647
| 35>    C        0.39598        -5.33585         0.22592
| 36>    C        0.33672        -5.77892         1.56877
| 37>    S        1.09226        -4.69082         2.63784
| 38>    C       -0.36640        -7.00222         1.60232
| 39>    C       -0.75561        -7.33261         0.28916
| 40>    C       -0.29177        -6.29241        -0.61570
| 41>    C       -0.49718        -6.21202        -1.96366
| 42>    C       -1.20447        -7.20770        -2.66681
| 43>    N       -1.77425        -8.03307        -3.22375
| 44>    C       -0.01348        -5.12131        -2.71535
| 45>    N        0.39110        -4.22743        -3.30903
| 46>    C       -1.48062        -8.51369         0.21182
| 47>    C       -1.65909        -9.10215         1.45740
| 48>    S       -0.90064        -8.16709         2.73787
| 49>    C       -2.37641       -10.29449         1.75499
| 50>    C       -3.02847       -11.02721         0.78734
| 51>    C       -3.77951       -12.17129         1.02884
| 52>    C       -3.95266       -12.70049         2.38402
| 53>    C       -3.38879       -12.15633         3.48430
| 54>    S       -2.39765       -10.75632         3.45262
| 55>    C       -4.80556       -13.82813         2.23682
| 56>    C       -5.15319       -13.99681         0.89216
| 57>    C       -5.98765       -15.12382         0.71072
| 58>    C       -6.24922       -15.75216         1.88641
| 59>    S       -5.49799       -15.01797         3.26094
| 60>    C       -4.51400       -12.96380         0.11775
| 61>    C       -4.56577       -12.73450        -1.27470
| 62>    C       -5.40859       -13.33332        -2.15828
| 63>    C       -5.42078       -13.06967        -3.54959
| 64>    C       -4.53871       -12.32028        -4.31073
| 65>    C       -4.90149       -12.29562        -5.65321
| 66>    C       -6.07575       -13.01452        -5.94835
| 67>    S       -6.71520       -13.75432        -4.52412
| 68>    C       -6.45805       -12.97173        -7.28087
| 69>    C       -5.57742       -12.22026        -8.04458
| 70>    S       -4.24544       -11.57895        -7.07197
| 71>    C       -5.53805       -11.91340        -9.41867
| 72>    C       -6.48315       -12.05535       -10.39781
| 73>    C       -6.25484       -11.68832       -11.78648
| 74>    C       -5.03932       -11.54377       -12.40374
| 75>    C       -4.88236       -11.20831       -13.76474
| 76>    N       -4.68799       -10.93281       -14.86220
| 77>    C       -3.78428       -11.76684       -11.79852
| 78>    N       -2.72637       -11.95476       -11.39261
| 79>    C       -7.55180       -11.59283       -12.44183
| 80>    C       -8.54713       -12.02100       -11.52946
| 81>    C       -7.91920       -12.39120       -10.24782
| 82>    O       -8.49598       -12.85556        -9.28570
| 83>    C       -9.88237       -12.05199       -11.85197
| 84>    C      -10.25410       -11.63228       -13.13270
| 85>    C       -9.25295       -11.20066       -14.03558
| 86>    C       -7.90142       -11.17591       -13.71201
| 87>    S       -9.94162       -10.71913       -15.55406
| 88>    C      -11.52997       -11.09283       -14.97994
| 89>    C      -11.55237       -11.55684       -13.71154
| 90>    H        5.23959         1.67330         0.15196
| 91>    H        1.56696         0.52960        -3.00871
| 92>    H        2.71498        -2.35336         2.48635
| 93>    H        1.22033        -3.62615        -0.85340
| 94>    H       -1.86340        -8.92221        -0.70414
| 95>    H       -2.95991       -10.66962        -0.22877
| 96>    H       -3.52639       -12.56424         4.47312
| 97>    H       -6.37499       -15.47301        -0.22826
| 98>    H       -6.85101       -16.62626         2.04126
| 99>    H       -3.87971       -11.99073        -1.65512
|100>    H       -6.15311       -14.02935        -1.80416
|101>    H       -3.67188       -11.82504        -3.91590
|102>    H       -7.32963       -13.44715        -7.68955
|103>    H       -4.60573       -11.44892        -9.72092
|104>    H      -10.61680       -12.38600       -11.13552
|105>    H       -7.17703       -10.83352       -14.43199
|106>    H      -12.36203       -10.93828       -15.63909
|107>    H      -12.44853       -11.83904       -13.18917
|108> *
|109>
|110>                          ****END OF INPUT****

CARTESIAN COORDINATES (ANGSTROEM)
---------------------------------
  C      1.590720   -0.849480   -0.429980
  C      0.281320   -1.082730   -0.762610
  C     -0.369510   -0.489640   -1.865370
  N     -0.951740   -0.035810   -2.743540
  C     -0.602940   -1.861410    0.009090
  N     -1.369370   -2.462990    0.616750
  C      2.444100    0.149700   -1.072520
  C      3.498410    0.476350   -0.200440
  C      4.442790    1.426380   -0.531590
  C      4.340390    2.054550   -1.767030
  C      3.304530    1.720690   -2.647240
  C      2.347790    0.770370   -2.305700
  Cl     3.204560    2.490410   -4.177850
  Cl     5.496080    3.242330   -2.215180
  C      3.403850   -0.355740    1.018430
  O      4.102810   -0.316630    2.003830
  C      2.286710   -1.302450    0.754530
  C      2.152210   -2.398020    1.559010
  C      1.460490   -3.596640    1.302600
  C      1.031010   -4.111780    0.086470
  C      0.395980   -5.335850    0.225920
  C      0.336720   -5.778920    1.568770
  S      1.092260   -4.690820    2.637840
  C     -0.366400   -7.002220    1.602320
  C     -0.755610   -7.332610    0.289160
  C     -0.291770   -6.292410   -0.615700
  C     -0.497180   -6.212020   -1.963660
  C     -1.204470   -7.207700   -2.666810
  N     -1.774250   -8.033070   -3.223750
  C     -0.013480   -5.121310   -2.715350
  N      0.391100   -4.227430   -3.309030
  C     -1.480620   -8.513690    0.211820
  C     -1.659090   -9.102150    1.457400
  S     -0.900640   -8.167090    2.737870
  C     -2.376410  -10.294490    1.754990
  C     -3.028470  -11.027210    0.787340
  C     -3.779510  -12.171290    1.028840
  C     -3.952660  -12.700490    2.384020
  C     -3.388790  -12.156330    3.484300
  S     -2.397650  -10.756320    3.452620
  C     -4.805560  -13.828130    2.236820
  C     -5.153190  -13.996810    0.892160
  C     -5.987650  -15.123820    0.710720
  C     -6.249220  -15.752160    1.886410
  S     -5.497990  -15.017970    3.260940
  C     -4.514000  -12.963800    0.117750
  C     -4.565770  -12.734500   -1.274700
  C     -5.408590  -13.333320   -2.158280
  C     -5.420780  -13.069670   -3.549590
  C     -4.538710  -12.320280   -4.310730
  C     -4.901490  -12.295620   -5.653210
  C     -6.075750  -13.014520   -5.948350
  S     -6.715200  -13.754320   -4.524120
  C     -6.458050  -12.971730   -7.280870
  C     -5.577420  -12.220260   -8.044580
  S     -4.245440  -11.578950   -7.071970
  C     -5.538050  -11.913400   -9.418670
  C     -6.483150  -12.055350  -10.397810
  C     -6.254840  -11.688320  -11.786480
  C     -5.039320  -11.543770  -12.403740
  C     -4.882360  -11.208310  -13.764740
  N     -4.687990  -10.932810  -14.862200
  C     -3.784280  -11.766840  -11.798520
  N     -2.726370  -11.954760  -11.392610
  C     -7.551800  -11.592830  -12.441830
  C     -8.547130  -12.021000  -11.529460
  C     -7.919200  -12.391200  -10.247820
  O     -8.495980  -12.855560   -9.285700
  C     -9.882370  -12.051990  -11.851970
  C    -10.254100  -11.632280  -13.132700
  C     -9.252950  -11.200660  -14.035580
  C     -7.901420  -11.175910  -13.712010
  S     -9.941620  -10.719130  -15.554060
  C    -11.529970  -11.092830  -14.979940
  C    -11.552370  -11.556840  -13.711540
  H      5.239590    1.673300    0.151960
  H      1.566960    0.529600   -3.008710
  H      2.714980   -2.353360    2.486350
  H      1.220330   -3.626150   -0.853400
  H     -1.863400   -8.922210   -0.704140
  H     -2.959910  -10.669620   -0.228770
  H     -3.526390  -12.564240    4.473120
  H     -6.374990  -15.473010   -0.228260
  H     -6.851010  -16.626260    2.041260
  H     -3.879710  -11.990730   -1.655120
  H     -6.153110  -14.029350   -1.804160
  H     -3.671880  -11.825040   -3.915900
  H     -7.329630  -13.447150   -7.689550
  H     -4.605730  -11.448920   -9.720920
  H    -10.616800  -12.386000  -11.135520
  H     -7.177030  -10.833520  -14.431990
  H    -12.362030  -10.938280  -15.639090
  H    -12.448530  -11.839040  -13.189170

 Total Charge           Charge          ....    0
 Multiplicity           Mult            ....    1
 Number of Electrons    NEL             ....  570
 Basis Dimension        Dim             .... 1176

ORBITAL ENERGIES
----------------

  NO   OCC          E(Eh)            E(eV)
   0   2.0000    -101.600997     -2764.7037
   1   2.0000    -101.599416     -2764.6606
   2   2.0000     -89.002749     -2421.8879
   3   2.0000     -89.001617     -2421.8571
   4   2.0000     -88.990115     -2421.5441
   5   2.0000     -88.967960     -2420.9413
   6   2.0000     -88.961014     -2420.7523
   7   2.0000     -88.960622     -2420.7416
   8   2.0000     -88.959385     -2420.7079
   9   2.0000     -19.222995      -523.0843
  10   2.0000     -19.210237      -522.7371
  11   2.0000     -14.440716      -392.9519
  12   2.0000     -14.439002      -392.9052
  13   2.0000     -14.423722      -392.4894
  14   2.0000     -14.418213      -392.3395
  15   2.0000     -14.405347      -391.9894
  16   2.0000     -14.405075      -391.9820
  17   2.0000     -10.374643      -282.3084
  18   2.0000     -10.374530      -282.3053
  19   2.0000     -10.361533      -281.9517
  20   2.0000     -10.361376      -281.9474
  21   2.0000     -10.357625      -281.8453
  22   2.0000     -10.357066      -281.8301
  23   2.0000     -10.351597      -281.6813
  24   2.0000     -10.350709      -281.6571
  25   2.0000     -10.349886      -281.6347
  26   2.0000     -10.344949      -281.5004
  27   2.0000     -10.342392      -281.4308
  28   2.0000     -10.341590      -281.4090
  29   2.0000     -10.341082      -281.3952
  30   2.0000     -10.340649      -281.3834
  31   2.0000     -10.338977      -281.3379
  32   2.0000     -10.332430      -281.1597
  33   2.0000     -10.331583      -281.1367
  34   2.0000     -10.331143      -281.1247
  35   2.0000     -10.330986      -281.1204
  36   2.0000     -10.324794      -280.9519
  37   2.0000     -10.320236      -280.8279
  38   2.0000     -10.319095      -280.7969
  39   2.0000     -10.318433      -280.7788
  40   2.0000     -10.318415      -280.7783
  41   2.0000     -10.317587      -280.7558
  42   2.0000     -10.314518      -280.6723
  43   2.0000     -10.313700      -280.6500
  44   2.0000     -10.313399      -280.6418
  45   2.0000     -10.313116      -280.6342
  46   2.0000     -10.312875      -280.6276
  47   2.0000     -10.311468      -280.5893
  48   2.0000     -10.311114      -280.5797
  49   2.0000     -10.310715      -280.5688
  50   2.0000     -10.310503      -280.5630
  51   2.0000     -10.309001      -280.5222
  52   2.0000     -10.308594      -280.5111
  53   2.0000     -10.308461      -280.5075
  54   2.0000     -10.308369      -280.5050
  55   2.0000     -10.306797      -280.4622
  56   2.0000     -10.305377      -280.4236
  57   2.0000     -10.304267      -280.3933
  58   2.0000     -10.302418      -280.3430
  59   2.0000     -10.300103      -280.2801
  60   2.0000     -10.298785      -280.2442
  61   2.0000     -10.298087      -280.2252
  62   2.0000     -10.295698      -280.1602
  63   2.0000     -10.294956      -280.1400
  64   2.0000     -10.291890      -280.0566
  65   2.0000     -10.291716      -280.0518
  66   2.0000     -10.290764      -280.0259
  67   2.0000     -10.289220      -279.9839
  68   2.0000     -10.289125      -279.9813
  69   2.0000     -10.288286      -279.9585
  70   2.0000     -10.287286      -279.9313
  71   2.0000     -10.285645      -279.8866
  72   2.0000     -10.285448      -279.8813
  73   2.0000     -10.283473      -279.8275
  74   2.0000     -10.282743      -279.8077
  75   2.0000      -9.555994      -260.0318
  76   2.0000      -9.554496      -259.9910
  77   2.0000      -8.097268      -220.3379
  78   2.0000      -8.096312      -220.3119
  79   2.0000      -8.085714      -220.0235
  80   2.0000      -8.063457      -219.4178
  81   2.0000      -8.056786      -219.2363
  82   2.0000      -8.056614      -219.2316
  83   2.0000      -8.054936      -219.1860
  84   2.0000      -7.326392      -199.3613
  85   2.0000      -7.324915      -199.3211
  86   2.0000      -7.316254      -199.0854
  87   2.0000      -7.315522      -199.0655
  88   2.0000      -7.314736      -199.0441
  89   2.0000      -7.313992      -199.0238
  90   2.0000      -6.066627      -165.0813
  91   2.0000      -6.065503      -165.0507
  92   2.0000      -6.062329      -164.9644
  93   2.0000      -6.061338      -164.9374
  94   2.0000      -6.059510      -164.8877
  95   2.0000      -6.058748      -164.8669
  96   2.0000      -6.055378      -164.7752
  97   2.0000      -6.050801      -164.6507
  98   2.0000      -6.047393      -164.5579
  99   2.0000      -6.032860      -164.1625
 100   2.0000      -6.028615      -164.0469
 101   2.0000      -6.026280      -163.9834
 102   2.0000      -6.026092      -163.9783
 103   2.0000      -6.025528      -163.9630
 104   2.0000      -6.024346      -163.9308
 105   2.0000      -6.022154      -163.8711
 106   2.0000      -6.022022      -163.8675
 107   2.0000      -6.020440      -163.8245
 108   2.0000      -6.018499      -163.7717
 109   2.0000      -6.018120      -163.7614
 110   2.0000      -6.016509      -163.7175
 111   2.0000      -1.138577       -30.9823
 112   2.0000      -1.124870       -30.6093
 113   2.0000      -1.057060       -28.7641
 114   2.0000      -1.033608       -28.1259
 115   2.0000      -1.031619       -28.0718
 116   2.0000      -1.022473       -27.8229
 117   2.0000      -1.019446       -27.7405
 118   2.0000      -1.017153       -27.6781
 119   2.0000      -1.012534       -27.5525
 120   2.0000      -1.010833       -27.5062
 121   2.0000      -1.010297       -27.4916
 122   2.0000      -1.000294       -27.2194
 123   2.0000      -0.999126       -27.1876
 124   2.0000      -0.994440       -27.0601
 125   2.0000      -0.985279       -26.8108
 126   2.0000      -0.984097       -26.7786
 127   2.0000      -0.977188       -26.5906
 128   2.0000      -0.967581       -26.3292
 129   2.0000      -0.962612       -26.1940
 130   2.0000      -0.955897       -26.0113
 131   2.0000      -0.941339       -25.6151
 132   2.0000      -0.938171       -25.5289
 133   2.0000      -0.927035       -25.2259
 134   2.0000      -0.922156       -25.0932
 135   2.0000      -0.910410       -24.7735
 136   2.0000      -0.900565       -24.5056
 137   2.0000      -0.896360       -24.3912
 138   2.0000      -0.887376       -24.1467
 139   2.0000      -0.882910       -24.0252
 140   2.0000      -0.874109       -23.7857
 141   2.0000      -0.870034       -23.6748
 142   2.0000      -0.866797       -23.5868
 143   2.0000      -0.865783       -23.5592
 144   2.0000      -0.862755       -23.4768
 145   2.0000      -0.859241       -23.3811
 146   2.0000      -0.847039       -23.0491
 147   2.0000      -0.831268       -22.6200
 148   2.0000      -0.816785       -22.2259
 149   2.0000      -0.815898       -22.2017
 150   2.0000      -0.808380       -21.9971
 151   2.0000      -0.801415       -21.8076
 152   2.0000      -0.792559       -21.5666
 153   2.0000      -0.788032       -21.4434
 154   2.0000      -0.778946       -21.1962
 155   2.0000      -0.770054       -20.9542
 156   2.0000      -0.757774       -20.6201
 157   2.0000      -0.749412       -20.3925
 158   2.0000      -0.741734       -20.1836
 159   2.0000      -0.736089       -20.0300
 160   2.0000      -0.724829       -19.7236
 161   2.0000      -0.710673       -19.3384
 162   2.0000      -0.707931       -19.2638
 163   2.0000      -0.695916       -18.9368
 164   2.0000      -0.695287       -18.9197
 165   2.0000      -0.687071       -18.6962
 166   2.0000      -0.682430       -18.5699
 167   2.0000      -0.681058       -18.5325
 168   2.0000      -0.675439       -18.3796
 169   2.0000      -0.668615       -18.1939
 170   2.0000      -0.665161       -18.1000
 171   2.0000      -0.657420       -17.8893
 172   2.0000      -0.654919       -17.8212
 173   2.0000      -0.648318       -17.6416
 174   2.0000      -0.644261       -17.5312
 175   2.0000      -0.642123       -17.4730
 176   2.0000      -0.638293       -17.3688
 177   2.0000      -0.629550       -17.1309
 178   2.0000      -0.624795       -17.0015
 179   2.0000      -0.623541       -16.9674
 180   2.0000      -0.613020       -16.6811
 181   2.0000      -0.612535       -16.6679
 182   2.0000      -0.607087       -16.5197
 183   2.0000      -0.594524       -16.1778
 184   2.0000      -0.593008       -16.1366
 185   2.0000      -0.586798       -15.9676
 186   2.0000      -0.582606       -15.8535
 187   2.0000      -0.578813       -15.7503
 188   2.0000      -0.577642       -15.7184
 189   2.0000      -0.572941       -15.5905
 190   2.0000      -0.566768       -15.4225
 191   2.0000      -0.565488       -15.3877
 192   2.0000      -0.559396       -15.2219
 193   2.0000      -0.555037       -15.1033
 194   2.0000      -0.551777       -15.0146
 195   2.0000      -0.547053       -14.8861
 196   2.0000      -0.545039       -14.8313
 197   2.0000      -0.539026       -14.6676
 198   2.0000      -0.535424       -14.5696
 199   2.0000      -0.534861       -14.5543
 200   2.0000      -0.531942       -14.4749
 201   2.0000      -0.529813       -14.4169
 202   2.0000      -0.527641       -14.3578
 203   2.0000      -0.527051       -14.3418
 204   2.0000      -0.523519       -14.2457
 205   2.0000      -0.521327       -14.1860
 206   2.0000      -0.516413       -14.0523
 207   2.0000      -0.515240       -14.0204
 208   2.0000      -0.514632       -14.0039
 209   2.0000      -0.512040       -13.9333
 210   2.0000      -0.509166       -13.8551
 211   2.0000      -0.507583       -13.8120
 212   2.0000      -0.506210       -13.7747
 213   2.0000      -0.505885       -13.7658
 214   2.0000      -0.502656       -13.6780
 215   2.0000      -0.496887       -13.5210
 216   2.0000      -0.494511       -13.4563
 217   2.0000      -0.493009       -13.4155
 218   2.0000      -0.487536       -13.2665
 219   2.0000      -0.485830       -13.2201
 220   2.0000      -0.484212       -13.1761
 221   2.0000      -0.481610       -13.1053
 222   2.0000      -0.480262       -13.0686
 223   2.0000      -0.478332       -13.0161
 224   2.0000      -0.474132       -12.9018
 225   2.0000      -0.471358       -12.8263
 226   2.0000      -0.470953       -12.8153
 227   2.0000      -0.469292       -12.7701
 228   2.0000      -0.467864       -12.7312
 229   2.0000      -0.465514       -12.6673
 230   2.0000      -0.462506       -12.5854
 231   2.0000      -0.457271       -12.4430
 232   2.0000      -0.456006       -12.4086
 233   2.0000      -0.455215       -12.3870
 234   2.0000      -0.451425       -12.2839
 235   2.0000      -0.449700       -12.2370
 236   2.0000      -0.448653       -12.2085
 237   2.0000      -0.447209       -12.1692
 238   2.0000      -0.446628       -12.1534
 239   2.0000      -0.443018       -12.0551
 240   2.0000      -0.441261       -12.0073
 241   2.0000      -0.440455       -11.9854
 242   2.0000      -0.438799       -11.9403
 243   2.0000      -0.438638       -11.9359
 244   2.0000      -0.436887       -11.8883
 245   2.0000      -0.435041       -11.8381
 246   2.0000      -0.433221       -11.7885
 247   2.0000      -0.432267       -11.7626
 248   2.0000      -0.431712       -11.7475
 249   2.0000      -0.430176       -11.7057
 250   2.0000      -0.428531       -11.6609
 251   2.0000      -0.427283       -11.6270
 252   2.0000      -0.426439       -11.6040
 253   2.0000      -0.425409       -11.5760
 254   2.0000      -0.423346       -11.5198
 255   2.0000      -0.417082       -11.3494
 256   2.0000      -0.416754       -11.3404
 257   2.0000      -0.413047       -11.2396
 258   2.0000      -0.411876       -11.2077
 259   2.0000      -0.410287       -11.1645
 260   2.0000      -0.407800       -11.0968
 261   2.0000      -0.403767       -10.9871
 262   2.0000      -0.401049       -10.9131
 263   2.0000      -0.396030       -10.7765
 264   2.0000      -0.382246       -10.4014
 265   2.0000      -0.379362       -10.3230
 266   2.0000      -0.376000       -10.2315
 267   2.0000      -0.370534       -10.0828
 268   2.0000      -0.363934        -9.9031
 269   2.0000      -0.359344        -9.7782
 270   2.0000      -0.350084        -9.5263
 271   2.0000      -0.346801        -9.4369
 272   2.0000      -0.344797        -9.3824
 273   2.0000      -0.335793        -9.1374
 274   2.0000      -0.333344        -9.0708
 275   2.0000      -0.331130        -9.0105
 276   2.0000      -0.324136        -8.8202
 277   2.0000      -0.313714        -8.5366
 278   2.0000      -0.307260        -8.3610
 279   2.0000      -0.298157        -8.1133
 280   2.0000      -0.297020        -8.0823
 281   2.0000      -0.289771        -7.8851
 282   2.0000      -0.283207        -7.7065
 283   2.0000      -0.265696        -7.2300
 284   2.0000      -0.229295        -6.2394
 285   0.0000      -0.121559        -3.3078
 286   0.0000      -0.095089        -2.5875
 287   0.0000      -0.088766        -2.4154
 288   0.0000      -0.070255        -1.9117
 289   0.0000      -0.063491        -1.7277

MULLIKEN ATOMIC CHARGES
-----------------------
   0 C :    0.265337
   1 C :   -0.327539
   2 C :   -0.175097
   3 N :    0.167968
   4 C :   -0.202681
   5 N :    0.170528
   6 C :    0.010075
   7 C :    0.005590
   8 C :   -0.030047
   9 C :    0.058530
  10 C :    0.051085
  11 C :   -0.012295
  12 Cl:   -0.033144
  13 Cl:   -0.042353
  14 C :    0.133564
  15 O :   -0.138635
  16 C :   -0.138679
  17 C :    0.084132
  18 C :   -0.112944
  19 C :   -0.001634
  20 C :   -0.009569
  21 C :   -0.069845
  22 S :    0.215195
  23 C :   -0.108320
  24 C :    0.024802
  25 C :    0.309944
  26 C :   -0.284099
  27 C :   -0.177036
  28 N :    0.162960
  29 C :   -0.183104
  30 N :    0.174636
  31 C :   -0.051230
  32 C :   -0.053985
  33 S :    0.195788
  34 C :   -0.032271
  35 C :   -0.061728
  36 C :    0.056683
  37 C :    0.069963
  38 C :   -0.123687
  39 S :    0.125541
  40 C :   -0.113280
  41 C :    0.052366
  42 C :   -0.003097
  43 C :   -0.065848
  44 S :    0.136172
  45 C :    0.095854
  46 C :   -0.016491
  47 C :    0.044272
  48 C :   -0.070962
  49 C :   -0.039025
  50 C :   -0.000008
  51 C :   -0.035130
  52 S :    0.142378
  53 C :    0.009822
  54 C :   -0.123603
  55 S :    0.154482
  56 C :    0.044807
  57 C :   -0.094133
  58 C :    0.292736
  59 C :   -0.347378
  60 C :   -0.186669
  61 N :    0.147794
  62 C :   -0.209171
  63 N :    0.158908
  64 C :    0.012383
  65 C :   -0.012025
  66 C :    0.154304
  67 O :   -0.163276
  68 C :   -0.068884
  69 C :    0.112017
  70 C :   -0.097483
  71 C :   -0.019238
  72 S :    0.138379
  73 C :   -0.050958
  74 C :    0.027992
  75 H :    0.000124
  76 H :    0.009294
  77 H :    0.022002
  78 H :    0.026620
  79 H :    0.008537
  80 H :   -0.020825
  81 H :    0.040204
  82 H :   -0.008829
  83 H :    0.030059
  84 H :   -0.028448
  85 H :   -0.033404
  86 H :   -0.006017
  87 H :    0.015882
  88 H :    0.018797
  89 H :   -0.015302
  90 H :   -0.006746
  91 H :    0.036995
  92 H :   -0.009351
Sum of atomic charges:    0.0000000

LOEWDIN ATOMIC CHARGES
----------------------
   0 C :    0.064128
   1 C :   -0.133947
   2 C :   -0.021735
   3 N :   -0.039382
   4 C :   -0.015422
   5 N :   -0.044246
   6 C :   -0.010556
   7 C :   -0.046455
   8 C :    0.001484
   9 C :   -0.135129
  10 C :   -0.128959
  11 C :   -0.011807
  12 Cl:    0.164921
  13 Cl:    0.159336
  14 C :    0.083144
  15 O :   -0.139475
  16 C :   -0.097386
  17 C :    0.045292
  18 C :   -0.184619
  19 C :    0.013198
  20 C :   -0.070902
  21 C :   -0.151300
  22 S :    0.497049
  23 C :   -0.194559
  24 C :   -0.050359
  25 C :    0.083109
  26 C :   -0.096806
  27 C :   -0.011825
  28 N :   -0.035378
  29 C :   -0.013830
  30 N :   -0.027851
  31 C :   -0.029789
  32 C :   -0.169001
  33 S :    0.473175
  34 C :   -0.190050
  35 C :   -0.007727
  36 C :   -0.021033
  37 C :   -0.047911
  38 C :   -0.137508
  39 S :    0.438241
  40 C :   -0.197556
  41 C :   -0.036555
  42 C :   -0.063781
  43 C :   -0.160982
  44 S :    0.430719
  45 C :   -0.040020
  46 C :   -0.002405
  47 C :   -0.053982
  48 C :   -0.136830
  49 C :   -0.075316
  50 C :   -0.175763
  51 C :   -0.208377
  52 S :    0.422351
  53 C :   -0.013661
  54 C :   -0.176451
  55 S :    0.436590
  56 C :    0.046259
  57 C :   -0.101521
  58 C :    0.077125
  59 C :   -0.146596
  60 C :   -0.018423
  61 N :   -0.058505
  62 C :   -0.027070
  63 N :   -0.054150
  64 C :   -0.022026
  65 C :   -0.051998
  66 C :    0.086943
  67 O :   -0.148409
  68 C :    0.020923
  69 C :   -0.036293
  70 C :   -0.146327
  71 C :   -0.009574
  72 S :    0.427348
  73 C :   -0.151581
  74 C :   -0.058369
  75 H :    0.046183
  76 H :    0.046505
  77 H :    0.046512
  78 H :    0.043225
  79 H :    0.038628
  80 H :    0.038508
  81 H :    0.038537
  82 H :    0.030519
  83 H :    0.025616
  84 H :    0.027781
  85 H :    0.026058
  86 H :    0.033898
  87 H :    0.037745
  88 H :    0.043985
  89 H :    0.038972
  90 H :    0.040513
  91 H :    0.028593
  92 H :    0.034354

  Mayer bond orders larger than 0.100000
B(  0-C ,  1-C ) :   1.6517 B(  0-C ,  6-C ) :   1.0000 B(  0-C , 16-C ) :   1.0460
B(  1-C ,  2-C ) :   1.1247 B(  1-C ,  4-C ) :   1.1720 B(  2-C ,  3-N ) :   2.9960
B(  4-C ,  5-N ) :   2.9984 B(  6-C ,  7-C ) :   1.3306 B(  6-C , 11-C ) :   1.3485
B(  7-C ,  8-C ) :   1.3490 B(  7-C , 14-C ) :   0.9202 B(  8-C ,  9-C ) :   1.3434
B(  8-C , 75-H ) :   1.0168 B(  9-C , 10-C ) :   1.4078 B(  9-C , 13-Cl) :   1.0486
B( 10-C , 11-C ) :   1.3569 B( 10-C , 12-Cl) :   1.0722 B( 11-C , 76-H ) :   0.9903
B( 14-C , 15-O ) :   2.2693 B( 14-C , 16-C ) :   0.9517 B( 16-C , 17-C ) :   1.6473
B( 17-C , 18-C ) :   1.1560 B( 17-C , 77-H ) :   0.9293 B( 18-C , 19-C ) :   1.3848
B( 18-C , 22-S ) :   1.0774 B( 19-C , 20-C ) :   1.3672 B( 19-C , 78-H ) :   0.9794
B( 20-C , 21-C ) :   1.3910 B( 20-C , 25-C ) :   1.0051 B( 21-C , 22-S ) :   1.1591
B( 21-C , 23-C ) :   1.2207 B( 23-C , 24-C ) :   1.4229 B( 23-C , 33-S ) :   1.1016
B( 24-C , 25-C ) :   0.9973 B( 24-C , 31-C ) :   1.3185 B( 25-C , 26-C ) :   1.7120
B( 26-C , 27-C ) :   1.1356 B( 26-C , 29-C ) :   1.1334 B( 27-C , 28-N ) :   2.9769
B( 29-C , 30-N ) :   2.9822 B( 31-C , 32-C ) :   1.4595 B( 31-C , 79-H ) :   0.9834
B( 32-C , 33-S ) :   1.1182 B( 32-C , 34-C ) :   1.1312 B( 34-C , 35-C ) :   1.5432
B( 34-C , 39-S ) :   1.0347 B( 35-C , 36-C ) :   1.2508 B( 35-C , 80-H ) :   0.9676
B( 36-C , 37-C ) :   1.0461 B( 36-C , 45-C ) :   1.3596 B( 37-C , 38-C ) :   1.6140
B( 37-C , 40-C ) :   1.1794 B( 38-C , 39-S ) :   1.1358 B( 38-C , 81-H ) :   0.9398
B( 40-C , 41-C ) :   1.4446 B( 40-C , 44-S ) :   1.0832 B( 41-C , 42-C ) :   1.2122
B( 41-C , 45-C ) :   1.0815 B( 42-C , 43-C ) :   1.5882 B( 42-C , 82-H ) :   1.0002
B( 43-C , 44-S ) :   1.1561 B( 43-C , 83-H ) :   0.9654 B( 45-C , 46-C ) :   1.1905
B( 46-C , 47-C ) :   1.6290 B( 46-C , 84-H ) :   0.9578 B( 47-C , 48-C ) :   1.1332
B( 47-C , 85-H ) :   0.9671 B( 48-C , 49-C ) :   1.4843 B( 48-C , 52-S ) :   1.1047
B( 49-C , 50-C ) :   1.2744 B( 49-C , 86-H ) :   0.9981 B( 50-C , 51-C ) :   1.3627
B( 50-C , 55-S ) :   1.1044 B( 51-C , 52-S ) :   1.0560 B( 51-C , 53-C ) :   1.2940
B( 53-C , 54-C ) :   1.4396 B( 53-C , 87-H ) :   0.9820 B( 54-C , 55-S ) :   1.0658
B( 54-C , 56-C ) :   1.2338 B( 56-C , 57-C ) :   1.5803 B( 56-C , 88-H ) :   0.9220
B( 57-C , 58-C ) :   1.0758 B( 57-C , 66-C ) :   0.9474 B( 58-C , 59-C ) :   1.6266
B( 58-C , 64-C ) :   1.0009 B( 59-C , 60-C ) :   1.1421 B( 59-C , 62-C ) :   1.1399
B( 60-C , 61-N ) :   2.9753 B( 62-C , 63-N ) :   2.9987 B( 64-C , 65-C ) :   1.2720
B( 64-C , 71-C ) :   1.4135 B( 65-C , 66-C ) :   0.9521 B( 65-C , 68-C ) :   1.4282
B( 66-C , 67-O ) :   2.1678 B( 68-C , 69-C ) :   1.2429 B( 68-C , 89-H ) :   1.0156
B( 69-C , 70-C ) :   1.3065 B( 69-C , 74-C ) :   1.1726 B( 70-C , 71-C ) :   1.3215
B( 70-C , 72-S ) :   1.0970 B( 71-C , 90-H ) :   0.9825 B( 72-S , 73-C ) :   1.1266
B( 73-C , 74-C ) :   1.6279 B( 73-C , 91-H ) :   0.9687 B( 74-C , 92-H ) :   0.9990

-----------------------------------------------------------------------------
         ABSORPTION SPECTRUM VIA TRANSITION ELECTRIC DIPOLE MOMENTS
-----------------------------------------------------------------------------
State   Energy  Wavelength   fosc         T2         TX        TY        TZ
        (cm-1)    (nm)                  (au**2)     (au)      (au)      (au)
-----------------------------------------------------------------------------
   0    9447.2   1058.5   0.396720673  13.82473  -1.95626  -2.89048  -1.28177
   1   15442.4    647.6   0.771185020  16.44069   1.61804   1.56260   3.37356
   2   16535.8    604.7   0.384742509   7.65986  -1.22758  -1.82701  -1.67778
   3   18147.1    551.1   0.885664046  16.06709  -0.01894   2.16989  -3.37021
   4   21147.5    472.9   0.297368858   4.62926   0.35250   1.16731  -1.77268
   5   22236.0    449.7   0.114773727   1.69926   0.07128   0.87717  -0.96164
   6   22633.7    441.8   0.166932291   2.42807  -0.94956  -0.85534   0.89151
   7   23651.3    422.8   0.289159069   4.02492   0.69245   1.83351  -0.42858
   8   24770.6    403.7   0.025327411   0.33661  -0.07660  -0.43876   0.37180
   9   25135.6    397.8   0.111668192   1.46257  -0.00266  -0.93050   0.77248
  10   25425.1    393.3   0.155703043   2.01609  -0.03635  -0.03929  -1.41888
  11   25985.1    384.8   0.017905562   0.22685   0.22548   0.01819   0.41914
  12   27154.0    368.3   0.007781608   0.09434  -0.06018  -0.25474  -0.16072
  13   27338.4    365.8   0.087181290   1.04985   0.90076   0.39963   0.28067
  14   27792.1    359.8   0.278992196   3.30480   0.96254  -0.55319   1.43955
  15   28739.9    347.9   0.084880554   0.97230  -0.79048  -0.57647   0.12294
  16   29404.4    340.1   0.091117438   1.02015   0.52412   0.33428   0.79606
  17   29503.0    338.9   0.008208737   0.09160  -0.05705  -0.29640   0.02219
  18   29628.4    337.5   0.018348393   0.20388  -0.07669  -0.28556  -0.34124
  19   29888.6    334.6   0.132556260   1.46006  -0.17226  -0.18625  -1.18140
  20   30001.7    333.3   0.242421156   2.66011  -0.29308   0.11312  -1.60044
  21   30137.1    331.8   0.138646079   1.51454  -0.81824  -0.59809   0.69807
  22   30218.5    330.9   0.015134087   0.16488   0.35383   0.12615   0.15416
  23   30608.9    326.7   0.123422319   1.32746  -1.02487  -0.49577  -0.17698
  24   30993.2    322.7   0.255623029   2.71524  -0.82234  -1.42591   0.07595
  25   31439.6    318.1   0.086094730   0.90152   0.92462   0.00278   0.21583
  26   31604.1    316.4   0.188493147   1.96348  -0.21325   0.43622  -1.31443
  27   32026.5    312.2   0.042266272   0.43447   0.34205   0.17934  -0.53414
  28   32300.8    309.6   0.024740084   0.25215  -0.22959  -0.14212  -0.42337
  29   32797.5    304.9   0.107554739   1.07960  -0.71679  -0.63052   0.41021
  30   32994.4    303.1   0.075252683   0.75086  -0.66142   0.47689  -0.29318
  31   33173.7    301.4   0.261191536   2.59204   1.44249   0.59353   0.39874
  32   33334.8    300.0   0.194798570   1.92381   0.18920  -1.01754   0.92338
  33   33440.8    299.0   0.116790288   1.14976   0.62363   0.68066  -0.54547
  34   33876.9    295.2   0.308841242   3.00129  -1.61994  -0.52725   0.31477
  35   34085.4    293.4   0.055190084   0.53305   0.36585   0.50911   0.37418
  36   34440.6    290.4   0.264844849   2.53161   1.33023   0.59444   0.63932
  37   34536.7    289.5   0.103011240   0.98193  -0.75211   0.57585   0.29094
  38   34679.4    288.4   0.072663153   0.68979   0.42454   0.60421  -0.38011
  39   34736.2    287.9   0.005614006   0.05321   0.11254  -0.13719   0.14738
  40   35082.7    285.0   0.082636395   0.77545   0.36641   0.40409   0.69131
  41   35828.5    279.1   0.257093029   2.36231   1.28664   0.77500   0.32596
  42   35873.1    278.8   0.210177200   1.92882  -1.19780  -0.66769  -0.21974
  43   36104.1    277.0   0.028636064   0.26112   0.39900   0.20803   0.24215
  44   36245.1    275.9   0.039636516   0.36002  -0.44092  -0.33611  -0.22943
  45   36318.3    275.3   0.108155830   0.98039  -0.38408  -0.48179  -0.77508
  46   36948.6    270.6   0.004829863   0.04303  -0.13051   0.12545  -0.10131
  47   37077.0    269.7   0.156591153   1.39039   0.75812   0.76238  -0.48417
  48   37353.4    267.7   0.058281913   0.51366   0.20272   0.66160   0.18669
  49   37621.2    265.8   0.002206101   0.01930  -0.07986   0.01522   0.11268
  50   37728.6    265.1   0.053359558   0.46561   0.19449   0.03901   0.65288
  51   38025.7    263.0   0.016553751   0.14332  -0.21247   0.06087   0.30735
  52   38215.1    261.7   0.057786090   0.49781  -0.65661  -0.21649   0.14074
  53   38413.9    260.3   0.017990305   0.15418  -0.27668  -0.27861  -0.00158
  54   38462.7    260.0   0.048124327   0.41191   0.56304   0.23224   0.20240
  55   38625.9    258.9   0.062220951   0.53031  -0.15845  -0.24650   0.66667
  56   38869.9    257.3   0.037503434   0.31764   0.15531   0.41024  -0.35386
  57   38978.9    256.5   0.003827857   0.03233   0.11122  -0.10332  -0.09636
  58   39483.7    253.3   0.085589683   0.71364   0.77934   0.17088  -0.27762
  59   39596.0    252.6   0.034240324   0.28468   0.08927   0.25616  -0.45945
  60   39948.6    250.3   0.039634861   0.32663   0.14449  -0.04650   0.55099
  61   40221.6    248.6   0.007971345   0.06525  -0.07393   0.07391  -0.23306
  62   40273.1    248.3   0.003826429   0.03128  -0.13613   0.03716  -0.10662

FINAL SINGLE POINT ENERGY     -6402.981596093670

DIPOLE MOMENT
-------------
                                X             Y             Z
Electronic contribution:     46.10825      58.42997      16.10303
Nuclear contribution   :    -47.27751     -60.34668     -11.69043
                        -----------------------------------------
Total Dipole Moment    :     -1.16926      -1.91671       4.41260
                        -----------------------------------------
Magnitude (a.u.)       :      4.95096
Magnitude (Debye)      :     12.58433

Rotational constants in cm-1:     0.000608     0.000254     0.000186
Rotational constants in MHz :    18.219491     7.624486     5.563208

                             ****ORCA TERMINATED NORMALLY****
TOTAL RUN TIME: 0 days 0 hours 13 minutes 36 seconds 951 msec
