                         Program Version 4.2.0 -  RELEASE  -
|  1> # ORCA input file
|  2> # SCF done       -201.384346937357          0.000892842587
|  3> ! CAM-B3LYP def2-SVP def2/J RIJCOSX Grid4 TightSCF
|  4> %maxcore 5000
|  5> %tddft
|  6>     Mode sTDDFT
|  7>     Ethresh 5.0
|  8>     maxcore 5000
|  9> end
| 10>
| 11> %pal
| 12>   nprocs 6
| 13>   end
| 14> * xyz 0 1
| 15>    C        1.77998        -1.72128        -0.31590
| 16>    C        2.76771        -0.77307        -0.10706
| 17>    C        3.91094        -0.81734        -0.90765
| 18>    C        4.93840         0.13753        -0.70501
| 19>    N        5.76678         0.90908        -0.53472
| 20>    C        4.06583        -1.79527        -1.90909
| 21>    C        5.23691        -1.81260        -2.70453
| 22>    N        6.17913        -1.84452        -3.35436
| 23>    C        3.06962        -2.75117        -2.11295
| 24>    C        1.94789        -2.69869        -1.31346
| 25>    C        0.77821        -3.60747        -1.32872
| 26>    O        0.64079        -4.56559        -2.05628
| 27>    C       -0.09983        -3.13508        -0.23503
| 28>    C        0.49104        -1.94112         0.33973
| 29>    C       -0.07499        -1.10788         1.26813
| 30>    C        0.54826         0.05457         1.77174
| 31>    N        1.00752         1.00493         2.22134
| 32>    C       -1.36326        -1.26498         1.82444
| 33>    N       -2.40559        -1.31611         2.30287
| 34>    C       -1.18043        -3.79345         0.29401
| 35>    C       -1.89369        -4.89389        -0.21129
| 36>    C       -1.96407        -5.45172        -1.48429
| 37>    C       -2.81850        -6.54121        -1.53133
| 38>    C       -3.41477        -6.83675        -0.28185
| 39>    S       -2.95185        -5.74117         0.92999
| 40>    C       -4.20423        -8.00067        -0.42703
| 41>    C       -4.11680        -8.44079        -1.76099
| 42>    C       -3.26570        -7.52558        -2.50445
| 43>    C       -2.96740        -7.57612        -3.83339
| 44>    C       -3.46168        -8.59883        -4.67247
| 45>    N       -3.85817        -9.42781        -5.35779
| 46>    C       -2.16890        -6.60227        -4.47312
| 47>    N       -1.54617        -5.80628        -5.01324
| 48>    C       -4.83273        -9.61141        -1.99595
| 49>    C       -5.46605       -10.07902        -0.85902
| 50>    S       -5.17793        -9.02719         0.52646
| 51>    C       -6.24560       -11.27211        -0.69194
| 52>    C       -6.88684       -11.53598         0.51162
| 53>    C       -7.58686       -12.70891         0.73844
| 54>    C       -7.69146       -13.70738        -0.22076
| 55>    C       -7.08988       -13.45832        -1.49438
| 56>    N       -7.21849       -14.36109        -2.48315
| 57>    C       -6.65724       -14.12255        -3.63730
| 58>    C       -5.92342       -12.94445        -3.85983
| 59>    N       -5.79656       -12.04101        -2.92633
| 60>    C       -6.37017       -12.25121        -1.72815
| 61>    C       -8.35903       -14.94253         0.07450
| 62>    C       -8.35111       -16.11909        -0.65132
| 63>    C       -9.07889       -17.12973        -0.02851
| 64>    C       -9.65829       -16.72293         1.18800
| 65>    S       -9.29537       -15.09890         1.55937
| 66>    C      -10.35364       -17.82140         1.74942
| 67>    C      -10.20678       -18.92709         0.88307
| 68>    C       -9.39699       -18.52876        -0.25600
| 69>    C       -8.99260       -19.32243        -1.28874
| 70>    C       -9.35161       -20.68617        -1.34191
| 71>    N       -9.65603       -21.79152        -1.35950
| 72>    C       -8.19758       -18.83693        -2.34877
| 73>    N       -7.55829       -18.44150        -3.21400
| 74>    C      -10.81681       -20.07461         1.36315
| 75>    C      -11.43466       -19.86881         2.59132
| 76>    S      -11.27228       -18.19883         3.12933
| 77>    C      -12.16479       -20.78335         3.37383
| 78>    C      -12.16200       -22.14784         3.31395
| 79>    C      -13.30805       -22.88953         3.90388
| 80>    O      -14.17238       -22.44324         4.61967
| 81>    C      -13.18620       -24.26981         3.37973
| 82>    C      -14.06040       -25.32612         3.52323
| 83>    C      -13.74145       -26.53314         2.89806
| 84>    C      -12.56099       -26.64783         2.13880
| 85>    C      -11.67803       -25.57408         2.00710
| 86>    C      -11.99308       -24.38421         2.63956
| 87>    C      -11.26828       -23.11332         2.71283
| 88>    C       -9.92107       -22.97892         2.50241
| 89>    C       -9.18830       -21.81440         2.80640
| 90>    N       -8.54801       -20.89809         3.06703
| 91>    C       -9.08488       -24.02379         2.05241
| 92>    N       -8.36314       -24.83828         1.69083
| 93>    C      -12.26547       -27.87590         1.49582
| 94>    N      -12.02226       -28.86516         0.97410
| 95>    C      -14.61185       -27.64312         3.02141
| 96>    N      -15.33000       -28.52809         3.13087
| 97>    H        2.68799        -0.01168         0.65229
| 98>    H        3.17172        -3.51048        -2.87337
| 99>    H       -1.52880        -3.45402         1.26276
|100>    H       -1.40800        -5.07055        -2.32014
|101>    H       -4.89942       -10.13025        -2.93385
|102>    H       -6.82784       -10.80808         1.30805
|103>    H       -8.04683       -12.85862         1.70463
|104>    H       -6.78855       -14.87410        -4.40308
|105>    H       -5.44352       -12.73218        -4.80489
|106>    H       -7.83090       -16.20724        -1.58658
|107>    H      -10.85873       -21.01081         0.83699
|108>    H      -12.87743       -20.36018         4.07531
|109>    H      -14.96599       -25.22243         4.10140
|110>    H      -10.78703       -25.69178         1.41068
|111> *
|112>
|113>                          ****END OF INPUT****

CARTESIAN COORDINATES (ANGSTROEM)
---------------------------------
  C      1.779980   -1.721280   -0.315900
  C      2.767710   -0.773070   -0.107060
  C      3.910940   -0.817340   -0.907650
  C      4.938400    0.137530   -0.705010
  N      5.766780    0.909080   -0.534720
  C      4.065830   -1.795270   -1.909090
  C      5.236910   -1.812600   -2.704530
  N      6.179130   -1.844520   -3.354360
  C      3.069620   -2.751170   -2.112950
  C      1.947890   -2.698690   -1.313460
  C      0.778210   -3.607470   -1.328720
  O      0.640790   -4.565590   -2.056280
  C     -0.099830   -3.135080   -0.235030
  C      0.491040   -1.941120    0.339730
  C     -0.074990   -1.107880    1.268130
  C      0.548260    0.054570    1.771740
  N      1.007520    1.004930    2.221340
  C     -1.363260   -1.264980    1.824440
  N     -2.405590   -1.316110    2.302870
  C     -1.180430   -3.793450    0.294010
  C     -1.893690   -4.893890   -0.211290
  C     -1.964070   -5.451720   -1.484290
  C     -2.818500   -6.541210   -1.531330
  C     -3.414770   -6.836750   -0.281850
  S     -2.951850   -5.741170    0.929990
  C     -4.204230   -8.000670   -0.427030
  C     -4.116800   -8.440790   -1.760990
  C     -3.265700   -7.525580   -2.504450
  C     -2.967400   -7.576120   -3.833390
  C     -3.461680   -8.598830   -4.672470
  N     -3.858170   -9.427810   -5.357790
  C     -2.168900   -6.602270   -4.473120
  N     -1.546170   -5.806280   -5.013240
  C     -4.832730   -9.611410   -1.995950
  C     -5.466050  -10.079020   -0.859020
  S     -5.177930   -9.027190    0.526460
  C     -6.245600  -11.272110   -0.691940
  C     -6.886840  -11.535980    0.511620
  C     -7.586860  -12.708910    0.738440
  C     -7.691460  -13.707380   -0.220760
  C     -7.089880  -13.458320   -1.494380
  N     -7.218490  -14.361090   -2.483150
  C     -6.657240  -14.122550   -3.637300
  C     -5.923420  -12.944450   -3.859830
  N     -5.796560  -12.041010   -2.926330
  C     -6.370170  -12.251210   -1.728150
  C     -8.359030  -14.942530    0.074500
  C     -8.351110  -16.119090   -0.651320
  C     -9.078890  -17.129730   -0.028510
  C     -9.658290  -16.722930    1.188000
  S     -9.295370  -15.098900    1.559370
  C    -10.353640  -17.821400    1.749420
  C    -10.206780  -18.927090    0.883070
  C     -9.396990  -18.528760   -0.256000
  C     -8.992600  -19.322430   -1.288740
  C     -9.351610  -20.686170   -1.341910
  N     -9.656030  -21.791520   -1.359500
  C     -8.197580  -18.836930   -2.348770
  N     -7.558290  -18.441500   -3.214000
  C    -10.816810  -20.074610    1.363150
  C    -11.434660  -19.868810    2.591320
  S    -11.272280  -18.198830    3.129330
  C    -12.164790  -20.783350    3.373830
  C    -12.162000  -22.147840    3.313950
  C    -13.308050  -22.889530    3.903880
  O    -14.172380  -22.443240    4.619670
  C    -13.186200  -24.269810    3.379730
  C    -14.060400  -25.326120    3.523230
  C    -13.741450  -26.533140    2.898060
  C    -12.560990  -26.647830    2.138800
  C    -11.678030  -25.574080    2.007100
  C    -11.993080  -24.384210    2.639560
  C    -11.268280  -23.113320    2.712830
  C     -9.921070  -22.978920    2.502410
  C     -9.188300  -21.814400    2.806400
  N     -8.548010  -20.898090    3.067030
  C     -9.084880  -24.023790    2.052410
  N     -8.363140  -24.838280    1.690830
  C    -12.265470  -27.875900    1.495820
  N    -12.022260  -28.865160    0.974100
  C    -14.611850  -27.643120    3.021410
  N    -15.330000  -28.528090    3.130870
  H      2.687990   -0.011680    0.652290
  H      3.171720   -3.510480   -2.873370
  H     -1.528800   -3.454020    1.262760
  H     -1.408000   -5.070550   -2.320140
  H     -4.899420  -10.130250   -2.933850
  H     -6.827840  -10.808080    1.308050
  H     -8.046830  -12.858620    1.704630
  H     -6.788550  -14.874100   -4.403080
  H     -5.443520  -12.732180   -4.804890
  H     -7.830900  -16.207240   -1.586580
  H    -10.858730  -21.010810    0.836990
  H    -12.877430  -20.360180    4.075310
  H    -14.965990  -25.222430    4.101400
  H    -10.787030  -25.691780    1.410680

 Total Charge           Charge          ....    0
 Multiplicity           Mult            ....    1
 Number of Electrons    NEL             ....  564
 Basis Dimension        Dim             .... 1234

ORBITAL ENERGIES
----------------

  NO   OCC          E(Eh)            E(eV)
   0   2.0000     -89.013806     -2422.1888
   1   2.0000     -89.012648     -2422.1573
   2   2.0000     -89.008232     -2422.0371
   3   2.0000     -89.008083     -2422.0331
   4   2.0000     -19.242416      -523.6128
   5   2.0000     -19.240968      -523.5734
   6   2.0000     -14.452379      -393.2692
   7   2.0000     -14.452246      -393.2656
   8   2.0000     -14.447635      -393.1401
   9   2.0000     -14.445401      -393.0793
  10   2.0000     -14.445101      -393.0712
  11   2.0000     -14.442632      -393.0040
  12   2.0000     -14.439405      -392.9162
  13   2.0000     -14.436984      -392.8503
  14   2.0000     -14.433885      -392.7660
  15   2.0000     -14.433884      -392.7660
  16   2.0000     -14.430611      -392.6769
  17   2.0000     -14.429902      -392.6576
  18   2.0000     -14.429525      -392.6473
  19   2.0000     -14.428903      -392.6304
  20   2.0000     -10.394245      -282.8418
  21   2.0000     -10.392423      -282.7922
  22   2.0000     -10.382533      -282.5231
  23   2.0000     -10.382101      -282.5113
  24   2.0000     -10.369110      -282.1578
  25   2.0000     -10.369007      -282.1550
  26   2.0000     -10.367885      -282.1245
  27   2.0000     -10.366779      -282.0944
  28   2.0000     -10.366653      -282.0910
  29   2.0000     -10.364481      -282.0319
  30   2.0000     -10.364111      -282.0218
  31   2.0000     -10.363123      -281.9949
  32   2.0000     -10.362385      -281.9748
  33   2.0000     -10.362138      -281.9681
  34   2.0000     -10.361876      -281.9610
  35   2.0000     -10.361349      -281.9466
  36   2.0000     -10.352229      -281.6985
  37   2.0000     -10.351753      -281.6855
  38   2.0000     -10.351124      -281.6684
  39   2.0000     -10.350725      -281.6575
  40   2.0000     -10.348689      -281.6021
  41   2.0000     -10.347734      -281.5761
  42   2.0000     -10.347016      -281.5566
  43   2.0000     -10.345951      -281.5276
  44   2.0000     -10.345727      -281.5215
  45   2.0000     -10.345545      -281.5166
  46   2.0000     -10.345406      -281.5128
  47   2.0000     -10.345228      -281.5080
  48   2.0000     -10.345209      -281.5074
  49   2.0000     -10.344859      -281.4979
  50   2.0000     -10.344303      -281.4828
  51   2.0000     -10.343740      -281.4675
  52   2.0000     -10.341978      -281.4195
  53   2.0000     -10.341715      -281.4124
  54   2.0000     -10.339739      -281.3586
  55   2.0000     -10.338895      -281.3356
  56   2.0000     -10.337452      -281.2964
  57   2.0000     -10.336773      -281.2779
  58   2.0000     -10.336035      -281.2578
  59   2.0000     -10.335721      -281.2493
  60   2.0000     -10.335608      -281.2462
  61   2.0000     -10.335124      -281.2330
  62   2.0000     -10.331692      -281.1396
  63   2.0000     -10.331051      -281.1222
  64   2.0000     -10.330914      -281.1184
  65   2.0000     -10.328922      -281.0642
  66   2.0000     -10.327164      -281.0164
  67   2.0000     -10.327109      -281.0149
  68   2.0000     -10.326538      -280.9994
  69   2.0000     -10.326384      -280.9952
  70   2.0000     -10.325713      -280.9769
  71   2.0000     -10.325196      -280.9629
  72   2.0000     -10.324804      -280.9522
  73   2.0000     -10.324754      -280.9508
  74   2.0000     -10.324296      -280.9384
  75   2.0000     -10.322831      -280.8985
  76   2.0000     -10.321108      -280.8516
  77   2.0000     -10.320998      -280.8486
  78   2.0000     -10.320233      -280.8278
  79   2.0000     -10.319450      -280.8065
  80   2.0000     -10.310049      -280.5507
  81   2.0000     -10.309034      -280.5231
  82   2.0000      -8.108533      -220.6444
  83   2.0000      -8.107510      -220.6166
  84   2.0000      -8.102638      -220.4840
  85   2.0000      -8.102540      -220.4813
  86   2.0000      -6.077701      -165.3826
  87   2.0000      -6.076636      -165.3537
  88   2.0000      -6.073527      -165.2691
  89   2.0000      -6.072479      -165.2406
  90   2.0000      -6.071881      -165.2243
  91   2.0000      -6.071776      -165.2214
  92   2.0000      -6.070990      -165.2000
  93   2.0000      -6.069997      -165.1730
  94   2.0000      -6.067721      -165.1111
  95   2.0000      -6.067605      -165.1079
  96   2.0000      -6.065055      -165.0385
  97   2.0000      -6.064958      -165.0359
  98   2.0000      -1.158493       -31.5242
  99   2.0000      -1.156842       -31.4793
 100   2.0000      -1.111281       -30.2395
 101   2.0000      -1.065794       -29.0017
 102   2.0000      -1.065144       -28.9840
 103   2.0000      -1.047307       -28.4987
 104   2.0000      -1.045964       -28.4621
 105   2.0000      -1.038738       -28.2655
 106   2.0000      -1.036549       -28.2059
 107   2.0000      -1.034925       -28.1617
 108   2.0000      -1.032653       -28.0999
 109   2.0000      -1.031635       -28.0722
 110   2.0000      -1.024064       -27.8662
 111   2.0000      -1.021868       -27.8064
 112   2.0000      -1.020295       -27.7636
 113   2.0000      -1.017789       -27.6954
 114   2.0000      -1.015855       -27.6428
 115   2.0000      -1.014461       -27.6049
 116   2.0000      -1.012895       -27.5623
 117   2.0000      -1.012408       -27.5490
 118   2.0000      -1.009346       -27.4657
 119   2.0000      -1.008621       -27.4460
 120   2.0000      -0.993861       -27.0443
 121   2.0000      -0.984269       -26.7833
 122   2.0000      -0.982061       -26.7232
 123   2.0000      -0.977293       -26.5935
 124   2.0000      -0.970915       -26.4199
 125   2.0000      -0.942114       -25.6362
 126   2.0000      -0.937144       -25.5010
 127   2.0000      -0.930855       -25.3299
 128   2.0000      -0.929567       -25.2948
 129   2.0000      -0.918575       -24.9957
 130   2.0000      -0.910269       -24.7697
 131   2.0000      -0.907195       -24.6860
 132   2.0000      -0.905687       -24.6450
 133   2.0000      -0.898685       -24.4545
 134   2.0000      -0.893188       -24.3049
 135   2.0000      -0.887171       -24.1411
 136   2.0000      -0.881089       -23.9756
 137   2.0000      -0.875088       -23.8124
 138   2.0000      -0.872412       -23.7395
 139   2.0000      -0.855687       -23.2844
 140   2.0000      -0.848756       -23.0958
 141   2.0000      -0.820416       -22.3247
 142   2.0000      -0.813215       -22.1287
 143   2.0000      -0.812229       -22.1019
 144   2.0000      -0.799404       -21.7529
 145   2.0000      -0.796622       -21.6772
 146   2.0000      -0.793498       -21.5922
 147   2.0000      -0.787455       -21.4277
 148   2.0000      -0.774730       -21.0815
 149   2.0000      -0.768829       -20.9209
 150   2.0000      -0.759201       -20.6589
 151   2.0000      -0.754678       -20.5358
 152   2.0000      -0.747865       -20.3504
 153   2.0000      -0.734276       -19.9807
 154   2.0000      -0.718628       -19.5549
 155   2.0000      -0.717442       -19.5226
 156   2.0000      -0.716025       -19.4840
 157   2.0000      -0.712664       -19.3926
 158   2.0000      -0.704312       -19.1653
 159   2.0000      -0.701754       -19.0957
 160   2.0000      -0.699699       -19.0398
 161   2.0000      -0.690318       -18.7845
 162   2.0000      -0.688461       -18.7340
 163   2.0000      -0.679678       -18.4950
 164   2.0000      -0.670685       -18.2503
 165   2.0000      -0.665939       -18.1211
 166   2.0000      -0.661945       -18.0124
 167   2.0000      -0.660890       -17.9837
 168   2.0000      -0.656440       -17.8626
 169   2.0000      -0.655773       -17.8445
 170   2.0000      -0.647426       -17.6174
 171   2.0000      -0.644406       -17.5352
 172   2.0000      -0.634222       -17.2580
 173   2.0000      -0.632376       -17.2078
 174   2.0000      -0.630949       -17.1690
 175   2.0000      -0.622687       -16.9442
 176   2.0000      -0.617500       -16.8030
 177   2.0000      -0.609934       -16.5972
 178   2.0000      -0.604237       -16.4421
 179   2.0000      -0.601915       -16.3789
 180   2.0000      -0.601748       -16.3744
 181   2.0000      -0.590885       -16.0788
 182   2.0000      -0.588734       -16.0203
 183   2.0000      -0.575516       -15.6606
 184   2.0000      -0.572358       -15.5747
 185   2.0000      -0.570905       -15.5351
 186   2.0000      -0.570020       -15.5110
 187   2.0000      -0.568289       -15.4639
 188   2.0000      -0.566611       -15.4183
 189   2.0000      -0.565121       -15.3777
 190   2.0000      -0.563672       -15.3383
 191   2.0000      -0.561947       -15.2914
 192   2.0000      -0.560308       -15.2468
 193   2.0000      -0.557850       -15.1799
 194   2.0000      -0.553600       -15.0642
 195   2.0000      -0.545198       -14.8356
 196   2.0000      -0.541566       -14.7368
 197   2.0000      -0.538356       -14.6494
 198   2.0000      -0.535833       -14.5808
 199   2.0000      -0.532381       -14.4868
 200   2.0000      -0.530740       -14.4422
 201   2.0000      -0.528669       -14.3858
 202   2.0000      -0.526232       -14.3195
 203   2.0000      -0.524076       -14.2608
 204   2.0000      -0.523570       -14.2471
 205   2.0000      -0.521910       -14.2019
 206   2.0000      -0.519805       -14.1446
 207   2.0000      -0.518645       -14.1130
 208   2.0000      -0.517079       -14.0704
 209   2.0000      -0.512548       -13.9471
 210   2.0000      -0.509751       -13.8710
 211   2.0000      -0.507890       -13.8204
 212   2.0000      -0.506640       -13.7864
 213   2.0000      -0.501387       -13.6434
 214   2.0000      -0.495938       -13.4952
 215   2.0000      -0.495873       -13.4934
 216   2.0000      -0.493131       -13.4188
 217   2.0000      -0.492521       -13.4022
 218   2.0000      -0.488969       -13.3055
 219   2.0000      -0.484862       -13.1938
 220   2.0000      -0.477290       -12.9877
 221   2.0000      -0.476814       -12.9748
 222   2.0000      -0.475042       -12.9265
 223   2.0000      -0.474699       -12.9172
 224   2.0000      -0.471012       -12.8169
 225   2.0000      -0.470442       -12.8014
 226   2.0000      -0.469065       -12.7639
 227   2.0000      -0.467472       -12.7206
 228   2.0000      -0.467183       -12.7127
 229   2.0000      -0.464445       -12.6382
 230   2.0000      -0.463161       -12.6033
 231   2.0000      -0.462719       -12.5912
 232   2.0000      -0.461118       -12.5477
 233   2.0000      -0.460127       -12.5207
 234   2.0000      -0.458500       -12.4764
 235   2.0000      -0.456541       -12.4231
 236   2.0000      -0.456037       -12.4094
 237   2.0000      -0.455382       -12.3916
 238   2.0000      -0.455186       -12.3862
 239   2.0000      -0.455176       -12.3860
 240   2.0000      -0.454480       -12.3670
 241   2.0000      -0.453557       -12.3419
 242   2.0000      -0.453124       -12.3301
 243   2.0000      -0.453074       -12.3288
 244   2.0000      -0.452638       -12.3169
 245   2.0000      -0.451170       -12.2770
 246   2.0000      -0.449137       -12.2216
 247   2.0000      -0.447836       -12.1862
 248   2.0000      -0.446382       -12.1467
 249   2.0000      -0.445478       -12.1221
 250   2.0000      -0.442255       -12.0344
 251   2.0000      -0.439818       -11.9681
 252   2.0000      -0.439240       -11.9523
 253   2.0000      -0.438312       -11.9271
 254   2.0000      -0.436483       -11.8773
 255   2.0000      -0.436133       -11.8678
 256   2.0000      -0.429944       -11.6994
 257   2.0000      -0.429257       -11.6807
 258   2.0000      -0.428910       -11.6712
 259   2.0000      -0.428232       -11.6528
 260   2.0000      -0.422902       -11.5077
 261   2.0000      -0.422258       -11.4902
 262   2.0000      -0.406796       -11.0695
 263   2.0000      -0.405471       -11.0334
 264   2.0000      -0.398573       -10.8457
 265   2.0000      -0.383343       -10.4313
 266   2.0000      -0.373108       -10.1528
 267   2.0000      -0.371591       -10.1115
 268   2.0000      -0.370295       -10.0762
 269   2.0000      -0.367944       -10.0123
 270   2.0000      -0.365270        -9.9395
 271   2.0000      -0.363542        -9.8925
 272   2.0000      -0.361721        -9.8429
 273   2.0000      -0.358083        -9.7439
 274   2.0000      -0.347034        -9.4433
 275   2.0000      -0.345126        -9.3914
 276   2.0000      -0.341061        -9.2807
 277   2.0000      -0.339385        -9.2351
 278   2.0000      -0.337268        -9.1775
 279   2.0000      -0.323742        -8.8095
 280   2.0000      -0.293077        -7.9750
 281   2.0000      -0.268238        -7.2991
 282   0.0000      -0.135221        -3.6795
 283   0.0000      -0.126395        -3.4394
 284   0.0000      -0.110733        -3.0132
 285   0.0000      -0.110159        -2.9976
 286   0.0000      -0.097898        -2.6639

MULLIKEN ATOMIC CHARGES
-----------------------
   0 C :    0.051645
   1 C :   -0.042976
   2 C :   -0.057221
   3 C :   -0.176225
   4 N :    0.202502
   5 C :   -0.062817
   6 C :   -0.176362
   7 N :    0.198310
   8 C :   -0.033235
   9 C :   -0.007268
  10 C :    0.155932
  11 O :   -0.137260
  12 C :   -0.099817
  13 C :    0.297626
  14 C :   -0.332456
  15 C :   -0.186675
  16 N :    0.169813
  17 C :   -0.203227
  18 N :    0.167083
  19 C :    0.040865
  20 C :   -0.118401
  21 C :    0.032394
  22 C :   -0.022784
  23 C :   -0.075996
  24 S :    0.212437
  25 C :   -0.092488
  26 C :    0.042351
  27 C :    0.310670
  28 C :   -0.291498
  29 C :   -0.183814
  30 N :    0.175380
  31 C :   -0.187986
  32 N :    0.188894
  33 C :   -0.054122
  34 C :   -0.109589
  35 S :    0.168822
  36 C :    0.165174
  37 C :   -0.070559
  38 C :   -0.064211
  39 C :    0.158907
  40 C :   -0.044973
  41 N :   -0.033664
  42 C :    0.044399
  43 C :    0.047275
  44 N :   -0.034386
  45 C :   -0.033822
  46 C :   -0.107618
  47 C :   -0.039111
  48 C :    0.035737
  49 C :   -0.095062
  50 S :    0.172075
  51 C :   -0.065577
  52 C :   -0.003745
  53 C :    0.306638
  54 C :   -0.287555
  55 C :   -0.184028
  56 N :    0.169960
  57 C :   -0.179617
  58 N :    0.177090
  59 C :   -0.002417
  60 C :   -0.115777
  61 S :    0.222762
  62 C :    0.089844
  63 C :   -0.146796
  64 C :    0.141133
  65 O :   -0.128293
  66 C :    0.012930
  67 C :   -0.033024
  68 C :   -0.069003
  69 C :   -0.063107
  70 C :   -0.031944
  71 C :    0.025108
  72 C :    0.271223
  73 C :   -0.319632
  74 C :   -0.195294
  75 N :    0.171460
  76 C :   -0.172092
  77 N :    0.176802
  78 C :   -0.171176
  79 N :    0.203019
  80 C :   -0.173028
  81 N :    0.197535
  82 H :    0.022444
  83 H :    0.019906
  84 H :    0.021996
  85 H :    0.036332
  86 H :    0.027097
  87 H :   -0.000697
  88 H :   -0.003677
  89 H :    0.033849
  90 H :    0.033224
  91 H :    0.023630
  92 H :    0.026412
  93 H :    0.028097
  94 H :    0.017250
  95 H :    0.028069
Sum of atomic charges:   -0.0000000

LOEWDIN ATOMIC CHARGES
----------------------
   0 C :    0.001732
   1 C :    0.033895
   2 C :   -0.023748
   3 C :   -0.031688
   4 N :   -0.010614
   5 C :   -0.027759
   6 C :   -0.031990
   7 N :   -0.012573
   8 C :    0.049366
   9 C :   -0.028374
  10 C :    0.083934
  11 O :   -0.126374
  12 C :   -0.105809
  13 C :    0.069185
  14 C :   -0.127845
  15 C :   -0.022588
  16 N :   -0.035461
  17 C :   -0.024555
  18 N :   -0.040126
  19 C :    0.051244
  20 C :   -0.180433
  21 C :    0.028609
  22 C :   -0.072888
  23 C :   -0.150901
  24 S :    0.497465
  25 C :   -0.191194
  26 C :   -0.052104
  27 C :    0.074711
  28 C :   -0.089402
  29 C :   -0.013627
  30 N :   -0.027737
  31 C :   -0.020321
  32 N :   -0.016042
  33 C :   -0.020135
  34 C :   -0.142146
  35 S :    0.478260
  36 C :   -0.035669
  37 C :   -0.014778
  38 C :   -0.016088
  39 C :   -0.032852
  40 C :    0.002709
  41 N :   -0.025073
  42 C :    0.022528
  43 C :    0.024348
  44 N :   -0.024742
  45 C :    0.003828
  46 C :   -0.146133
  47 C :   -0.015556
  48 C :   -0.056542
  49 C :   -0.185673
  50 S :    0.481033
  51 C :   -0.151105
  52 C :   -0.064982
  53 C :    0.080692
  54 C :   -0.093493
  55 C :   -0.012176
  56 N :   -0.030997
  57 C :   -0.015073
  58 N :   -0.026095
  59 C :    0.013486
  60 C :   -0.185569
  61 S :    0.504238
  62 C :    0.052512
  63 C :   -0.101263
  64 C :    0.082853
  65 O :   -0.130103
  66 C :   -0.031874
  67 C :    0.049240
  68 C :   -0.028985
  69 C :   -0.021731
  70 C :    0.034503
  71 C :    0.005465
  72 C :    0.058909
  73 C :   -0.123414
  74 C :   -0.014464
  75 N :   -0.035592
  76 C :   -0.023448
  77 N :   -0.029350
  78 C :   -0.031404
  79 N :   -0.009032
  80 C :   -0.032189
  81 N :   -0.013187
  82 H :    0.052545
  83 H :    0.055170
  84 H :    0.044931
  85 H :    0.045690
  86 H :    0.038679
  87 H :    0.025935
  88 H :    0.025971
  89 H :    0.035617
  90 H :    0.035855
  91 H :    0.039253
  92 H :    0.043038
  93 H :    0.048750
  94 H :    0.054567
  95 H :    0.054318

  Mayer bond orders larger than 0.100000
B(  0-C ,  1-C ) :   1.3580 B(  0-C ,  9-C ) :   1.3339 B(  0-C , 13-C ) :   0.9571
B(  1-C ,  2-C ) :   1.3898 B(  1-C , 82-H ) :   0.9872 B(  2-C ,  3-C ) :   1.0867
B(  2-C ,  5-C ) :   1.4031 B(  3-C ,  4-N ) :   3.0441 B(  5-C ,  6-C ) :   1.0871
B(  5-C ,  8-C ) :   1.3592 B(  6-C ,  7-N ) :   3.0446 B(  8-C ,  9-C ) :   1.3677
B(  8-C , 83-H ) :   1.0154 B(  9-C , 10-C ) :   0.9273 B( 10-C , 11-O ) :   2.2044
B( 10-C , 12-C ) :   0.9562 B( 12-C , 13-C ) :   1.0908 B( 12-C , 19-C ) :   1.5591
B( 13-C , 14-C ) :   1.6465 B( 14-C , 15-C ) :   1.1461 B( 14-C , 17-C ) :   1.1397
B( 15-C , 16-N ) :   2.9644 B( 17-C , 18-N ) :   2.9891 B( 19-C , 20-C ) :   1.2343
B( 19-C , 84-H ) :   0.9226 B( 20-C , 21-C ) :   1.3797 B( 20-C , 24-S ) :   1.0674
B( 21-C , 22-C ) :   1.3530 B( 21-C , 85-H ) :   0.9736 B( 22-C , 23-C ) :   1.3684
B( 22-C , 27-C ) :   0.9896 B( 23-C , 24-S ) :   1.1717 B( 23-C , 25-C ) :   1.2057
B( 25-C , 26-C ) :   1.4229 B( 25-C , 35-S ) :   1.1158 B( 26-C , 27-C ) :   1.0008
B( 26-C , 33-C ) :   1.2358 B( 27-C , 28-C ) :   1.7193 B( 28-C , 29-C ) :   1.1382
B( 28-C , 31-C ) :   1.1323 B( 29-C , 30-N ) :   2.9867 B( 31-C , 32-N ) :   2.9928
B( 33-C , 34-C ) :   1.4716 B( 33-C , 86-H ) :   0.9791 B( 34-C , 35-S ) :   1.1040
B( 34-C , 36-C ) :   1.1163 B( 36-C , 37-C ) :   1.3892 B( 36-C , 39-C ) :   0.1198
B( 36-C , 45-C ) :   1.2115 B( 37-C , 38-C ) :   1.3095 B( 37-C , 87-H ) :   0.9852
B( 38-C , 39-C ) :   1.3908 B( 38-C , 88-H ) :   0.9855 B( 39-C , 40-C ) :   1.2148
B( 39-C , 46-C ) :   1.1090 B( 40-C , 41-N ) :   1.4731 B( 40-C , 45-C ) :   1.2408
B( 41-N , 42-C ) :   1.6297 B( 42-C , 43-C ) :   1.2288 B( 42-C , 89-H ) :   0.9751
B( 43-C , 44-N ) :   1.6309 B( 43-C , 90-H ) :   0.9751 B( 44-N , 45-C ) :   1.4718
B( 46-C , 47-C ) :   1.4737 B( 46-C , 50-S ) :   1.1033 B( 47-C , 48-C ) :   1.2441
B( 47-C , 91-H ) :   0.9815 B( 48-C , 49-C ) :   1.4275 B( 48-C , 53-C ) :   0.9990
B( 49-C , 50-S ) :   1.1213 B( 49-C , 51-C ) :   1.1969 B( 51-C , 52-C ) :   1.3975
B( 51-C , 61-S ) :   1.1610 B( 52-C , 53-C ) :   0.9948 B( 52-C , 59-C ) :   1.3755
B( 53-C , 54-C ) :   1.7186 B( 54-C , 55-C ) :   1.1335 B( 54-C , 57-C ) :   1.1353
B( 55-C , 56-N ) :   2.9801 B( 57-C , 58-N ) :   2.9879 B( 59-C , 60-C ) :   1.3727
B( 59-C , 92-H ) :   0.9793 B( 60-C , 61-S ) :   1.0828 B( 60-C , 62-C ) :   1.1609
B( 62-C , 63-C ) :   1.6347 B( 62-C , 93-H ) :   0.9309 B( 63-C , 64-C ) :   0.9551
B( 63-C , 72-C ) :   1.0501 B( 64-C , 65-O ) :   2.2770 B( 64-C , 66-C ) :   0.8993
B( 66-C , 67-C ) :   1.3698 B( 66-C , 71-C ) :   1.3370 B( 67-C , 68-C ) :   1.3646
B( 67-C , 94-H ) :   1.0143 B( 68-C , 69-C ) :   1.4044 B( 68-C , 80-C ) :   1.0869
B( 69-C , 70-C ) :   1.3866 B( 69-C , 78-C ) :   1.0857 B( 70-C , 71-C ) :   1.3652
B( 70-C , 95-H ) :   0.9896 B( 71-C , 72-C ) :   0.9709 B( 72-C , 73-C ) :   1.6612
B( 73-C , 74-C ) :   1.1706 B( 73-C , 76-C ) :   1.1279 B( 74-C , 75-N ) :   2.9927
B( 76-C , 77-N ) :   2.9863 B( 78-C , 79-N ) :   3.0433 B( 80-C , 81-N ) :   3.0453

-----------------------------------------------------------------------------
         ABSORPTION SPECTRUM VIA TRANSITION ELECTRIC DIPOLE MOMENTS
-----------------------------------------------------------------------------
State   Energy  Wavelength   fosc         T2         TX        TY        TZ
        (cm-1)    (nm)                  (au**2)     (au)      (au)      (au)
-----------------------------------------------------------------------------
   0   13141.7    760.9   1.013631891  25.39237  -2.46427  -4.33887   0.70282
   1   14381.5    695.3   0.085007030   1.94593  -0.85039  -0.91712  -0.61778
   2   18642.9    536.4   1.052060175  18.57818   1.56999   3.92717  -0.83104
   3   20168.5    495.8   0.649613294  10.60370  -2.12715  -2.29774  -0.89405
   4   21953.0    455.5   0.012762001   0.19138   0.29759   0.01355   0.32037
   5   22710.9    440.3   0.159284931   2.30896   0.97012   0.60132  -1.00311
   6   23788.4    420.4   0.063731258   0.88199   0.76284   0.50429   0.21391
   7   24241.0    412.5   0.134147659   1.82183   0.39391   1.15828  -0.57013
   8   25031.7    399.5   0.047223651   0.62108  -0.53744  -0.48884   0.30539
   9   27358.4    365.5   0.004767163   0.05736  -0.13869   0.19336  -0.02723
  10   27861.7    358.9   0.048518756   0.57329   0.63599   0.11732  -0.39376
  11   28100.7    355.9   0.003157389   0.03699  -0.08542  -0.16522   0.04895
  12   28486.2    351.0   0.029946228   0.34609  -0.57049   0.09494   0.10776
  13   28667.7    348.8   0.042954879   0.49328  -0.11362   0.69269   0.02344
  14   29496.2    339.0   0.148126888   1.65327   0.35140  -0.43160  -1.15910
  15   29803.0    335.5   0.083312538   0.92029   0.27473   0.90841  -0.14002
  16   29991.4    333.4   0.272784419   2.99432   0.36814  -0.20404  -1.67844
  17   30286.6    330.2   0.039155698   0.42562   0.21972  -0.46452  -0.40195
  18   30713.3    325.6   0.009499191   0.10182  -0.19512  -0.21571   0.13123
  19   31322.2    319.3   0.096276359   1.01191  -0.70531  -0.41825   0.58269
  20   31555.0    316.9   0.067051981   0.69955  -0.73610  -0.37367  -0.13442
  21   31656.7    315.9   0.043296016   0.45025   0.33381   0.58187  -0.01595
  22   31736.2    315.1   0.049673077   0.51528   0.12592  -0.61310  -0.35148
  23   32125.9    311.3   0.166005408   1.70115   0.45541   1.19376  -0.26206
  24   32367.9    308.9   0.112069369   1.13985   0.37845   0.99589   0.06941
  25   32431.9    308.3   0.113597236   1.15311  -0.13161  -0.79138  -0.71379
  26   32640.1    306.4   0.050930404   0.51369   0.50868   0.43381  -0.25835
  27   32944.0    303.5   0.025827900   0.25810   0.40276  -0.20715   0.23016
  28   33063.9    302.4   0.191538978   1.90712  -1.00918  -0.94140   0.04949
  29   33375.4    299.6   0.132695871   1.30890   1.03473   0.47562  -0.10964
  30   33779.3    296.0   0.075494776   0.73577   0.67310   0.51849  -0.11779
  31   33930.3    294.7   0.262165886   2.54369   0.43835  -0.74371  -1.34106
  32   34436.3    290.4   0.489192788   4.67670   1.03697   0.61642  -1.79483
  33   34657.5    288.5   0.204971221   1.94702  -1.15569  -0.63858   0.45124
  34   34816.1    287.2   0.204295367   1.93176  -1.26199  -0.02433   0.58186
  35   35062.9    285.2   0.452084767   4.24470  -0.67635  -1.85800  -0.57886
  36   35265.1    283.6   0.191986818   1.79226  -1.24859  -0.15542   0.45730
  37   35522.8    281.5   0.027488580   0.25475  -0.26851  -0.41327   0.10893
  38   35673.7    280.3   0.095038969   0.87706   0.61350   0.69658  -0.12432
  39   35965.0    278.0   0.162861214   1.49078  -0.78403   0.58607   0.72979
  40   36422.7    274.6   0.186898813   1.68931   1.04937   0.73632  -0.21439
  41   36572.3    273.4   0.067735965   0.60974   0.49726   0.04865  -0.60008
  42   36657.0    272.8   0.187635237   1.68513   0.41170  -0.24973  -1.20552
  43   36849.1    271.4   0.001581700   0.01413   0.06932  -0.09634  -0.00673
  44   37225.6    268.6   0.141589317   1.25217  -0.76951   0.31560   0.74862
  45   37362.0    267.7   0.016859493   0.14856   0.25561   0.28415  -0.04976
  46   37442.3    267.1   0.063788334   0.56086  -0.53075  -0.39519  -0.35070
  47   37604.0    265.9   0.045436231   0.39778  -0.34963  -0.49239   0.18189
  48   37819.5    264.4   0.275170918   2.39531  -0.58386   0.60024   1.30159
  49   38147.8    262.1   0.031305300   0.27016  -0.10404  -0.00401   0.50924
  50   38222.2    261.6   0.081405347   0.70115  -0.19117  -0.70899  -0.40241
  51   38624.9    258.9   0.005521114   0.04706   0.01944  -0.00390  -0.21602
  52   38909.1    257.0   0.027322851   0.23118  -0.35517   0.27034   0.17875
  53   39250.5    254.8   0.016085756   0.13492   0.07500   0.31669  -0.17030
  54   39429.9    253.6   0.066810001   0.55782  -0.48210  -0.52291   0.22795
  55   39572.5    252.7   0.042502372   0.35359  -0.03051   0.42372   0.41607
  56   39706.2    251.8   0.028060017   0.23265  -0.29196  -0.37738   0.07066
  57   40111.9    249.3   0.006362077   0.05222   0.12238   0.19145  -0.02419

FINAL SINGLE POINT ENERGY     -4875.842072616383

DIPOLE MOMENT
-------------
                                X             Y             Z
Electronic contribution:      0.21115       1.96134       6.56570
Nuclear contribution   :     -3.57378      -0.95178      -4.96293
                        -----------------------------------------
Total Dipole Moment    :     -3.36263       1.00956       1.60277
                        -----------------------------------------
Magnitude (a.u.)       :      3.85945
Magnitude (Debye)      :      9.80995

Rotational constants in cm-1:     0.002347     0.000142     0.000139
Rotational constants in MHz :    70.373986     4.268175     4.177946

                             ****ORCA TERMINATED NORMALLY****
TOTAL RUN TIME: 0 days 0 hours 10 minutes 22 seconds 989 msec
