                         Program Version 4.2.0 -  RELEASE  -
|  1> # ORCA input file
|  2> # SCF done       -217.517125057903          0.000922906528
|  3> ! CAM-B3LYP def2-SVP def2/J RIJCOSX Grid4 TightSCF
|  4> %maxcore 5000
|  5> %tddft
|  6>     Mode sTDDFT
|  7>     Ethresh 5.0
|  8>     maxcore 5000
|  9> end
| 10>
| 11> %pal
| 12>   nprocs 6
| 13>   end
| 14> * xyz 0 1
| 15>    C        3.59921        -7.14371       -11.54736
| 16>    C        4.17864        -6.75815       -10.37396
| 17>    C        3.77355        -7.58668        -9.27331
| 18>    C        2.90098        -8.56352        -9.62452
| 19>    S        2.56112        -8.49356       -11.31338
| 20>    C        4.43179        -7.15001        -8.03674
| 21>    O        4.35448        -7.66017        -6.94370
| 22>    C        5.30342        -6.01951        -8.46886
| 23>    C        5.04847        -5.71578        -9.86522
| 24>    C        5.45375        -4.56475       -10.48846
| 25>    N        5.32128        -4.30544       -11.88752
| 26>    O        5.26427        -3.14656       -12.23334
| 27>    O        5.26967        -5.26176       -12.63537
| 28>    N        6.00473        -3.44199        -9.74556
| 29>    O        7.01505        -2.94226       -10.17611
| 30>    O        5.41086        -3.09848        -8.74826
| 31>    C        6.38012        -5.54781        -7.76125
| 32>    C        6.61808        -5.67846        -6.38340
| 33>    C        5.72809        -5.90370        -5.33532
| 34>    C        6.37119        -5.94410        -4.10991
| 35>    C        7.77103        -5.74223        -4.20732
| 36>    S        8.27514        -5.46880        -5.80576
| 37>    C        8.33654        -5.85015        -2.91883
| 38>    C        7.29665        -6.12095        -1.99857
| 39>    C        6.03047        -6.16630        -2.71505
| 40>    C        4.79132        -6.36642        -2.18410
| 41>    C        3.61454        -6.36268        -2.96530
| 42>    N        2.64608        -6.34510        -3.57737
| 43>    C        4.60250        -6.57317        -0.80028
| 44>    N        4.45533        -6.74188         0.32396
| 45>    C        7.75826        -6.28241        -0.70119
| 46>    C        9.14056        -6.13571        -0.63059
| 47>    S        9.87899        -5.77946        -2.18399
| 48>    C        9.97130        -6.26875         0.49325
| 49>    C       11.36328        -6.11132         0.47774
| 50>    C       11.96982        -6.35139         1.75180
| 51>    N       13.28531        -6.23749         1.92674
| 52>    C       13.99730        -5.90309         0.87118
| 53>    C       15.46258        -5.74847         1.06908
| 54>    O       15.98806        -5.87969         2.15266
| 55>    C       16.22338        -5.41758        -0.14857
| 56>    C       15.66105        -5.22856        -1.34684
| 57>    C       14.21302        -5.33340        -1.59713
| 58>    O       13.72419        -5.15158        -2.69095
| 59>    C       13.39363        -5.68535        -0.40790
| 60>    N       12.09340        -5.78742        -0.58838
| 61>    C       11.04543        -6.70292         2.74405
| 62>    S        9.43522        -6.70436         2.08862
| 63>    C       11.38456        -7.04868         4.06155
| 64>    C       10.53330        -7.40690         5.10411
| 65>    C       11.24413        -7.73407         6.24788
| 66>    C       12.64397        -7.62648         6.06955
| 67>    S       13.08339        -7.10585         4.50284
| 68>    C       13.27154        -8.02884         7.26584
| 69>    C       12.27941        -8.37720         8.21427
| 70>    C       10.97416        -8.19368         7.60249
| 71>    C        9.75377        -8.40880         8.17050
| 72>    C        8.55345        -8.19843         7.45800
| 73>    N        7.58144        -8.02392         6.87615
| 74>    C        9.60964        -8.84304         9.50604
| 75>    N        9.48926        -9.18497        10.59318
| 76>    C       12.81497        -8.80705         9.41808
| 77>    C       14.20702        -8.84848         9.39057
| 78>    S       14.84843        -8.25314         7.85782
| 79>    C       15.02703        -9.26690        10.45570
| 80>    C       16.32888        -9.67533        10.45775
| 81>    C       17.25090       -10.04831         9.40444
| 82>    C       16.95137       -10.63423         8.19833
| 83>    N       17.96974       -10.93476         7.22194
| 84>    O       18.82678       -10.09543         7.04142
| 85>    O       17.90882       -12.00493         6.66690
| 86>    N       15.64801       -11.07980         7.81022
| 87>    O       14.84664       -11.34245         8.68502
| 88>    O       15.41208       -11.13493         6.62076
| 89>    C       18.58564        -9.94245         9.97723
| 90>    C       19.88796       -10.00970         9.57685
| 91>    S       20.95990        -9.88919        10.91550
| 92>    C       19.66227        -9.74711        12.04134
| 93>    C       18.46804        -9.78007        11.40024
| 94>    C       17.05310        -9.66961        11.76876
| 95>    O       16.55762        -9.54425        12.86074
| 96>    H        3.73999        -6.74908       -12.53376
| 97>    H        2.43590        -9.30414        -9.00527
| 98>    H        7.18031        -5.06690        -8.31458
| 99>    H        4.67017        -6.01145        -5.48011
|100>    H        7.15310        -6.50051         0.16053
|101>    H       17.29196        -5.32715        -0.00791
|102>    H       16.25670        -4.97929        -2.21457
|103>    H        9.46317        -7.42572         4.99958
|104>    H       12.24861        -9.13132        10.27222
|105>    H       14.56824        -9.22488        11.43957
|106>    H       20.29425       -10.07567         8.58690
|107>    H       19.85995        -9.65049        13.09000
|108> *
|109>
|110>                          ****END OF INPUT****

CARTESIAN COORDINATES (ANGSTROEM)
---------------------------------
  C      3.599210   -7.143710  -11.547360
  C      4.178640   -6.758150  -10.373960
  C      3.773550   -7.586680   -9.273310
  C      2.900980   -8.563520   -9.624520
  S      2.561120   -8.493560  -11.313380
  C      4.431790   -7.150010   -8.036740
  O      4.354480   -7.660170   -6.943700
  C      5.303420   -6.019510   -8.468860
  C      5.048470   -5.715780   -9.865220
  C      5.453750   -4.564750  -10.488460
  N      5.321280   -4.305440  -11.887520
  O      5.264270   -3.146560  -12.233340
  O      5.269670   -5.261760  -12.635370
  N      6.004730   -3.441990   -9.745560
  O      7.015050   -2.942260  -10.176110
  O      5.410860   -3.098480   -8.748260
  C      6.380120   -5.547810   -7.761250
  C      6.618080   -5.678460   -6.383400
  C      5.728090   -5.903700   -5.335320
  C      6.371190   -5.944100   -4.109910
  C      7.771030   -5.742230   -4.207320
  S      8.275140   -5.468800   -5.805760
  C      8.336540   -5.850150   -2.918830
  C      7.296650   -6.120950   -1.998570
  C      6.030470   -6.166300   -2.715050
  C      4.791320   -6.366420   -2.184100
  C      3.614540   -6.362680   -2.965300
  N      2.646080   -6.345100   -3.577370
  C      4.602500   -6.573170   -0.800280
  N      4.455330   -6.741880    0.323960
  C      7.758260   -6.282410   -0.701190
  C      9.140560   -6.135710   -0.630590
  S      9.878990   -5.779460   -2.183990
  C      9.971300   -6.268750    0.493250
  C     11.363280   -6.111320    0.477740
  C     11.969820   -6.351390    1.751800
  N     13.285310   -6.237490    1.926740
  C     13.997300   -5.903090    0.871180
  C     15.462580   -5.748470    1.069080
  O     15.988060   -5.879690    2.152660
  C     16.223380   -5.417580   -0.148570
  C     15.661050   -5.228560   -1.346840
  C     14.213020   -5.333400   -1.597130
  O     13.724190   -5.151580   -2.690950
  C     13.393630   -5.685350   -0.407900
  N     12.093400   -5.787420   -0.588380
  C     11.045430   -6.702920    2.744050
  S      9.435220   -6.704360    2.088620
  C     11.384560   -7.048680    4.061550
  C     10.533300   -7.406900    5.104110
  C     11.244130   -7.734070    6.247880
  C     12.643970   -7.626480    6.069550
  S     13.083390   -7.105850    4.502840
  C     13.271540   -8.028840    7.265840
  C     12.279410   -8.377200    8.214270
  C     10.974160   -8.193680    7.602490
  C      9.753770   -8.408800    8.170500
  C      8.553450   -8.198430    7.458000
  N      7.581440   -8.023920    6.876150
  C      9.609640   -8.843040    9.506040
  N      9.489260   -9.184970   10.593180
  C     12.814970   -8.807050    9.418080
  C     14.207020   -8.848480    9.390570
  S     14.848430   -8.253140    7.857820
  C     15.027030   -9.266900   10.455700
  C     16.328880   -9.675330   10.457750
  C     17.250900  -10.048310    9.404440
  C     16.951370  -10.634230    8.198330
  N     17.969740  -10.934760    7.221940
  O     18.826780  -10.095430    7.041420
  O     17.908820  -12.004930    6.666900
  N     15.648010  -11.079800    7.810220
  O     14.846640  -11.342450    8.685020
  O     15.412080  -11.134930    6.620760
  C     18.585640   -9.942450    9.977230
  C     19.887960  -10.009700    9.576850
  S     20.959900   -9.889190   10.915500
  C     19.662270   -9.747110   12.041340
  C     18.468040   -9.780070   11.400240
  C     17.053100   -9.669610   11.768760
  O     16.557620   -9.544250   12.860740
  H      3.739990   -6.749080  -12.533760
  H      2.435900   -9.304140   -9.005270
  H      7.180310   -5.066900   -8.314580
  H      4.670170   -6.011450   -5.480110
  H      7.153100   -6.500510    0.160530
  H     17.291960   -5.327150   -0.007910
  H     16.256700   -4.979290   -2.214570
  H      9.463170   -7.425720    4.999580
  H     12.248610   -9.131320   10.272220
  H     14.568240   -9.224880   11.439570
  H     20.294250  -10.075670    8.586900
  H     19.859950   -9.650490   13.090000

 Total Charge           Charge          ....    0
 Multiplicity           Mult            ....    1
 Number of Electrons    NEL             ....  602
 Basis Dimension        Dim             .... 1222

ORBITAL ENERGIES
----------------

  NO   OCC          E(Eh)            E(eV)
   0   2.0000     -89.018953     -2422.3289
   1   2.0000     -89.003618     -2421.9116
   2   2.0000     -89.002062     -2421.8692
   3   2.0000     -89.000783     -2421.8344
   4   2.0000     -89.000381     -2421.8235
   5   2.0000     -88.987634     -2421.4766
   6   2.0000     -88.983763     -2421.3713
   7   2.0000     -19.258303      -524.0451
   8   2.0000     -19.257937      -524.0351
   9   2.0000     -19.257017      -524.0101
  10   2.0000     -19.255014      -523.9556
  11   2.0000     -19.254602      -523.9444
  12   2.0000     -19.253260      -523.9078
  13   2.0000     -19.249460      -523.8044
  14   2.0000     -19.249283      -523.7996
  15   2.0000     -19.243690      -523.6474
  16   2.0000     -19.243353      -523.6383
  17   2.0000     -19.219290      -522.9835
  18   2.0000     -19.218855      -522.9716
  19   2.0000     -14.666694      -399.1010
  20   2.0000     -14.663730      -399.0204
  21   2.0000     -14.663428      -399.0122
  22   2.0000     -14.661451      -398.9584
  23   2.0000     -14.472126      -393.8066
  24   2.0000     -14.471888      -393.8001
  25   2.0000     -14.439891      -392.9294
  26   2.0000     -14.438825      -392.9004
  27   2.0000     -14.438287      -392.8858
  28   2.0000     -14.434496      -392.7826
  29   2.0000     -10.393402      -282.8189
  30   2.0000     -10.392984      -282.8075
  31   2.0000     -10.375967      -282.3444
  32   2.0000     -10.375888      -282.3423
  33   2.0000     -10.375090      -282.3206
  34   2.0000     -10.373931      -282.2890
  35   2.0000     -10.373904      -282.2883
  36   2.0000     -10.368497      -282.1412
  37   2.0000     -10.363269      -281.9989
  38   2.0000     -10.362597      -281.9806
  39   2.0000     -10.362291      -281.9723
  40   2.0000     -10.360880      -281.9339
  41   2.0000     -10.360731      -281.9298
  42   2.0000     -10.354349      -281.7561
  43   2.0000     -10.354188      -281.7518
  44   2.0000     -10.353172      -281.7241
  45   2.0000     -10.352771      -281.7132
  46   2.0000     -10.352552      -281.7073
  47   2.0000     -10.352516      -281.7063
  48   2.0000     -10.352483      -281.7054
  49   2.0000     -10.347745      -281.5764
  50   2.0000     -10.347665      -281.5743
  51   2.0000     -10.340349      -281.3752
  52   2.0000     -10.340334      -281.3748
  53   2.0000     -10.339849      -281.3616
  54   2.0000     -10.338507      -281.3251
  55   2.0000     -10.338252      -281.3181
  56   2.0000     -10.336448      -281.2690
  57   2.0000     -10.335228      -281.2359
  58   2.0000     -10.333780      -281.1964
  59   2.0000     -10.332837      -281.1708
  60   2.0000     -10.330099      -281.0963
  61   2.0000     -10.326275      -280.9922
  62   2.0000     -10.325044      -280.9587
  63   2.0000     -10.324421      -280.9418
  64   2.0000     -10.323720      -280.9227
  65   2.0000     -10.322495      -280.8894
  66   2.0000     -10.322116      -280.8790
  67   2.0000     -10.321260      -280.8558
  68   2.0000     -10.320704      -280.8406
  69   2.0000     -10.320242      -280.8281
  70   2.0000     -10.319758      -280.8149
  71   2.0000     -10.319149      -280.7983
  72   2.0000     -10.317283      -280.7476
  73   2.0000     -10.316550      -280.7276
  74   2.0000     -10.315021      -280.6860
  75   2.0000     -10.312737      -280.6238
  76   2.0000     -10.307497      -280.4812
  77   2.0000     -10.305530      -280.4277
  78   2.0000     -10.305239      -280.4198
  79   2.0000     -10.296970      -280.1948
  80   2.0000     -10.293368      -280.0968
  81   2.0000      -8.112872      -220.7625
  82   2.0000      -8.097984      -220.3573
  83   2.0000      -8.096934      -220.3288
  84   2.0000      -8.094012      -220.2493
  85   2.0000      -8.093670      -220.2399
  86   2.0000      -8.083510      -219.9635
  87   2.0000      -8.079765      -219.8616
  88   2.0000      -6.081985      -165.4992
  89   2.0000      -6.077870      -165.3873
  90   2.0000      -6.075521      -165.3233
  91   2.0000      -6.067196      -165.0968
  92   2.0000      -6.066026      -165.0650
  93   2.0000      -6.063404      -164.9936
  94   2.0000      -6.063107      -164.9855
  95   2.0000      -6.062971      -164.9818
  96   2.0000      -6.061937      -164.9537
  97   2.0000      -6.060425      -164.9125
  98   2.0000      -6.059441      -164.8858
  99   2.0000      -6.058922      -164.8716
 100   2.0000      -6.058587      -164.8625
 101   2.0000      -6.056329      -164.8011
 102   2.0000      -6.055921      -164.7900
 103   2.0000      -6.052668      -164.7015
 104   2.0000      -6.048913      -164.5993
 105   2.0000      -6.047998      -164.5744
 106   2.0000      -6.046361      -164.5299
 107   2.0000      -6.044243      -164.4722
 108   2.0000      -6.042585      -164.4271
 109   2.0000      -1.347963       -36.6799
 110   2.0000      -1.344664       -36.5902
 111   2.0000      -1.329954       -36.1899
 112   2.0000      -1.327007       -36.1097
 113   2.0000      -1.162205       -31.6252
 114   2.0000      -1.161910       -31.6172
 115   2.0000      -1.159319       -31.5467
 116   2.0000      -1.156959       -31.4824
 117   2.0000      -1.152063       -31.3492
 118   2.0000      -1.150326       -31.3020
 119   2.0000      -1.137349       -30.9488
 120   2.0000      -1.136667       -30.9303
 121   2.0000      -1.122988       -30.5580
 122   2.0000      -1.058935       -28.8151
 123   2.0000      -1.057418       -28.7738
 124   2.0000      -1.050713       -28.5914
 125   2.0000      -1.032867       -28.1057
 126   2.0000      -1.030554       -28.0428
 127   2.0000      -1.028289       -27.9812
 128   2.0000      -1.026109       -27.9218
 129   2.0000      -1.022389       -27.8206
 130   2.0000      -1.016996       -27.6739
 131   2.0000      -1.013717       -27.5846
 132   2.0000      -1.011280       -27.5183
 133   2.0000      -1.003871       -27.3167
 134   2.0000      -0.987335       -26.8668
 135   2.0000      -0.983526       -26.7631
 136   2.0000      -0.972444       -26.4616
 137   2.0000      -0.968006       -26.3408
 138   2.0000      -0.956092       -26.0166
 139   2.0000      -0.944880       -25.7115
 140   2.0000      -0.941390       -25.6165
 141   2.0000      -0.931437       -25.3457
 142   2.0000      -0.923728       -25.1359
 143   2.0000      -0.899842       -24.4860
 144   2.0000      -0.895628       -24.3713
 145   2.0000      -0.889771       -24.2119
 146   2.0000      -0.888083       -24.1660
 147   2.0000      -0.876981       -23.8639
 148   2.0000      -0.870739       -23.6940
 149   2.0000      -0.868273       -23.6269
 150   2.0000      -0.865479       -23.5509
 151   2.0000      -0.853977       -23.2379
 152   2.0000      -0.849267       -23.1097
 153   2.0000      -0.830543       -22.6002
 154   2.0000      -0.824558       -22.4374
 155   2.0000      -0.816108       -22.2074
 156   2.0000      -0.812562       -22.1109
 157   2.0000      -0.810601       -22.0576
 158   2.0000      -0.805780       -21.9264
 159   2.0000      -0.801781       -21.8176
 160   2.0000      -0.792211       -21.5572
 161   2.0000      -0.787861       -21.4388
 162   2.0000      -0.784516       -21.3478
 163   2.0000      -0.775512       -21.1027
 164   2.0000      -0.772991       -21.0342
 165   2.0000      -0.749105       -20.3842
 166   2.0000      -0.742403       -20.2018
 167   2.0000      -0.714465       -19.4416
 168   2.0000      -0.713781       -19.4230
 169   2.0000      -0.704476       -19.1698
 170   2.0000      -0.702122       -19.1057
 171   2.0000      -0.697923       -18.9915
 172   2.0000      -0.694391       -18.8953
 173   2.0000      -0.691598       -18.8193
 174   2.0000      -0.688486       -18.7346
 175   2.0000      -0.684419       -18.6240
 176   2.0000      -0.679657       -18.4944
 177   2.0000      -0.671350       -18.2684
 178   2.0000      -0.670700       -18.2507
 179   2.0000      -0.667415       -18.1613
 180   2.0000      -0.657689       -17.8966
 181   2.0000      -0.652787       -17.7632
 182   2.0000      -0.651819       -17.7369
 183   2.0000      -0.649388       -17.6707
 184   2.0000      -0.645296       -17.5594
 185   2.0000      -0.642056       -17.4712
 186   2.0000      -0.640831       -17.4379
 187   2.0000      -0.638948       -17.3867
 188   2.0000      -0.634417       -17.2634
 189   2.0000      -0.631064       -17.1721
 190   2.0000      -0.629827       -17.1385
 191   2.0000      -0.627645       -17.0791
 192   2.0000      -0.626625       -17.0513
 193   2.0000      -0.625083       -17.0094
 194   2.0000      -0.623656       -16.9706
 195   2.0000      -0.619348       -16.8533
 196   2.0000      -0.614548       -16.7227
 197   2.0000      -0.611824       -16.6486
 198   2.0000      -0.609045       -16.5730
 199   2.0000      -0.596446       -16.2301
 200   2.0000      -0.594384       -16.1740
 201   2.0000      -0.591959       -16.1080
 202   2.0000      -0.590133       -16.0583
 203   2.0000      -0.589250       -16.0343
 204   2.0000      -0.583261       -15.8713
 205   2.0000      -0.580311       -15.7911
 206   2.0000      -0.578830       -15.7508
 207   2.0000      -0.575686       -15.6652
 208   2.0000      -0.567488       -15.4421
 209   2.0000      -0.560461       -15.2509
 210   2.0000      -0.559502       -15.2248
 211   2.0000      -0.558738       -15.2040
 212   2.0000      -0.553082       -15.0501
 213   2.0000      -0.546099       -14.8601
 214   2.0000      -0.543137       -14.7795
 215   2.0000      -0.540942       -14.7198
 216   2.0000      -0.540013       -14.6945
 217   2.0000      -0.537557       -14.6277
 218   2.0000      -0.534278       -14.5385
 219   2.0000      -0.532194       -14.4817
 220   2.0000      -0.531330       -14.4582
 221   2.0000      -0.526949       -14.3390
 222   2.0000      -0.524297       -14.2668
 223   2.0000      -0.522722       -14.2240
 224   2.0000      -0.518827       -14.1180
 225   2.0000      -0.516448       -14.0533
 226   2.0000      -0.513596       -13.9757
 227   2.0000      -0.512223       -13.9383
 228   2.0000      -0.509568       -13.8660
 229   2.0000      -0.508715       -13.8428
 230   2.0000      -0.505893       -13.7661
 231   2.0000      -0.504607       -13.7311
 232   2.0000      -0.501572       -13.6485
 233   2.0000      -0.500778       -13.6269
 234   2.0000      -0.499892       -13.6027
 235   2.0000      -0.496556       -13.5120
 236   2.0000      -0.495635       -13.4869
 237   2.0000      -0.492786       -13.4094
 238   2.0000      -0.485554       -13.2126
 239   2.0000      -0.483733       -13.1630
 240   2.0000      -0.480202       -13.0670
 241   2.0000      -0.475290       -12.9333
 242   2.0000      -0.473551       -12.8860
 243   2.0000      -0.470113       -12.7924
 244   2.0000      -0.469653       -12.7799
 245   2.0000      -0.469099       -12.7648
 246   2.0000      -0.468851       -12.7581
 247   2.0000      -0.467704       -12.7269
 248   2.0000      -0.465402       -12.6642
 249   2.0000      -0.462416       -12.5830
 250   2.0000      -0.461660       -12.5624
 251   2.0000      -0.458770       -12.4838
 252   2.0000      -0.457502       -12.4493
 253   2.0000      -0.454595       -12.3702
 254   2.0000      -0.450343       -12.2545
 255   2.0000      -0.449263       -12.2251
 256   2.0000      -0.448379       -12.2010
 257   2.0000      -0.448273       -12.1981
 258   2.0000      -0.446140       -12.1401
 259   2.0000      -0.445814       -12.1312
 260   2.0000      -0.445668       -12.1272
 261   2.0000      -0.444300       -12.0900
 262   2.0000      -0.436233       -11.8705
 263   2.0000      -0.432577       -11.7710
 264   2.0000      -0.426967       -11.6184
 265   2.0000      -0.422405       -11.4942
 266   2.0000      -0.420139       -11.4326
 267   2.0000      -0.413691       -11.2571
 268   2.0000      -0.412795       -11.2327
 269   2.0000      -0.408211       -11.1080
 270   2.0000      -0.403921       -10.9913
 271   2.0000      -0.402186       -10.9440
 272   2.0000      -0.399118       -10.8606
 273   2.0000      -0.396607       -10.7922
 274   2.0000      -0.393105       -10.6969
 275   2.0000      -0.388553       -10.5731
 276   2.0000      -0.386375       -10.5138
 277   2.0000      -0.385181       -10.4813
 278   2.0000      -0.382966       -10.4210
 279   2.0000      -0.381973       -10.3940
 280   2.0000      -0.379595       -10.3293
 281   2.0000      -0.374882       -10.2011
 282   2.0000      -0.373132       -10.1534
 283   2.0000      -0.369348       -10.0505
 284   2.0000      -0.365733        -9.9521
 285   2.0000      -0.363796        -9.8994
 286   2.0000      -0.361597        -9.8395
 287   2.0000      -0.360674        -9.8144
 288   2.0000      -0.354079        -9.6350
 289   2.0000      -0.350286        -9.5318
 290   2.0000      -0.344237        -9.3672
 291   2.0000      -0.341190        -9.2843
 292   2.0000      -0.340306        -9.2602
 293   2.0000      -0.337856        -9.1935
 294   2.0000      -0.333811        -9.0835
 295   2.0000      -0.330280        -8.9874
 296   2.0000      -0.326237        -8.8774
 297   2.0000      -0.322354        -8.7717
 298   2.0000      -0.311434        -8.4745
 299   2.0000      -0.284624        -7.7450
 300   2.0000      -0.250320        -6.8115
 301   0.0000      -0.137318        -3.7366
 302   0.0000      -0.120907        -3.2900
 303   0.0000      -0.105410        -2.8683
 304   0.0000      -0.102033        -2.7765
 305   0.0000      -0.099432        -2.7057

MULLIKEN ATOMIC CHARGES
-----------------------
   0 C :   -0.131199
   1 C :    0.066312
   2 C :    0.005063
   3 C :   -0.126407
   4 S :    0.156109
   5 C :    0.173363
   6 O :   -0.150023
   7 C :   -0.116575
   8 C :    0.202214
   9 C :    0.049738
  10 N :    0.258917
  11 O :   -0.224757
  12 O :   -0.251426
  13 N :    0.199337
  14 O :   -0.206704
  15 O :   -0.211382
  16 C :    0.043854
  17 C :   -0.119923
  18 C :    0.058135
  19 C :   -0.023913
  20 C :   -0.082496
  21 S :    0.216544
  22 C :   -0.089861
  23 C :    0.036855
  24 C :    0.301467
  25 C :   -0.285283
  26 C :   -0.188290
  27 N :    0.191179
  28 C :   -0.193662
  29 N :    0.176280
  30 C :   -0.080103
  31 C :   -0.069519
  32 S :    0.248664
  33 C :   -0.125317
  34 C :    0.031307
  35 C :    0.026881
  36 N :    0.035965
  37 C :   -0.109081
  38 C :    0.141665
  39 O :   -0.100593
  40 C :   -0.019814
  41 C :   -0.013612
  42 C :    0.139494
  43 O :   -0.102519
  44 C :   -0.111115
  45 N :    0.036391
  46 C :   -0.120354
  47 S :    0.247087
  48 C :   -0.069717
  49 C :   -0.085836
  50 C :    0.039398
  51 C :   -0.085638
  52 S :    0.255959
  53 C :   -0.077656
  54 C :    0.022870
  55 C :    0.298051
  56 C :   -0.287101
  57 C :   -0.190404
  58 N :    0.176478
  59 C :   -0.190516
  60 N :    0.185350
  61 C :   -0.002426
  62 C :   -0.081986
  63 S :    0.209541
  64 C :    0.060153
  65 C :   -0.148150
  66 C :    0.191672
  67 C :    0.054396
  68 N :    0.244894
  69 O :   -0.241437
  70 O :   -0.205562
  71 N :    0.229064
  72 O :   -0.221487
  73 O :   -0.226996
  74 C :    0.038098
  75 C :   -0.139421
  76 S :    0.156384
  77 C :   -0.127142
  78 C :    0.021629
  79 C :    0.153483
  80 O :   -0.136842
  81 H :    0.057820
  82 H :    0.042112
  83 H :    0.019315
  84 H :    0.033316
  85 H :    0.013602
  86 H :    0.025122
  87 H :    0.023224
  88 H :    0.014800
  89 H :    0.022252
  90 H :    0.036583
  91 H :    0.060750
  92 H :    0.043107
Sum of atomic charges:   -0.0000000

LOEWDIN ATOMIC CHARGES
----------------------
   0 C :   -0.146063
   1 C :   -0.064351
   2 C :   -0.088212
   3 C :   -0.140475
   4 S :    0.488828
   5 C :    0.082844
   6 O :   -0.136943
   7 C :   -0.098472
   8 C :    0.057478
   9 C :   -0.072635
  10 N :    0.278997
  11 O :   -0.190219
  12 O :   -0.205003
  13 N :    0.268367
  14 O :   -0.178687
  15 O :   -0.187417
  16 C :    0.044268
  17 C :   -0.177208
  18 C :    0.035502
  19 C :   -0.071626
  20 C :   -0.156423
  21 S :    0.498568
  22 C :   -0.188984
  23 C :   -0.053006
  24 C :    0.075578
  25 C :   -0.092330
  26 C :   -0.019778
  27 N :   -0.016583
  28 C :   -0.015906
  29 N :   -0.029028
  30 C :   -0.028180
  31 C :   -0.173176
  32 S :    0.533866
  33 C :   -0.190391
  34 C :   -0.051936
  35 C :   -0.051816
  36 N :   -0.008845
  37 C :   -0.034726
  38 C :    0.056058
  39 O :   -0.096451
  40 C :   -0.009715
  41 C :   -0.010576
  42 C :    0.056127
  43 O :   -0.098681
  44 C :   -0.035042
  45 N :   -0.009301
  46 C :   -0.190082
  47 S :    0.530159
  48 C :   -0.172857
  49 C :   -0.027453
  50 C :   -0.053073
  51 C :   -0.187377
  52 S :    0.541073
  53 C :   -0.148563
  54 C :   -0.071417
  55 C :    0.077898
  56 C :   -0.094828
  57 C :   -0.016548
  58 N :   -0.027354
  59 C :   -0.018449
  60 N :   -0.022947
  61 C :    0.018391
  62 C :   -0.182473
  63 S :    0.504987
  64 C :    0.061623
  65 C :   -0.104027
  66 C :    0.048560
  67 C :   -0.083362
  68 N :    0.276072
  69 O :   -0.197168
  70 O :   -0.173847
  71 N :    0.265367
  72 O :   -0.187937
  73 O :   -0.197175
  74 C :   -0.063254
  75 C :   -0.154231
  76 S :    0.489996
  77 C :   -0.140289
  78 C :   -0.090933
  79 C :    0.081777
  80 O :   -0.137301
  81 H :    0.030903
  82 H :    0.036881
  83 H :    0.036190
  84 H :    0.047924
  85 H :    0.039182
  86 H :    0.048581
  87 H :    0.048186
  88 H :    0.039417
  89 H :    0.048774
  90 H :    0.055713
  91 H :    0.029890
  92 H :    0.037109

  Mayer bond orders larger than 0.100000
B(  0-C ,  1-C ) :   1.5441 B(  0-C ,  4-S ) :   1.1871 B(  0-C , 81-H ) :   0.9489
B(  1-C ,  2-C ) :   1.2205 B(  1-C ,  8-C ) :   1.0166 B(  2-C ,  3-C ) :   1.5548
B(  2-C ,  5-C ) :   0.9611 B(  3-C ,  4-S ) :   1.1814 B(  3-C , 82-H ) :   0.9710
B(  5-C ,  6-O ) :   2.1952 B(  5-C ,  7-C ) :   0.9550 B(  7-C ,  8-C ) :   1.0995
B(  7-C , 16-C ) :   1.5665 B(  8-C ,  9-C ) :   1.5873 B(  9-C , 10-N ) :   0.9473
B(  9-C , 13-N ) :   0.8801 B( 10-N , 11-O ) :   1.5339 B( 10-N , 12-O ) :   1.4936
B( 11-O , 12-O ) :   0.2612 B( 13-N , 14-O ) :   1.5271 B( 13-N , 15-O ) :   1.5319
B( 14-O , 15-O ) :   0.2821 B( 16-C , 17-C ) :   1.2293 B( 16-C , 83-H ) :   0.9409
B( 17-C , 18-C ) :   1.3894 B( 17-C , 21-S ) :   1.0652 B( 18-C , 19-C ) :   1.3633
B( 18-C , 84-H ) :   0.9731 B( 19-C , 20-C ) :   1.3643 B( 19-C , 24-C ) :   0.9942
B( 20-C , 21-S ) :   1.1705 B( 20-C , 22-C ) :   1.2230 B( 22-C , 23-C ) :   1.3958
B( 22-C , 32-S ) :   1.0901 B( 23-C , 24-C ) :   0.9929 B( 23-C , 30-C ) :   1.3350
B( 24-C , 25-C ) :   1.7224 B( 25-C , 26-C ) :   1.1321 B( 25-C , 28-C ) :   1.1356
B( 26-C , 27-N ) :   2.9957 B( 28-C , 29-N ) :   2.9908 B( 30-C , 31-C ) :   1.3774
B( 30-C , 85-H ) :   0.9937 B( 31-C , 32-S ) :   1.1246 B( 31-C , 33-C ) :   1.2428
B( 33-C , 34-C ) :   1.3116 B( 33-C , 46-C ) :   0.1173 B( 33-C , 47-S ) :   1.1600
B( 34-C , 35-C ) :   1.1957 B( 34-C , 45-N ) :   1.4174 B( 35-C , 36-N ) :   1.4189
B( 35-C , 46-C ) :   1.3120 B( 36-N , 37-C ) :   1.6966 B( 37-C , 38-C ) :   0.8938
B( 37-C , 44-C ) :   1.1103 B( 38-C , 39-O ) :   2.2507 B( 38-C , 40-C ) :   1.0216
B( 40-C , 41-C ) :   1.6786 B( 40-C , 86-H ) :   0.9984 B( 41-C , 42-C ) :   1.0240
B( 41-C , 87-H ) :   0.9975 B( 42-C , 43-O ) :   2.2493 B( 42-C , 44-C ) :   0.8946
B( 44-C , 45-N ) :   1.6981 B( 46-C , 47-S ) :   1.1576 B( 46-C , 48-C ) :   1.2438
B( 48-C , 49-C ) :   1.3718 B( 48-C , 52-S ) :   1.1273 B( 49-C , 50-C ) :   1.3378
B( 49-C , 88-H ) :   0.9959 B( 50-C , 51-C ) :   1.3897 B( 50-C , 55-C ) :   0.9905
B( 51-C , 52-S ) :   1.0943 B( 51-C , 53-C ) :   1.2315 B( 53-C , 54-C ) :   1.3759
B( 53-C , 63-S ) :   1.1535 B( 54-C , 55-C ) :   0.9917 B( 54-C , 61-C ) :   1.3218
B( 55-C , 56-C ) :   1.7224 B( 56-C , 57-C ) :   1.1348 B( 56-C , 59-C ) :   1.1304
B( 57-C , 58-N ) :   2.9910 B( 59-C , 60-N ) :   2.9964 B( 61-C , 62-C ) :   1.3710
B( 61-C , 89-H ) :   1.0022 B( 62-C , 63-S ) :   1.0791 B( 62-C , 64-C ) :   1.1580
B( 64-C , 65-C ) :   1.6288 B( 64-C , 90-H ) :   0.9426 B( 65-C , 66-C ) :   1.0707
B( 65-C , 79-C ) :   0.9447 B( 66-C , 67-C ) :   1.5693 B( 66-C , 74-C ) :   1.0226
B( 67-C , 68-N ) :   0.9045 B( 67-C , 71-N ) :   0.9424 B( 68-N , 69-O ) :   1.4926
B( 68-N , 70-O ) :   1.5517 B( 69-O , 70-O ) :   0.2745 B( 71-N , 72-O ) :   1.5090
B( 71-N , 73-O ) :   1.5048 B( 72-O , 73-O ) :   0.2638 B( 74-C , 75-C ) :   1.5486
B( 74-C , 78-C ) :   1.2219 B( 75-C , 76-S ) :   1.1852 B( 75-C , 91-H ) :   0.9487
B( 76-S , 77-C ) :   1.1830 B( 77-C , 78-C ) :   1.5589 B( 77-C , 92-H ) :   0.9717
B( 78-C , 79-C ) :   0.9357 B( 79-C , 80-O ) :   2.2602

-----------------------------------------------------------------------------
         ABSORPTION SPECTRUM VIA TRANSITION ELECTRIC DIPOLE MOMENTS
-----------------------------------------------------------------------------
State   Energy  Wavelength   fosc         T2         TX        TY        TZ
        (cm-1)    (nm)                  (au**2)     (au)      (au)      (au)
-----------------------------------------------------------------------------
   0    9516.6   1050.8   1.079855128  37.35603  -3.02019   1.19694  -5.17705
   1   12467.3    802.1   0.043190888   1.14050   0.56171   0.43680   0.79636
   2   14403.9    694.3   0.027418748   0.62668   0.30077  -0.17274   0.71160
   3   16942.7    590.2   0.052075714   1.01188   0.74887   0.58581  -0.32847
   4   18265.7    547.5   0.303511999   5.47035   1.95531  -1.09523   0.66901
   5   18694.1    534.9   0.287390159   5.06109   1.59070  -0.17617   1.58105
   6   20014.7    499.6   0.619155564  10.18419   0.53382  -0.16206   3.14213
   7   21643.3    462.0   0.015108324   0.22981   0.32312  -0.26255   0.23763
   8   24481.9    408.5   0.003845641   0.05171  -0.13727   0.06979   0.16733
   9   24632.4    406.0   0.073617436   0.98390  -0.52812  -0.32840   0.77275
  10   25138.5    397.8   0.010208309   0.13369   0.05981   0.35368   0.07084
  11   25595.9    390.7   0.000013437   0.00017  -0.00549  -0.00456  -0.01104
  12   25772.2    388.0   0.011317277   0.14457   0.09695   0.09663   0.35473
  13   26365.7    379.3   0.069212646   0.86421   0.21737   0.22321   0.87587
  14   26446.1    378.1   0.001661179   0.02068   0.08961  -0.10139  -0.04868
  15   26533.2    376.9   0.142513209   1.76824   1.12058   0.22466   0.67976
  16   26706.1    374.4   0.320551081   3.95150   1.00121  -0.01231   1.71724
  17   27084.9    369.2   0.038653877   0.46983   0.30294   0.28325   0.54574
  18   27617.0    362.1   0.036111771   0.43047  -0.10269   0.46878   0.44741
  19   27912.4    358.3   0.136989948   1.61572  -1.07469  -0.27328   0.62136
  20   28141.3    355.3   0.140108785   1.63907   1.13301   0.59376   0.05299
  21   28260.5    353.9   0.028344830   0.33019  -0.24766   0.24910   0.45476
  22   28434.7    351.7   0.260474932   3.01573  -1.39593   0.39094  -0.95617
  23   28910.7    345.9   0.125169395   1.42533  -0.47444   0.35991  -1.03475
  24   29641.8    337.4   0.017587109   0.19533   0.06143   0.43703   0.02365
  25   29765.9    336.0   0.113915790   1.25991  -0.36439  -0.13635   1.05287
  26   30155.2    331.6   0.032169646   0.35120   0.36580   0.04914   0.46366
  27   30487.5    328.0   0.000987516   0.01066  -0.04725   0.04286  -0.08120
  28   30555.4    327.3   0.018369660   0.19792   0.05225   0.44045   0.03454
  29   30717.8    325.5   0.162030963   1.73654   0.71665   0.04965   1.10475
  30   30892.6    323.7   0.189242561   2.01670  -1.14330  -0.01736   0.84218
  31   31093.2    321.6   0.083982979   0.88921   0.55465  -0.58674  -0.48715
  32   31308.7    319.4   0.180134086   1.89412   0.79320  -0.05262   1.12347
  33   31726.8    315.2   0.082144751   0.85237   0.14060  -0.26677  -0.87261
  34   31878.2    313.7   0.035770894   0.36941  -0.27457  -0.31463  -0.44162
  35   32241.6    310.2   0.108465061   1.10751  -0.81302  -0.62498   0.23644
  36   32311.9    309.5   0.085900216   0.87520   0.23186   0.57675  -0.69914
  37   32530.8    307.4   0.058610961   0.59314   0.64652   0.38444   0.16541
  38   32645.4    306.3   0.321310723   3.24025   1.58422   0.21714  -0.82664
  39   32999.7    303.0   0.165638973   1.65245   1.11438   0.51042  -0.38741
  40   33198.7    301.2   0.116163429   1.15192   0.98992   0.14409   0.38886
  41   33365.3    299.7   0.024967517   0.24635   0.16014   0.01398  -0.46959
  42   33468.2    298.8   0.064603501   0.63548  -0.65958   0.07276  -0.44174
  43   33552.3    298.0   0.001878547   0.01843  -0.07332  -0.03957   0.10719
  44   33679.6    296.9   0.032312142   0.31585  -0.39459  -0.27630  -0.28948
  45   33834.3    295.6   0.112732614   1.09690   1.02766   0.18290  -0.08577
  46   34141.0    292.9   0.121651387   1.17305  -0.97607   0.12130   0.45345
  47   34179.5    292.6   0.026049090   0.25090  -0.43565  -0.14720   0.19861
  48   34266.5    291.8   0.187927878   1.80550   1.11311   0.62055  -0.42592
  49   34367.8    291.0   0.028391625   0.27197   0.42455   0.04527  -0.29946
  50   34580.1    289.2   0.123238203   1.17326   1.05742   0.05816   0.22745
  51   34774.4    287.6   0.090658794   0.85827   0.76854   0.19736  -0.47820
  52   35209.1    284.0   0.061892099   0.57870   0.75529   0.07062   0.05698
  53   35239.1    283.8   0.024945368   0.23305  -0.22788   0.01420   0.42534
  54   35335.1    283.0   0.281973692   2.62711   1.47817   0.27738  -0.60431
  55   35567.1    281.2   0.059630474   0.55194   0.68266   0.11515   0.26956
  56   35595.4    280.9   0.018901805   0.17482   0.09323  -0.14558   0.38070
  57   35713.0    280.0   0.025077741   0.23117   0.26100  -0.10518   0.38986
  58   35892.5    278.6   0.006496460   0.05959   0.09775   0.11023  -0.19463
  59   35968.1    278.0   0.015347072   0.14047  -0.35574   0.10118   0.06069
  60   36025.4    277.6   0.039184885   0.35808  -0.38969  -0.09774  -0.44348
  61   36063.6    277.3   0.006139564   0.05605  -0.01847  -0.16284  -0.17085
  62   36253.0    275.8   0.018573963   0.16867   0.24976   0.12314   0.30187
  63   36356.5    275.1   0.032554473   0.29478  -0.30292   0.15058   0.42468
  64   36647.5    272.9   0.117227152   1.05307  -1.01092   0.02085   0.17516
  65   36856.5    271.3   0.021381054   0.19098  -0.09421  -0.22982   0.35956
  66   37017.7    270.1   0.226989101   2.01869  -0.70322   0.10692  -1.22994
  67   37088.4    269.6   0.001503292   0.01334   0.03071  -0.06371   0.09133
  68   37326.5    267.9   0.003867051   0.03411  -0.04476  -0.17857   0.01466
  69   37429.7    267.2   0.088482991   0.77825   0.10668   0.53567  -0.69277
  70   37578.9    266.1   0.025772882   0.22578   0.43732   0.16675   0.08204
  71   37588.2    266.0   0.025309192   0.22167  -0.30764  -0.34253   0.09848
  72   37762.4    264.8   0.077201342   0.67304  -0.55315  -0.60208  -0.06759
  73   37789.0    264.6   0.072698262   0.63334   0.63450   0.47190  -0.08975
  74   37962.0    263.4   0.013174175   0.11425   0.29753   0.13121  -0.09225
  75   38175.1    262.0   0.022432533   0.19345   0.36271   0.11362   0.22133
  76   38275.8    261.3   0.036577059   0.31460  -0.05595  -0.16944  -0.53175
  77   38311.1    261.0   0.005578583   0.04794  -0.19168  -0.08352   0.06497
  78   38392.6    260.5   0.004736748   0.04062  -0.17601   0.04830   0.08547
  79   38592.2    259.1   0.005057759   0.04315  -0.15484  -0.09341  -0.10220
  80   38721.5    258.3   0.023088543   0.19630  -0.33222  -0.17977  -0.23154
  81   38822.3    257.6   0.062800123   0.53254   0.26980   0.11445  -0.66832
  82   38914.2    257.0   0.015609716   0.13206  -0.07489  -0.01629  -0.35522
  83   39023.5    256.3   0.035306160   0.29785   0.28317   0.39647  -0.24592
  84   39132.7    255.5   0.039370853   0.33122   0.09626   0.01624   0.56717
  85   39146.6    255.4   0.012254191   0.10305  -0.28959   0.03209  -0.13477
  86   39321.8    254.3   0.007928811   0.06638   0.11272   0.15003   0.17655
  87   39460.4    253.4   0.025344029   0.21144  -0.04659  -0.11172   0.44361
  88   39643.3    252.2   0.025221922   0.20945   0.07335   0.08212   0.44422
  89   39716.2    251.8   0.002045675   0.01696  -0.02228   0.06212   0.11226
  90   39883.3    250.7   0.002557937   0.02111   0.10220   0.06483   0.08041
  91   40094.6    249.4   0.011527169   0.09465  -0.15574  -0.26532  -0.00038
  92   40154.9    249.0   0.002586346   0.02120   0.06557  -0.08097   0.10173
  93   40175.6    248.9   0.007921062   0.06491   0.25065   0.01819  -0.04188
  94   40243.2    248.5   0.009485819   0.07760  -0.06869   0.02972  -0.26832
  95   40275.2    248.3   0.015919081   0.13012  -0.11451  -0.10907   0.32422

FINAL SINGLE POINT ENERGY     -6220.630873145333

DIPOLE MOMENT
-------------
                                X             Y             Z
Electronic contribution:     -2.58372       2.01817      -0.48442
Nuclear contribution   :      5.67909      -1.95011       0.91981
                        -----------------------------------------
Total Dipole Moment    :      3.09538       0.06806       0.43540
                        -----------------------------------------
Magnitude (a.u.)       :      3.12659
Magnitude (Debye)      :      7.94716

Rotational constants in cm-1:     0.001662     0.000180     0.000169
Rotational constants in MHz :    49.836208     5.386349     5.075292

                             ****ORCA TERMINATED NORMALLY****
TOTAL RUN TIME: 0 days 0 hours 10 minutes 54 seconds 2 msec
