                         Program Version 4.2.0 -  RELEASE  -
|  1> # ORCA input file
|  2> # SCF done       -209.575367491506          0.000949640030
|  3> ! CAM-B3LYP def2-SVP def2/J RIJCOSX Grid4 TightSCF
|  4> %maxcore 5000
|  5> %tddft
|  6>     Mode sTDDFT
|  7>     Ethresh 5.0
|  8>     maxcore 5000
|  9> end
| 10>
| 11> %pal
| 12>   nprocs 6
| 13>   end
| 14> * xyz 0 1
| 15>    C        3.05521         7.45989         1.90164
| 16>    C        3.27369         8.53931         2.71412
| 17>    C        4.33772         8.53313         3.62803
| 18>    C        5.16814         7.44878         3.71733
| 19>    C        4.97076         6.31938         2.89804
| 20>    C        5.81888         5.19106         2.99634
| 21>    C        5.59261         4.10887         2.19137
| 22>    C        4.52333         4.13162         1.24826
| 23>    C        3.68564         5.20443         1.13594
| 24>    C        3.89052         6.32735         1.96870
| 25>    C        4.52835         2.87683         0.48552
| 26>    O        3.75090         2.50289        -0.36292
| 27>    C        5.75135         2.13785         0.94315
| 28>    C        6.26956         2.81800         2.10150
| 29>    C        7.09843         2.29134         3.06019
| 30>    C        7.50209         0.94360         3.07526
| 31>    N        7.82883        -0.15565         3.13043
| 32>    C        7.52059         2.98855         4.21163
| 33>    N        7.88563         3.50076         5.17107
| 34>    C        6.16231         1.08188         0.18439
| 35>    C        7.40369         0.41405         0.10678
| 36>    C        8.69261         0.79514         0.48840
| 37>    C        9.59793        -0.20588         0.06415
| 38>    C        8.84281        -1.26143        -0.58019
| 39>    O        9.16203        -2.32843        -1.06075
| 40>    N        7.51942        -0.79205        -0.54779
| 41>    C        6.43334        -1.57405        -1.07185
| 42>    C       10.87105         0.13350         0.51447
| 43>    N       10.78052         1.31742         1.18117
| 44>    C        9.46161         1.81018         1.17226
| 45>    O        9.14107         2.87619         1.66252
| 46>    C       11.85351         2.10768         1.72247
| 47>    C       12.03103        -0.68535         0.28580
| 48>    C       13.01583        -1.01607         1.23461
| 49>    C       14.01804        -2.00225         0.94923
| 50>    N       14.87230        -2.39079         1.92114
| 51>    C       14.83223        -1.79642         3.06444
| 52>    C       13.87679        -0.77443         3.33070
| 53>    N       12.98871        -0.43571         2.45729
| 54>    F       13.84621        -0.15909         4.50813
| 55>    F       15.67083        -2.20276         4.00971
| 56>    C       14.10261        -2.66146        -0.29594
| 57>    C       13.13325        -2.32448        -1.25305
| 58>    C       12.12725        -1.32877        -0.96426
| 59>    N       11.36964        -1.06878        -2.03102
| 60>    S       11.82081        -2.01013        -3.23505
| 61>    N       13.03746        -2.76555        -2.51265
| 62>    C       15.22812        -3.52419        -0.53253
| 63>    C       16.53511        -3.24211        -0.15655
| 64>    C       17.35708        -4.31221        -0.59508
| 65>    C       16.51579        -5.28933        -1.25062
| 66>    O       16.75147        -6.35895        -1.76508
| 67>    N       15.21821        -4.72506        -1.17623
| 68>    C       14.06384        -5.44348        -1.64192
| 69>    C       18.67938        -3.96738        -0.35709
| 70>    N       18.69778        -2.74439         0.24178
| 71>    C       17.39283        -2.21694         0.40017
| 72>    O       17.16853        -1.14132         0.90886
| 73>    C       19.85264        -2.04419         0.73154
| 74>    C       19.82039        -4.78317        -0.67873
| 75>    C       20.85399        -4.42459        -1.47086
| 76>    C       21.98660        -5.25664        -1.85433
| 77>    C       22.47741        -6.30912        -1.13376
| 78>    C       23.60258        -7.06923        -1.51790
| 79>    N       24.51106        -7.71513        -1.78957
| 80>    C       21.95253        -6.71412         0.11300
| 81>    N       21.58730        -7.05756         1.14518
| 82>    C       22.54458        -4.69840        -3.07571
| 83>    C       21.87739        -3.47139        -3.36451
| 84>    C       22.19253        -2.72374        -4.46349
| 85>    C       23.20034        -3.18013        -5.34161
| 86>    C       23.56061        -2.45496        -6.49453
| 87>    C       24.53120        -2.92155        -7.33909
| 88>    C       25.18569        -4.13236        -7.06669
| 89>    C       24.86127        -4.86011        -5.95420
| 90>    C       23.86574        -4.41001        -5.06323
| 91>    C       23.52371        -5.16038        -3.91552
| 92>    C       20.84818        -3.21389        -2.34682
| 93>    O       20.10541        -2.26174        -2.26802
| 94>    H        2.23741         7.45852         1.19578
| 95>    H        2.62809         9.40292         2.65703
| 96>    H        4.49643         9.39260         4.26204
| 97>    H        5.98739         7.43878         4.42101
| 98>    H        6.63591         5.21476         3.69965
| 99>    H        2.87724         5.19804         0.41982
|100>    H        5.41962         0.76155        -0.54219
|101>    H        6.86239        -2.51440        -1.41824
|102>    H        5.95437        -1.06965        -1.91404
|103>    H        5.69047        -1.77803        -0.29928
|104>    H       12.70826         2.10121         1.04690
|105>    H       12.16164         1.72471         2.69502
|106>    H       11.47712         3.12415         1.84019
|107>    H       14.41085        -6.42431        -1.96657
|108>    H       13.59699        -4.92038        -2.47753
|109>    H       13.33443        -5.55731        -0.83855
|110>    H       20.35258        -1.51475        -0.08200
|111>    H       20.54883        -2.73951         1.20066
|112>    H       19.50392        -1.31533         1.46297
|113>    H       19.74323        -5.80798        -0.33307
|114>    H       21.67417        -1.79765        -4.66338
|115>    H       23.05267        -1.52409        -6.69981
|116>    H       24.79917        -2.36099        -8.22200
|117>    H       25.94857        -4.48612        -7.74367
|118>    H       25.36290        -5.79221        -5.73983
|119>    H       24.03592        -6.09219        -3.73371
|120> *
|121>
|122>                          ****END OF INPUT****

CARTESIAN COORDINATES (ANGSTROEM)
---------------------------------
  C      3.055210    7.459890    1.901640
  C      3.273690    8.539310    2.714120
  C      4.337720    8.533130    3.628030
  C      5.168140    7.448780    3.717330
  C      4.970760    6.319380    2.898040
  C      5.818880    5.191060    2.996340
  C      5.592610    4.108870    2.191370
  C      4.523330    4.131620    1.248260
  C      3.685640    5.204430    1.135940
  C      3.890520    6.327350    1.968700
  C      4.528350    2.876830    0.485520
  O      3.750900    2.502890   -0.362920
  C      5.751350    2.137850    0.943150
  C      6.269560    2.818000    2.101500
  C      7.098430    2.291340    3.060190
  C      7.502090    0.943600    3.075260
  N      7.828830   -0.155650    3.130430
  C      7.520590    2.988550    4.211630
  N      7.885630    3.500760    5.171070
  C      6.162310    1.081880    0.184390
  C      7.403690    0.414050    0.106780
  C      8.692610    0.795140    0.488400
  C      9.597930   -0.205880    0.064150
  C      8.842810   -1.261430   -0.580190
  O      9.162030   -2.328430   -1.060750
  N      7.519420   -0.792050   -0.547790
  C      6.433340   -1.574050   -1.071850
  C     10.871050    0.133500    0.514470
  N     10.780520    1.317420    1.181170
  C      9.461610    1.810180    1.172260
  O      9.141070    2.876190    1.662520
  C     11.853510    2.107680    1.722470
  C     12.031030   -0.685350    0.285800
  C     13.015830   -1.016070    1.234610
  C     14.018040   -2.002250    0.949230
  N     14.872300   -2.390790    1.921140
  C     14.832230   -1.796420    3.064440
  C     13.876790   -0.774430    3.330700
  N     12.988710   -0.435710    2.457290
  F     13.846210   -0.159090    4.508130
  F     15.670830   -2.202760    4.009710
  C     14.102610   -2.661460   -0.295940
  C     13.133250   -2.324480   -1.253050
  C     12.127250   -1.328770   -0.964260
  N     11.369640   -1.068780   -2.031020
  S     11.820810   -2.010130   -3.235050
  N     13.037460   -2.765550   -2.512650
  C     15.228120   -3.524190   -0.532530
  C     16.535110   -3.242110   -0.156550
  C     17.357080   -4.312210   -0.595080
  C     16.515790   -5.289330   -1.250620
  O     16.751470   -6.358950   -1.765080
  N     15.218210   -4.725060   -1.176230
  C     14.063840   -5.443480   -1.641920
  C     18.679380   -3.967380   -0.357090
  N     18.697780   -2.744390    0.241780
  C     17.392830   -2.216940    0.400170
  O     17.168530   -1.141320    0.908860
  C     19.852640   -2.044190    0.731540
  C     19.820390   -4.783170   -0.678730
  C     20.853990   -4.424590   -1.470860
  C     21.986600   -5.256640   -1.854330
  C     22.477410   -6.309120   -1.133760
  C     23.602580   -7.069230   -1.517900
  N     24.511060   -7.715130   -1.789570
  C     21.952530   -6.714120    0.113000
  N     21.587300   -7.057560    1.145180
  C     22.544580   -4.698400   -3.075710
  C     21.877390   -3.471390   -3.364510
  C     22.192530   -2.723740   -4.463490
  C     23.200340   -3.180130   -5.341610
  C     23.560610   -2.454960   -6.494530
  C     24.531200   -2.921550   -7.339090
  C     25.185690   -4.132360   -7.066690
  C     24.861270   -4.860110   -5.954200
  C     23.865740   -4.410010   -5.063230
  C     23.523710   -5.160380   -3.915520
  C     20.848180   -3.213890   -2.346820
  O     20.105410   -2.261740   -2.268020
  H      2.237410    7.458520    1.195780
  H      2.628090    9.402920    2.657030
  H      4.496430    9.392600    4.262040
  H      5.987390    7.438780    4.421010
  H      6.635910    5.214760    3.699650
  H      2.877240    5.198040    0.419820
  H      5.419620    0.761550   -0.542190
  H      6.862390   -2.514400   -1.418240
  H      5.954370   -1.069650   -1.914040
  H      5.690470   -1.778030   -0.299280
  H     12.708260    2.101210    1.046900
  H     12.161640    1.724710    2.695020
  H     11.477120    3.124150    1.840190
  H     14.410850   -6.424310   -1.966570
  H     13.596990   -4.920380   -2.477530
  H     13.334430   -5.557310   -0.838550
  H     20.352580   -1.514750   -0.082000
  H     20.548830   -2.739510    1.200660
  H     19.503920   -1.315330    1.462970
  H     19.743230   -5.807980   -0.333070
  H     21.674170   -1.797650   -4.663380
  H     23.052670   -1.524090   -6.699810
  H     24.799170   -2.360990   -8.222000
  H     25.948570   -4.486120   -7.743670
  H     25.362900   -5.792210   -5.739830
  H     24.035920   -6.092190   -3.733710

 Total Charge           Charge          ....    0
 Multiplicity           Mult            ....    1
 Number of Electrons    NEL             ....  540
 Basis Dimension        Dim             .... 1240

ORBITAL ENERGIES
----------------

  NO   OCC          E(Eh)            E(eV)
   0   2.0000     -89.044606     -2423.0269
   1   2.0000     -24.817641      -675.3223
   2   2.0000     -24.812258      -675.1759
   3   2.0000     -19.229532      -523.2622
   4   2.0000     -19.217575      -522.9368
   5   2.0000     -19.210341      -522.7400
   6   2.0000     -19.194456      -522.3077
   7   2.0000     -19.194116      -522.2985
   8   2.0000     -19.192716      -522.2604
   9   2.0000     -14.468520      -393.7085
  10   2.0000     -14.458790      -393.4437
  11   2.0000     -14.458607      -393.4387
  12   2.0000     -14.458269      -393.4295
  13   2.0000     -14.455626      -393.3576
  14   2.0000     -14.451689      -393.2505
  15   2.0000     -14.450715      -393.2239
  16   2.0000     -14.450426      -393.2161
  17   2.0000     -14.424123      -392.5003
  18   2.0000     -14.422395      -392.4533
  19   2.0000     -14.415422      -392.2636
  20   2.0000     -14.409350      -392.0983
  21   2.0000     -10.434135      -283.9272
  22   2.0000     -10.429176      -283.7923
  23   2.0000     -10.386125      -282.6208
  24   2.0000     -10.379796      -282.4486
  25   2.0000     -10.378503      -282.4134
  26   2.0000     -10.378022      -282.4003
  27   2.0000     -10.376315      -282.3539
  28   2.0000     -10.366084      -282.0755
  29   2.0000     -10.355834      -281.7966
  30   2.0000     -10.355336      -281.7830
  31   2.0000     -10.354354      -281.7563
  32   2.0000     -10.352521      -281.7064
  33   2.0000     -10.349420      -281.6220
  34   2.0000     -10.349321      -281.6193
  35   2.0000     -10.348799      -281.6051
  36   2.0000     -10.348507      -281.5972
  37   2.0000     -10.346021      -281.5296
  38   2.0000     -10.343244      -281.4540
  39   2.0000     -10.342366      -281.4301
  40   2.0000     -10.330578      -281.1093
  41   2.0000     -10.329250      -281.0732
  42   2.0000     -10.325710      -280.9769
  43   2.0000     -10.325515      -280.9716
  44   2.0000     -10.324439      -280.9423
  45   2.0000     -10.324008      -280.9305
  46   2.0000     -10.317555      -280.7550
  47   2.0000     -10.315178      -280.6903
  48   2.0000     -10.314157      -280.6625
  49   2.0000     -10.312269      -280.6111
  50   2.0000     -10.311834      -280.5993
  51   2.0000     -10.307063      -280.4694
  52   2.0000     -10.306855      -280.4638
  53   2.0000     -10.306112      -280.4436
  54   2.0000     -10.305951      -280.4392
  55   2.0000     -10.305632      -280.4305
  56   2.0000     -10.305426      -280.4249
  57   2.0000     -10.299430      -280.2617
  58   2.0000     -10.298814      -280.2450
  59   2.0000     -10.298638      -280.2402
  60   2.0000     -10.297469      -280.2084
  61   2.0000     -10.294367      -280.1240
  62   2.0000     -10.293675      -280.1051
  63   2.0000     -10.293611      -280.1034
  64   2.0000     -10.293203      -280.0923
  65   2.0000     -10.292938      -280.0851
  66   2.0000     -10.292883      -280.0836
  67   2.0000     -10.292362      -280.0694
  68   2.0000     -10.292357      -280.0693
  69   2.0000     -10.288730      -279.9706
  70   2.0000     -10.285188      -279.8742
  71   2.0000     -10.282533      -279.8019
  72   2.0000     -10.281808      -279.7822
  73   2.0000     -10.281459      -279.7727
  74   2.0000     -10.281230      -279.7665
  75   2.0000     -10.280469      -279.7458
  76   2.0000     -10.272659      -279.5333
  77   2.0000     -10.268606      -279.4230
  78   2.0000     -10.268190      -279.4117
  79   2.0000      -8.135797      -221.3863
  80   2.0000      -6.106746      -166.1730
  81   2.0000      -6.098943      -165.9607
  82   2.0000      -6.098862      -165.9585
  83   2.0000      -1.344034       -36.5730
  84   2.0000      -1.329123       -36.1673
  85   2.0000      -1.147534       -31.2260
  86   2.0000      -1.145061       -31.1587
  87   2.0000      -1.142586       -31.0913
  88   2.0000      -1.136574       -30.9278
  89   2.0000      -1.132432       -30.8150
  90   2.0000      -1.131732       -30.7960
  91   2.0000      -1.129726       -30.7414
  92   2.0000      -1.114856       -30.3368
  93   2.0000      -1.075949       -29.2781
  94   2.0000      -1.069189       -29.0941
  95   2.0000      -1.062938       -28.9240
  96   2.0000      -1.060303       -28.8523
  97   2.0000      -1.038126       -28.2489
  98   2.0000      -1.026744       -27.9391
  99   2.0000      -1.013760       -27.5858
 100   2.0000      -1.006808       -27.3966
 101   2.0000      -1.001388       -27.2492
 102   2.0000      -0.995348       -27.0848
 103   2.0000      -0.995081       -27.0775
 104   2.0000      -0.989573       -26.9277
 105   2.0000      -0.980167       -26.6717
 106   2.0000      -0.978306       -26.6211
 107   2.0000      -0.967127       -26.3169
 108   2.0000      -0.934100       -25.4182
 109   2.0000      -0.929542       -25.2941
 110   2.0000      -0.924420       -25.1548
 111   2.0000      -0.920848       -25.0575
 112   2.0000      -0.914763       -24.8920
 113   2.0000      -0.905243       -24.6329
 114   2.0000      -0.900694       -24.5091
 115   2.0000      -0.889836       -24.2137
 116   2.0000      -0.885880       -24.1060
 117   2.0000      -0.883809       -24.0497
 118   2.0000      -0.877337       -23.8736
 119   2.0000      -0.874171       -23.7874
 120   2.0000      -0.853196       -23.2166
 121   2.0000      -0.845692       -23.0125
 122   2.0000      -0.836458       -22.7612
 123   2.0000      -0.831859       -22.6360
 124   2.0000      -0.823942       -22.4206
 125   2.0000      -0.823865       -22.4185
 126   2.0000      -0.818301       -22.2671
 127   2.0000      -0.809568       -22.0295
 128   2.0000      -0.791997       -21.5513
 129   2.0000      -0.774275       -21.0691
 130   2.0000      -0.770577       -20.9685
 131   2.0000      -0.770252       -20.9596
 132   2.0000      -0.769005       -20.9257
 133   2.0000      -0.762650       -20.7528
 134   2.0000      -0.757376       -20.6093
 135   2.0000      -0.753270       -20.4975
 136   2.0000      -0.749185       -20.3864
 137   2.0000      -0.717144       -19.5145
 138   2.0000      -0.714638       -19.4463
 139   2.0000      -0.711276       -19.3548
 140   2.0000      -0.702887       -19.1265
 141   2.0000      -0.700702       -19.0671
 142   2.0000      -0.698030       -18.9944
 143   2.0000      -0.695772       -18.9329
 144   2.0000      -0.689613       -18.7653
 145   2.0000      -0.684299       -18.6207
 146   2.0000      -0.682605       -18.5746
 147   2.0000      -0.678062       -18.4510
 148   2.0000      -0.676003       -18.3950
 149   2.0000      -0.671925       -18.2840
 150   2.0000      -0.670721       -18.2513
 151   2.0000      -0.668539       -18.1919
 152   2.0000      -0.661222       -17.9928
 153   2.0000      -0.649799       -17.6819
 154   2.0000      -0.638651       -17.3786
 155   2.0000      -0.634244       -17.2587
 156   2.0000      -0.633463       -17.2374
 157   2.0000      -0.622302       -16.9337
 158   2.0000      -0.618050       -16.8180
 159   2.0000      -0.616586       -16.7782
 160   2.0000      -0.615066       -16.7368
 161   2.0000      -0.611355       -16.6358
 162   2.0000      -0.605304       -16.4712
 163   2.0000      -0.602406       -16.3923
 164   2.0000      -0.600249       -16.3336
 165   2.0000      -0.588302       -16.0085
 166   2.0000      -0.585260       -15.9257
 167   2.0000      -0.583343       -15.8736
 168   2.0000      -0.579655       -15.7732
 169   2.0000      -0.575690       -15.6653
 170   2.0000      -0.570258       -15.5175
 171   2.0000      -0.569111       -15.4863
 172   2.0000      -0.568226       -15.4622
 173   2.0000      -0.563842       -15.3429
 174   2.0000      -0.561803       -15.2874
 175   2.0000      -0.561347       -15.2750
 176   2.0000      -0.557238       -15.1632
 177   2.0000      -0.556799       -15.1513
 178   2.0000      -0.554600       -15.0914
 179   2.0000      -0.549864       -14.9626
 180   2.0000      -0.547629       -14.9017
 181   2.0000      -0.546799       -14.8792
 182   2.0000      -0.544253       -14.8099
 183   2.0000      -0.542062       -14.7503
 184   2.0000      -0.540141       -14.6980
 185   2.0000      -0.538760       -14.6604
 186   2.0000      -0.535733       -14.5780
 187   2.0000      -0.528482       -14.3807
 188   2.0000      -0.524581       -14.2746
 189   2.0000      -0.524378       -14.2691
 190   2.0000      -0.523047       -14.2328
 191   2.0000      -0.521623       -14.1941
 192   2.0000      -0.520313       -14.1584
 193   2.0000      -0.518090       -14.0979
 194   2.0000      -0.516433       -14.0529
 195   2.0000      -0.515654       -14.0317
 196   2.0000      -0.515196       -14.0192
 197   2.0000      -0.511651       -13.9227
 198   2.0000      -0.508457       -13.8358
 199   2.0000      -0.508194       -13.8287
 200   2.0000      -0.505227       -13.7479
 201   2.0000      -0.504202       -13.7200
 202   2.0000      -0.503637       -13.7047
 203   2.0000      -0.501493       -13.6463
 204   2.0000      -0.500509       -13.6195
 205   2.0000      -0.496091       -13.4993
 206   2.0000      -0.494470       -13.4552
 207   2.0000      -0.488444       -13.2912
 208   2.0000      -0.486946       -13.2505
 209   2.0000      -0.483696       -13.1620
 210   2.0000      -0.482450       -13.1281
 211   2.0000      -0.480689       -13.0802
 212   2.0000      -0.477210       -12.9855
 213   2.0000      -0.474602       -12.9146
 214   2.0000      -0.473511       -12.8849
 215   2.0000      -0.471906       -12.8412
 216   2.0000      -0.469433       -12.7739
 217   2.0000      -0.467374       -12.7179
 218   2.0000      -0.465551       -12.6683
 219   2.0000      -0.463429       -12.6105
 220   2.0000      -0.459844       -12.5130
 221   2.0000      -0.455783       -12.4025
 222   2.0000      -0.451936       -12.2978
 223   2.0000      -0.450820       -12.2674
 224   2.0000      -0.447822       -12.1858
 225   2.0000      -0.447573       -12.1791
 226   2.0000      -0.445943       -12.1347
 227   2.0000      -0.441506       -12.0140
 228   2.0000      -0.440118       -11.9762
 229   2.0000      -0.438499       -11.9322
 230   2.0000      -0.435473       -11.8498
 231   2.0000      -0.434090       -11.8122
 232   2.0000      -0.433426       -11.7941
 233   2.0000      -0.427966       -11.6455
 234   2.0000      -0.427699       -11.6383
 235   2.0000      -0.426475       -11.6050
 236   2.0000      -0.421755       -11.4765
 237   2.0000      -0.421557       -11.4712
 238   2.0000      -0.420398       -11.4396
 239   2.0000      -0.418381       -11.3847
 240   2.0000      -0.415589       -11.3088
 241   2.0000      -0.413033       -11.2392
 242   2.0000      -0.411878       -11.2078
 243   2.0000      -0.406199       -11.0532
 244   2.0000      -0.403971       -10.9926
 245   2.0000      -0.403478       -10.9792
 246   2.0000      -0.395506       -10.7623
 247   2.0000      -0.390250       -10.6192
 248   2.0000      -0.384570       -10.4647
 249   2.0000      -0.379187       -10.3182
 250   2.0000      -0.375348       -10.2137
 251   2.0000      -0.371307       -10.1038
 252   2.0000      -0.360068        -9.7980
 253   2.0000      -0.356267        -9.6945
 254   2.0000      -0.350348        -9.5335
 255   2.0000      -0.345425        -9.3995
 256   2.0000      -0.342943        -9.3320
 257   2.0000      -0.341941        -9.3047
 258   2.0000      -0.338196        -9.2028
 259   2.0000      -0.334832        -9.1113
 260   2.0000      -0.331195        -9.0123
 261   2.0000      -0.324515        -8.8305
 262   2.0000      -0.321648        -8.7525
 263   2.0000      -0.317069        -8.6279
 264   2.0000      -0.312747        -8.5103
 265   2.0000      -0.306791        -8.3482
 266   2.0000      -0.301717        -8.2101
 267   2.0000      -0.287033        -7.8106
 268   2.0000      -0.262819        -7.1517
 269   2.0000      -0.245462        -6.6794
 270   0.0000      -0.124914        -3.3991
 271   0.0000      -0.100371        -2.7312
 272   0.0000      -0.088515        -2.4086
 273   0.0000      -0.067330        -1.8321
 274   0.0000      -0.057851        -1.5742

MULLIKEN ATOMIC CHARGES
-----------------------
   0 C :   -0.018548
   1 C :    0.033768
   2 C :    0.036401
   3 C :   -0.022313
   4 C :    0.100474
   5 C :   -0.092205
   6 C :    0.043481
   7 C :    0.014686
   8 C :   -0.082985
   9 C :    0.095373
  10 C :    0.131737
  11 O :   -0.143823
  12 C :   -0.099699
  13 C :    0.306462
  14 C :   -0.276212
  15 C :   -0.247685
  16 N :    0.178089
  17 C :   -0.179216
  18 N :    0.157947
  19 C :   -0.052482
  20 C :    0.184546
  21 C :   -0.061646
  22 C :   -0.031959
  23 C :    0.145213
  24 O :   -0.198051
  25 N :   -0.279038
  26 C :    0.118057
  27 C :    0.033709
  28 N :   -0.237427
  29 C :    0.154137
  30 O :   -0.178319
  31 C :    0.136129
  32 C :    0.086956
  33 C :   -0.038550
  34 C :   -0.057548
  35 N :    0.036488
  36 C :    0.156098
  37 C :    0.154279
  38 N :   -0.004011
  39 F :   -0.136130
  40 F :   -0.134186
  41 C :    0.047557
  42 C :    0.047984
  43 C :   -0.031414
  44 N :   -0.242171
  45 S :    0.564147
  46 N :   -0.288421
  47 C :    0.032542
  48 C :   -0.014246
  49 C :   -0.048451
  50 C :    0.153413
  51 O :   -0.174297
  52 N :   -0.259452
  53 C :    0.121870
  54 C :    0.094244
  55 N :   -0.243479
  56 C :    0.144396
  57 O :   -0.191468
  58 C :    0.117855
  59 C :   -0.069549
  60 C :   -0.070333
  61 C :    0.287779
  62 C :   -0.317302
  63 C :   -0.183840
  64 N :    0.156977
  65 C :   -0.201910
  66 N :    0.176513
  67 C :    0.054631
  68 C :   -0.005611
  69 C :   -0.073687
  70 C :    0.095285
  71 C :   -0.014398
  72 C :    0.038831
  73 C :    0.035817
  74 C :   -0.015526
  75 C :    0.097307
  76 C :   -0.078996
  77 C :    0.146405
  78 O :   -0.140229
  79 H :   -0.018343
  80 H :   -0.006663
  81 H :   -0.005847
  82 H :   -0.009509
  83 H :   -0.003554
  84 H :   -0.012957
  85 H :    0.011029
  86 H :    0.058863
  87 H :    0.039935
  88 H :    0.041441
  89 H :    0.027524
  90 H :    0.057368
  91 H :    0.052438
  92 H :    0.052296
  93 H :    0.046776
  94 H :    0.030259
  95 H :    0.048856
  96 H :    0.033824
  97 H :    0.051451
  98 H :    0.067522
  99 H :   -0.010319
 100 H :   -0.015906
 101 H :   -0.002535
 102 H :   -0.001258
 103 H :   -0.007565
 104 H :   -0.005894
Sum of atomic charges:   -0.0000000

LOEWDIN ATOMIC CHARGES
----------------------
   0 C :   -0.009311
   1 C :   -0.016680
   2 C :   -0.012980
   3 C :   -0.007531
   4 C :   -0.002683
   5 C :    0.012990
   6 C :   -0.014900
   7 C :   -0.061973
   8 C :    0.034731
   9 C :   -0.012547
  10 C :    0.086495
  11 O :   -0.139500
  12 C :   -0.044754
  13 C :    0.054370
  14 C :   -0.105981
  15 C :   -0.015888
  16 N :   -0.045863
  17 C :   -0.013289
  18 N :   -0.049933
  19 C :    0.016643
  20 C :    0.067448
  21 C :   -0.084262
  22 C :   -0.099874
  23 C :    0.083443
  24 O :   -0.200808
  25 N :   -0.003359
  26 C :    0.029083
  27 C :    0.093814
  28 N :    0.019310
  29 C :    0.082622
  30 O :   -0.163901
  31 C :    0.028053
  32 C :   -0.035261
  33 C :    0.002907
  34 C :    0.010456
  35 N :   -0.018418
  36 C :    0.065117
  37 C :    0.071314
  38 N :   -0.040410
  39 F :   -0.022497
  40 F :   -0.022100
  41 C :   -0.031945
  42 C :   -0.036416
  43 C :   -0.032573
  44 N :   -0.259098
  45 S :    0.699779
  46 N :   -0.286481
  47 C :    0.089902
  48 C :   -0.102918
  49 C :   -0.110617
  50 C :    0.083924
  51 O :   -0.179804
  52 N :    0.003416
  53 C :    0.023121
  54 C :    0.069883
  55 N :    0.012165
  56 C :    0.086073
  57 O :   -0.193196
  58 C :    0.026656
  59 C :    0.060837
  60 C :   -0.061167
  61 C :    0.071374
  62 C :   -0.123048
  63 C :   -0.017149
  64 N :   -0.042226
  65 C :   -0.025899
  66 N :   -0.037977
  67 C :   -0.025023
  68 C :   -0.057480
  69 C :    0.036897
  70 C :   -0.007437
  71 C :   -0.007801
  72 C :   -0.009468
  73 C :   -0.009903
  74 C :   -0.004200
  75 C :   -0.004126
  76 C :    0.022193
  77 C :    0.085586
  78 O :   -0.128931
  79 H :    0.031137
  80 H :    0.031928
  81 H :    0.032637
  82 H :    0.034464
  83 H :    0.039597
  84 H :    0.038614
  85 H :    0.046799
  86 H :    0.041638
  87 H :    0.027708
  88 H :    0.031257
  89 H :    0.027552
  90 H :    0.029281
  91 H :    0.036650
  92 H :    0.037799
  93 H :    0.022685
  94 H :    0.026867
  95 H :    0.026452
  96 H :    0.028221
  97 H :    0.038601
  98 H :    0.062000
  99 H :    0.040346
 100 H :    0.032682
 101 H :    0.034004
 102 H :    0.034621
 103 H :    0.035564
 104 H :    0.039880

  Mayer bond orders larger than 0.100000
B(  0-C ,  1-C ) :   1.4903 B(  0-C ,  9-C ) :   1.2434 B(  0-C , 79-H ) :   0.9975
B(  1-C ,  2-C ) :   1.2609 B(  1-C , 80-H ) :   0.9882 B(  2-C ,  3-C ) :   1.4875
B(  2-C , 81-H ) :   0.9882 B(  3-C ,  4-C ) :   1.2444 B(  3-C , 82-H ) :   0.9979
B(  4-C ,  5-C ) :   1.1962 B(  4-C ,  9-C ) :   1.2572 B(  5-C ,  6-C ) :   1.4698
B(  5-C , 83-H ) :   0.9936 B(  6-C ,  7-C ) :   1.2066 B(  6-C , 13-C ) :   0.9966
B(  7-C ,  8-C ) :   1.4699 B(  7-C , 10-C ) :   0.9311 B(  8-C ,  9-C ) :   1.1846
B(  8-C , 84-H ) :   1.0163 B( 10-C , 11-O ) :   2.2483 B( 10-C , 12-C ) :   0.9250
B( 12-C , 13-C ) :   1.0698 B( 12-C , 19-C ) :   1.6250 B( 13-C , 14-C ) :   1.6127
B( 14-C , 15-C ) :   1.1773 B( 14-C , 17-C ) :   1.1338 B( 15-C , 16-N ) :   2.9833
B( 17-C , 18-N ) :   2.9887 B( 19-C , 20-C ) :   1.1312 B( 19-C , 85-H ) :   0.9221
B( 20-C , 21-C ) :   1.3287 B( 20-C , 25-N ) :   1.1702 B( 21-C , 22-C ) :   1.2679
B( 21-C , 29-C ) :   0.9721 B( 22-C , 23-C ) :   0.9618 B( 22-C , 27-C ) :   1.4147
B( 23-C , 24-O ) :   2.1372 B( 23-C , 25-N ) :   1.0485 B( 25-N , 26-C ) :   0.9695
B( 26-C , 86-H ) :   0.9500 B( 26-C , 87-H ) :   0.9682 B( 26-C , 88-H ) :   0.9731
B( 27-C , 28-N ) :   1.2587 B( 27-C , 32-C ) :   0.9874 B( 28-N , 29-C ) :   1.0452
B( 28-N , 31-C ) :   0.9526 B( 29-C , 30-O ) :   2.0616 B( 31-C , 89-H ) :   0.9722
B( 31-C , 90-H ) :   0.9631 B( 31-C , 91-H ) :   0.9508 B( 32-C , 33-C ) :   1.3326
B( 32-C , 41-C ) :   0.1494 B( 32-C , 43-C ) :   1.2506 B( 33-C , 34-C ) :   1.1088
B( 33-C , 38-N ) :   1.4237 B( 34-C , 35-N ) :   1.4268 B( 34-C , 41-C ) :   1.3567
B( 35-N , 36-C ) :   1.6807 B( 36-C , 37-C ) :   1.0915 B( 36-C , 40-F ) :   1.1855
B( 37-C , 38-N ) :   1.6679 B( 37-C , 39-F ) :   1.1700 B( 41-C , 42-C ) :   1.2362
B( 41-C , 47-C ) :   0.9962 B( 42-C , 43-C ) :   1.0902 B( 42-C , 46-N ) :   1.4876
B( 43-C , 44-N ) :   1.5209 B( 44-N , 45-S ) :   1.3110 B( 44-N , 46-N ) :   0.1503
B( 45-S , 46-N ) :   1.2821 B( 47-C , 48-C ) :   1.4306 B( 47-C , 52-N ) :   1.2563
B( 48-C , 49-C ) :   1.2215 B( 48-C , 56-C ) :   0.9675 B( 49-C , 50-C ) :   0.9705
B( 49-C , 54-C ) :   1.3987 B( 50-C , 51-O ) :   2.1725 B( 50-C , 52-N ) :   1.0055
B( 52-N , 53-C ) :   0.9574 B( 53-C , 92-H ) :   0.9511 B( 53-C , 93-H ) :   0.9544
B( 53-C , 94-H ) :   0.9724 B( 54-C , 55-N ) :   1.2188 B( 54-C , 59-C ) :   1.0608
B( 55-N , 56-C ) :   1.0312 B( 55-N , 58-C ) :   0.9589 B( 56-C , 57-O ) :   2.1334
B( 58-C , 95-H ) :   0.9644 B( 58-C , 96-H ) :   0.9714 B( 58-C , 97-H ) :   0.9560
B( 59-C , 60-C ) :   1.7175 B( 59-C , 98-H ) :   0.9395 B( 60-C , 61-C ) :   1.0150
B( 60-C , 77-C ) :   0.9172 B( 61-C , 62-C ) :   1.6836 B( 61-C , 67-C ) :   1.0056
B( 62-C , 63-C ) :   1.1368 B( 62-C , 65-C ) :   1.1358 B( 63-C , 64-N ) :   2.9767
B( 65-C , 66-N ) :   3.0084 B( 67-C , 68-C ) :   1.2093 B( 67-C , 76-C ) :   1.4477
B( 68-C , 69-C ) :   1.4710 B( 68-C , 77-C ) :   0.9534 B( 69-C , 70-C ) :   1.1847
B( 69-C , 99-H ) :   1.0165 B( 70-C , 71-C ) :   1.2434 B( 70-C , 75-C ) :   1.2521
B( 71-C , 72-C ) :   1.4905 B( 71-C ,100-H ) :   0.9977 B( 72-C , 73-C ) :   1.2579
B( 72-C ,101-H ) :   0.9892 B( 73-C , 74-C ) :   1.4898 B( 73-C ,102-H ) :   0.9894
B( 74-C , 75-C ) :   1.2381 B( 74-C ,103-H ) :   0.9980 B( 75-C , 76-C ) :   1.2103
B( 76-C ,104-H ) :   0.9920 B( 77-C , 78-O ) :   2.2054

-----------------------------------------------------------------------------
         ABSORPTION SPECTRUM VIA TRANSITION ELECTRIC DIPOLE MOMENTS
-----------------------------------------------------------------------------
State   Energy  Wavelength   fosc         T2         TX        TY        TZ
        (cm-1)    (nm)                  (au**2)     (au)      (au)      (au)
-----------------------------------------------------------------------------
   0   10170.8    983.2   0.670719327  21.71015  -4.35709   1.51131   0.66471
   1   13516.9    739.8   0.026074789   0.63507   0.62718  -0.48880  -0.05286
   2   15964.7    626.4   0.086050279   1.77447   1.29597   0.12090  -0.28342
   3   18166.2    550.5   0.164500936   2.98112   1.52393  -0.65222  -0.48309
   4   20899.0    478.5   0.058764594   0.92569   0.70434  -0.32396  -0.56977
   5   22287.3    448.7   0.005440158   0.08036   0.10304  -0.25184  -0.07948
   6   22960.3    435.5   0.016082349   0.23059  -0.27586  -0.38123   0.09569
   7   23060.0    433.7   0.004739632   0.06766   0.25769  -0.03090   0.01747
   8   23516.1    425.2   0.031533412   0.44145   0.44366  -0.42465   0.25355
   9   24416.4    409.6   0.066311694   0.89410   0.62605  -0.63943  -0.30543
  10   25144.9    397.7   0.057047240   0.74690   0.59207  -0.56820  -0.27110
  11   25457.3    392.8   0.041218041   0.53303  -0.54311   0.47399  -0.11572
  12   25504.6    392.1   0.056660238   0.73137  -0.26592  -0.67815  -0.44807
  13   25615.2    390.4   0.032790799   0.42143  -0.04799   0.32300  -0.56107
  14   25827.5    387.2   0.006542672   0.08340  -0.11195  -0.20178   0.17363
  15   26024.2    384.3   0.085695934   1.08407   0.38195  -0.67217  -0.69741
  16   27197.3    367.7   0.047888156   0.57967  -0.64229  -0.38588  -0.13501
  17   27704.0    361.0   0.039551198   0.46999   0.14599   0.62470   0.24173
  18   27718.8    360.8   0.005255245   0.06242  -0.01393   0.24182   0.06119
  19   27999.0    357.2   0.020815359   0.24475   0.24842  -0.23280   0.35894
  20   28313.6    353.2   0.033604533   0.39073  -0.51703  -0.09681  -0.33769
  21   28919.8    345.8   0.009494393   0.10808  -0.25529  -0.18981   0.08297
  22   29252.9    341.8   0.019247377   0.21661  -0.03867   0.17460   0.42969
  23   29453.3    339.5   0.080462578   0.89936   0.52442   0.07954   0.78615
  24   29664.4    337.1   0.015908147   0.17655  -0.32180  -0.18888  -0.19317
  25   29703.3    336.7   0.028209227   0.31265   0.24979   0.49695   0.05744
  26   30153.1    331.6   0.107040895   1.16867   0.42894   0.07697   0.98932
  27   30915.1    323.5   0.137132015   1.46031  -0.11742   0.49987  -1.09392
  28   30981.6    322.8   0.084711673   0.90015   0.90000  -0.29475   0.05721
  29   31207.1    320.4   0.037975591   0.40061   0.04506   0.37054  -0.51116
  30   31464.1    317.8   0.035548291   0.37195   0.25868  -0.55215   0.01250
  31   32014.1    312.4   0.093398153   0.96045  -0.04953   0.84037   0.50176
  32   32297.7    309.6   0.025585801   0.26080   0.26712  -0.43130   0.05850
  33   32498.0    307.7   0.067499696   0.68379   0.53577  -0.49014  -0.39560
  34   32672.4    306.1   0.548612051   5.52789   0.42459  -2.05226   1.06577
  35   32721.4    305.6   0.496066985   4.99097   1.09897  -1.36684  -1.38383
  36   33013.6    302.9   0.065583866   0.65400   0.05822  -0.73416  -0.33411
  37   33123.9    301.9   0.019647532   0.19527   0.15427   0.40408   0.09052
  38   33467.8    298.8   0.149705081   1.47260  -0.53601   0.95166   0.52882
  39   33562.2    298.0   0.032599330   0.31977  -0.08311   0.43055  -0.35705
  40   33775.6    296.1   0.059398643   0.57896  -0.32856   0.56374  -0.39142
  41   34242.2    292.0   0.064201824   0.61725  -0.57955   0.19466   0.49343
  42   34473.7    290.1   0.049424374   0.47199   0.61714  -0.28745   0.09221
  43   34685.1    288.3   0.171726976   1.62994   0.26348  -1.01033   0.73467
  44   34700.1    288.2   0.479514326   4.54932   1.25221   0.29444  -1.70135
  45   34883.1    286.7   0.046715346   0.44088   0.21159  -0.62836   0.03565
  46   34966.2    286.0   0.040753525   0.38370   0.25254   0.11106   0.55461
  47   35614.2    280.8   0.043613954   0.40316   0.42523  -0.11710  -0.45676
  48   35912.6    278.5   0.094508182   0.86636   0.37693  -0.54503   0.65363
  49   35940.2    278.2   0.053113248   0.48652  -0.43799   0.32384  -0.43567
  50   36087.3    277.1   0.080297583   0.73253   0.08086  -0.04304   0.85096
  51   36260.5    275.8   0.036416228   0.33063   0.23837   0.28928   0.43603
  52   36303.6    275.5   0.110163328   0.99899  -0.73339   0.67553  -0.06926
  53   36642.4    272.9   0.124351953   1.11723   0.25838   0.58748  -0.83985
  54   36905.6    271.0   0.027650144   0.24665  -0.26684   0.39407   0.14198
  55   37379.6    267.5   0.017162186   0.15115   0.15344   0.11834   0.33705
  56   37590.8    266.0   0.132149230   1.15733   0.07392   0.75043   0.76728
  57   37786.4    264.6   0.086723436   0.75557  -0.21870   0.78786   0.29499
  58   37948.3    263.5   0.118719761   1.02993   0.27334  -0.82583  -0.52270
  59   38043.0    262.9   0.007483821   0.06476   0.19299  -0.01044   0.16555
  60   38489.1    259.8   0.007617097   0.06515  -0.15204   0.20442   0.01571
  61   38523.3    259.6   0.142844153   1.22072  -0.57778   0.07526  -0.93873
  62   38635.9    258.8   0.031555804   0.26888   0.27317   0.14050   0.41776
  63   38975.4    256.6   0.008309318   0.07019  -0.02997  -0.26006   0.04068
  64   39072.1    255.9   0.018043278   0.15203  -0.19075   0.03035  -0.33871
  65   39311.1    254.4   0.085959759   0.71987   0.14230   0.45637   0.70096
  66   39342.0    254.2   0.035412283   0.29633  -0.39240   0.35448   0.12920
  67   39352.4    254.1   0.007534395   0.06303   0.00088  -0.23616  -0.08520
  68   39587.9    252.6   0.164085588   1.36453  -0.81249   0.83059   0.12046
  69   39734.0    251.7   0.053075821   0.43975  -0.60966   0.21337  -0.15014
  70   39870.5    250.8   0.034992655   0.28894   0.23591   0.14811   0.45972
  71   40298.0    248.2   0.166923103   1.36367   0.43723   0.00569   1.08280

FINAL SINGLE POINT ENERGY     -3927.546904493303

DIPOLE MOMENT
-------------
                                X             Y             Z
Electronic contribution:      3.75644     -17.86760      22.35198
Nuclear contribution   :     -3.65302      20.35425     -25.75881
                        -----------------------------------------
Total Dipole Moment    :      0.10342       2.48665      -3.40683
                        -----------------------------------------
Magnitude (a.u.)       :      4.21908
Magnitude (Debye)      :     10.72404

Rotational constants in cm-1:     0.002138     0.000263     0.000259
Rotational constants in MHz :    64.095832     7.870288     7.774882

                             ****ORCA TERMINATED NORMALLY****
TOTAL RUN TIME: 0 days 0 hours 12 minutes 14 seconds 252 msec
