                         Program Version 4.2.0 -  RELEASE  -
|  1> # ORCA input file
|  2> # SCF done       -167.467521921702          0.000404135243
|  3> ! CAM-B3LYP def2-SVP def2/J RIJCOSX Grid4 TightSCF
|  4> %maxcore 5000
|  5> %tddft
|  6>     Mode sTDDFT
|  7>     Ethresh 5.0
|  8>     maxcore 5000
|  9> end
| 10>
| 11> %pal
| 12>   nprocs 6
| 13>   end
| 14> * xyz 0 1
| 15>    C        6.11345        11.26274        -0.20770
| 16>    S        6.68696        12.21419         1.09130
| 17>    C        7.01630        10.79634         2.04481
| 18>    C        7.58342        10.84476         3.40594
| 19>    O        7.79622         9.84885         4.04010
| 20>    O        7.85297        12.06164         3.90280
| 21>    C        6.68225         9.65753         1.36734
| 22>    C        6.16012         9.92361         0.07889
| 23>    O        5.83720         8.90104        -0.75226
| 24>    C        4.95580         9.08768        -1.75394
| 25>    C        3.81962        10.00344        -1.79302
| 26>    N        3.11264         9.90970        -2.88683
| 27>    C        3.71733         8.94577        -3.63468
| 28>    C        4.88407         8.39353        -2.93339
| 29>    C        5.47928         7.33867        -3.71713
| 30>    S        6.69617         6.33638        -3.24743
| 31>    C        4.70328         7.31092        -4.92925
| 32>    C        3.60719         8.28832        -4.83477
| 33>    N        2.81083         8.23087        -5.94003
| 34>    C        3.30787         7.27666        -6.67363
| 35>    C        4.50755         6.64410        -6.12084
| 36>    C        5.26346         5.61037        -6.77094
| 37>    C        6.63582         5.53979        -6.61204
| 38>    C        7.36330         4.53112        -7.26612
| 39>    C        8.72535         4.23332        -7.28220
| 40>    C        9.89661         4.91066        -6.66079
| 41>    C       10.51523         5.87812        -7.69845
| 42>    N       11.88677         6.18108        -7.33351
| 43>    C        9.62224         5.59732        -5.30601
| 44>    N        9.12453         6.95858        -5.44178
| 45>    C        8.88537         3.07816        -8.13965
| 46>    C        9.98557         2.38200        -8.48312
| 47>    C        9.91429         1.24098        -9.44009
| 48>    C        8.53628         0.90435        -9.90558
| 49>    C        7.44170         1.58923        -9.52353
| 50>    C        7.56493         2.69089        -8.64409
| 51>    C        6.64925         3.57424        -8.10352
| 52>    C        5.24899         3.67922        -8.25208
| 53>    C        4.58141         4.67193        -7.60914
| 54>    C       10.83290         1.60658       -10.58728
| 55>    C       10.40755         2.26134       -11.67209
| 56>    C       11.24111         2.65503       -12.76572
| 57>    C       12.65889         2.35323       -12.98280
| 58>    N       13.15139         2.84320       -14.08535
| 59>    C       12.12005         3.50941       -14.68066
| 60>    C       10.90047         3.40175       -13.86829
| 61>    C        9.80593         4.08013       -14.51930
| 62>    S        8.23557         4.08963       -14.03171
| 63>    C       10.39634         4.64795       -15.70256
| 64>    C       11.81309         4.24220       -15.79833
| 65>    N       12.37172         4.70051       -16.95229
| 66>    C       11.42452         5.35125       -17.56313
| 67>    C       10.15482         5.39348       -16.83609
| 68>    C        9.00501         6.10768       -17.26456
| 69>    S        8.70091         6.39470       -18.94965
| 70>    C        7.22232         7.23108       -18.59306
| 71>    C        6.33340         7.79669       -19.62112
| 72>    O        5.32146         8.37633       -19.33202
| 73>    O        6.70756         7.63609       -20.89954
| 74>    C        7.00334         7.30316       -17.24069
| 75>    C        8.01026         6.68298       -16.48013
| 76>    O        8.09293         6.69018       -15.14078
| 77>    H        5.79262        11.74222        -1.11165
| 78>    H        7.63717        12.78264         3.29591
| 79>    H        6.80561         8.66980         1.77041
| 80>    H        3.52943        10.68298        -1.01107
| 81>    H        2.86489         7.04059        -7.62573
| 82>    H        7.15968         6.28290        -6.03343
| 83>    H       10.65592         4.14405        -6.47315
| 84>    H        9.85963         6.75647        -7.78474
| 85>    H       10.53897         5.37860        -8.67155
| 86>    H       11.92128         6.73951        -6.48801
| 87>    H       12.34637         6.70293        -8.07049
| 88>    H       10.55048         5.55284        -4.71570
| 89>    H        8.86690         5.01678        -4.77169
| 90>    H        9.88126         7.60760        -5.62795
| 91>    H        8.68633         7.24448        -4.57232
| 92>    H       10.96859         2.64595        -8.11793
| 93>    H       10.34376         0.35374        -8.95172
| 94>    H        8.46369         0.07334       -10.59060
| 95>    H        6.46282         1.31088        -9.88475
| 96>    H        4.72354         2.96749        -8.87132
| 97>    H        3.50882         4.75271        -7.70113
| 98>    H       11.87531         1.35354       -10.46133
| 99>    H        9.36275         2.53032       -11.76398
|100>    H       13.28355         1.76946       -12.33001
|101>    H       11.59850         5.82162       -18.51582
|102>    H        7.53702         7.14886       -20.99763
|103>    H        6.14080         7.79473       -16.82607
|104>    H        7.27908         7.03432       -14.75264
|105> *
|106>
|107>                          ****END OF INPUT****

CARTESIAN COORDINATES (ANGSTROEM)
---------------------------------
  C      6.113450   11.262740   -0.207700
  S      6.686960   12.214190    1.091300
  C      7.016300   10.796340    2.044810
  C      7.583420   10.844760    3.405940
  O      7.796220    9.848850    4.040100
  O      7.852970   12.061640    3.902800
  C      6.682250    9.657530    1.367340
  C      6.160120    9.923610    0.078890
  O      5.837200    8.901040   -0.752260
  C      4.955800    9.087680   -1.753940
  C      3.819620   10.003440   -1.793020
  N      3.112640    9.909700   -2.886830
  C      3.717330    8.945770   -3.634680
  C      4.884070    8.393530   -2.933390
  C      5.479280    7.338670   -3.717130
  S      6.696170    6.336380   -3.247430
  C      4.703280    7.310920   -4.929250
  C      3.607190    8.288320   -4.834770
  N      2.810830    8.230870   -5.940030
  C      3.307870    7.276660   -6.673630
  C      4.507550    6.644100   -6.120840
  C      5.263460    5.610370   -6.770940
  C      6.635820    5.539790   -6.612040
  C      7.363300    4.531120   -7.266120
  C      8.725350    4.233320   -7.282200
  C      9.896610    4.910660   -6.660790
  C     10.515230    5.878120   -7.698450
  N     11.886770    6.181080   -7.333510
  C      9.622240    5.597320   -5.306010
  N      9.124530    6.958580   -5.441780
  C      8.885370    3.078160   -8.139650
  C      9.985570    2.382000   -8.483120
  C      9.914290    1.240980   -9.440090
  C      8.536280    0.904350   -9.905580
  C      7.441700    1.589230   -9.523530
  C      7.564930    2.690890   -8.644090
  C      6.649250    3.574240   -8.103520
  C      5.248990    3.679220   -8.252080
  C      4.581410    4.671930   -7.609140
  C     10.832900    1.606580  -10.587280
  C     10.407550    2.261340  -11.672090
  C     11.241110    2.655030  -12.765720
  C     12.658890    2.353230  -12.982800
  N     13.151390    2.843200  -14.085350
  C     12.120050    3.509410  -14.680660
  C     10.900470    3.401750  -13.868290
  C      9.805930    4.080130  -14.519300
  S      8.235570    4.089630  -14.031710
  C     10.396340    4.647950  -15.702560
  C     11.813090    4.242200  -15.798330
  N     12.371720    4.700510  -16.952290
  C     11.424520    5.351250  -17.563130
  C     10.154820    5.393480  -16.836090
  C      9.005010    6.107680  -17.264560
  S      8.700910    6.394700  -18.949650
  C      7.222320    7.231080  -18.593060
  C      6.333400    7.796690  -19.621120
  O      5.321460    8.376330  -19.332020
  O      6.707560    7.636090  -20.899540
  C      7.003340    7.303160  -17.240690
  C      8.010260    6.682980  -16.480130
  O      8.092930    6.690180  -15.140780
  H      5.792620   11.742220   -1.111650
  H      7.637170   12.782640    3.295910
  H      6.805610    8.669800    1.770410
  H      3.529430   10.682980   -1.011070
  H      2.864890    7.040590   -7.625730
  H      7.159680    6.282900   -6.033430
  H     10.655920    4.144050   -6.473150
  H      9.859630    6.756470   -7.784740
  H     10.538970    5.378600   -8.671550
  H     11.921280    6.739510   -6.488010
  H     12.346370    6.702930   -8.070490
  H     10.550480    5.552840   -4.715700
  H      8.866900    5.016780   -4.771690
  H      9.881260    7.607600   -5.627950
  H      8.686330    7.244480   -4.572320
  H     10.968590    2.645950   -8.117930
  H     10.343760    0.353740   -8.951720
  H      8.463690    0.073340  -10.590600
  H      6.462820    1.310880   -9.884750
  H      4.723540    2.967490   -8.871320
  H      3.508820    4.752710   -7.701130
  H     11.875310    1.353540  -10.461330
  H      9.362750    2.530320  -11.763980
  H     13.283550    1.769460  -12.330010
  H     11.598500    5.821620  -18.515820
  H      7.537020    7.148860  -20.997630
  H      6.140800    7.794730  -16.826070
  H      7.279080    7.034320  -14.752640

 Total Charge           Charge          ....    0
 Multiplicity           Mult            ....    1
 Number of Electrons    NEL             ....  458
 Basis Dimension        Dim             .... 1024

ORBITAL ENERGIES
----------------

  NO   OCC          E(Eh)            E(eV)
   0   2.0000     -88.985835     -2421.4277
   1   2.0000     -88.985619     -2421.4218
   2   2.0000     -88.897421     -2419.0218
   3   2.0000     -88.890245     -2418.8265
   4   2.0000     -19.293934      -525.0146
   5   2.0000     -19.269635      -524.3534
   6   2.0000     -19.269594      -524.3523
   7   2.0000     -19.267193      -524.2870
   8   2.0000     -19.204474      -522.5803
   9   2.0000     -19.201388      -522.4963
  10   2.0000     -14.419549      -392.3759
  11   2.0000     -14.418300      -392.3419
  12   2.0000     -14.416761      -392.3000
  13   2.0000     -14.412816      -392.1927
  14   2.0000     -14.382667      -391.3723
  15   2.0000     -14.381884      -391.3510
  16   2.0000     -10.415408      -283.4177
  17   2.0000     -10.412588      -283.3409
  18   2.0000     -10.363360      -282.0014
  19   2.0000     -10.362663      -281.9824
  20   2.0000     -10.361499      -281.9507
  21   2.0000     -10.339388      -281.3490
  22   2.0000     -10.338652      -281.3290
  23   2.0000     -10.338062      -281.3130
  24   2.0000     -10.337021      -281.2847
  25   2.0000     -10.335799      -281.2514
  26   2.0000     -10.332195      -281.1533
  27   2.0000     -10.331884      -281.1449
  28   2.0000     -10.330893      -281.1179
  29   2.0000     -10.329177      -281.0712
  30   2.0000     -10.326866      -281.0083
  31   2.0000     -10.325122      -280.9609
  32   2.0000     -10.324477      -280.9433
  33   2.0000     -10.321952      -280.8746
  34   2.0000     -10.319635      -280.8116
  35   2.0000     -10.315427      -280.6970
  36   2.0000     -10.306503      -280.4542
  37   2.0000     -10.303973      -280.3853
  38   2.0000     -10.302547      -280.3465
  39   2.0000     -10.300102      -280.2800
  40   2.0000     -10.299999      -280.2772
  41   2.0000     -10.299523      -280.2643
  42   2.0000     -10.298642      -280.2403
  43   2.0000     -10.298429      -280.2345
  44   2.0000     -10.292437      -280.0715
  45   2.0000     -10.288751      -279.9712
  46   2.0000     -10.285574      -279.8847
  47   2.0000     -10.284151      -279.8460
  48   2.0000     -10.280903      -279.7576
  49   2.0000     -10.279720      -279.7254
  50   2.0000     -10.277457      -279.6638
  51   2.0000     -10.272780      -279.5366
  52   2.0000     -10.271983      -279.5149
  53   2.0000     -10.269608      -279.4502
  54   2.0000     -10.268499      -279.4201
  55   2.0000     -10.267366      -279.3892
  56   2.0000     -10.266434      -279.3639
  57   2.0000     -10.265965      -279.3511
  58   2.0000     -10.262899      -279.2677
  59   2.0000     -10.262834      -279.2659
  60   2.0000     -10.261279      -279.2236
  61   2.0000     -10.259653      -279.1794
  62   2.0000      -8.081820      -219.9175
  63   2.0000      -8.081186      -219.9002
  64   2.0000      -7.993069      -217.5025
  65   2.0000      -7.986010      -217.3104
  66   2.0000      -6.051144      -164.6600
  67   2.0000      -6.050507      -164.6427
  68   2.0000      -6.046907      -164.5447
  69   2.0000      -6.046542      -164.5348
  70   2.0000      -6.043955      -164.4644
  71   2.0000      -6.043131      -164.4419
  72   2.0000      -5.961923      -162.2322
  73   2.0000      -5.961808      -162.2290
  74   2.0000      -5.954986      -162.0434
  75   2.0000      -5.954372      -162.0267
  76   2.0000      -5.952084      -161.9644
  77   2.0000      -5.945285      -161.7794
  78   2.0000      -1.204553       -32.7775
  79   2.0000      -1.192061       -32.4376
  80   2.0000      -1.189659       -32.3723
  81   2.0000      -1.168466       -31.7956
  82   2.0000      -1.104908       -30.0661
  83   2.0000      -1.102492       -30.0003
  84   2.0000      -1.085985       -29.5511
  85   2.0000      -1.081994       -29.4426
  86   2.0000      -1.067093       -29.0371
  87   2.0000      -1.063342       -28.9350
  88   2.0000      -1.005450       -27.3597
  89   2.0000      -1.004190       -27.3254
  90   2.0000      -0.984602       -26.7924
  91   2.0000      -0.970795       -26.4167
  92   2.0000      -0.962787       -26.1988
  93   2.0000      -0.958543       -26.0833
  94   2.0000      -0.950707       -25.8700
  95   2.0000      -0.948268       -25.8037
  96   2.0000      -0.922507       -25.1027
  97   2.0000      -0.903230       -24.5781
  98   2.0000      -0.899357       -24.4727
  99   2.0000      -0.885734       -24.1020
 100   2.0000      -0.877202       -23.8699
 101   2.0000      -0.865404       -23.5488
 102   2.0000      -0.853954       -23.2373
 103   2.0000      -0.853377       -23.2216
 104   2.0000      -0.849337       -23.1116
 105   2.0000      -0.848003       -23.0753
 106   2.0000      -0.836984       -22.7755
 107   2.0000      -0.835227       -22.7277
 108   2.0000      -0.831292       -22.6206
 109   2.0000      -0.829533       -22.5727
 110   2.0000      -0.823659       -22.4129
 111   2.0000      -0.798092       -21.7172
 112   2.0000      -0.781550       -21.2671
 113   2.0000      -0.773785       -21.0557
 114   2.0000      -0.755050       -20.5460
 115   2.0000      -0.752555       -20.4781
 116   2.0000      -0.745873       -20.2962
 117   2.0000      -0.740347       -20.1459
 118   2.0000      -0.736388       -20.0381
 119   2.0000      -0.731541       -19.9062
 120   2.0000      -0.727831       -19.8053
 121   2.0000      -0.714519       -19.4431
 122   2.0000      -0.710910       -19.3448
 123   2.0000      -0.705037       -19.1850
 124   2.0000      -0.703857       -19.1529
 125   2.0000      -0.694799       -18.9065
 126   2.0000      -0.690495       -18.7893
 127   2.0000      -0.688873       -18.7452
 128   2.0000      -0.674802       -18.3623
 129   2.0000      -0.664135       -18.0720
 130   2.0000      -0.657229       -17.8841
 131   2.0000      -0.653870       -17.7927
 132   2.0000      -0.651905       -17.7392
 133   2.0000      -0.643933       -17.5223
 134   2.0000      -0.640524       -17.4296
 135   2.0000      -0.634449       -17.2642
 136   2.0000      -0.615105       -16.7378
 137   2.0000      -0.613528       -16.6949
 138   2.0000      -0.606428       -16.5017
 139   2.0000      -0.594548       -16.1785
 140   2.0000      -0.592351       -16.1187
 141   2.0000      -0.589621       -16.0444
 142   2.0000      -0.588567       -16.0157
 143   2.0000      -0.584032       -15.8923
 144   2.0000      -0.577397       -15.7118
 145   2.0000      -0.575461       -15.6591
 146   2.0000      -0.571609       -15.5543
 147   2.0000      -0.565488       -15.3877
 148   2.0000      -0.560306       -15.2467
 149   2.0000      -0.557605       -15.1732
 150   2.0000      -0.551869       -15.0171
 151   2.0000      -0.551384       -15.0039
 152   2.0000      -0.548978       -14.9384
 153   2.0000      -0.547702       -14.9037
 154   2.0000      -0.545346       -14.8396
 155   2.0000      -0.545069       -14.8321
 156   2.0000      -0.539199       -14.6724
 157   2.0000      -0.534465       -14.5435
 158   2.0000      -0.533969       -14.5300
 159   2.0000      -0.529464       -14.4074
 160   2.0000      -0.525396       -14.2967
 161   2.0000      -0.523124       -14.2349
 162   2.0000      -0.521501       -14.1908
 163   2.0000      -0.519611       -14.1393
 164   2.0000      -0.513522       -13.9736
 165   2.0000      -0.511097       -13.9077
 166   2.0000      -0.509904       -13.8752
 167   2.0000      -0.507075       -13.7982
 168   2.0000      -0.505783       -13.7630
 169   2.0000      -0.504017       -13.7150
 170   2.0000      -0.501170       -13.6375
 171   2.0000      -0.496674       -13.5152
 172   2.0000      -0.495204       -13.4752
 173   2.0000      -0.494487       -13.4557
 174   2.0000      -0.490509       -13.3474
 175   2.0000      -0.487328       -13.2609
 176   2.0000      -0.485089       -13.1999
 177   2.0000      -0.483559       -13.1583
 178   2.0000      -0.480936       -13.0869
 179   2.0000      -0.474751       -12.9186
 180   2.0000      -0.472355       -12.8534
 181   2.0000      -0.468994       -12.7620
 182   2.0000      -0.466136       -12.6842
 183   2.0000      -0.463527       -12.6132
 184   2.0000      -0.461433       -12.5562
 185   2.0000      -0.457293       -12.4436
 186   2.0000      -0.453500       -12.3404
 187   2.0000      -0.452354       -12.3092
 188   2.0000      -0.448382       -12.2011
 189   2.0000      -0.447343       -12.1728
 190   2.0000      -0.446670       -12.1545
 191   2.0000      -0.443179       -12.0595
 192   2.0000      -0.438725       -11.9383
 193   2.0000      -0.433602       -11.7989
 194   2.0000      -0.431111       -11.7311
 195   2.0000      -0.424545       -11.5525
 196   2.0000      -0.421519       -11.4701
 197   2.0000      -0.419498       -11.4151
 198   2.0000      -0.409299       -11.1376
 199   2.0000      -0.402894       -10.9633
 200   2.0000      -0.401423       -10.9233
 201   2.0000      -0.401336       -10.9209
 202   2.0000      -0.399174       -10.8621
 203   2.0000      -0.390070       -10.6143
 204   2.0000      -0.388126       -10.5615
 205   2.0000      -0.372458       -10.1351
 206   2.0000      -0.365126        -9.9356
 207   2.0000      -0.361374        -9.8335
 208   2.0000      -0.357740        -9.7346
 209   2.0000      -0.356944        -9.7129
 210   2.0000      -0.356668        -9.7054
 211   2.0000      -0.354994        -9.6599
 212   2.0000      -0.353606        -9.6221
 213   2.0000      -0.345566        -9.4033
 214   2.0000      -0.343527        -9.3478
 215   2.0000      -0.334673        -9.1069
 216   2.0000      -0.332697        -9.0531
 217   2.0000      -0.328879        -8.9493
 218   2.0000      -0.316157        -8.6031
 219   2.0000      -0.313128        -8.5207
 220   2.0000      -0.311693        -8.4816
 221   2.0000      -0.298456        -8.1214
 222   2.0000      -0.297794        -8.1034
 223   2.0000      -0.294512        -8.0141
 224   2.0000      -0.284774        -7.7491
 225   2.0000      -0.283064        -7.7026
 226   2.0000      -0.278392        -7.5754
 227   2.0000      -0.276969        -7.5367
 228   2.0000      -0.219455        -5.9717
 229   0.0000      -0.113378        -3.0852
 230   0.0000      -0.109320        -2.9748
 231   0.0000      -0.080862        -2.2004
 232   0.0000      -0.074520        -2.0278
 233   0.0000      -0.059229        -1.6117

MULLIKEN ATOMIC CHARGES
-----------------------
   0 C :   -0.168336
   1 S :    0.108229
   2 C :   -0.193789
   3 C :    0.187136
   4 O :   -0.162680
   5 O :   -0.155267
   6 C :    0.016146
   7 C :    0.250299
   8 O :   -0.201100
   9 C :    0.100781
  10 C :   -0.014960
  11 N :   -0.017619
  12 C :   -0.009778
  13 C :   -0.005260
  14 C :   -0.009155
  15 S :   -0.157371
  16 C :   -0.007503
  17 C :    0.016673
  18 N :   -0.030674
  19 C :    0.056654
  20 C :    0.005560
  21 C :    0.064288
  22 C :   -0.005584
  23 C :    0.017476
  24 C :   -0.024561
  25 C :    0.004399
  26 C :    0.099791
  27 N :   -0.213275
  28 C :    0.095973
  29 N :   -0.199307
  30 C :    0.082048
  31 C :   -0.102815
  32 C :    0.167860
  33 C :   -0.056689
  34 C :    0.027149
  35 C :    0.013665
  36 C :    0.038315
  37 C :   -0.009117
  38 C :   -0.022333
  39 C :   -0.096357
  40 C :    0.026792
  41 C :   -0.000692
  42 C :    0.053227
  43 N :   -0.026622
  44 C :    0.029748
  45 C :   -0.002947
  46 C :   -0.005203
  47 S :   -0.127330
  48 C :   -0.000719
  49 C :   -0.022986
  50 N :   -0.025115
  51 C :    0.047168
  52 C :    0.022050
  53 C :   -0.187183
  54 S :    0.109840
  55 C :   -0.147844
  56 C :    0.185873
  57 O :   -0.165732
  58 O :   -0.153535
  59 C :   -0.051741
  60 C :    0.211443
  61 O :   -0.148651
  62 H :    0.048916
  63 H :    0.181211
  64 H :    0.023042
  65 H :    0.016909
  66 H :    0.009807
  67 H :   -0.062897
  68 H :   -0.016563
  69 H :    0.000408
  70 H :   -0.009139
  71 H :    0.080498
  72 H :    0.095211
  73 H :   -0.005021
  74 H :    0.017804
  75 H :    0.084341
  76 H :    0.100410
  77 H :    0.002485
  78 H :    0.031089
  79 H :   -0.008480
  80 H :   -0.035987
  81 H :   -0.037292
  82 H :   -0.030318
  83 H :   -0.000266
  84 H :    0.012748
  85 H :    0.007794
  86 H :    0.007055
  87 H :    0.181868
  88 H :    0.004241
  89 H :    0.191371
Sum of atomic charges:   -0.0000000

LOEWDIN ATOMIC CHARGES
----------------------
   0 C :   -0.219654
   1 S :    0.438949
   2 C :   -0.230774
   3 C :    0.063974
   4 O :   -0.150899
   5 O :   -0.030047
   6 C :   -0.016313
   7 C :    0.014536
   8 O :   -0.016841
   9 C :    0.027960
  10 C :    0.041478
  11 N :   -0.075288
  12 C :    0.021506
  13 C :   -0.069078
  14 C :   -0.131514
  15 S :    0.046009
  16 C :   -0.056483
  17 C :    0.049419
  18 N :   -0.083138
  19 C :    0.092045
  20 C :   -0.011579
  21 C :   -0.048992
  22 C :    0.039983
  23 C :   -0.026649
  24 C :   -0.005027
  25 C :   -0.040579
  26 C :    0.023296
  27 N :   -0.120571
  28 C :    0.020259
  29 N :   -0.103592
  30 C :   -0.020370
  31 C :    0.075530
  32 C :   -0.030233
  33 C :   -0.034552
  34 C :   -0.013788
  35 C :   -0.041592
  36 C :   -0.026075
  37 C :   -0.012717
  38 C :   -0.031184
  39 C :    0.007096
  40 C :   -0.015978
  41 C :   -0.036541
  42 C :    0.089672
  43 N :   -0.083028
  44 C :    0.038034
  45 C :   -0.035296
  46 C :   -0.145359
  47 S :    0.061645
  48 C :   -0.030259
  49 C :    0.033239
  50 N :   -0.076947
  51 C :    0.076914
  52 C :   -0.055461
  53 C :   -0.203105
  54 S :    0.427932
  55 C :   -0.222108
  56 C :    0.063318
  57 O :   -0.154390
  58 O :   -0.028570
  59 C :   -0.046794
  60 C :    0.029813
  61 O :   -0.018230
  62 H :    0.031391
  63 H :    0.080346
  64 H :    0.050994
  65 H :    0.026596
  66 H :    0.025735
  67 H :    0.020874
  68 H :    0.026340
  69 H :    0.002298
  70 H :    0.016866
  71 H :    0.045332
  72 H :    0.055934
  73 H :    0.004666
  74 H :    0.020289
  75 H :    0.048140
  76 H :    0.038296
  77 H :    0.032769
  78 H :    0.057023
  79 H :    0.025577
  80 H :    0.030255
  81 H :    0.027059
  82 H :    0.023476
  83 H :    0.022384
  84 H :    0.034151
  85 H :    0.023448
  86 H :    0.021683
  87 H :    0.081321
  88 H :    0.042922
  89 H :    0.100821

  Mayer bond orders larger than 0.100000
B(  0-C ,  1-S ) :   1.1519 B(  0-C ,  7-C ) :   1.5098 B(  0-C , 62-H ) :   0.9722
B(  1-S ,  2-C ) :   1.1229 B(  2-C ,  3-C ) :   0.9320 B(  2-C ,  6-C ) :   1.5283
B(  3-C ,  4-O ) :   2.2131 B(  3-C ,  5-O ) :   1.2400 B(  5-O , 63-H ) :   0.9501
B(  6-C ,  7-C ) :   1.2341 B(  6-C , 64-H ) :   1.0203 B(  7-C ,  8-O ) :   1.0623
B(  8-O ,  9-C ) :   1.1363 B(  9-C , 10-C ) :   1.0218 B(  9-C , 13-C ) :   1.5523
B( 10-C , 11-N ) :   1.7102 B( 10-C , 65-H ) :   0.9958 B( 11-N , 12-C ) :   1.2596
B( 12-C , 13-C ) :   1.0839 B( 12-C , 17-C ) :   1.5515 B( 13-C , 14-C ) :   1.0115
B( 14-C , 15-S ) :   1.6839 B( 14-C , 16-C ) :   1.0435 B( 16-C , 17-C ) :   1.0685
B( 16-C , 20-C ) :   1.5300 B( 17-C , 18-N ) :   1.2578 B( 18-N , 19-C ) :   1.7231
B( 19-C , 20-C ) :   1.0281 B( 19-C , 66-H ) :   0.9890 B( 20-C , 21-C ) :   1.0260
B( 21-C , 22-C ) :   1.4879 B( 21-C , 38-C ) :   1.1089 B( 22-C , 23-C ) :   1.1741
B( 22-C , 67-H ) :   0.9582 B( 23-C , 24-C ) :   1.4559 B( 23-C , 36-C ) :   1.1052
B( 24-C , 25-C ) :   1.0493 B( 24-C , 30-C ) :   1.1056 B( 25-C , 26-C ) :   1.0419
B( 25-C , 28-C ) :   1.0206 B( 25-C , 68-H ) :   0.8753 B( 26-C , 27-N ) :   1.0906
B( 26-C , 69-H ) :   0.9302 B( 26-C , 70-H ) :   0.9400 B( 27-N , 71-H ) :   0.9751
B( 27-N , 72-H ) :   0.9669 B( 28-C , 29-N ) :   1.0687 B( 28-C , 73-H ) :   0.9409
B( 28-C , 74-H ) :   0.9441 B( 29-N , 67-H ) :   0.1429 B( 29-N , 75-H ) :   0.9588
B( 29-N , 76-H ) :   0.9402 B( 30-C , 31-C ) :   1.6859 B( 30-C , 35-C ) :   1.0481
B( 31-C , 32-C ) :   0.9709 B( 31-C , 77-H ) :   0.9587 B( 32-C , 33-C ) :   0.9984
B( 32-C , 39-C ) :   0.9577 B( 32-C , 78-H ) :   0.8609 B( 33-C , 34-C ) :   1.7105
B( 33-C , 79-H ) :   0.9789 B( 34-C , 35-C ) :   1.1258 B( 34-C , 80-H ) :   0.9913
B( 35-C , 36-C ) :   1.4441 B( 36-C , 37-C ) :   1.1437 B( 37-C , 38-C ) :   1.6095
B( 37-C , 81-H ) :   0.9924 B( 38-C , 82-H ) :   0.9852 B( 39-C , 40-C ) :   1.7852
B( 39-C , 83-H ) :   0.9712 B( 40-C , 41-C ) :   1.0886 B( 40-C , 84-H ) :   0.9572
B( 41-C , 42-C ) :   1.0046 B( 41-C , 45-C ) :   1.5436 B( 42-C , 43-N ) :   1.7347
B( 42-C , 85-H ) :   0.9900 B( 43-N , 44-C ) :   1.2562 B( 44-C , 45-C ) :   1.0638
B( 44-C , 49-C ) :   1.5260 B( 45-C , 46-C ) :   1.0175 B( 46-C , 47-S ) :   1.6932
B( 46-C , 48-C ) :   1.0487 B( 48-C , 49-C ) :   1.0669 B( 48-C , 52-C ) :   1.5542
B( 49-C , 50-N ) :   1.2645 B( 50-N , 51-C ) :   1.7281 B( 51-C , 52-C ) :   1.0361
B( 51-C , 86-H ) :   0.9896 B( 52-C , 53-C ) :   1.0691 B( 53-C , 54-S ) :   1.1206
B( 53-C , 55-C ) :   0.1093 B( 53-C , 60-C ) :   1.4650 B( 54-S , 55-C ) :   1.1030
B( 54-S , 59-C ) :   0.1040 B( 55-C , 56-C ) :   0.9282 B( 55-C , 59-C ) :   1.5318
B( 56-C , 57-O ) :   2.2044 B( 56-C , 58-O ) :   1.2438 B( 58-O , 87-H ) :   0.9494
B( 59-C , 60-C ) :   1.1796 B( 59-C , 88-H ) :   1.0057 B( 60-C , 61-O ) :   1.2637
B( 61-O , 89-H ) :   0.9486

-----------------------------------------------------------------------------
         ABSORPTION SPECTRUM VIA TRANSITION ELECTRIC DIPOLE MOMENTS
-----------------------------------------------------------------------------
State   Energy  Wavelength   fosc         T2         TX        TY        TZ
        (cm-1)    (nm)                  (au**2)     (au)      (au)      (au)
-----------------------------------------------------------------------------
   0    8693.5   1150.3   0.095274386   3.60794  -1.03551   0.93772   1.28699
   1   10451.1    956.8   0.011192117   0.35255   0.07187   0.47674  -0.34657
   2   13706.5    729.6   0.028644167   0.68800   0.22852   0.57964   0.54753
   3   14418.5    693.6   0.000879828   0.02009   0.13569  -0.03798   0.01530
   4   15146.3    660.2   0.001465057   0.03184   0.00887   0.13360   0.11797
   5   16182.3    618.0   0.035627799   0.72481   0.16325  -0.58618  -0.59544
   6   17192.1    581.7   0.151240832   2.89612   0.20544  -0.94268  -1.40188
   7   17455.7    572.9   0.017270032   0.32571   0.05211  -0.20282   0.53090
   8   17802.0    561.7   0.088394534   1.63468  -0.40861   0.72074  -0.97378
   9   18401.0    543.4   0.017336517   0.31017   0.03066  -0.29319  -0.47251
  10   19051.7    524.9   0.079435811   1.37264  -0.24571   0.68476   0.91836
  11   19560.1    511.2   0.016308164   0.27448   0.45862  -0.25303  -0.01126
  12   20936.4    477.6   0.008253787   0.12979  -0.33031   0.08970   0.11242
  13   24059.6    415.6   0.031666997   0.43331   0.00456   0.32046   0.57497
  14   24380.8    410.2   0.149269469   2.01557  -0.30433   0.70934   1.19155
  15   24679.7    405.2   0.076761206   1.02395   0.20640  -0.52611   0.83938
  16   25393.4    393.8   0.257027591   3.33223   0.67107  -0.90611   1.43557
  17   25614.8    390.4   0.053131750   0.68287  -0.40911   0.64526  -0.31487
  18   25949.2    385.4   0.012710094   0.16125   0.08825   0.21976   0.32429
  19   25998.4    384.6   0.067927204   0.86015  -0.59239   0.48964   0.51910
  20   26754.4    373.8   0.072004570   0.88601   0.45427  -0.71427   0.41166
  21   26773.4    373.5   0.145960146   1.79476  -0.51499   0.31539   1.19586
  22   26981.6    370.6   0.209599202   2.55739   0.77809  -0.68866  -1.21561
  23   27399.2    365.0   0.002381595   0.02862   0.12920  -0.00578   0.10904
  24   27538.7    363.1   0.002350128   0.02809  -0.02744   0.01129   0.16497
  25   27788.1    359.9   0.017721739   0.20995  -0.27670   0.34683   0.11445
  26   28125.0    355.6   0.018209649   0.21315   0.24269  -0.39236  -0.01738
  27   28865.2    346.4   0.051562111   0.58807  -0.05695  -0.57422   0.50508
  28   29095.6    343.7   0.012612175   0.14270  -0.16811   0.24334   0.23501
  29   29433.1    339.8   0.179965004   2.01293  -0.14596   0.82411   1.14563
  30   29537.0    338.6   0.066912614   0.74579  -0.02051   0.51425   0.69348
  31   30024.9    333.1   0.012115875   0.13285  -0.13725  -0.32963  -0.07316
  32   30329.6    329.7   0.173440896   1.88261   0.18448  -0.81319   1.08964
  33   30466.3    328.2   0.085849151   0.92767  -0.04271   0.22275  -0.93607
  34   30546.0    327.4   0.088441699   0.95319   0.21729  -0.23338   0.92277
  35   31030.8    322.3   0.092149972   0.97764   0.25364  -0.51411   0.80560
  36   31105.5    321.5   0.001678481   0.01776  -0.07358  -0.11101  -0.00527
  37   31235.7    320.1   0.070098817   0.73881   0.58745  -0.35798   0.51533
  38   31434.9    318.1   0.016718808   0.17509   0.33044  -0.25221  -0.04788
  39   31941.5    313.1   0.038070669   0.39238  -0.27157   0.30111  -0.47746
  40   32140.2    311.1   0.057371742   0.58766   0.21842  -0.53884  -0.49960
  41   32183.0    310.7   0.022432136   0.22947   0.07928  -0.16081   0.44421
  42   32580.0    306.9   0.011326526   0.11445  -0.04351  -0.32930  -0.06420
  43   32861.7    304.3   0.013266547   0.13291   0.06405  -0.00197   0.35889
  44   33164.3    301.5   0.029936664   0.29717   0.32196   0.03544   0.43847
  45   33898.1    295.0   0.047961810   0.46580   0.24143  -0.45758   0.44511
  46   34393.0    290.8   0.001591645   0.01524   0.08601   0.07522   0.04667
  47   34541.3    289.5   0.002929431   0.02792   0.01330   0.10367  -0.13037
  48   34646.1    288.6   0.004439034   0.04218   0.12789   0.12571   0.10011
  49   34739.1    287.9   0.142700020   1.35233  -0.10983   0.72735   0.90068
  50   34757.3    287.7   0.005971525   0.05656  -0.03121   0.12061   0.20258
  51   35055.5    285.3   0.109055916   1.02416   0.54283  -0.14960  -0.84090
  52   35246.5    283.7   0.017599963   0.16439  -0.28301  -0.09215  -0.27533
  53   35298.9    283.3   0.020667211   0.19275  -0.09370   0.07060   0.42307
  54   35661.2    280.4   0.016765760   0.15478   0.28317   0.07723   0.26196
  55   35854.1    278.9   0.041544884   0.38146  -0.16430   0.39956   0.44139
  56   36067.7    277.3   0.076199428   0.69552   0.25779  -0.79004  -0.07002
  57   36155.7    276.6   0.296951967   2.70387  -0.18295   0.36506   1.59284
  58   36422.0    274.6   0.111032636   1.00360   0.22681  -0.97567  -0.01490
  59   36483.6    274.1   0.043863399   0.39580  -0.13461   0.53732   0.29829
  60   37032.1    270.0   0.070111365   0.62328   0.35211   0.19126   0.68024
  61   37067.6    269.8   0.002095118   0.01861   0.08235  -0.06795   0.08490
  62   37265.3    268.3   0.043495644   0.38425   0.30069  -0.19447   0.50598
  63   37538.6    266.4   0.082727900   0.72552  -0.42910   0.48755   0.55108
  64   37652.8    265.6   0.041435237   0.36228  -0.43684   0.21596  -0.35330
  65   37675.6    265.4   0.005300706   0.04632   0.05663   0.11618   0.17208
  66   37879.9    264.0   0.001056961   0.00919  -0.09150  -0.00749  -0.02754
  67   38016.9    263.0   0.320130719   2.77221   0.94443  -1.11553  -0.79741
  68   38238.1    261.5   0.066744286   0.57464   0.25508  -0.66427  -0.26137
  69   38367.7    260.6   0.032261102   0.27681   0.11416  -0.50701  -0.08199
  70   38486.9    259.8   0.018700118   0.15996   0.24268  -0.10632  -0.29960
  71   38744.2    258.1   0.010384622   0.08824   0.15481   0.07105   0.24336
  72   39022.2    256.3   0.052815879   0.44558  -0.17658   0.42517  -0.48336
  73   39206.8    255.1   0.112593012   0.94542  -0.61707   0.73055  -0.17589
  74   39343.9    254.2   0.336269122   2.81375  -1.60803   0.47627   0.03377
  75   39503.8    253.1   0.081371188   0.67812  -0.80813   0.08965   0.13040
  76   39722.7    251.7   0.341173457   2.82756   1.61589  -0.44772   0.12656
  77   40224.4    248.6   0.147339190   1.20588   0.79644  -0.69703   0.29279

FINAL SINGLE POINT ENERGY     -4138.473554670074

DIPOLE MOMENT
-------------
                                X             Y             Z
Electronic contribution:    -18.10055      18.03316     -14.51454
Nuclear contribution   :     19.35320     -17.76728      13.63969
                        -----------------------------------------
Total Dipole Moment    :      1.25265       0.26588      -0.87485
                        -----------------------------------------
Magnitude (a.u.)       :      1.55087
Magnitude (Debye)      :      3.94199

Rotational constants in cm-1:     0.001798     0.000352     0.000327
Rotational constants in MHz :    53.897276    10.546099     9.795159

                             ****ORCA TERMINATED NORMALLY****
TOTAL RUN TIME: 0 days 0 hours 8 minutes 43 seconds 189 msec
