                         Program Version 4.2.0 -  RELEASE  -
|  1> # ORCA input file
|  2> # SCF done       -186.520051219879          0.001676130402
|  3> ! CAM-B3LYP def2-SVP def2/J RIJCOSX Grid4 TightSCF
|  4> %maxcore 5000
|  5> %tddft
|  6>     Mode sTDDFT
|  7>     Ethresh 5.0
|  8>     maxcore 5000
|  9> end
| 10>
| 11> %pal
| 12>   nprocs 6
| 13>   end
| 14> * xyz 0 1
| 15>    C       -3.42165        -0.04473        -4.27846
| 16>    S       -3.60624        -1.67828        -3.78792
| 17>    C       -4.76268        -1.97696        -5.05589
| 18>    C       -4.94282        -0.85291        -5.83611
| 19>    C       -4.17921         0.26515        -5.36983
| 20>    O       -4.23506         1.47478        -5.99601
| 21>    C       -3.45129         2.50727        -5.44887
| 22>    O       -5.77856        -0.91033        -6.90490
| 23>    C       -6.27857         0.29487        -7.44368
| 24>    C       -5.30222        -3.28670        -5.28813
| 25>    C       -5.54534        -3.84773        -6.50480
| 26>    C       -5.89105        -5.24198        -6.30418
| 27>    C       -6.16399        -6.15611        -7.32306
| 28>    N       -6.34563        -6.91964        -8.16433
| 29>    C       -5.82461        -5.53687        -4.96758
| 30>    C       -5.48470        -4.33018        -4.26461
| 31>    C       -5.47751        -4.16374        -2.89788
| 32>    C       -5.29795        -5.22007        -1.87115
| 33>    C       -5.65166        -4.67865        -0.66526
| 34>    C       -6.01632        -3.30283        -0.87008
| 35>    C       -5.85987        -2.98155        -2.20096
| 36>    C       -6.46640        -2.44067         0.13678
| 37>    N       -6.83463        -1.73720         0.96708
| 38>    C       -4.72874        -6.50698        -2.07829
| 39>    C       -3.98292        -6.84857        -3.15521
| 40>    C       -3.57048        -8.17362        -3.52066
| 41>    C       -3.30749        -8.41290        -4.85745
| 42>    C       -3.04762        -9.71605        -5.30279
| 43>    C       -2.85900       -10.22038        -6.58800
| 44>    C       -3.00643        -9.44815        -7.85097
| 45>    C       -1.78194        -9.56138        -8.77747
| 46>    N       -1.70929        -8.36862        -9.59670
| 47>    C       -4.30540        -9.86189        -8.57727
| 48>    N       -4.58765        -8.94986        -9.67265
| 49>    C       -2.64459       -11.64115        -6.44792
| 50>    C       -2.45314       -12.61960        -7.35585
| 51>    C       -2.42067       -14.04854        -6.95550
| 52>    C       -2.29849       -14.28094        -5.48151
| 53>    C       -2.48706       -13.29665        -4.58053
| 54>    C       -2.70507       -11.96933        -5.01409
| 55>    C       -2.96474       -10.79416        -4.33166
| 56>    C       -3.18774       -10.51577        -2.96480
| 57>    C       -3.50398        -9.25087        -2.58246
| 58>    C       -3.75093       -14.71075        -7.28266
| 59>    C       -4.88146       -14.01909        -7.45100
| 60>    C       -6.19149       -14.57001        -7.64614
| 61>    C       -6.53406       -15.82451        -8.05865
| 62>    C       -7.96603       -15.87290        -8.23532
| 63>    C       -8.69282       -16.99806        -8.63226
| 64>    N       -9.30169       -17.90784        -8.98470
| 65>    C       -8.49295       -14.62910        -7.97609
| 66>    C       -7.42475       -13.76451        -7.58659
| 67>    C       -7.52957       -12.44470        -7.18588
| 68>    C       -8.60873       -11.49370        -7.56537
| 69>    C       -8.36889       -10.31896        -6.90242
| 70>    C       -7.19212       -10.48299        -6.09751
| 71>    C       -6.67093       -11.74898        -6.29535
| 72>    C       -6.68807        -9.51501        -5.22713
| 73>    N       -6.28783        -8.72090        -4.49791
| 74>    C       -9.60411       -11.78035        -8.53605
| 75>    C      -10.68538       -11.00267        -8.79885
| 76>    C      -11.73626       -11.35994        -9.68385
| 77>    S      -12.96492       -10.18271       -10.05308
| 78>    C      -13.81966       -11.30230       -11.03037
| 79>    C      -13.21332       -12.52458       -11.08291
| 80>    C      -12.01118       -12.57291       -10.30974
| 81>    O      -11.18054       -13.62648       -10.13162
| 82>    C      -11.58047       -14.91665       -10.55305
| 83>    O      -13.65616       -13.61040       -11.77661
| 84>    C      -14.87202       -13.47128       -12.47083
| 85>    H       -2.75251         0.58397        -3.72859
| 86>    H       -3.63651         3.38110        -6.07074
| 87>    H       -2.38663         2.25583        -5.47791
| 88>    H       -3.74288         2.72403        -4.41658
| 89>    H       -7.03630        -0.00681        -8.16539
| 90>    H       -5.49569         0.86456        -7.94854
| 91>    H       -6.73612         0.91983        -6.67312
| 92>    H       -5.47057        -3.36592        -7.45949
| 93>    H       -6.08584        -6.47496        -4.51738
| 94>    H       -5.62536        -5.16294         0.29318
| 95>    H       -6.13657        -2.05060        -2.65676
| 96>    H       -4.91838        -7.23062        -1.29645
| 97>    H       -3.73725        -6.08066        -3.87613
| 98>    H       -3.35842        -7.60031        -5.56741
| 99>    H       -3.10227        -8.38766        -7.60021
|100>    H       -1.85001       -10.49096        -9.36686
|101>    H       -0.87073        -9.61480        -8.17064
|102>    H       -2.58968        -8.27101       -10.09765
|103>    H       -0.95471        -8.44000       -10.27047
|104>    H       -5.11765        -9.89760        -7.83180
|105>    H       -4.18686       -10.86822        -8.99146
|106>    H       -4.91040        -8.06095        -9.29389
|107>    H       -5.34898        -9.31470       -10.23624
|108>    H       -2.40075       -12.41646        -8.41548
|109>    H       -1.62816       -14.57598        -7.50007
|110>    H       -2.13482       -15.30116        -5.17005
|111>    H       -2.45603       -13.50402        -3.52060
|112>    H       -3.12051       -11.31421        -2.24004
|113>    H       -3.68726        -9.03520        -1.54106
|114>    H       -3.74679       -15.79018        -7.26246
|115>    H       -4.83227       -12.93998        -7.45012
|116>    H       -5.87571       -16.64941        -8.25602
|117>    H       -9.53852       -14.39258        -7.94716
|118>    H       -8.92370        -9.40325        -6.97179
|119>    H       -5.84001       -12.16223        -5.75526
|120>    H       -9.49145       -12.69139        -9.09860
|121>    H      -10.80551       -10.05099        -8.29930
|122>    H      -14.71846       -10.98432       -11.51753
|123>    H      -10.80084       -15.59250       -10.20207
|124>    H      -11.65620       -14.97585       -11.63956
|125>    H      -12.53601       -15.20268       -10.10975
|126>    H      -15.06361       -14.44111       -12.92609
|127>    H      -14.79884       -12.70818       -13.25180
|128>    H      -15.69123       -13.21712       -11.79144
|129> *
|130>
|131>                          ****END OF INPUT****

CARTESIAN COORDINATES (ANGSTROEM)
---------------------------------
  C     -3.421650   -0.044730   -4.278460
  S     -3.606240   -1.678280   -3.787920
  C     -4.762680   -1.976960   -5.055890
  C     -4.942820   -0.852910   -5.836110
  C     -4.179210    0.265150   -5.369830
  O     -4.235060    1.474780   -5.996010
  C     -3.451290    2.507270   -5.448870
  O     -5.778560   -0.910330   -6.904900
  C     -6.278570    0.294870   -7.443680
  C     -5.302220   -3.286700   -5.288130
  C     -5.545340   -3.847730   -6.504800
  C     -5.891050   -5.241980   -6.304180
  C     -6.163990   -6.156110   -7.323060
  N     -6.345630   -6.919640   -8.164330
  C     -5.824610   -5.536870   -4.967580
  C     -5.484700   -4.330180   -4.264610
  C     -5.477510   -4.163740   -2.897880
  C     -5.297950   -5.220070   -1.871150
  C     -5.651660   -4.678650   -0.665260
  C     -6.016320   -3.302830   -0.870080
  C     -5.859870   -2.981550   -2.200960
  C     -6.466400   -2.440670    0.136780
  N     -6.834630   -1.737200    0.967080
  C     -4.728740   -6.506980   -2.078290
  C     -3.982920   -6.848570   -3.155210
  C     -3.570480   -8.173620   -3.520660
  C     -3.307490   -8.412900   -4.857450
  C     -3.047620   -9.716050   -5.302790
  C     -2.859000  -10.220380   -6.588000
  C     -3.006430   -9.448150   -7.850970
  C     -1.781940   -9.561380   -8.777470
  N     -1.709290   -8.368620   -9.596700
  C     -4.305400   -9.861890   -8.577270
  N     -4.587650   -8.949860   -9.672650
  C     -2.644590  -11.641150   -6.447920
  C     -2.453140  -12.619600   -7.355850
  C     -2.420670  -14.048540   -6.955500
  C     -2.298490  -14.280940   -5.481510
  C     -2.487060  -13.296650   -4.580530
  C     -2.705070  -11.969330   -5.014090
  C     -2.964740  -10.794160   -4.331660
  C     -3.187740  -10.515770   -2.964800
  C     -3.503980   -9.250870   -2.582460
  C     -3.750930  -14.710750   -7.282660
  C     -4.881460  -14.019090   -7.451000
  C     -6.191490  -14.570010   -7.646140
  C     -6.534060  -15.824510   -8.058650
  C     -7.966030  -15.872900   -8.235320
  C     -8.692820  -16.998060   -8.632260
  N     -9.301690  -17.907840   -8.984700
  C     -8.492950  -14.629100   -7.976090
  C     -7.424750  -13.764510   -7.586590
  C     -7.529570  -12.444700   -7.185880
  C     -8.608730  -11.493700   -7.565370
  C     -8.368890  -10.318960   -6.902420
  C     -7.192120  -10.482990   -6.097510
  C     -6.670930  -11.748980   -6.295350
  C     -6.688070   -9.515010   -5.227130
  N     -6.287830   -8.720900   -4.497910
  C     -9.604110  -11.780350   -8.536050
  C    -10.685380  -11.002670   -8.798850
  C    -11.736260  -11.359940   -9.683850
  S    -12.964920  -10.182710  -10.053080
  C    -13.819660  -11.302300  -11.030370
  C    -13.213320  -12.524580  -11.082910
  C    -12.011180  -12.572910  -10.309740
  O    -11.180540  -13.626480  -10.131620
  C    -11.580470  -14.916650  -10.553050
  O    -13.656160  -13.610400  -11.776610
  C    -14.872020  -13.471280  -12.470830
  H     -2.752510    0.583970   -3.728590
  H     -3.636510    3.381100   -6.070740
  H     -2.386630    2.255830   -5.477910
  H     -3.742880    2.724030   -4.416580
  H     -7.036300   -0.006810   -8.165390
  H     -5.495690    0.864560   -7.948540
  H     -6.736120    0.919830   -6.673120
  H     -5.470570   -3.365920   -7.459490
  H     -6.085840   -6.474960   -4.517380
  H     -5.625360   -5.162940    0.293180
  H     -6.136570   -2.050600   -2.656760
  H     -4.918380   -7.230620   -1.296450
  H     -3.737250   -6.080660   -3.876130
  H     -3.358420   -7.600310   -5.567410
  H     -3.102270   -8.387660   -7.600210
  H     -1.850010  -10.490960   -9.366860
  H     -0.870730   -9.614800   -8.170640
  H     -2.589680   -8.271010  -10.097650
  H     -0.954710   -8.440000  -10.270470
  H     -5.117650   -9.897600   -7.831800
  H     -4.186860  -10.868220   -8.991460
  H     -4.910400   -8.060950   -9.293890
  H     -5.348980   -9.314700  -10.236240
  H     -2.400750  -12.416460   -8.415480
  H     -1.628160  -14.575980   -7.500070
  H     -2.134820  -15.301160   -5.170050
  H     -2.456030  -13.504020   -3.520600
  H     -3.120510  -11.314210   -2.240040
  H     -3.687260   -9.035200   -1.541060
  H     -3.746790  -15.790180   -7.262460
  H     -4.832270  -12.939980   -7.450120
  H     -5.875710  -16.649410   -8.256020
  H     -9.538520  -14.392580   -7.947160
  H     -8.923700   -9.403250   -6.971790
  H     -5.840010  -12.162230   -5.755260
  H     -9.491450  -12.691390   -9.098600
  H    -10.805510  -10.050990   -8.299300
  H    -14.718460  -10.984320  -11.517530
  H    -10.800840  -15.592500  -10.202070
  H    -11.656200  -14.975850  -11.639560
  H    -12.536010  -15.202680  -10.109750
  H    -15.063610  -14.441110  -12.926090
  H    -14.798840  -12.708180  -13.251800
  H    -15.691230  -13.217120  -11.791440

 Total Charge           Charge          ....    0
 Multiplicity           Mult            ....    1
 Number of Electrons    NEL             ....  498
 Basis Dimension        Dim             .... 1208

ORBITAL ENERGIES
----------------

  NO   OCC          E(Eh)            E(eV)
   0   2.0000     -88.951978     -2420.5064
   1   2.0000     -88.948829     -2420.4207
   2   2.0000     -19.254556      -523.9431
   3   2.0000     -19.252625      -523.8906
   4   2.0000     -19.251118      -523.8496
   5   2.0000     -19.241577      -523.5899
   6   2.0000     -14.412199      -392.1759
   7   2.0000     -14.408088      -392.0640
   8   2.0000     -14.407189      -392.0395
   9   2.0000     -14.398858      -391.8128
  10   2.0000     -14.361621      -390.7996
  11   2.0000     -14.342630      -390.2828
  12   2.0000     -10.339323      -281.3473
  13   2.0000     -10.338614      -281.3280
  14   2.0000     -10.333910      -281.2000
  15   2.0000     -10.330159      -281.0979
  16   2.0000     -10.329308      -281.0748
  17   2.0000     -10.326557      -280.9999
  18   2.0000     -10.315002      -280.6855
  19   2.0000     -10.313492      -280.6444
  20   2.0000     -10.312743      -280.6240
  21   2.0000     -10.312221      -280.6098
  22   2.0000     -10.311331      -280.5856
  23   2.0000     -10.311314      -280.5851
  24   2.0000     -10.311213      -280.5824
  25   2.0000     -10.310367      -280.5593
  26   2.0000     -10.310140      -280.5532
  27   2.0000     -10.309150      -280.5262
  28   2.0000     -10.307172      -280.4724
  29   2.0000     -10.306027      -280.4412
  30   2.0000     -10.301903      -280.3290
  31   2.0000     -10.297668      -280.2138
  32   2.0000     -10.296531      -280.1828
  33   2.0000     -10.295089      -280.1436
  34   2.0000     -10.292412      -280.0708
  35   2.0000     -10.292405      -280.0706
  36   2.0000     -10.291700      -280.0514
  37   2.0000     -10.287454      -279.9358
  38   2.0000     -10.286964      -279.9225
  39   2.0000     -10.286113      -279.8994
  40   2.0000     -10.285709      -279.8884
  41   2.0000     -10.285509      -279.8829
  42   2.0000     -10.285035      -279.8700
  43   2.0000     -10.283722      -279.8343
  44   2.0000     -10.282447      -279.7996
  45   2.0000     -10.282095      -279.7900
  46   2.0000     -10.281400      -279.7711
  47   2.0000     -10.280020      -279.7336
  48   2.0000     -10.279188      -279.7109
  49   2.0000     -10.276157      -279.6284
  50   2.0000     -10.275067      -279.5988
  51   2.0000     -10.273322      -279.5513
  52   2.0000     -10.271591      -279.5042
  53   2.0000     -10.271356      -279.4978
  54   2.0000     -10.269903      -279.4583
  55   2.0000     -10.269717      -279.4532
  56   2.0000     -10.268927      -279.4317
  57   2.0000     -10.268121      -279.4098
  58   2.0000     -10.267593      -279.3954
  59   2.0000     -10.267458      -279.3917
  60   2.0000     -10.265741      -279.3450
  61   2.0000     -10.262583      -279.2591
  62   2.0000     -10.261990      -279.2429
  63   2.0000     -10.260715      -279.2082
  64   2.0000     -10.260172      -279.1935
  65   2.0000     -10.257135      -279.1108
  66   2.0000     -10.256279      -279.0875
  67   2.0000     -10.256045      -279.0812
  68   2.0000     -10.254834      -279.0482
  69   2.0000     -10.249173      -278.8942
  70   2.0000      -8.047803      -218.9918
  71   2.0000      -8.043903      -218.8857
  72   2.0000      -6.017272      -163.7383
  73   2.0000      -6.013404      -163.6331
  74   2.0000      -6.013303      -163.6303
  75   2.0000      -6.009388      -163.5238
  76   2.0000      -6.009326      -163.5221
  77   2.0000      -6.005584      -163.4203
  78   2.0000      -1.164430       -31.6858
  79   2.0000      -1.158524       -31.5250
  80   2.0000      -1.146057       -31.1858
  81   2.0000      -1.138419       -30.9779
  82   2.0000      -1.004975       -27.3468
  83   2.0000      -1.001768       -27.2595
  84   2.0000      -0.997389       -27.1403
  85   2.0000      -0.991557       -26.9816
  86   2.0000      -0.985244       -26.8098
  87   2.0000      -0.981798       -26.7161
  88   2.0000      -0.978195       -26.6180
  89   2.0000      -0.977559       -26.6007
  90   2.0000      -0.970212       -26.4008
  91   2.0000      -0.969527       -26.3822
  92   2.0000      -0.960838       -26.1457
  93   2.0000      -0.952128       -25.9087
  94   2.0000      -0.942260       -25.6402
  95   2.0000      -0.921811       -25.0838
  96   2.0000      -0.912866       -24.8403
  97   2.0000      -0.895100       -24.3569
  98   2.0000      -0.882722       -24.0201
  99   2.0000      -0.875878       -23.8339
 100   2.0000      -0.868243       -23.6261
 101   2.0000      -0.866509       -23.5789
 102   2.0000      -0.857321       -23.3289
 103   2.0000      -0.850531       -23.1441
 104   2.0000      -0.845125       -22.9970
 105   2.0000      -0.839915       -22.8552
 106   2.0000      -0.838477       -22.8161
 107   2.0000      -0.831966       -22.6389
 108   2.0000      -0.824985       -22.4490
 109   2.0000      -0.817587       -22.2477
 110   2.0000      -0.807862       -21.9830
 111   2.0000      -0.806969       -21.9587
 112   2.0000      -0.799828       -21.7644
 113   2.0000      -0.791561       -21.5395
 114   2.0000      -0.784843       -21.3567
 115   2.0000      -0.778179       -21.1753
 116   2.0000      -0.775616       -21.1056
 117   2.0000      -0.773739       -21.0545
 118   2.0000      -0.756548       -20.5867
 119   2.0000      -0.752279       -20.4705
 120   2.0000      -0.746026       -20.3004
 121   2.0000      -0.734819       -19.9954
 122   2.0000      -0.721877       -19.6433
 123   2.0000      -0.713560       -19.4170
 124   2.0000      -0.710482       -19.3332
 125   2.0000      -0.704748       -19.1772
 126   2.0000      -0.696213       -18.9449
 127   2.0000      -0.691412       -18.8143
 128   2.0000      -0.685523       -18.6540
 129   2.0000      -0.672117       -18.2892
 130   2.0000      -0.670424       -18.2432
 131   2.0000      -0.662985       -18.0407
 132   2.0000      -0.657843       -17.9008
 133   2.0000      -0.649382       -17.6706
 134   2.0000      -0.638879       -17.3848
 135   2.0000      -0.637511       -17.3476
 136   2.0000      -0.632977       -17.2242
 137   2.0000      -0.629481       -17.1291
 138   2.0000      -0.626388       -17.0449
 139   2.0000      -0.625968       -17.0335
 140   2.0000      -0.621761       -16.9190
 141   2.0000      -0.620050       -16.8724
 142   2.0000      -0.613704       -16.6997
 143   2.0000      -0.610865       -16.6225
 144   2.0000      -0.593324       -16.1452
 145   2.0000      -0.591318       -16.0906
 146   2.0000      -0.589293       -16.0355
 147   2.0000      -0.585159       -15.9230
 148   2.0000      -0.579922       -15.7805
 149   2.0000      -0.571685       -15.5563
 150   2.0000      -0.568563       -15.4714
 151   2.0000      -0.563719       -15.3396
 152   2.0000      -0.562634       -15.3101
 153   2.0000      -0.561148       -15.2696
 154   2.0000      -0.555859       -15.1257
 155   2.0000      -0.554017       -15.0756
 156   2.0000      -0.548554       -14.9269
 157   2.0000      -0.547442       -14.8967
 158   2.0000      -0.543856       -14.7991
 159   2.0000      -0.542886       -14.7727
 160   2.0000      -0.541757       -14.7419
 161   2.0000      -0.539590       -14.6830
 162   2.0000      -0.529643       -14.4123
 163   2.0000      -0.529330       -14.4038
 164   2.0000      -0.526292       -14.3211
 165   2.0000      -0.523426       -14.2432
 166   2.0000      -0.519859       -14.1461
 167   2.0000      -0.518450       -14.1077
 168   2.0000      -0.511633       -13.9222
 169   2.0000      -0.511228       -13.9112
 170   2.0000      -0.509458       -13.8631
 171   2.0000      -0.507029       -13.7970
 172   2.0000      -0.505359       -13.7515
 173   2.0000      -0.502853       -13.6833
 174   2.0000      -0.500845       -13.6287
 175   2.0000      -0.499150       -13.5826
 176   2.0000      -0.497634       -13.5413
 177   2.0000      -0.494803       -13.4643
 178   2.0000      -0.492587       -13.4040
 179   2.0000      -0.491701       -13.3799
 180   2.0000      -0.489483       -13.3195
 181   2.0000      -0.487508       -13.2658
 182   2.0000      -0.486325       -13.2336
 183   2.0000      -0.483282       -13.1508
 184   2.0000      -0.481913       -13.1135
 185   2.0000      -0.480375       -13.0717
 186   2.0000      -0.480214       -13.0673
 187   2.0000      -0.479032       -13.0351
 188   2.0000      -0.477713       -12.9992
 189   2.0000      -0.474972       -12.9247
 190   2.0000      -0.469592       -12.7782
 191   2.0000      -0.466149       -12.6846
 192   2.0000      -0.465057       -12.6548
 193   2.0000      -0.462617       -12.5884
 194   2.0000      -0.460356       -12.5269
 195   2.0000      -0.457644       -12.4531
 196   2.0000      -0.453144       -12.3307
 197   2.0000      -0.450828       -12.2676
 198   2.0000      -0.445582       -12.1249
 199   2.0000      -0.442456       -12.0398
 200   2.0000      -0.439438       -11.9577
 201   2.0000      -0.439087       -11.9482
 202   2.0000      -0.437617       -11.9082
 203   2.0000      -0.436440       -11.8761
 204   2.0000      -0.435177       -11.8418
 205   2.0000      -0.431433       -11.7399
 206   2.0000      -0.428728       -11.6663
 207   2.0000      -0.428260       -11.6536
 208   2.0000      -0.426611       -11.6087
 209   2.0000      -0.426212       -11.5978
 210   2.0000      -0.424324       -11.5464
 211   2.0000      -0.422437       -11.4951
 212   2.0000      -0.420944       -11.4545
 213   2.0000      -0.420783       -11.4501
 214   2.0000      -0.417915       -11.3720
 215   2.0000      -0.415741       -11.3129
 216   2.0000      -0.413227       -11.2445
 217   2.0000      -0.408598       -11.1185
 218   2.0000      -0.405249       -11.0274
 219   2.0000      -0.402926       -10.9642
 220   2.0000      -0.401387       -10.9223
 221   2.0000      -0.400110       -10.8875
 222   2.0000      -0.398878       -10.8540
 223   2.0000      -0.397525       -10.8172
 224   2.0000      -0.395054       -10.7500
 225   2.0000      -0.390073       -10.6144
 226   2.0000      -0.388142       -10.5619
 227   2.0000      -0.386217       -10.5095
 228   2.0000      -0.381998       -10.3947
 229   2.0000      -0.377966       -10.2850
 230   2.0000      -0.374119       -10.1803
 231   2.0000      -0.366541        -9.9741
 232   2.0000      -0.358456        -9.7541
 233   2.0000      -0.353418        -9.6170
 234   2.0000      -0.324440        -8.8285
 235   2.0000      -0.322104        -8.7649
 236   2.0000      -0.319467        -8.6931
 237   2.0000      -0.312744        -8.5102
 238   2.0000      -0.310007        -8.4357
 239   2.0000      -0.304049        -8.2736
 240   2.0000      -0.290578        -7.9070
 241   2.0000      -0.280983        -7.6459
 242   2.0000      -0.278084        -7.5671
 243   2.0000      -0.274736        -7.4759
 244   2.0000      -0.269282        -7.3275
 245   2.0000      -0.259247        -7.0545
 246   2.0000      -0.249762        -6.7964
 247   2.0000      -0.243077        -6.6145
 248   2.0000      -0.211160        -5.7460
 249   0.0000      -0.121122        -3.2959
 250   0.0000      -0.107323        -2.9204
 251   0.0000      -0.063345        -1.7237
 252   0.0000      -0.018685        -0.5084
 253   0.0000      -0.007646        -0.2081

MULLIKEN ATOMIC CHARGES
-----------------------
   0 C :   -0.208966
   1 S :    0.139832
   2 C :   -0.245733
   3 C :    0.200594
   4 C :    0.198309
   5 O :   -0.324676
   6 C :    0.179335
   7 O :   -0.317595
   8 C :    0.197010
   9 C :    0.115034
  10 C :   -0.012173
  11 C :   -0.135794
  12 C :   -0.068366
  13 N :    0.087005
  14 C :   -0.014474
  15 C :    0.006653
  16 C :    0.021754
  17 C :    0.091721
  18 C :   -0.030593
  19 C :   -0.110055
  20 C :   -0.010616
  21 C :   -0.125836
  22 N :    0.128428
  23 C :    0.011031
  24 C :   -0.012854
  25 C :    0.126801
  26 C :   -0.103522
  27 C :    0.056797
  28 C :   -0.023617
  29 C :   -0.057510
  30 C :    0.153877
  31 N :   -0.220337
  32 C :    0.121470
  33 N :   -0.211586
  34 C :    0.075825
  35 C :   -0.131280
  36 C :    0.142333
  37 C :   -0.023361
  38 C :    0.009909
  39 C :    0.006510
  40 C :    0.040595
  41 C :   -0.004999
  42 C :   -0.002375
  43 C :   -0.090176
  44 C :    0.006413
  45 C :    0.119827
  46 C :   -0.049290
  47 C :   -0.110996
  48 C :   -0.113642
  49 N :    0.116559
  50 C :   -0.036182
  51 C :    0.042568
  52 C :    0.062030
  53 C :    0.111941
  54 C :   -0.047127
  55 C :   -0.104150
  56 C :   -0.053138
  57 C :   -0.092898
  58 N :    0.146038
  59 C :   -0.053004
  60 C :    0.064752
  61 C :   -0.187430
  62 S :    0.124842
  63 C :   -0.201921
  64 C :    0.192250
  65 C :    0.200943
  66 O :   -0.321200
  67 C :    0.195563
  68 O :   -0.322625
  69 C :    0.179784
  70 H :    0.017369
  71 H :    0.037239
  72 H :    0.025405
  73 H :    0.025153
  74 H :    0.028801
  75 H :    0.030035
  76 H :    0.017291
  77 H :   -0.009503
  78 H :    0.004014
  79 H :   -0.019570
  80 H :    0.007628
  81 H :   -0.013727
  82 H :    0.011187
  83 H :   -0.033843
  84 H :   -0.021388
  85 H :   -0.033882
  86 H :   -0.008700
  87 H :    0.083188
  88 H :    0.075808
  89 H :    0.014038
  90 H :   -0.017962
  91 H :    0.100685
  92 H :    0.092022
  93 H :    0.000813
  94 H :    0.019295
  95 H :   -0.013081
  96 H :   -0.036343
  97 H :   -0.039627
  98 H :   -0.029956
  99 H :    0.000181
 100 H :    0.019314
 101 H :   -0.016717
 102 H :    0.005194
 103 H :   -0.012305
 104 H :    0.007961
 105 H :    0.015350
 106 H :   -0.021441
 107 H :    0.018385
 108 H :    0.035048
 109 H :    0.031415
 110 H :    0.022126
 111 H :    0.039461
 112 H :    0.025061
 113 H :    0.024338
Sum of atomic charges:   -0.0000000

LOEWDIN ATOMIC CHARGES
----------------------
   0 C :   -0.247236
   1 S :    0.454980
   2 C :   -0.207200
   3 C :    0.006278
   4 C :   -0.009139
   5 O :   -0.105943
   6 C :    0.079468
   7 O :   -0.103369
   8 C :    0.078019
   9 C :   -0.048745
  10 C :    0.013664
  11 C :   -0.080551
  12 C :    0.000207
  13 N :   -0.077096
  14 C :    0.017662
  15 C :    0.029998
  16 C :    0.039025
  17 C :   -0.016800
  18 C :   -0.021857
  19 C :   -0.053160
  20 C :   -0.021230
  21 C :   -0.027779
  22 N :   -0.053284
  23 C :   -0.021686
  24 C :    0.009026
  25 C :   -0.023916
  26 C :    0.004011
  27 C :   -0.023811
  28 C :   -0.017742
  29 C :   -0.039847
  30 C :    0.029317
  31 N :   -0.129752
  32 C :    0.024961
  33 N :   -0.103586
  34 C :   -0.020113
  35 C :    0.068453
  36 C :   -0.030068
  37 C :   -0.029355
  38 C :   -0.021330
  39 C :   -0.044626
  40 C :   -0.026481
  41 C :   -0.011550
  42 C :   -0.016629
  43 C :    0.015201
  44 C :   -0.040752
  45 C :   -0.024511
  46 C :   -0.007303
  47 C :   -0.057800
  48 C :   -0.027604
  49 N :   -0.058029
  50 C :   -0.008588
  51 C :    0.035219
  52 C :    0.046948
  53 C :   -0.013469
  54 C :   -0.020329
  55 C :   -0.039324
  56 C :   -0.026863
  57 C :   -0.000270
  58 N :   -0.044061
  59 C :   -0.037707
  60 C :   -0.011359
  61 C :   -0.205576
  62 S :    0.431301
  63 C :   -0.239758
  64 C :   -0.011096
  65 C :    0.015341
  66 O :   -0.091815
  67 C :    0.080324
  68 O :   -0.104324
  69 C :    0.079923
  70 H :    0.022186
  71 H :    0.028565
  72 H :    0.016312
  73 H :    0.016198
  74 H :    0.023162
  75 H :    0.015486
  76 H :    0.015128
  77 H :    0.031605
  78 H :    0.032679
  79 H :    0.029330
  80 H :    0.030702
  81 H :    0.032617
  82 H :    0.032521
  83 H :    0.026294
  84 H :    0.027375
  85 H :   -0.008153
  86 H :    0.013943
  87 H :    0.034627
  88 H :    0.046590
  89 H :    0.004339
  90 H :    0.007911
  91 H :    0.044649
  92 H :    0.056195
  93 H :    0.028189
  94 H :    0.047745
  95 H :    0.022999
  96 H :    0.029241
  97 H :    0.026175
  98 H :    0.024658
  99 H :    0.024620
 100 H :    0.031306
 101 H :    0.028509
 102 H :    0.033920
 103 H :    0.029531
 104 H :    0.035982
 105 H :    0.029706
 106 H :    0.027474
 107 H :    0.022559
 108 H :    0.024922
 109 H :    0.018039
 110 H :    0.017466
 111 H :    0.029786
 112 H :    0.016033
 113 H :    0.015971

  Mayer bond orders larger than 0.100000
B(  0-C ,  1-S ) :   1.1120 B(  0-C ,  2-C ) :   0.1143 B(  0-C ,  4-C ) :   1.4914
B(  0-C , 70-H ) :   0.9794 B(  1-S ,  2-C ) :   1.1305 B(  2-C ,  3-C ) :   1.5299
B(  2-C ,  9-C ) :   1.0318 B(  3-C ,  4-C ) :   1.1841 B(  3-C ,  7-O ) :   1.1876
B(  4-C ,  5-O ) :   1.1252 B(  5-O ,  6-C ) :   0.9612 B(  6-C , 71-H ) :   0.9803
B(  6-C , 72-H ) :   0.9683 B(  6-C , 73-H ) :   0.9684 B(  7-O ,  8-C ) :   0.9387
B(  8-C , 74-H ) :   0.9789 B(  8-C , 75-H ) :   0.9733 B(  8-C , 76-H ) :   0.9726
B(  9-C , 10-C ) :   1.6433 B(  9-C , 15-C ) :   1.0670 B( 10-C , 11-C ) :   1.0630
B( 10-C , 77-H ) :   1.0198 B( 11-C , 12-C ) :   1.0855 B( 11-C , 14-C ) :   1.6080
B( 12-C , 13-N ) :   2.9186 B( 14-C , 15-C ) :   1.0940 B( 14-C , 78-H ) :   0.9934
B( 15-C , 16-C ) :   1.4526 B( 16-C , 17-C ) :   1.0286 B( 16-C , 20-C ) :   1.1362
B( 17-C , 18-C ) :   1.5584 B( 17-C , 23-C ) :   1.1427 B( 18-C , 19-C ) :   1.1158
B( 18-C , 79-H ) :   1.0233 B( 19-C , 20-C ) :   1.5807 B( 19-C , 21-C ) :   1.0612
B( 20-C , 80-H ) :   1.0126 B( 21-C , 22-N ) :   3.0374 B( 23-C , 24-C ) :   1.6444
B( 23-C , 81-H ) :   0.9573 B( 24-C , 25-C ) :   1.0995 B( 24-C , 82-H ) :   0.9601
B( 25-C , 26-C ) :   1.4768 B( 25-C , 42-C ) :   1.1327 B( 26-C , 27-C ) :   1.1417
B( 26-C , 83-H ) :   1.0035 B( 27-C , 28-C ) :   1.4872 B( 27-C , 40-C ) :   1.1152
B( 28-C , 29-C ) :   1.0372 B( 28-C , 34-C ) :   1.0793 B( 29-C , 30-C ) :   1.0232
B( 29-C , 32-C ) :   1.0495 B( 29-C , 84-H ) :   0.8735 B( 30-C , 31-N ) :   1.1155
B( 30-C , 85-H ) :   0.9201 B( 30-C , 86-H ) :   0.9474 B( 31-N , 87-H ) :   0.9382
B( 31-N , 88-H ) :   0.9667 B( 32-C , 33-N ) :   1.0988 B( 32-C , 89-H ) :   0.9456
B( 32-C , 90-H ) :   0.9264 B( 33-N , 87-H ) :   0.1083 B( 33-N , 91-H ) :   0.9491
B( 33-N , 92-H ) :   0.9654 B( 34-C , 35-C ) :   1.6558 B( 34-C , 39-C ) :   1.0495
B( 35-C , 36-C ) :   0.9950 B( 35-C , 93-H ) :   0.9717 B( 36-C , 37-C ) :   0.9784
B( 36-C , 43-C ) :   0.9502 B( 36-C , 94-H ) :   0.8798 B( 37-C , 38-C ) :   1.7233
B( 37-C , 95-H ) :   0.9647 B( 38-C , 39-C ) :   1.1419 B( 38-C , 96-H ) :   0.9873
B( 39-C , 40-C ) :   1.4257 B( 40-C , 41-C ) :   1.1409 B( 41-C , 42-C ) :   1.6084
B( 41-C , 97-H ) :   0.9917 B( 42-C , 98-H ) :   0.9821 B( 43-C , 44-C ) :   1.8306
B( 43-C , 99-H ) :   0.9720 B( 44-C , 45-C ) :   1.0515 B( 44-C ,100-H ) :   0.9364
B( 45-C , 46-C ) :   1.6083 B( 45-C , 51-C ) :   1.0670 B( 46-C , 47-C ) :   1.0965
B( 46-C ,101-H ) :   1.0149 B( 47-C , 48-C ) :   1.0642 B( 47-C , 50-C ) :   1.6033
B( 48-C , 49-N ) :   2.9847 B( 50-C , 51-C ) :   1.1050 B( 50-C ,102-H ) :   1.0119
B( 51-C , 52-C ) :   1.4277 B( 52-C , 53-C ) :   1.0363 B( 52-C , 56-C ) :   1.1169
B( 53-C , 54-C ) :   1.5729 B( 53-C , 59-C ) :   1.1049 B( 54-C , 55-C ) :   1.1232
B( 54-C ,103-H ) :   1.0110 B( 55-C , 56-C ) :   1.5619 B( 55-C , 57-C ) :   1.0926
B( 56-C ,104-H ) :   1.0186 B( 57-C , 58-N ) :   2.9128 B( 59-C , 60-C ) :   1.6633
B( 59-C ,105-H ) :   0.9610 B( 60-C , 61-C ) :   1.1523 B( 60-C ,106-H ) :   0.9572
B( 61-C , 62-S ) :   1.1178 B( 61-C , 65-C ) :   1.4568 B( 62-S , 63-C ) :   1.1152
B( 63-C , 64-C ) :   1.4931 B( 63-C ,107-H ) :   0.9785 B( 64-C , 65-C ) :   1.2100
B( 64-C , 68-O ) :   1.1296 B( 65-C , 66-O ) :   1.1676 B( 66-O , 67-C ) :   0.9219
B( 67-C ,108-H ) :   0.9739 B( 67-C ,109-H ) :   0.9733 B( 67-C ,110-H ) :   0.9731
B( 68-O , 69-C ) :   0.9607 B( 69-C ,111-H ) :   0.9803 B( 69-C ,112-H ) :   0.9686
B( 69-C ,113-H ) :   0.9679

-----------------------------------------------------------------------------
         ABSORPTION SPECTRUM VIA TRANSITION ELECTRIC DIPOLE MOMENTS
-----------------------------------------------------------------------------
State   Energy  Wavelength   fosc         T2         TX        TY        TZ
        (cm-1)    (nm)                  (au**2)     (au)      (au)      (au)
-----------------------------------------------------------------------------
   0    4005.4   2496.6   0.030407495   2.49924   1.12573   0.88569   0.66897
   1    7175.0   1393.7   0.045705767   2.09713  -0.44922   1.35939   0.21770
   2    7758.3   1288.9   0.084595194   3.58969   1.52069  -0.83394   0.76272
   3   11314.2    883.8   0.027180124   0.79086  -0.21554  -0.69628   0.50951
   4   13032.7    767.3   0.016788530   0.42409  -0.17016  -0.20507   0.59420
   5   13327.4    750.3   0.028798643   0.71138   0.30685  -0.72282   0.30783
   6   14118.5    708.3   0.011297735   0.26344  -0.02002  -0.47169   0.20137
   7   15706.1    636.7   0.005977583   0.12529   0.08938   0.33215   0.08357
   8   17494.0    571.6   0.005424414   0.10208  -0.22826  -0.17292  -0.14168
   9   18174.4    550.2   0.000104019   0.00188   0.03230  -0.00428   0.02869
  10   18638.2    536.5   0.014356018   0.25357  -0.48141  -0.14740  -0.00940
  11   18935.4    528.1   0.001397645   0.02430  -0.08843  -0.12590  -0.02505
  12   19128.4    522.8   0.006873306   0.11829  -0.00881   0.31501   0.13779
  13   21247.0    470.7   0.004676269   0.07246   0.21501   0.11812   0.11080
  14   21539.9    464.3   0.005451278   0.08332  -0.12398   0.06825   0.25157
  15   23233.2    430.4   0.098246913   1.39215  -0.89263  -0.09218  -0.76607
  16   24175.4    413.6   0.073105698   0.99553   0.25625  -0.74770  -0.60894
  17   24390.5    410.0   0.003563663   0.04810   0.16603  -0.13611  -0.04480
  18   25151.4    397.6   0.022410044   0.29333   0.39563  -0.30137  -0.21444
  19   25438.3    393.1   0.002621066   0.03392  -0.07471   0.11999   0.11808
  20   25675.2    389.5   0.105610603   1.35416   0.16543  -0.95367  -0.64599
  21   25763.5    388.1   0.036708330   0.46907   0.40566  -0.54338   0.09616
  22   26060.4    383.7   0.022543118   0.28478   0.09397  -0.45606  -0.26069
  23   26584.1    376.2   0.004530060   0.05610   0.04751  -0.12458   0.19576
  24   26664.3    375.0   0.004737655   0.05849   0.23885  -0.01760  -0.03372
  25   26736.3    374.0   0.020917039   0.25756  -0.32921  -0.24411   0.29931
  26   27402.3    364.9   0.659224526   7.91993  -0.81115   2.67439  -0.33109
  27   28481.4    351.1   0.151034362   1.74578   0.17398  -0.98221  -0.86648
  28   28567.9    350.0   0.102707717   1.18359  -0.03361   0.56414   0.92962
  29   28629.1    349.3   0.176930821   2.03456  -0.00665   0.41980   1.36319
  30   29047.8    344.3   0.003764291   0.04266  -0.06153  -0.14685  -0.13157
  31   29195.2    342.5   0.027448687   0.30952   0.23912   0.49715   0.07201
  32   29865.8    334.8   0.406336294   4.47907   0.40340  -1.54606  -1.38782
  33   30109.1    332.1   0.293003870   3.20370  -0.31612   1.24059   1.25088
  34   30815.4    324.5   0.224846132   2.40211   0.26464  -0.77319  -1.31691
  35   31086.4    321.7   0.038477262   0.40748   0.02443   0.38477   0.50876
  36   31222.2    320.3   0.157069604   1.65617   0.37538  -0.80542  -0.93089
  37   32282.7    309.8   0.254112782   2.59138   1.41997   0.33720   0.67924
  38   32342.6    309.2   0.145281329   1.47880  -0.73927  -0.53606  -0.80307
  39   33208.4    301.1   0.607415396   6.02162  -1.24101  -1.56541  -1.42513
  40   33441.1    299.0   0.006847405   0.06741   0.10454   0.15482   0.18031
  41   34374.3    290.9   0.012463610   0.11937   0.25380   0.13294   0.19308
  42   35107.1    284.8   0.186507108   1.74894   0.31200   0.86210   0.95310
  43   35182.7    284.2   0.000656744   0.00615  -0.03598   0.06960   0.00262
  44   35437.8    282.2   0.007074368   0.06572  -0.05121   0.02732   0.24970
  45   35634.0    280.6   0.003341291   0.03087   0.05210  -0.14584   0.08298
  46   35987.1    277.9   0.067023205   0.61313  -0.01420  -0.01899  -0.78267
  47   36255.7    275.8   0.159250176   1.44604  -0.08233   0.52310   1.07964
  48   36498.6    274.0   0.057457996   0.51826  -0.61494  -0.22199   0.30138
  49   36581.8    273.4   0.034766380   0.31287   0.13439  -0.42845  -0.33353
  50   37111.1    269.5   0.019864520   0.17622  -0.40804  -0.09651   0.02013
  51   37582.6    266.1   0.001286489   0.01127  -0.06646   0.04147  -0.07164
  52   37696.0    265.3   0.076409300   0.66731   0.54229   0.46296   0.39862
  53   38372.9    260.6   0.063038712   0.54083  -0.04694   0.71792   0.15234
  54   38735.3    258.2   0.049096653   0.41727  -0.15933   0.62281   0.06323
  55   38896.7    257.1   0.010044464   0.08501   0.15684   0.20430   0.13667
  56   39155.5    255.4   0.296272073   2.49100   0.60942  -1.42763  -0.28543
  57   39201.4    255.1   0.271317059   2.27851   0.01774  -1.42755  -0.49021
  58   39300.7    254.4   0.016502906   0.13824   0.25704  -0.26861  -0.00425
  59   39826.3    251.1   0.006487235   0.05362   0.05878   0.21865   0.04858
  60   39874.6    250.8   0.046424109   0.38329   0.05342  -0.54835  -0.28239
  61   40078.8    249.5   0.041878885   0.34400  -0.13159  -0.49462  -0.28641
  62   40288.2    248.2   0.211860218   1.73120  -0.98619   0.76287  -0.42030

FINAL SINGLE POINT ENERGY     -3658.186184541658

DIPOLE MOMENT
-------------
                                X             Y             Z
Electronic contribution:    -12.18713       8.03561      30.91308
Nuclear contribution   :     11.56957      -7.89461     -33.08649
                        -----------------------------------------
Total Dipole Moment    :     -0.61756       0.14100      -2.17341
                        -----------------------------------------
Magnitude (a.u.)       :      2.26384
Magnitude (Debye)      :      5.75424

Rotational constants in cm-1:     0.001284     0.000500     0.000420
Rotational constants in MHz :    38.482791    14.984115    12.583843

                             ****ORCA TERMINATED NORMALLY****
TOTAL RUN TIME: 0 days 0 hours 14 minutes 58 seconds 916 msec
