                         Program Version 4.2.0 -  RELEASE  -
|  1> # ORCA input file
|  2> # SCF done       -199.592087972862          0.000664696147
|  3> ! CAM-B3LYP def2-SVP def2/J RIJCOSX Grid4 TightSCF
|  4> %maxcore 5000
|  5> %tddft
|  6>     Mode sTDDFT
|  7>     Ethresh 5.0
|  8>     maxcore 5000
|  9> end
| 10>
| 11> %pal
| 12>   nprocs 6
| 13>   end
| 14> * xyz 0 1
| 15>    C        4.59203         3.06890        -0.33887
| 16>    C        5.03419         2.51532        -1.51468
| 17>    C        6.25578         1.82494        -1.65100
| 18>    N        7.23552         1.25367        -1.83251
| 19>    C        4.34493         2.53510        -2.74423
| 20>    N        3.84684         2.50050        -3.77907
| 21>    C        5.30387         3.01407         0.93623
| 22>    C        4.50506         3.65232         1.92825
| 23>    C        4.91060         3.75920         3.22659
| 24>    C        6.16383         3.22412         3.60189
| 25>    C        6.97057         2.58622         2.61686
| 26>    C        6.52035         2.48882         1.27887
| 27>    C        8.21975         2.05898         3.00056
| 28>    C        8.65360         2.15631         4.29509
| 29>    C        7.85831         2.78459         5.26427
| 30>    C        6.63942         3.30696         4.92488
| 31>    C        3.26541         4.13559         1.30352
| 32>    O        2.34847         4.71739         1.86525
| 33>    C        3.35530         3.78596        -0.11446
| 34>    C        2.42723         4.12911        -1.07017
| 35>    C        1.22971         4.83298        -0.93774
| 36>    S        0.50076         5.47562         0.52494
| 37>    C       -0.85569         6.13872        -0.33900
| 38>    C       -0.76614         5.87182        -1.71422
| 39>    C        0.40475         5.14129        -2.02418
| 40>    S        0.54577         4.78233        -3.70521
| 41>    C       -0.97696         5.58913        -3.99318
| 42>    C       -1.48093         5.62814        -5.36740
| 43>    O       -0.89502         5.16676        -6.31454
| 44>    O       -2.66849         6.25140        -5.43712
| 45>    C       -3.26815         6.32564        -6.73274
| 46>    C       -3.97111         5.02695        -7.09999
| 47>    C       -1.54988         6.10760        -2.86774
| 48>    C       -1.83979         6.86427         0.36531
| 49>    N       -2.80880         7.63453        -0.24774
| 50>    C       -3.56091         8.22315         0.71764
| 51>    C       -4.61916         9.09332         0.93674
| 52>    C       -4.77531         9.17076         2.33040
| 53>    N       -3.83647         8.36167         2.94001
| 54>    C       -3.07200         7.78291         1.97983
| 55>    C       -1.99105         6.94178         1.75899
| 56>    C       -5.69608         9.92011         3.09553
| 57>    C       -6.56575        10.83721         2.59332
| 58>    C       -7.46877        11.58666         3.37258
| 59>    S       -7.70911        11.35351         5.08254
| 60>    C       -8.94874        12.59108         5.18948
| 61>    C       -9.10008        13.21163         3.94139
| 62>    C       -8.28862        12.62197         2.94114
| 63>    S       -8.46249        13.39408         1.40265
| 64>    C       -9.56243        14.54184         2.11947
| 65>    C      -10.10266        15.58610         1.24387
| 66>    O       -9.84878        15.66795         0.06637
| 67>    O      -10.90761        16.42078         1.91011
| 68>    C      -11.48844        17.48590         1.15566
| 69>    C      -10.52646        18.65619         1.00979
| 70>    C       -9.79735        14.33766         3.44823
| 71>    C       -9.56200        12.81282         6.42701
| 72>    C      -10.80797        13.35453         6.64559
| 73>    C      -11.33792        13.75770         7.92674
| 74>    C      -10.62835        13.91075         9.09373
| 75>    C      -11.19788        14.32026        10.31546
| 76>    N      -11.60297        14.63834        11.34221
| 77>    C       -9.24080        13.70713         9.22895
| 78>    N       -8.11394        13.57636         9.41213
| 79>    C      -12.75563        14.05800         7.75129
| 80>    C      -13.09313        13.84882         6.38414
| 81>    C      -11.90088        13.38778         5.64906
| 82>    O      -11.86580        13.01888         4.49096
| 83>    C      -14.35467        14.06086         5.91080
| 84>    C      -15.35808        14.50734         6.80096
| 85>    C      -15.03119        14.71135         8.17196
| 86>    C      -13.71405        14.47853         8.63340
| 87>    C      -16.04096        15.14902         9.05220
| 88>    C      -17.31264        15.37842         8.60121
| 89>    C      -17.63251        15.18035         7.25023
| 90>    C      -16.67558        14.75421         6.36918
| 91>    H        4.28512         4.24792         3.95890
| 92>    H        7.15709         2.00110         0.55831
| 93>    H        8.82868         1.57579         2.25056
| 94>    H        9.61269         1.74939         4.57870
| 95>    H        8.21569         2.85316         6.28094
| 96>    H        6.02241         3.79233         5.66710
| 97>    H        2.63432         3.83963        -2.09398
| 98>    H       -2.49109         6.55525        -7.46900
| 99>    H       -3.97597         7.15435        -6.66580
|100>    H       -3.24513         4.22144        -7.17747
|101>    H       -4.46991         5.14324        -8.05769
|102>    H       -4.70826         4.76888        -6.34316
|103>    H       -2.50073         6.60671        -2.90129
|104>    H       -2.86822         7.79767        -1.23703
|105>    H       -5.21601         9.60617         0.21087
|106>    H       -3.73435         8.25712         3.93495
|107>    H       -1.37567         6.42989         2.47063
|108>    H       -5.68503         9.75732         4.16674
|109>    H       -6.58170        11.05277         1.53444
|110>    H      -12.37911        17.77375         1.71777
|111>    H      -11.77405        17.10632         0.16911
|112>    H      -10.20238        19.00207         1.98852
|113>    H      -11.02255        19.47112         0.49068
|114>    H       -9.65533        18.35153         0.43497
|115>    H      -10.42532        14.98564         4.02792
|116>    H       -9.00008        12.46806         7.28687
|117>    H      -14.58447        13.89478         4.86863
|118>    H      -13.49982        14.63739         9.67832
|119>    H      -15.78944        15.30136        10.09162
|120>    H      -18.07899        15.71424         9.28374
|121>    H      -18.64062        15.36632         6.91071
|122>    H      -16.91617        14.59889         5.32742
|123> *
|124>
|125>                          ****END OF INPUT****

CARTESIAN COORDINATES (ANGSTROEM)
---------------------------------
  C      4.592030    3.068900   -0.338870
  C      5.034190    2.515320   -1.514680
  C      6.255780    1.824940   -1.651000
  N      7.235520    1.253670   -1.832510
  C      4.344930    2.535100   -2.744230
  N      3.846840    2.500500   -3.779070
  C      5.303870    3.014070    0.936230
  C      4.505060    3.652320    1.928250
  C      4.910600    3.759200    3.226590
  C      6.163830    3.224120    3.601890
  C      6.970570    2.586220    2.616860
  C      6.520350    2.488820    1.278870
  C      8.219750    2.058980    3.000560
  C      8.653600    2.156310    4.295090
  C      7.858310    2.784590    5.264270
  C      6.639420    3.306960    4.924880
  C      3.265410    4.135590    1.303520
  O      2.348470    4.717390    1.865250
  C      3.355300    3.785960   -0.114460
  C      2.427230    4.129110   -1.070170
  C      1.229710    4.832980   -0.937740
  S      0.500760    5.475620    0.524940
  C     -0.855690    6.138720   -0.339000
  C     -0.766140    5.871820   -1.714220
  C      0.404750    5.141290   -2.024180
  S      0.545770    4.782330   -3.705210
  C     -0.976960    5.589130   -3.993180
  C     -1.480930    5.628140   -5.367400
  O     -0.895020    5.166760   -6.314540
  O     -2.668490    6.251400   -5.437120
  C     -3.268150    6.325640   -6.732740
  C     -3.971110    5.026950   -7.099990
  C     -1.549880    6.107600   -2.867740
  C     -1.839790    6.864270    0.365310
  N     -2.808800    7.634530   -0.247740
  C     -3.560910    8.223150    0.717640
  C     -4.619160    9.093320    0.936740
  C     -4.775310    9.170760    2.330400
  N     -3.836470    8.361670    2.940010
  C     -3.072000    7.782910    1.979830
  C     -1.991050    6.941780    1.758990
  C     -5.696080    9.920110    3.095530
  C     -6.565750   10.837210    2.593320
  C     -7.468770   11.586660    3.372580
  S     -7.709110   11.353510    5.082540
  C     -8.948740   12.591080    5.189480
  C     -9.100080   13.211630    3.941390
  C     -8.288620   12.621970    2.941140
  S     -8.462490   13.394080    1.402650
  C     -9.562430   14.541840    2.119470
  C    -10.102660   15.586100    1.243870
  O     -9.848780   15.667950    0.066370
  O    -10.907610   16.420780    1.910110
  C    -11.488440   17.485900    1.155660
  C    -10.526460   18.656190    1.009790
  C     -9.797350   14.337660    3.448230
  C     -9.562000   12.812820    6.427010
  C    -10.807970   13.354530    6.645590
  C    -11.337920   13.757700    7.926740
  C    -10.628350   13.910750    9.093730
  C    -11.197880   14.320260   10.315460
  N    -11.602970   14.638340   11.342210
  C     -9.240800   13.707130    9.228950
  N     -8.113940   13.576360    9.412130
  C    -12.755630   14.058000    7.751290
  C    -13.093130   13.848820    6.384140
  C    -11.900880   13.387780    5.649060
  O    -11.865800   13.018880    4.490960
  C    -14.354670   14.060860    5.910800
  C    -15.358080   14.507340    6.800960
  C    -15.031190   14.711350    8.171960
  C    -13.714050   14.478530    8.633400
  C    -16.040960   15.149020    9.052200
  C    -17.312640   15.378420    8.601210
  C    -17.632510   15.180350    7.250230
  C    -16.675580   14.754210    6.369180
  H      4.285120    4.247920    3.958900
  H      7.157090    2.001100    0.558310
  H      8.828680    1.575790    2.250560
  H      9.612690    1.749390    4.578700
  H      8.215690    2.853160    6.280940
  H      6.022410    3.792330    5.667100
  H      2.634320    3.839630   -2.093980
  H     -2.491090    6.555250   -7.469000
  H     -3.975970    7.154350   -6.665800
  H     -3.245130    4.221440   -7.177470
  H     -4.469910    5.143240   -8.057690
  H     -4.708260    4.768880   -6.343160
  H     -2.500730    6.606710   -2.901290
  H     -2.868220    7.797670   -1.237030
  H     -5.216010    9.606170    0.210870
  H     -3.734350    8.257120    3.934950
  H     -1.375670    6.429890    2.470630
  H     -5.685030    9.757320    4.166740
  H     -6.581700   11.052770    1.534440
  H    -12.379110   17.773750    1.717770
  H    -11.774050   17.106320    0.169110
  H    -10.202380   19.002070    1.988520
  H    -11.022550   19.471120    0.490680
  H     -9.655330   18.351530    0.434970
  H    -10.425320   14.985640    4.027920
  H     -9.000080   12.468060    7.286870
  H    -14.584470   13.894780    4.868630
  H    -13.499820   14.637390    9.678320
  H    -15.789440   15.301360   10.091620
  H    -18.078990   15.714240    9.283740
  H    -18.640620   15.366320    6.910710
  H    -16.916170   14.598890    5.327420

 Total Charge           Charge          ....    0
 Multiplicity           Mult            ....    1
 Number of Electrons    NEL             ....  546
 Basis Dimension        Dim             .... 1240

ORBITAL ENERGIES
----------------

  NO   OCC          E(Eh)            E(eV)
   0   2.0000     -88.977216     -2421.1932
   1   2.0000     -88.971334     -2421.0331
   2   2.0000     -88.969447     -2420.9817
   3   2.0000     -88.965830     -2420.8833
   4   2.0000     -19.264546      -524.2149
   5   2.0000     -19.264157      -524.2044
   6   2.0000     -19.214058      -522.8411
   7   2.0000     -19.210761      -522.7514
   8   2.0000     -19.210227      -522.7368
   9   2.0000     -19.206599      -522.6381
  10   2.0000     -14.479590      -394.0097
  11   2.0000     -14.479047      -393.9949
  12   2.0000     -14.408044      -392.0628
  13   2.0000     -14.407189      -392.0395
  14   2.0000     -14.406354      -392.0168
  15   2.0000     -14.403881      -391.9495
  16   2.0000     -10.411038      -283.2988
  17   2.0000     -10.410910      -283.2953
  18   2.0000     -10.361750      -281.9576
  19   2.0000     -10.358233      -281.8619
  20   2.0000     -10.335973      -281.2561
  21   2.0000     -10.332229      -281.1542
  22   2.0000     -10.331698      -281.1398
  23   2.0000     -10.331352      -281.1304
  24   2.0000     -10.331191      -281.1260
  25   2.0000     -10.330108      -281.0965
  26   2.0000     -10.329449      -281.0786
  27   2.0000     -10.329386      -281.0769
  28   2.0000     -10.328263      -281.0463
  29   2.0000     -10.327330      -281.0209
  30   2.0000     -10.322500      -280.8895
  31   2.0000     -10.320194      -280.8267
  32   2.0000     -10.318109      -280.7700
  33   2.0000     -10.317777      -280.7610
  34   2.0000     -10.317651      -280.7576
  35   2.0000     -10.317511      -280.7538
  36   2.0000     -10.317369      -280.7499
  37   2.0000     -10.316893      -280.7369
  38   2.0000     -10.316075      -280.7147
  39   2.0000     -10.315594      -280.7016
  40   2.0000     -10.311711      -280.5959
  41   2.0000     -10.310549      -280.5643
  42   2.0000     -10.310301      -280.5576
  43   2.0000     -10.309987      -280.5490
  44   2.0000     -10.307769      -280.4886
  45   2.0000     -10.306309      -280.4489
  46   2.0000     -10.304297      -280.3942
  47   2.0000     -10.303048      -280.3602
  48   2.0000     -10.300320      -280.2860
  49   2.0000     -10.296418      -280.1798
  50   2.0000     -10.295906      -280.1659
  51   2.0000     -10.295262      -280.1483
  52   2.0000     -10.292375      -280.0698
  53   2.0000     -10.291963      -280.0586
  54   2.0000     -10.291746      -280.0526
  55   2.0000     -10.291291      -280.0403
  56   2.0000     -10.291060      -280.0340
  57   2.0000     -10.290485      -280.0183
  58   2.0000     -10.290321      -280.0139
  59   2.0000     -10.290071      -280.0071
  60   2.0000     -10.289214      -279.9837
  61   2.0000     -10.287763      -279.9443
  62   2.0000     -10.287276      -279.9310
  63   2.0000     -10.286112      -279.8993
  64   2.0000     -10.282522      -279.8016
  65   2.0000     -10.282384      -279.7979
  66   2.0000     -10.282179      -279.7923
  67   2.0000     -10.281919      -279.7852
  68   2.0000     -10.281690      -279.7790
  69   2.0000     -10.281425      -279.7718
  70   2.0000     -10.281207      -279.7659
  71   2.0000     -10.280929      -279.7583
  72   2.0000     -10.280689      -279.7518
  73   2.0000     -10.280086      -279.7354
  74   2.0000     -10.263483      -279.2836
  75   2.0000     -10.263464      -279.2830
  76   2.0000      -8.072412      -219.6615
  77   2.0000      -8.064424      -219.4441
  78   2.0000      -8.063788      -219.4268
  79   2.0000      -8.061211      -219.3567
  80   2.0000      -6.041657      -164.4019
  81   2.0000      -6.037690      -164.2939
  82   2.0000      -6.034470      -164.2063
  83   2.0000      -6.034030      -164.1943
  84   2.0000      -6.033515      -164.1803
  85   2.0000      -6.030890      -164.1089
  86   2.0000      -6.029769      -164.0784
  87   2.0000      -6.028751      -164.0506
  88   2.0000      -6.026738      -163.9959
  89   2.0000      -6.025919      -163.9736
  90   2.0000      -6.025710      -163.9679
  91   2.0000      -6.022444      -163.8790
  92   2.0000      -1.196887       -32.5690
  93   2.0000      -1.196189       -32.5500
  94   2.0000      -1.128449       -30.7067
  95   2.0000      -1.121671       -30.5222
  96   2.0000      -1.111880       -30.2558
  97   2.0000      -1.104617       -30.0582
  98   2.0000      -1.104589       -30.0574
  99   2.0000      -1.075771       -29.2732
 100   2.0000      -1.023003       -27.8373
 101   2.0000      -1.020984       -27.7824
 102   2.0000      -1.010255       -27.4904
 103   2.0000      -1.009049       -27.4576
 104   2.0000      -0.991756       -26.9871
 105   2.0000      -0.991377       -26.9767
 106   2.0000      -0.985923       -26.8283
 107   2.0000      -0.984147       -26.7800
 108   2.0000      -0.967228       -26.3196
 109   2.0000      -0.965796       -26.2806
 110   2.0000      -0.962519       -26.1915
 111   2.0000      -0.959598       -26.1120
 112   2.0000      -0.931485       -25.3470
 113   2.0000      -0.921361       -25.0715
 114   2.0000      -0.916880       -24.9496
 115   2.0000      -0.909113       -24.7382
 116   2.0000      -0.900647       -24.5078
 117   2.0000      -0.889117       -24.1941
 118   2.0000      -0.887151       -24.1406
 119   2.0000      -0.881422       -23.9847
 120   2.0000      -0.876799       -23.8589
 121   2.0000      -0.874874       -23.8065
 122   2.0000      -0.874290       -23.7906
 123   2.0000      -0.871267       -23.7084
 124   2.0000      -0.867476       -23.6052
 125   2.0000      -0.851985       -23.1837
 126   2.0000      -0.848955       -23.1012
 127   2.0000      -0.835221       -22.7275
 128   2.0000      -0.831754       -22.6332
 129   2.0000      -0.826873       -22.5003
 130   2.0000      -0.822681       -22.3863
 131   2.0000      -0.822002       -22.3678
 132   2.0000      -0.813708       -22.1421
 133   2.0000      -0.803131       -21.8543
 134   2.0000      -0.790394       -21.5077
 135   2.0000      -0.764969       -20.8159
 136   2.0000      -0.762126       -20.7385
 137   2.0000      -0.755346       -20.5540
 138   2.0000      -0.754357       -20.5271
 139   2.0000      -0.752392       -20.4736
 140   2.0000      -0.741272       -20.1710
 141   2.0000      -0.719594       -19.5811
 142   2.0000      -0.714950       -19.4548
 143   2.0000      -0.707460       -19.2510
 144   2.0000      -0.705653       -19.2018
 145   2.0000      -0.703862       -19.1530
 146   2.0000      -0.698550       -19.0085
 147   2.0000      -0.698315       -19.0021
 148   2.0000      -0.696568       -18.9546
 149   2.0000      -0.692681       -18.8488
 150   2.0000      -0.689792       -18.7702
 151   2.0000      -0.676016       -18.3953
 152   2.0000      -0.669589       -18.2204
 153   2.0000      -0.666708       -18.1420
 154   2.0000      -0.664319       -18.0770
 155   2.0000      -0.651453       -17.7269
 156   2.0000      -0.645060       -17.5530
 157   2.0000      -0.635721       -17.2988
 158   2.0000      -0.634380       -17.2624
 159   2.0000      -0.633779       -17.2460
 160   2.0000      -0.631411       -17.1816
 161   2.0000      -0.628363       -17.0986
 162   2.0000      -0.622388       -16.9360
 163   2.0000      -0.615795       -16.7566
 164   2.0000      -0.607856       -16.5406
 165   2.0000      -0.600967       -16.3531
 166   2.0000      -0.600611       -16.3435
 167   2.0000      -0.595550       -16.2057
 168   2.0000      -0.593871       -16.1600
 169   2.0000      -0.585614       -15.9354
 170   2.0000      -0.582657       -15.8549
 171   2.0000      -0.576351       -15.6833
 172   2.0000      -0.574120       -15.6226
 173   2.0000      -0.567588       -15.4449
 174   2.0000      -0.567216       -15.4347
 175   2.0000      -0.563335       -15.3291
 176   2.0000      -0.557312       -15.1652
 177   2.0000      -0.555103       -15.1051
 178   2.0000      -0.553750       -15.0683
 179   2.0000      -0.550761       -14.9870
 180   2.0000      -0.547738       -14.9047
 181   2.0000      -0.545573       -14.8458
 182   2.0000      -0.543747       -14.7961
 183   2.0000      -0.540985       -14.7209
 184   2.0000      -0.540219       -14.7001
 185   2.0000      -0.537274       -14.6200
 186   2.0000      -0.533890       -14.5279
 187   2.0000      -0.532441       -14.4884
 188   2.0000      -0.530963       -14.4482
 189   2.0000      -0.530593       -14.4382
 190   2.0000      -0.526962       -14.3394
 191   2.0000      -0.525932       -14.3113
 192   2.0000      -0.521953       -14.2031
 193   2.0000      -0.520560       -14.1652
 194   2.0000      -0.519607       -14.1392
 195   2.0000      -0.517734       -14.0883
 196   2.0000      -0.515356       -14.0236
 197   2.0000      -0.512213       -13.9380
 198   2.0000      -0.510712       -13.8972
 199   2.0000      -0.506464       -13.7816
 200   2.0000      -0.505267       -13.7490
 201   2.0000      -0.504321       -13.7233
 202   2.0000      -0.496148       -13.5009
 203   2.0000      -0.494899       -13.4669
 204   2.0000      -0.493484       -13.4284
 205   2.0000      -0.490397       -13.3444
 206   2.0000      -0.488925       -13.3043
 207   2.0000      -0.488903       -13.3037
 208   2.0000      -0.487115       -13.2551
 209   2.0000      -0.486214       -13.2306
 210   2.0000      -0.483649       -13.1608
 211   2.0000      -0.481377       -13.0989
 212   2.0000      -0.480735       -13.0815
 213   2.0000      -0.472610       -12.8604
 214   2.0000      -0.470818       -12.8116
 215   2.0000      -0.469186       -12.7672
 216   2.0000      -0.467981       -12.7344
 217   2.0000      -0.467083       -12.7100
 218   2.0000      -0.462655       -12.5895
 219   2.0000      -0.459670       -12.5082
 220   2.0000      -0.458931       -12.4881
 221   2.0000      -0.454089       -12.3564
 222   2.0000      -0.453680       -12.3453
 223   2.0000      -0.442427       -12.0391
 224   2.0000      -0.441184       -12.0052
 225   2.0000      -0.440514       -11.9870
 226   2.0000      -0.439332       -11.9548
 227   2.0000      -0.438544       -11.9334
 228   2.0000      -0.436543       -11.8789
 229   2.0000      -0.435244       -11.8436
 230   2.0000      -0.433602       -11.7989
 231   2.0000      -0.433202       -11.7880
 232   2.0000      -0.430003       -11.7010
 233   2.0000      -0.427992       -11.6463
 234   2.0000      -0.427414       -11.6305
 235   2.0000      -0.426597       -11.6083
 236   2.0000      -0.425630       -11.5820
 237   2.0000      -0.423990       -11.5374
 238   2.0000      -0.421150       -11.4601
 239   2.0000      -0.418996       -11.4015
 240   2.0000      -0.418326       -11.3832
 241   2.0000      -0.417959       -11.3732
 242   2.0000      -0.417434       -11.3589
 243   2.0000      -0.416283       -11.3276
 244   2.0000      -0.412873       -11.2349
 245   2.0000      -0.411613       -11.2006
 246   2.0000      -0.403731       -10.9861
 247   2.0000      -0.400922       -10.9096
 248   2.0000      -0.396815       -10.7979
 249   2.0000      -0.392487       -10.6801
 250   2.0000      -0.384947       -10.4749
 251   2.0000      -0.381491       -10.3809
 252   2.0000      -0.380662       -10.3584
 253   2.0000      -0.378433       -10.2977
 254   2.0000      -0.370087       -10.0706
 255   2.0000      -0.367177        -9.9914
 256   2.0000      -0.363535        -9.8923
 257   2.0000      -0.363294        -9.8857
 258   2.0000      -0.348148        -9.4736
 259   2.0000      -0.338922        -9.2225
 260   2.0000      -0.334527        -9.1029
 261   2.0000      -0.329897        -8.9769
 262   2.0000      -0.323870        -8.8129
 263   2.0000      -0.319355        -8.6901
 264   2.0000      -0.317946        -8.6518
 265   2.0000      -0.311799        -8.4845
 266   2.0000      -0.309393        -8.4190
 267   2.0000      -0.308343        -8.3904
 268   2.0000      -0.298616        -8.1257
 269   2.0000      -0.289911        -7.8889
 270   2.0000      -0.286066        -7.7843
 271   2.0000      -0.263022        -7.1572
 272   2.0000      -0.228580        -6.2200
 273   0.0000      -0.109751        -2.9865
 274   0.0000      -0.087310        -2.3758
 275   0.0000      -0.059126        -1.6089
 276   0.0000      -0.053984        -1.4690
 277   0.0000      -0.049361        -1.3432

MULLIKEN ATOMIC CHARGES
-----------------------
   0 C :    0.340222
   1 C :   -0.365529
   2 C :   -0.183448
   3 N :    0.141790
   4 C :   -0.191706
   5 N :    0.142190
   6 C :    0.043490
   7 C :    0.000514
   8 C :   -0.086117
   9 C :    0.098890
  10 C :    0.096527
  11 C :   -0.087264
  12 C :   -0.021350
  13 C :    0.037062
  14 C :    0.035008
  15 C :   -0.017479
  16 C :    0.170166
  17 O :   -0.199140
  18 C :   -0.108457
  19 C :   -0.054059
  20 C :   -0.088531
  21 S :    0.202447
  22 C :   -0.066186
  23 C :    0.137816
  24 C :   -0.048744
  25 S :    0.210281
  26 C :   -0.158368
  27 C :    0.219867
  28 O :   -0.195235
  29 O :   -0.311485
  30 C :    0.172889
  31 C :   -0.027097
  32 C :   -0.015613
  33 C :    0.050806
  34 N :   -0.032596
  35 C :    0.118039
  36 C :   -0.158545
  37 C :    0.102671
  38 N :   -0.028443
  39 C :    0.125969
  40 C :   -0.165403
  41 C :    0.014428
  42 C :   -0.024217
  43 C :   -0.090343
  44 S :    0.147236
  45 C :   -0.135899
  46 C :    0.170679
  47 C :   -0.049798
  48 S :    0.169357
  49 C :   -0.157215
  50 C :    0.220394
  51 O :   -0.204867
  52 O :   -0.296744
  53 C :    0.176444
  54 C :   -0.027890
  55 C :    0.057257
  56 C :    0.021658
  57 C :   -0.117035
  58 C :    0.317491
  59 C :   -0.357213
  60 C :   -0.182350
  61 N :    0.141522
  62 C :   -0.207576
  63 N :    0.151253
  64 C :    0.051739
  65 C :   -0.005084
  66 C :    0.126040
  67 O :   -0.154578
  68 C :   -0.087617
  69 C :    0.099826
  70 C :    0.098366
  71 C :   -0.092415
  72 C :   -0.021043
  73 C :    0.034821
  74 C :    0.036951
  75 C :   -0.020011
  76 H :   -0.018697
  77 H :   -0.010405
  78 H :   -0.009523
  79 H :   -0.007576
  80 H :   -0.007754
  81 H :   -0.020879
  82 H :    0.008650
  83 H :    0.032459
  84 H :    0.021367
  85 H :    0.042243
  86 H :    0.024708
  87 H :    0.024121
  88 H :   -0.017297
  89 H :    0.125186
  90 H :   -0.024713
  91 H :    0.128046
  92 H :   -0.007619
  93 H :   -0.011757
  94 H :   -0.001802
  95 H :    0.024131
  96 H :    0.029454
  97 H :    0.026618
  98 H :    0.024549
  99 H :    0.037826
 100 H :    0.001981
 101 H :    0.021042
 102 H :   -0.017797
 103 H :   -0.009400
 104 H :   -0.010805
 105 H :   -0.006711
 106 H :   -0.008436
 107 H :   -0.020628
Sum of atomic charges:   -0.0000000

LOEWDIN ATOMIC CHARGES
----------------------
   0 C :    0.075920
   1 C :   -0.150940
   2 C :   -0.017415
   3 N :   -0.062836
   4 C :   -0.023060
   5 N :   -0.058106
   6 C :   -0.023193
   7 C :   -0.053735
   8 C :    0.027911
   9 C :   -0.010184
  10 C :   -0.007043
  11 C :    0.017471
  12 C :   -0.005865
  13 C :   -0.015317
  14 C :   -0.014940
  15 C :   -0.011234
  16 C :    0.085003
  17 O :   -0.183168
  18 C :   -0.118044
  19 C :    0.047968
  20 C :   -0.212664
  21 S :    0.524190
  22 C :   -0.146807
  23 C :   -0.098924
  24 C :   -0.152501
  25 S :    0.477070
  26 C :   -0.201270
  27 C :    0.066712
  28 O :   -0.172743
  29 O :   -0.096047
  30 C :    0.084811
  31 C :   -0.067975
  32 C :   -0.027985
  33 C :   -0.018765
  34 N :    0.072509
  35 C :   -0.006205
  36 C :   -0.081282
  37 C :    0.002997
  38 N :    0.075107
  39 C :   -0.013639
  40 C :   -0.072784
  41 C :   -0.013535
  42 C :   -0.048975
  43 C :   -0.155110
  44 S :    0.457629
  45 C :   -0.177432
  46 C :   -0.036423
  47 C :   -0.190528
  48 S :    0.437046
  49 C :   -0.185793
  50 C :    0.068110
  51 O :   -0.179629
  52 O :   -0.083801
  53 C :    0.086081
  54 C :   -0.067684
  55 C :    0.001336
  56 C :    0.040061
  57 C :   -0.111279
  58 C :    0.074857
  59 C :   -0.150618
  60 C :   -0.017953
  61 N :   -0.062502
  62 C :   -0.024212
  63 N :   -0.062027
  64 C :   -0.025203
  65 C :   -0.052934
  66 C :    0.073186
  67 O :   -0.147356
  68 C :    0.025721
  69 C :   -0.009406
  70 C :   -0.007878
  71 C :    0.016831
  72 C :   -0.006091
  73 C :   -0.016454
  74 C :   -0.014847
  75 C :   -0.011827
  76 H :    0.036770
  77 H :    0.038720
  78 H :    0.034534
  79 H :    0.032200
  80 H :    0.031701
  81 H :    0.030396
  82 H :    0.045304
  83 H :    0.023504
  84 H :    0.022569
  85 H :    0.033462
  86 H :    0.034039
  87 H :    0.026890
  88 H :    0.027974
  89 H :    0.088537
  90 H :    0.027780
  91 H :    0.093593
  92 H :    0.029820
  93 H :    0.027058
  94 H :    0.034860
  95 H :    0.024158
  96 H :    0.022514
  97 H :    0.027950
  98 H :    0.033747
  99 H :    0.031990
 100 H :    0.038202
 101 H :    0.043703
 102 H :    0.036909
 103 H :    0.038430
 104 H :    0.034090
 105 H :    0.032293
 106 H :    0.031472
 107 H :    0.030469

  Mayer bond orders larger than 0.100000
B(  0-C ,  1-C ) :   1.6036 B(  0-C ,  6-C ) :   0.9775 B(  0-C , 18-C ) :   1.0962
B(  1-C ,  2-C ) :   1.1537 B(  1-C ,  4-C ) :   1.1479 B(  2-C ,  3-N ) :   2.9582
B(  4-C ,  5-N ) :   2.9563 B(  6-C ,  7-C ) :   1.2151 B(  6-C , 11-C ) :   1.4605
B(  7-C ,  8-C ) :   1.4738 B(  7-C , 16-C ) :   0.9591 B(  8-C ,  9-C ) :   1.1709
B(  8-C , 76-H ) :   1.0161 B(  9-C , 10-C ) :   1.2607 B(  9-C , 15-C ) :   1.2476
B( 10-C , 11-C ) :   1.1967 B( 10-C , 12-C ) :   1.2434 B( 11-C , 77-H ) :   0.9894
B( 12-C , 13-C ) :   1.4860 B( 12-C , 78-H ) :   0.9969 B( 13-C , 14-C ) :   1.2629
B( 13-C , 79-H ) :   0.9881 B( 14-C , 15-C ) :   1.4848 B( 14-C , 80-H ) :   0.9890
B( 15-C , 81-H ) :   0.9971 B( 16-C , 17-O ) :   2.0991 B( 16-C , 18-C ) :   0.9939
B( 18-C , 19-C ) :   1.4576 B( 19-C , 20-C ) :   1.3176 B( 19-C , 82-H ) :   0.9403
B( 20-C , 21-S ) :   1.0597 B( 20-C , 24-C ) :   1.3585 B( 21-S , 22-C ) :   1.1554
B( 22-C , 23-C ) :   1.2683 B( 22-C , 33-C ) :   1.1733 B( 23-C , 24-C ) :   1.2888
B( 23-C , 32-C ) :   1.1319 B( 24-C , 25-S ) :   1.1116 B( 25-S , 26-C ) :   1.0804
B( 26-C , 27-C ) :   0.9631 B( 26-C , 32-C ) :   1.6277 B( 27-C , 28-O ) :   2.1277
B( 27-C , 29-O ) :   1.2327 B( 29-O , 30-C ) :   0.9007 B( 30-C , 31-C ) :   1.1201
B( 30-C , 83-H ) :   0.9459 B( 30-C , 84-H ) :   0.9620 B( 31-C , 85-H ) :   0.9669
B( 31-C , 86-H ) :   0.9643 B( 31-C , 87-H ) :   0.9668 B( 32-C , 88-H ) :   0.9886
B( 33-C , 34-N ) :   1.2018 B( 33-C , 40-C ) :   1.3670 B( 34-N , 35-C ) :   1.1704
B( 34-N , 89-H ) :   0.9296 B( 35-C , 36-C ) :   1.2816 B( 35-C , 39-C ) :   1.2832
B( 36-C , 37-C ) :   1.3776 B( 36-C , 90-H ) :   1.0310 B( 37-C , 38-N ) :   1.1705
B( 37-C , 41-C ) :   1.1426 B( 38-N , 39-C ) :   1.1728 B( 38-N , 91-H ) :   0.9346
B( 39-C , 40-C ) :   1.2823 B( 40-C , 92-H ) :   1.0277 B( 41-C , 42-C ) :   1.6117
B( 41-C , 93-H ) :   0.9643 B( 42-C , 43-C ) :   1.1945 B( 42-C , 94-H ) :   0.9758
B( 43-C , 44-S ) :   1.1480 B( 43-C , 47-C ) :   1.4195 B( 44-S , 45-C ) :   1.0820
B( 45-C , 46-C ) :   1.3113 B( 45-C , 56-C ) :   1.2731 B( 46-C , 47-C ) :   1.2840
B( 46-C , 55-C ) :   1.1557 B( 47-C , 48-S ) :   1.0447 B( 48-S , 49-C ) :   1.0881
B( 49-C , 50-C ) :   0.9561 B( 49-C , 55-C ) :   1.6018 B( 50-C , 51-O ) :   2.1201
B( 50-C , 52-O ) :   1.2534 B( 52-O , 53-C ) :   0.9003 B( 53-C , 54-C ) :   1.1211
B( 53-C , 95-H ) :   0.9615 B( 53-C , 96-H ) :   0.9455 B( 54-C , 97-H ) :   0.9671
B( 54-C , 98-H ) :   0.9646 B( 54-C , 99-H ) :   0.9670 B( 55-C ,100-H ) :   0.9929
B( 56-C , 57-C ) :   1.4996 B( 56-C ,101-H ) :   0.9307 B( 57-C , 58-C ) :   1.1002
B( 57-C , 66-C ) :   0.9655 B( 58-C , 59-C ) :   1.6095 B( 58-C , 64-C ) :   0.9822
B( 59-C , 60-C ) :   1.1507 B( 59-C , 62-C ) :   1.1469 B( 60-C , 61-N ) :   2.9613
B( 62-C , 63-N ) :   2.9866 B( 64-C , 65-C ) :   1.2170 B( 64-C , 71-C ) :   1.4557
B( 65-C , 66-C ) :   0.9325 B( 65-C , 68-C ) :   1.4805 B( 66-C , 67-O ) :   2.2033
B( 68-C , 69-C ) :   1.1708 B( 68-C ,102-H ) :   1.0161 B( 69-C , 70-C ) :   1.2633
B( 69-C , 75-C ) :   1.2459 B( 70-C , 71-C ) :   1.1976 B( 70-C , 72-C ) :   1.2427
B( 71-C ,103-H ) :   0.9898 B( 72-C , 73-C ) :   1.4870 B( 72-C ,104-H ) :   0.9969
B( 73-C , 74-C ) :   1.2639 B( 73-C ,105-H ) :   0.9873 B( 74-C , 75-C ) :   1.4872
B( 74-C ,106-H ) :   0.9878 B( 75-C ,107-H ) :   0.9972

-----------------------------------------------------------------------------
         ABSORPTION SPECTRUM VIA TRANSITION ELECTRIC DIPOLE MOMENTS
-----------------------------------------------------------------------------
State   Energy  Wavelength   fosc         T2         TX        TY        TZ
        (cm-1)    (nm)                  (au**2)     (au)      (au)      (au)
-----------------------------------------------------------------------------
   0   12250.4    816.3   2.394941281  64.36042   6.12016  -4.03836  -3.25511
   1   17573.3    569.0   0.325681738   6.10122  -1.55984   1.00523  -1.63023
   2   20743.5    482.1   0.067397191   1.06963  -0.21110  -0.21342   0.98971
   3   23749.7    421.1   0.010042712   0.13921  -0.14237   0.22214  -0.26381
   4   23963.0    417.3   0.000161695   0.00222   0.04062   0.01592  -0.01785
   5   24240.5    412.5   0.146458941   1.98907   0.21249  -0.65316  -1.23179
   6   24891.5    401.7   0.021675066   0.28667   0.14711   0.17419   0.48445
   7   25241.0    396.2   0.073786437   0.96238  -0.54110   0.08807  -0.81353
   8   25760.6    388.2   0.058152876   0.74317  -0.80739  -0.12976   0.27286
   9   27138.9    368.5   0.121732547   1.47669  -0.75791  -0.12857  -0.94114
  10   28014.0    357.0   0.010863517   0.12766  -0.30629  -0.15648  -0.09679
  11   28152.8    355.2   0.012326481   0.14414   0.22199   0.14464   0.27192
  12   28297.8    353.4   0.003780513   0.04398  -0.08055   0.18973  -0.03867
  13   29099.4    343.6   0.058926221   0.66665  -0.49315   0.57873  -0.29755
  14   29311.4    341.2   0.037553123   0.42178  -0.37851   0.42560  -0.31205
  15   29845.8    335.1   0.070134289   0.77361   0.32937  -0.80385   0.13769
  16   30370.4    329.3   0.076530303   0.82958  -0.04109  -0.46850   0.78000
  17   30901.4    323.6   0.009308011   0.09916  -0.17508   0.22209  -0.13851
  18   31493.2    317.5   0.172731258   1.80563  -0.91891   0.94931  -0.24506
  19   31579.8    316.7   0.098730909   1.02925   0.85495   0.06430   0.54238
  20   32081.5    311.7   0.007205454   0.07394   0.00753   0.26954  -0.03512
  21   32859.9    304.3   0.052351201   0.52449  -0.65380   0.26568   0.16262
  22   33018.8    302.9   0.858395007   8.55857  -1.98621   0.21338  -2.13729
  23   33201.7    301.2   0.219260610   2.17408  -1.04590   0.41908   0.95107
  24   33476.0    298.7   0.332250531   3.26744  -1.40680   0.36936   1.07328
  25   33673.0    297.0   0.002674373   0.02615  -0.01440  -0.05322   0.15201
  26   33725.6    296.5   0.007206358   0.07034  -0.20050   0.12841   0.11685
  27   33913.5    294.9   0.022576797   0.21916  -0.10685  -0.04884   0.45317
  28   34134.5    293.0   0.145426076   1.40257   0.45089  -0.11810   1.08872
  29   34624.9    288.8   0.089920374   0.85496   0.88396  -0.11980   0.24333
  30   34907.9    286.5   0.056779049   0.53548   0.43861  -0.20850   0.54737
  31   35597.5    280.9   0.340166034   3.14592  -0.98354   0.17582  -1.46549
  32   36360.3    275.0   0.009945626   0.09005  -0.26642  -0.08749   0.10684
  33   37172.6    269.0   0.040929634   0.36249   0.08873   0.08755   0.58902
  34   37288.9    268.2   0.048210751   0.42564  -0.09192  -0.01539  -0.64572
  35   37918.5    263.7   0.212221627   1.84253  -1.01865   0.03517  -0.89646
  36   38188.8    261.9   0.098976759   0.85324   0.05048   0.32232   0.86418
  37   38321.8    260.9   0.279493183   2.40105   0.12981  -0.26982  -1.52033
  38   38562.2    259.3   0.024070702   0.20550  -0.18156   0.40520   0.09135
  39   38995.8    256.4   0.010808587   0.09125  -0.10564  -0.02120   0.28221
  40   39245.1    254.8   0.038440273   0.32246   0.46298  -0.31930   0.07848
  41   39422.7    253.7   0.055356633   0.46227   0.53689  -0.31568   0.27271
  42   39540.2    252.9   0.335482772   2.79323  -1.32848   0.51528  -0.87341
  43   39897.9    250.6   0.026032925   0.21481  -0.30971   0.14864   0.31112
  44   40057.8    249.6   0.089376945   0.73454  -0.00498   0.04786  -0.85570

FINAL SINGLE POINT ENERGY     -4673.894723705817

DIPOLE MOMENT
-------------
                                X             Y             Z
Electronic contribution:     30.43921     -23.40551      13.20163
Nuclear contribution   :    -33.11630      24.80604     -12.83121
                        -----------------------------------------
Total Dipole Moment    :     -2.67709       1.40053       0.37042
                        -----------------------------------------
Magnitude (a.u.)       :      3.04393
Magnitude (Debye)      :      7.73706

Rotational constants in cm-1:     0.001241     0.000192     0.000172
Rotational constants in MHz :    37.201702     5.760234     5.153174

                             ****ORCA TERMINATED NORMALLY****
TOTAL RUN TIME: 0 days 0 hours 10 minutes 29 seconds 689 msec
