                         Program Version 4.2.0 -  RELEASE  -
|  1> # ORCA input file
|  2> # SCF done       -204.470046667171          0.000259640718
|  3> ! CAM-B3LYP def2-SVP def2/J RIJCOSX Grid4 TightSCF
|  4> %maxcore 5000
|  5> %tddft
|  6>     Mode sTDDFT
|  7>     Ethresh 5.0
|  8>     maxcore 5000
|  9> end
| 10>
| 11> %pal
| 12>   nprocs 6
| 13>   end
| 14> * xyz 0 1
| 15>    C       -4.41101         5.99259        -6.58686
| 16>    C       -3.09881         6.17547        -6.22377
| 17>    C       -2.17533         6.94195        -6.96173
| 18>    N       -1.37884         7.56037        -7.51082
| 19>    C       -2.49773         5.54016        -5.12286
| 20>    N       -1.97337         5.02909        -4.23728
| 21>    C       -4.98384         6.38488        -7.87201
| 22>    C       -6.17454         5.63041        -8.08361
| 23>    C       -6.90570         5.75131        -9.22923
| 24>    C       -6.47922         6.65823       -10.22653
| 25>    C       -5.30166         7.43021       -10.01130
| 26>    C       -4.55834         7.27699        -8.81724
| 27>    C       -4.89249         8.33697       -11.00942
| 28>    C       -5.60818         8.47332       -12.16791
| 29>    C       -6.76627         7.71126       -12.38012
| 30>    C       -7.19243         6.82315       -11.42991
| 31>    C       -6.42982         4.78671        -6.90153
| 32>    O       -7.31974         3.98227        -6.73526
| 33>    C       -5.38387         5.17026        -5.91420
| 34>    C       -5.53732         4.79214        -4.60937
| 35>    C       -4.93930         5.33500        -3.46140
| 36>    S       -4.99826         4.47739        -1.93144
| 37>    C       -4.11617         5.69143        -1.05797
| 38>    C       -3.81326         6.74918        -1.91687
| 39>    C       -4.27769         6.53501        -3.24042
| 40>    O       -3.97345         7.57119        -4.03589
| 41>    C       -3.27047         8.44976        -3.24477
| 42>    C       -2.79781         9.64480        -3.80799
| 43>    N       -2.41030        10.63264        -4.24303
| 44>    C       -3.13773         8.00010        -1.95711
| 45>    C       -3.73430         5.52375         0.30915
| 46>    C       -3.31347         6.61072         1.04480
| 47>    C       -2.77458         6.41637         2.32725
| 48>    C       -2.17703         7.32420         3.19155
| 49>    C       -2.07570         8.79226         2.94531
| 50>    C       -2.23167         9.64373         4.21641
| 51>    N       -2.92035        10.87762         3.88143
| 52>    C       -0.76756         9.13672         2.20129
| 53>    N       -0.82044         8.62796         0.84114
| 54>    C       -1.64987         6.55269         4.29209
| 55>    C       -0.85682         6.88635         5.32790
| 56>    C       -0.37094         5.87537         6.30749
| 57>    C       -0.91024         4.49153         6.09715
| 58>    C       -1.67785         4.16496         5.04252
| 59>    C       -2.03878         5.14404         4.08639
| 60>    C       -2.70527         5.07234         2.88249
| 61>    C       -3.24965         3.99202         2.14393
| 62>    C       -3.74311         4.21454         0.90193
| 63>    C       -0.67580         6.31148         7.71415
| 64>    C        0.19292         6.18702         8.72369
| 65>    C       -0.07610         6.55601        10.07674
| 66>    S       -1.51757         7.38728        10.59879
| 67>    C       -1.01341         7.43441        12.27946
| 68>    C        0.24134         6.81355        12.39704
| 69>    C        0.74906         6.34187        11.16702
| 70>    O        1.95265         5.76034        11.33151
| 71>    C        2.22340         5.85500        12.66878
| 72>    C        3.42902         5.32893        13.16178
| 73>    N        4.40767         4.90482        13.58220
| 74>    C        1.21952         6.48574        13.36587
| 75>    C       -1.68546         7.98244        13.37257
| 76>    C       -2.88665         8.64573        13.42829
| 77>    C       -3.50820         9.19472        14.61566
| 78>    C       -3.04687         9.11929        15.90621
| 79>    C       -3.71755         9.66982        17.01816
| 80>    N       -4.21182        10.09108        17.96498
| 81>    C       -1.85446         8.48868        16.31495
| 82>    N       -0.89732         7.99779        16.71971
| 83>    C       -4.74179         9.85388        14.19597
| 84>    C       -4.88310         9.69984        12.78594
| 85>    C       -3.73833         8.93529        12.27199
| 86>    O       -3.53562         8.61136        11.11150
| 87>    C       -5.94370        10.22198        12.10404
| 88>    C       -6.93198        10.94058        12.81431
| 89>    C       -6.79885        11.09992        14.22358
| 90>    C       -5.68932        10.54426        14.90283
| 91>    C       -7.78782        11.82113        14.92191
| 92>    C       -8.85789        12.36146        14.26121
| 93>    C       -8.98798        12.20419        12.87368
| 94>    C       -8.04569        11.50812        12.16545
| 95>    H       -7.79951         5.16298        -9.37517
| 96>    H       -3.67455         7.87946        -8.67577
| 97>    H       -3.99840         8.91954       -10.84226
| 98>    H       -5.28490         9.16927       -12.92760
| 99>    H       -7.31943         7.83125       -13.29975
|100>    H       -8.08397         6.23371       -11.58760
|101>    H       -6.27397         4.01329        -4.43931
|102>    H       -2.60424         8.50183        -1.17407
|103>    H       -3.36941         7.60539         0.63796
|104>    H       -2.89899         9.07638         2.28283
|105>    H       -1.24357         9.81328         4.67825
|106>    H       -2.85733         9.10985         4.93679
|107>    H       -2.37100        11.42940         3.23127
|108>    H       -3.07696        11.43825         4.71117
|109>    H        0.08796         8.75100         2.78232
|110>    H       -0.67221        10.22434         2.13711
|111>    H       -0.80602         7.61266         0.84778
|112>    H       -0.01340         8.94331         0.31380
|113>    H       -0.51863         7.89924         5.49028
|114>    H        0.72564         5.82328         6.20833
|115>    H       -0.62693         3.76057         6.83843
|116>    H       -2.02141         3.14996         4.90570
|117>    H       -3.24477         2.99929         2.56837
|118>    H       -4.13498         3.40052         0.31008
|119>    H       -1.67003         6.69557         7.89247
|120>    H        1.17999         5.77471         8.55039
|121>    H        1.20337         6.67533        14.42010
|122>    H       -1.14566         7.85769        14.30278
|123>    H       -6.02757        10.09130        11.03531
|124>    H       -5.61842        10.68436        15.96960
|125>    H       -7.68319        11.93938        15.99043
|126>    H       -9.60971        12.91333        14.80510
|127>    H       -9.83808        12.63723        12.36814
|128>    H       -8.14085        11.38381        11.09660
|129> *
|130>
|131>                          ****END OF INPUT****

CARTESIAN COORDINATES (ANGSTROEM)
---------------------------------
  C     -4.411010    5.992590   -6.586860
  C     -3.098810    6.175470   -6.223770
  C     -2.175330    6.941950   -6.961730
  N     -1.378840    7.560370   -7.510820
  C     -2.497730    5.540160   -5.122860
  N     -1.973370    5.029090   -4.237280
  C     -4.983840    6.384880   -7.872010
  C     -6.174540    5.630410   -8.083610
  C     -6.905700    5.751310   -9.229230
  C     -6.479220    6.658230  -10.226530
  C     -5.301660    7.430210  -10.011300
  C     -4.558340    7.276990   -8.817240
  C     -4.892490    8.336970  -11.009420
  C     -5.608180    8.473320  -12.167910
  C     -6.766270    7.711260  -12.380120
  C     -7.192430    6.823150  -11.429910
  C     -6.429820    4.786710   -6.901530
  O     -7.319740    3.982270   -6.735260
  C     -5.383870    5.170260   -5.914200
  C     -5.537320    4.792140   -4.609370
  C     -4.939300    5.335000   -3.461400
  S     -4.998260    4.477390   -1.931440
  C     -4.116170    5.691430   -1.057970
  C     -3.813260    6.749180   -1.916870
  C     -4.277690    6.535010   -3.240420
  O     -3.973450    7.571190   -4.035890
  C     -3.270470    8.449760   -3.244770
  C     -2.797810    9.644800   -3.807990
  N     -2.410300   10.632640   -4.243030
  C     -3.137730    8.000100   -1.957110
  C     -3.734300    5.523750    0.309150
  C     -3.313470    6.610720    1.044800
  C     -2.774580    6.416370    2.327250
  C     -2.177030    7.324200    3.191550
  C     -2.075700    8.792260    2.945310
  C     -2.231670    9.643730    4.216410
  N     -2.920350   10.877620    3.881430
  C     -0.767560    9.136720    2.201290
  N     -0.820440    8.627960    0.841140
  C     -1.649870    6.552690    4.292090
  C     -0.856820    6.886350    5.327900
  C     -0.370940    5.875370    6.307490
  C     -0.910240    4.491530    6.097150
  C     -1.677850    4.164960    5.042520
  C     -2.038780    5.144040    4.086390
  C     -2.705270    5.072340    2.882490
  C     -3.249650    3.992020    2.143930
  C     -3.743110    4.214540    0.901930
  C     -0.675800    6.311480    7.714150
  C      0.192920    6.187020    8.723690
  C     -0.076100    6.556010   10.076740
  S     -1.517570    7.387280   10.598790
  C     -1.013410    7.434410   12.279460
  C      0.241340    6.813550   12.397040
  C      0.749060    6.341870   11.167020
  O      1.952650    5.760340   11.331510
  C      2.223400    5.855000   12.668780
  C      3.429020    5.328930   13.161780
  N      4.407670    4.904820   13.582200
  C      1.219520    6.485740   13.365870
  C     -1.685460    7.982440   13.372570
  C     -2.886650    8.645730   13.428290
  C     -3.508200    9.194720   14.615660
  C     -3.046870    9.119290   15.906210
  C     -3.717550    9.669820   17.018160
  N     -4.211820   10.091080   17.964980
  C     -1.854460    8.488680   16.314950
  N     -0.897320    7.997790   16.719710
  C     -4.741790    9.853880   14.195970
  C     -4.883100    9.699840   12.785940
  C     -3.738330    8.935290   12.271990
  O     -3.535620    8.611360   11.111500
  C     -5.943700   10.221980   12.104040
  C     -6.931980   10.940580   12.814310
  C     -6.798850   11.099920   14.223580
  C     -5.689320   10.544260   14.902830
  C     -7.787820   11.821130   14.921910
  C     -8.857890   12.361460   14.261210
  C     -8.987980   12.204190   12.873680
  C     -8.045690   11.508120   12.165450
  H     -7.799510    5.162980   -9.375170
  H     -3.674550    7.879460   -8.675770
  H     -3.998400    8.919540  -10.842260
  H     -5.284900    9.169270  -12.927600
  H     -7.319430    7.831250  -13.299750
  H     -8.083970    6.233710  -11.587600
  H     -6.273970    4.013290   -4.439310
  H     -2.604240    8.501830   -1.174070
  H     -3.369410    7.605390    0.637960
  H     -2.898990    9.076380    2.282830
  H     -1.243570    9.813280    4.678250
  H     -2.857330    9.109850    4.936790
  H     -2.371000   11.429400    3.231270
  H     -3.076960   11.438250    4.711170
  H      0.087960    8.751000    2.782320
  H     -0.672210   10.224340    2.137110
  H     -0.806020    7.612660    0.847780
  H     -0.013400    8.943310    0.313800
  H     -0.518630    7.899240    5.490280
  H      0.725640    5.823280    6.208330
  H     -0.626930    3.760570    6.838430
  H     -2.021410    3.149960    4.905700
  H     -3.244770    2.999290    2.568370
  H     -4.134980    3.400520    0.310080
  H     -1.670030    6.695570    7.892470
  H      1.179990    5.774710    8.550390
  H      1.203370    6.675330   14.420100
  H     -1.145660    7.857690   14.302780
  H     -6.027570   10.091300   11.035310
  H     -5.618420   10.684360   15.969600
  H     -7.683190   11.939380   15.990430
  H     -9.609710   12.913330   14.805100
  H     -9.838080   12.637230   12.368140
  H     -8.140850   11.383810   11.096600

 Total Charge           Charge          ....    0
 Multiplicity           Mult            ....    1
 Number of Electrons    NEL             ....  550
 Basis Dimension        Dim             .... 1298

ORBITAL ENERGIES
----------------

  NO   OCC          E(Eh)            E(eV)
   0   2.0000     -88.985724     -2421.4247
   1   2.0000     -88.979542     -2421.2564
   2   2.0000     -19.323245      -525.8122
   3   2.0000     -19.314175      -525.5654
   4   2.0000     -19.227929      -523.2186
   5   2.0000     -19.204697      -522.5864
   6   2.0000     -14.432746      -392.7350
   7   2.0000     -14.423661      -392.4878
   8   2.0000     -14.418041      -392.3348
   9   2.0000     -14.416980      -392.3060
  10   2.0000     -14.406824      -392.0296
  11   2.0000     -14.404505      -391.9665
  12   2.0000     -14.398547      -391.8044
  13   2.0000     -14.388119      -391.5206
  14   2.0000     -10.392315      -282.7893
  15   2.0000     -10.375058      -282.3197
  16   2.0000     -10.373752      -282.2841
  17   2.0000     -10.358989      -281.8824
  18   2.0000     -10.357723      -281.8480
  19   2.0000     -10.355787      -281.7953
  20   2.0000     -10.345751      -281.5222
  21   2.0000     -10.344721      -281.4942
  22   2.0000     -10.335166      -281.2342
  23   2.0000     -10.334433      -281.2142
  24   2.0000     -10.333562      -281.1905
  25   2.0000     -10.331675      -281.1392
  26   2.0000     -10.330529      -281.1080
  27   2.0000     -10.330025      -281.0943
  28   2.0000     -10.327674      -281.0303
  29   2.0000     -10.326931      -281.0101
  30   2.0000     -10.321049      -280.8500
  31   2.0000     -10.320289      -280.8294
  32   2.0000     -10.319893      -280.8186
  33   2.0000     -10.316934      -280.7380
  34   2.0000     -10.316537      -280.7273
  35   2.0000     -10.316434      -280.7244
  36   2.0000     -10.316111      -280.7157
  37   2.0000     -10.312281      -280.6114
  38   2.0000     -10.310150      -280.5534
  39   2.0000     -10.308746      -280.5152
  40   2.0000     -10.307312      -280.4762
  41   2.0000     -10.307251      -280.4746
  42   2.0000     -10.307098      -280.4704
  43   2.0000     -10.306679      -280.4590
  44   2.0000     -10.303202      -280.3644
  45   2.0000     -10.302400      -280.3426
  46   2.0000     -10.302065      -280.3334
  47   2.0000     -10.301718      -280.3240
  48   2.0000     -10.300943      -280.3029
  49   2.0000     -10.300677      -280.2957
  50   2.0000     -10.299892      -280.2743
  51   2.0000     -10.299058      -280.2516
  52   2.0000     -10.295211      -280.1469
  53   2.0000     -10.294062      -280.1157
  54   2.0000     -10.292526      -280.0739
  55   2.0000     -10.291866      -280.0559
  56   2.0000     -10.290917      -280.0301
  57   2.0000     -10.290431      -280.0169
  58   2.0000     -10.289922      -280.0030
  59   2.0000     -10.289419      -279.9893
  60   2.0000     -10.288305      -279.9590
  61   2.0000     -10.288223      -279.9568
  62   2.0000     -10.287965      -279.9498
  63   2.0000     -10.287632      -279.9407
  64   2.0000     -10.286508      -279.9101
  65   2.0000     -10.286488      -279.9096
  66   2.0000     -10.285527      -279.8834
  67   2.0000     -10.285447      -279.8813
  68   2.0000     -10.284575      -279.8575
  69   2.0000     -10.283487      -279.8279
  70   2.0000     -10.279104      -279.7086
  71   2.0000     -10.278927      -279.7038
  72   2.0000     -10.278641      -279.6960
  73   2.0000     -10.278181      -279.6835
  74   2.0000     -10.277673      -279.6697
  75   2.0000     -10.277310      -279.6598
  76   2.0000     -10.276962      -279.6504
  77   2.0000     -10.276934      -279.6496
  78   2.0000     -10.276506      -279.6380
  79   2.0000     -10.275156      -279.6012
  80   2.0000      -8.078031      -219.8144
  81   2.0000      -8.074264      -219.7119
  82   2.0000      -6.047591      -164.5633
  83   2.0000      -6.043597      -164.4546
  84   2.0000      -6.042950      -164.4370
  85   2.0000      -6.040197      -164.3621
  86   2.0000      -6.039428      -164.3412
  87   2.0000      -6.036402      -164.2589
  88   2.0000      -1.242221       -33.8025
  89   2.0000      -1.232613       -33.5411
  90   2.0000      -1.142001       -31.0754
  91   2.0000      -1.119340       -30.4588
  92   2.0000      -1.023653       -27.8550
  93   2.0000      -1.014765       -27.6132
  94   2.0000      -1.011204       -27.5163
  95   2.0000      -1.010246       -27.4902
  96   2.0000      -1.005622       -27.3644
  97   2.0000      -1.004529       -27.3346
  98   2.0000      -0.999357       -27.1939
  99   2.0000      -0.997901       -27.1543
 100   2.0000      -0.997394       -27.1405
 101   2.0000      -0.988781       -26.9061
 102   2.0000      -0.983890       -26.7730
 103   2.0000      -0.980592       -26.6833
 104   2.0000      -0.976303       -26.5666
 105   2.0000      -0.965668       -26.2772
 106   2.0000      -0.963133       -26.2082
 107   2.0000      -0.960586       -26.1389
 108   2.0000      -0.943286       -25.6681
 109   2.0000      -0.931806       -25.3557
 110   2.0000      -0.929613       -25.2961
 111   2.0000      -0.922769       -25.1098
 112   2.0000      -0.912815       -24.8390
 113   2.0000      -0.911460       -24.8021
 114   2.0000      -0.897697       -24.4276
 115   2.0000      -0.893238       -24.3062
 116   2.0000      -0.887923       -24.1616
 117   2.0000      -0.884912       -24.0797
 118   2.0000      -0.882173       -24.0051
 119   2.0000      -0.872458       -23.7408
 120   2.0000      -0.870556       -23.6890
 121   2.0000      -0.867606       -23.6087
 122   2.0000      -0.862706       -23.4754
 123   2.0000      -0.853571       -23.2268
 124   2.0000      -0.845858       -23.0170
 125   2.0000      -0.841043       -22.8859
 126   2.0000      -0.832968       -22.6662
 127   2.0000      -0.825307       -22.4577
 128   2.0000      -0.818885       -22.2830
 129   2.0000      -0.809273       -22.0214
 130   2.0000      -0.789839       -21.4926
 131   2.0000      -0.775863       -21.1123
 132   2.0000      -0.772853       -21.0304
 133   2.0000      -0.768555       -20.9134
 134   2.0000      -0.767160       -20.8755
 135   2.0000      -0.756031       -20.5727
 136   2.0000      -0.751797       -20.4574
 137   2.0000      -0.746669       -20.3179
 138   2.0000      -0.736606       -20.0441
 139   2.0000      -0.730193       -19.8696
 140   2.0000      -0.715587       -19.4721
 141   2.0000      -0.710827       -19.3426
 142   2.0000      -0.706883       -19.2353
 143   2.0000      -0.703833       -19.1523
 144   2.0000      -0.703360       -19.1394
 145   2.0000      -0.695123       -18.9153
 146   2.0000      -0.692902       -18.8548
 147   2.0000      -0.691173       -18.8078
 148   2.0000      -0.688867       -18.7450
 149   2.0000      -0.678962       -18.4755
 150   2.0000      -0.677364       -18.4320
 151   2.0000      -0.668229       -18.1834
 152   2.0000      -0.666036       -18.1238
 153   2.0000      -0.664796       -18.0900
 154   2.0000      -0.655169       -17.8281
 155   2.0000      -0.644939       -17.5497
 156   2.0000      -0.644149       -17.5282
 157   2.0000      -0.631074       -17.1724
 158   2.0000      -0.627552       -17.0766
 159   2.0000      -0.624096       -16.9825
 160   2.0000      -0.621034       -16.8992
 161   2.0000      -0.617693       -16.8083
 162   2.0000      -0.611412       -16.6374
 163   2.0000      -0.610489       -16.6123
 164   2.0000      -0.608139       -16.5483
 165   2.0000      -0.597647       -16.2628
 166   2.0000      -0.596411       -16.2292
 167   2.0000      -0.593908       -16.1611
 168   2.0000      -0.590027       -16.0555
 169   2.0000      -0.587347       -15.9825
 170   2.0000      -0.586094       -15.9484
 171   2.0000      -0.580929       -15.8079
 172   2.0000      -0.579905       -15.7800
 173   2.0000      -0.576895       -15.6981
 174   2.0000      -0.571239       -15.5442
 175   2.0000      -0.562996       -15.3199
 176   2.0000      -0.558598       -15.2002
 177   2.0000      -0.558484       -15.1971
 178   2.0000      -0.552753       -15.0412
 179   2.0000      -0.550890       -14.9905
 180   2.0000      -0.549837       -14.9618
 181   2.0000      -0.545457       -14.8427
 182   2.0000      -0.543790       -14.7973
 183   2.0000      -0.539747       -14.6873
 184   2.0000      -0.537265       -14.6197
 185   2.0000      -0.534123       -14.5342
 186   2.0000      -0.533157       -14.5079
 187   2.0000      -0.530794       -14.4436
 188   2.0000      -0.526504       -14.3269
 189   2.0000      -0.525202       -14.2915
 190   2.0000      -0.524277       -14.2663
 191   2.0000      -0.523540       -14.2462
 192   2.0000      -0.521583       -14.1930
 193   2.0000      -0.518734       -14.1155
 194   2.0000      -0.517929       -14.0936
 195   2.0000      -0.515196       -14.0192
 196   2.0000      -0.510670       -13.8960
 197   2.0000      -0.509729       -13.8704
 198   2.0000      -0.508612       -13.8400
 199   2.0000      -0.507836       -13.8189
 200   2.0000      -0.504554       -13.7296
 201   2.0000      -0.503312       -13.6958
 202   2.0000      -0.503005       -13.6875
 203   2.0000      -0.502305       -13.6684
 204   2.0000      -0.499388       -13.5890
 205   2.0000      -0.497802       -13.5459
 206   2.0000      -0.493321       -13.4239
 207   2.0000      -0.489631       -13.3235
 208   2.0000      -0.487524       -13.2662
 209   2.0000      -0.483877       -13.1670
 210   2.0000      -0.480145       -13.0654
 211   2.0000      -0.479573       -13.0498
 212   2.0000      -0.477755       -13.0004
 213   2.0000      -0.474701       -12.9173
 214   2.0000      -0.470883       -12.8134
 215   2.0000      -0.469219       -12.7681
 216   2.0000      -0.462655       -12.5895
 217   2.0000      -0.461340       -12.5537
 218   2.0000      -0.459765       -12.5109
 219   2.0000      -0.458167       -12.4674
 220   2.0000      -0.456004       -12.4085
 221   2.0000      -0.455855       -12.4044
 222   2.0000      -0.453358       -12.3365
 223   2.0000      -0.450758       -12.2658
 224   2.0000      -0.449761       -12.2386
 225   2.0000      -0.448906       -12.2154
 226   2.0000      -0.445419       -12.1205
 227   2.0000      -0.445205       -12.1146
 228   2.0000      -0.440840       -11.9959
 229   2.0000      -0.440143       -11.9769
 230   2.0000      -0.439585       -11.9617
 231   2.0000      -0.438846       -11.9416
 232   2.0000      -0.437131       -11.8950
 233   2.0000      -0.435909       -11.8617
 234   2.0000      -0.434305       -11.8180
 235   2.0000      -0.430872       -11.7246
 236   2.0000      -0.430553       -11.7159
 237   2.0000      -0.430311       -11.7094
 238   2.0000      -0.429492       -11.6871
 239   2.0000      -0.427367       -11.6292
 240   2.0000      -0.424889       -11.5618
 241   2.0000      -0.424183       -11.5426
 242   2.0000      -0.422692       -11.5020
 243   2.0000      -0.420832       -11.4514
 244   2.0000      -0.416959       -11.3460
 245   2.0000      -0.415467       -11.3054
 246   2.0000      -0.410554       -11.1718
 247   2.0000      -0.410296       -11.1647
 248   2.0000      -0.407554       -11.0901
 249   2.0000      -0.405365       -11.0306
 250   2.0000      -0.404283       -11.0011
 251   2.0000      -0.401102       -10.9145
 252   2.0000      -0.396215       -10.7816
 253   2.0000      -0.383368       -10.4320
 254   2.0000      -0.382651       -10.4125
 255   2.0000      -0.380584       -10.3562
 256   2.0000      -0.372940       -10.1482
 257   2.0000      -0.366604        -9.9758
 258   2.0000      -0.353180        -9.6105
 259   2.0000      -0.350523        -9.5382
 260   2.0000      -0.343397        -9.3443
 261   2.0000      -0.342599        -9.3226
 262   2.0000      -0.331025        -9.0077
 263   2.0000      -0.327849        -8.9212
 264   2.0000      -0.326061        -8.8726
 265   2.0000      -0.321995        -8.7619
 266   2.0000      -0.321206        -8.7405
 267   2.0000      -0.316274        -8.6063
 268   2.0000      -0.310988        -8.4624
 269   2.0000      -0.305492        -8.3129
 270   2.0000      -0.299880        -8.1602
 271   2.0000      -0.285343        -7.7646
 272   2.0000      -0.274692        -7.4748
 273   2.0000      -0.269985        -7.3467
 274   2.0000      -0.234625        -6.3845
 275   0.0000      -0.110220        -2.9993
 276   0.0000      -0.097163        -2.6439
 277   0.0000      -0.071804        -1.9539
 278   0.0000      -0.066829        -1.8185
 279   0.0000      -0.048387        -1.3167

MULLIKEN ATOMIC CHARGES
-----------------------
   0 C :    0.284469
   1 C :   -0.323878
   2 C :   -0.181808
   3 N :    0.153437
   4 C :   -0.217002
   5 N :    0.159145
   6 C :    0.036852
   7 C :    0.015009
   8 C :   -0.085590
   9 C :    0.095379
  10 C :    0.096163
  11 C :   -0.087225
  12 C :   -0.018299
  13 C :    0.034208
  14 C :    0.035834
  15 C :   -0.018123
  16 C :    0.135066
  17 O :   -0.148514
  18 C :   -0.143005
  19 C :    0.094369
  20 C :   -0.201269
  21 S :    0.174061
  22 C :   -0.118506
  23 C :    0.116902
  24 C :    0.200845
  25 O :   -0.201401
  26 C :   -0.006991
  27 C :   -0.122766
  28 N :    0.173400
  29 C :   -0.032552
  30 C :    0.137589
  31 C :   -0.113427
  32 C :    0.033716
  33 C :   -0.063204
  34 C :   -0.034876
  35 C :    0.109138
  36 N :   -0.204538
  37 C :    0.159864
  38 N :   -0.224206
  39 C :    0.094491
  40 C :   -0.141350
  41 C :    0.140787
  42 C :   -0.028131
  43 C :    0.025336
  44 C :    0.009154
  45 C :    0.045572
  46 C :   -0.000202
  47 C :   -0.021367
  48 C :   -0.049550
  49 C :    0.024930
  50 C :   -0.158524
  51 S :    0.212635
  52 C :   -0.116623
  53 C :    0.116802
  54 C :    0.216514
  55 O :   -0.195430
  56 C :   -0.011214
  57 C :   -0.112331
  58 N :    0.176004
  59 C :   -0.023748
  60 C :   -0.037028
  61 C :   -0.101182
  62 C :    0.338734
  63 C :   -0.359837
  64 C :   -0.185296
  65 N :    0.151327
  66 C :   -0.187650
  67 N :    0.141029
  68 C :    0.041942
  69 C :    0.002545
  70 C :    0.174074
  71 O :   -0.191046
  72 C :   -0.084625
  73 C :    0.099659
  74 C :    0.097047
  75 C :   -0.085267
  76 C :   -0.020470
  77 C :    0.037558
  78 C :    0.036418
  79 C :   -0.019672
  80 H :   -0.015539
  81 H :   -0.005197
  82 H :   -0.011016
  83 H :   -0.007274
  84 H :   -0.008968
  85 H :   -0.020778
  86 H :    0.016861
  87 H :   -0.007429
  88 H :   -0.018936
  89 H :   -0.000301
  90 H :   -0.010815
  91 H :    0.003316
  92 H :    0.088698
  93 H :    0.092579
  94 H :   -0.018650
  95 H :   -0.008143
  96 H :    0.112446
  97 H :    0.106147
  98 H :   -0.007564
  99 H :    0.044458
 100 H :   -0.007466
 101 H :   -0.028968
 102 H :   -0.029939
 103 H :   -0.012166
 104 H :    0.027349
 105 H :    0.003182
 106 H :    0.029215
 107 H :   -0.002386
 108 H :   -0.014456
 109 H :   -0.007567
 110 H :   -0.006785
 111 H :   -0.003163
 112 H :   -0.004228
 113 H :   -0.016799
Sum of atomic charges:   -0.0000000

LOEWDIN ATOMIC CHARGES
----------------------
   0 C :    0.064124
   1 C :   -0.141237
   2 C :   -0.020051
   3 N :   -0.054831
   4 C :   -0.020090
   5 N :   -0.061121
   6 C :   -0.019923
   7 C :   -0.057599
   8 C :    0.030405
   9 C :   -0.011202
  10 C :   -0.005413
  11 C :    0.012774
  12 C :   -0.006914
  13 C :   -0.015285
  14 C :   -0.016474
  15 C :   -0.010475
  16 C :    0.082955
  17 O :   -0.150229
  18 C :   -0.096000
  19 C :    0.042224
  20 C :   -0.212374
  21 S :    0.486612
  22 C :   -0.123577
  23 C :   -0.076152
  24 C :    0.043576
  25 O :    0.019052
  26 C :    0.005630
  27 C :   -0.041918
  28 N :   -0.023078
  29 C :   -0.000033
  30 C :   -0.046902
  31 C :    0.005963
  32 C :   -0.021710
  33 C :   -0.031729
  34 C :   -0.041156
  35 C :    0.024991
  36 N :   -0.113531
  37 C :    0.029596
  38 N :   -0.111329
  39 C :   -0.014748
  40 C :    0.060672
  41 C :   -0.030629
  42 C :   -0.028749
  43 C :   -0.012967
  44 C :   -0.031207
  45 C :   -0.030618
  46 C :   -0.001963
  47 C :   -0.030257
  48 C :    0.017411
  49 C :   -0.050502
  50 C :   -0.175208
  51 S :    0.531412
  52 C :   -0.187962
  53 C :   -0.046398
  54 C :    0.006419
  55 O :    0.004235
  56 C :    0.020533
  57 C :   -0.041083
  58 N :   -0.013047
  59 C :   -0.009449
  60 C :    0.053907
  61 C :   -0.108602
  62 C :    0.077878
  63 C :   -0.146203
  64 C :   -0.018278
  65 N :   -0.054630
  66 C :   -0.016967
  67 N :   -0.061840
  68 C :   -0.025289
  69 C :   -0.055357
  70 C :    0.086115
  71 O :   -0.176355
  72 C :    0.031230
  73 C :   -0.008949
  74 C :   -0.006341
  75 C :    0.020732
  76 C :   -0.004858
  77 C :   -0.012389
  78 C :   -0.011519
  79 C :   -0.010055
  80 H :    0.037871
  81 H :    0.038889
  82 H :    0.034171
  83 H :    0.032037
  84 H :    0.031224
  85 H :    0.030563
  86 H :    0.045940
  87 H :    0.036724
  88 H :    0.030701
  89 H :    0.034077
  90 H :   -0.003853
  91 H :    0.019855
  92 H :    0.050124
  93 H :    0.055985
  94 H :    0.000409
  95 H :    0.013774
  96 H :    0.057650
  97 H :    0.062282
  98 H :    0.029061
  99 H :    0.063164
 100 H :    0.026990
 101 H :    0.032805
 102 H :    0.030646
 103 H :    0.022021
 104 H :    0.029404
 105 H :    0.038516
 106 H :    0.050590
 107 H :    0.050334
 108 H :    0.038389
 109 H :    0.039559
 110 H :    0.035479
 111 H :    0.033835
 112 H :    0.033243
 113 H :    0.031840

  Mayer bond orders larger than 0.100000
B(  0-C ,  1-C ) :   1.6216 B(  0-C ,  6-C ) :   0.9964 B(  0-C , 18-C ) :   1.0736
B(  1-C ,  2-C ) :   1.1420 B(  1-C ,  4-C ) :   1.1735 B(  2-C ,  3-N ) :   2.9835
B(  4-C ,  5-N ) :   2.9941 B(  6-C ,  7-C ) :   1.2147 B(  6-C , 11-C ) :   1.4655
B(  7-C ,  8-C ) :   1.4756 B(  7-C , 16-C ) :   0.9205 B(  8-C ,  9-C ) :   1.1806
B(  8-C , 80-H ) :   1.0163 B(  9-C , 10-C ) :   1.2608 B(  9-C , 15-C ) :   1.2447
B( 10-C , 11-C ) :   1.1964 B( 10-C , 12-C ) :   1.2438 B( 11-C , 81-H ) :   0.9938
B( 12-C , 13-C ) :   1.4861 B( 12-C , 82-H ) :   0.9980 B( 13-C , 14-C ) :   1.2608
B( 13-C , 83-H ) :   0.9890 B( 14-C , 15-C ) :   1.4891 B( 14-C , 84-H ) :   0.9887
B( 15-C , 85-H ) :   0.9975 B( 16-C , 17-O ) :   2.2672 B( 16-C , 18-C ) :   0.9453
B( 18-C , 19-C ) :   1.6057 B( 19-C , 20-C ) :   1.1824 B( 19-C , 86-H ) :   0.9308
B( 20-C , 21-S ) :   1.0808 B( 20-C , 24-C ) :   1.3985 B( 21-S , 22-C ) :   1.1741
B( 22-C , 23-C ) :   1.3539 B( 22-C , 30-C ) :   1.0917 B( 23-C , 24-C ) :   1.2458
B( 23-C , 29-C ) :   1.1096 B( 24-C , 25-O ) :   1.1436 B( 25-O , 26-C ) :   1.0923
B( 26-C , 27-C ) :   1.0780 B( 26-C , 29-C ) :   1.6284 B( 27-C , 28-N ) :   3.0424
B( 29-C , 87-H ) :   0.9858 B( 30-C , 31-C ) :   1.4936 B( 30-C , 47-C ) :   1.1003
B( 31-C , 32-C ) :   1.1474 B( 31-C , 88-H ) :   0.9994 B( 32-C , 33-C ) :   1.4944
B( 32-C , 45-C ) :   1.1136 B( 33-C , 34-C ) :   1.0390 B( 33-C , 39-C ) :   1.0855
B( 34-C , 35-C ) :   1.0329 B( 34-C , 37-C ) :   1.0311 B( 34-C , 89-H ) :   0.8755
B( 35-C , 36-N ) :   1.1099 B( 35-C , 90-H ) :   0.9229 B( 35-C , 91-H ) :   0.9478
B( 36-N , 92-H ) :   0.9697 B( 36-N , 93-H ) :   0.9667 B( 37-C , 38-N ) :   1.0939
B( 37-C , 94-H ) :   0.9266 B( 37-C , 95-H ) :   0.9377 B( 38-N , 87-H ) :   0.1036
B( 38-N , 96-H ) :   0.9545 B( 38-N , 97-H ) :   0.9600 B( 39-C , 40-C ) :   1.6512
B( 39-C , 44-C ) :   1.0464 B( 40-C , 41-C ) :   0.9511 B( 40-C , 98-H ) :   0.9771
B( 41-C , 42-C ) :   0.9892 B( 41-C , 48-C ) :   0.9641 B( 41-C , 99-H ) :   0.8599
B( 42-C , 43-C ) :   1.7144 B( 42-C ,100-H ) :   0.9724 B( 43-C , 44-C ) :   1.1299
B( 43-C ,101-H ) :   0.9888 B( 44-C , 45-C ) :   1.4490 B( 45-C , 46-C ) :   1.1333
B( 46-C , 47-C ) :   1.6338 B( 46-C ,102-H ) :   0.9914 B( 47-C ,103-H ) :   0.9789
B( 48-C , 49-C ) :   1.7534 B( 48-C ,104-H ) :   0.9766 B( 49-C , 50-C ) :   1.1272
B( 49-C ,105-H ) :   0.9809 B( 50-C , 51-S ) :   1.1173 B( 50-C , 54-C ) :   1.3984
B( 51-S , 52-C ) :   1.0859 B( 52-C , 53-C ) :   1.2586 B( 52-C , 60-C ) :   1.3155
B( 53-C , 54-C ) :   1.2486 B( 53-C , 59-C ) :   1.1549 B( 54-C , 55-O ) :   1.1321
B( 55-O , 56-C ) :   1.1369 B( 56-C , 57-C ) :   1.0749 B( 56-C , 59-C ) :   1.5966
B( 57-C , 58-N ) :   3.0444 B( 59-C ,106-H ) :   1.0055 B( 60-C , 61-C ) :   1.4834
B( 60-C ,107-H ) :   0.9360 B( 61-C , 62-C ) :   1.0844 B( 61-C , 70-C ) :   0.9876
B( 62-C , 63-C ) :   1.6128 B( 62-C , 68-C ) :   0.9815 B( 63-C , 64-C ) :   1.1498
B( 63-C , 66-C ) :   1.1509 B( 64-C , 65-N ) :   2.9624 B( 66-C , 67-N ) :   2.9598
B( 68-C , 69-C ) :   1.2138 B( 68-C , 75-C ) :   1.4582 B( 69-C , 70-C ) :   0.9609
B( 69-C , 72-C ) :   1.4679 B( 70-C , 71-O ) :   2.1085 B( 72-C , 73-C ) :   1.1751
B( 72-C ,108-H ) :   1.0172 B( 73-C , 74-C ) :   1.2581 B( 73-C , 79-C ) :   1.2453
B( 74-C , 75-C ) :   1.1985 B( 74-C , 76-C ) :   1.2430 B( 75-C ,109-H ) :   0.9899
B( 76-C , 77-C ) :   1.4853 B( 76-C ,110-H ) :   0.9974 B( 77-C , 78-C ) :   1.2630
B( 77-C ,111-H ) :   0.9885 B( 78-C , 79-C ) :   1.4864 B( 78-C ,112-H ) :   0.9885
B( 79-C ,113-H ) :   0.9979

-----------------------------------------------------------------------------
         ABSORPTION SPECTRUM VIA TRANSITION ELECTRIC DIPOLE MOMENTS
-----------------------------------------------------------------------------
State   Energy  Wavelength   fosc         T2         TX        TY        TZ
        (cm-1)    (nm)                  (au**2)     (au)      (au)      (au)
-----------------------------------------------------------------------------
   0   13243.3    755.1   0.153429250   3.81406   0.26434   0.98204   1.66727
   1   15853.9    630.8   0.149744704   3.10950  -0.39125   0.32505   1.68842
   2   18907.2    528.9   1.358522291  23.65454  -0.12224   0.27409   4.85433
   3   20080.9    498.0   0.659241484  10.80778   2.27469  -1.83184  -1.50928
   4   21591.1    463.2   0.342298964   5.21923  -0.78680   0.06703  -2.14375
   5   25463.7    392.7   0.051531706   0.66624   0.56185  -0.44636  -0.38900
   6   25568.7    391.1   0.090687450   1.16765  -0.76263   0.25074  -0.72331
   7   26326.2    379.9   0.031198168   0.39014  -0.52433   0.33887  -0.01942
   8   26607.9    375.8   0.120733417   1.49380   0.46611  -0.03601   1.12927
   9   26734.9    374.0   0.122544514   1.50901  -0.96252   0.40436  -0.64735
  10   26948.0    371.1   0.124437987   1.52020   0.87943  -0.34362   0.79293
  11   27315.2    366.1   0.001442821   0.01739   0.00366  -0.11009   0.07250
  12   27926.6    358.1   0.063189510   0.74491   0.43182  -0.44565   0.59986
  13   28108.6    355.8   0.042671870   0.49978   0.56102   0.03797  -0.42848
  14   28605.7    349.6   0.020097528   0.23129   0.25498   0.09399   0.39679
  15   28706.2    348.4   0.059112412   0.67792   0.60620   0.27301   0.48570
  16   28997.3    344.9   0.057503648   0.65285  -0.69878   0.37994  -0.14215
  17   29049.0    344.2   0.039391627   0.44642   0.39576  -0.39698   0.36361
  18   30054.2    332.7   0.035670176   0.39073   0.22297   0.53019   0.24476
  19   30238.2    330.7   0.031522961   0.34320  -0.01485  -0.58302   0.05537
  20   30272.6    330.3   0.237580938   2.58367   0.98100  -0.20365   1.25691
  21   30422.3    328.7   0.016310145   0.17650   0.41008   0.08907  -0.01997
  22   30719.0    325.5   0.019350871   0.20738   0.37452  -0.03064   0.25725
  23   32407.8    308.6   0.009225381   0.09372   0.24772  -0.10106   0.14879
  24   32496.9    307.7   0.609969300   6.17934  -1.98646   1.16884  -0.93119
  25   32775.9    305.1   0.198198417   1.99077   1.04555   0.13180   0.93820
  26   33051.1    302.6   0.276385017   2.75299  -0.93645   0.23183  -1.34993
  27   33110.0    302.0   0.234672844   2.33335   0.77352  -0.48819   1.22339
  28   33301.7    300.3   0.128190530   1.26726   0.56945  -0.28880   0.92713
  29   33624.7    297.4   0.111945233   1.09603  -0.31203   0.34576  -0.93761
  30   33869.9    295.2   0.001944213   0.01890  -0.08395   0.02144  -0.10672
  31   34188.6    292.5   0.003818272   0.03677  -0.11049   0.15260   0.03565
  32   34821.5    287.2   0.006418051   0.06068   0.12243   0.09834  -0.18978
  33   34967.6    286.0   0.026593048   0.25037  -0.13737   0.15995  -0.45378
  34   35156.9    284.4   0.003525474   0.03301   0.00786   0.13809  -0.11783
  35   35557.3    281.2   0.198534196   1.83815   0.94854   0.04268   0.96779
  36   35805.3    279.3   0.010276421   0.09449  -0.00200   0.24562   0.18481
  37   35907.0    278.5   0.013273708   0.12170  -0.01799   0.32645   0.12169
  38   36276.9    275.7   0.077319895   0.70168  -0.53748  -0.35404  -0.53614
  39   36408.4    274.7   0.001219667   0.01103  -0.00273   0.08313   0.06411
  40   36766.8    272.0   0.173067241   1.54965   0.89578  -0.25783   0.82507
  41   37022.1    270.1   0.061534458   0.54718   0.40825   0.14055   0.60063
  42   37127.9    269.3   0.106616568   0.94537  -0.38847  -0.36170  -0.81463
  43   37436.0    267.1   0.058750185   0.51665  -0.50157   0.16491  -0.48773
  44   37768.0    264.8   0.009574902   0.08346  -0.27618   0.07679  -0.03594
  45   37940.4    263.6   0.179565733   1.55811  -0.69504   0.12447  -1.02934
  46   38148.5    262.1   0.038936658   0.33601   0.49963   0.01213   0.29365
  47   38282.3    261.2   0.082584178   0.71019  -0.26343  -0.00247  -0.80049
  48   38697.1    258.4   0.117782562   1.00202   0.29274  -0.14985  -0.94545
  49   38945.2    256.8   0.047122499   0.39834  -0.51927  -0.09553  -0.34578
  50   39058.7    256.0   0.016139386   0.13603   0.34536   0.09067   0.09241
  51   39547.4    252.9   0.010775270   0.08970   0.07444   0.12121  -0.26356
  52   39687.1    252.0   0.055125549   0.45728  -0.57381  -0.06427  -0.35198
  53   39861.8    250.9   0.000857839   0.00708   0.02341  -0.00510  -0.08069
  54   39959.4    250.3   0.130402436   1.07434  -0.75357  -0.03512  -0.71080
  55   40085.9    249.5   0.060556043   0.49733   0.43679  -0.34785  -0.43074

FINAL SINGLE POINT ENERGY     -4066.190958794312

DIPOLE MOMENT
-------------
                                X             Y             Z
Electronic contribution:      6.41088     -22.01053      15.46747
Nuclear contribution   :     -8.45212      23.04273     -15.12966
                        -----------------------------------------
Total Dipole Moment    :     -2.04124       1.03220       0.33780
                        -----------------------------------------
Magnitude (a.u.)       :      2.31219
Magnitude (Debye)      :      5.87712

Rotational constants in cm-1:     0.001527     0.000192     0.000179
Rotational constants in MHz :    45.777221     5.758126     5.369313

                             ****ORCA TERMINATED NORMALLY****
TOTAL RUN TIME: 0 days 0 hours 23 minutes 34 seconds 406 msec
