                         Program Version 4.2.0 -  RELEASE  -
|  1> # ORCA input file
|  2> # SCF done       -178.135283245503          0.000799777046
|  3> ! CAM-B3LYP def2-SVP def2/J RIJCOSX Grid4 TightSCF
|  4> %maxcore 5000
|  5> %tddft
|  6>     Mode sTDDFT
|  7>     Ethresh 5.0
|  8>     maxcore 5000
|  9> end
| 10>
| 11> %pal
| 12>   nprocs 6
| 13>   end
| 14> * xyz 0 1
| 15>    C       -4.51162        -5.65319        -0.09858
| 16>    C       -4.20980        -5.59342        -1.45533
| 17>    C       -3.04843        -4.88942        -1.91851
| 18>    N       -2.75662        -4.82681        -3.23779
| 19>    C       -3.56398        -5.42957        -4.06762
| 20>    C       -4.70757        -6.12546        -3.61397
| 21>    N       -5.02305        -6.20198        -2.35507
| 22>    C       -2.16772        -4.23294        -1.02482
| 23>    C       -2.50917        -4.25160         0.32947
| 24>    C       -3.67994        -4.97629         0.78144
| 25>    N       -3.83516        -4.86079         2.11146
| 26>    S       -2.67596        -3.94997         2.71415
| 27>    N       -1.88189        -3.65749         1.35278
| 28>    N       -1.08986        -3.63041        -1.61904
| 29>    C        0.02035        -3.02185        -1.15115
| 30>    S        0.53522        -3.10383         0.49813
| 31>    C        2.01986        -2.30728         0.05559
| 32>    N        2.95074        -2.05574         1.06643
| 33>    O        3.98823        -1.49492         0.76104
| 34>    O        2.65440        -2.42650         2.19035
| 35>    C        2.09719        -1.98185        -1.26997
| 36>    C        0.95017        -2.36579        -1.99001
| 37>    C        0.80889        -2.05133        -3.38353
| 38>    C       -0.33998        -2.03015        -4.09469
| 39>    C       -0.44577        -1.73104        -5.48537
| 40>    O        0.66190        -1.54993        -6.25682
| 41>    C        0.29586        -1.41443        -7.52083
| 42>    C       -1.07433        -1.50453        -7.63252
| 43>    N       -1.84260        -1.46357        -8.80925
| 44>    O       -1.29166        -1.16840        -9.84634
| 45>    O       -3.03005        -1.74475        -8.69984
| 46>    C       -1.57762        -1.69347        -6.30405
| 47>    N       -2.89753        -1.83135        -5.98265
| 48>    C       -3.39723        -1.64005        -4.74084
| 49>    C       -4.56206        -2.15411        -4.25089
| 50>    C       -5.55392        -2.97168        -4.84868
| 51>    C       -6.47140        -3.45376        -3.96511
| 52>    C       -6.25175        -3.05306        -2.62660
| 53>    S       -4.89671        -1.96197        -2.52949
| 54>    C       -6.88908        -3.48858        -1.47894
| 55>    C       -7.91634        -4.44162        -1.34574
| 56>    C       -8.21335        -4.74377        -0.04694
| 57>    C       -7.42525        -4.05673         0.90011
| 58>    S       -6.34875        -2.94740         0.09615
| 59>    C       -7.41864        -4.24065         2.27353
| 60>    C       -6.48032        -3.64736         3.09897
| 61>    C       -6.31208        -3.80584         4.46499
| 62>    C       -4.99408        -3.58103         5.05667
| 63>    O       -4.00450        -3.09732         4.51409
| 64>    C       -5.06677        -4.11242         6.42708
| 65>    C       -4.08628        -4.20577         7.37142
| 66>    C       -4.38924        -4.78750         8.62397
| 67>    C       -5.70878        -5.26507         8.86923
| 68>    C       -6.00378        -5.84809        10.11571
| 69>    C       -5.02155        -5.94096        11.06305
| 70>    C       -3.71898        -5.47613        10.84223
| 71>    C       -3.41545        -4.90813         9.63557
| 72>    F       -5.30270        -6.49781        12.25607
| 73>    C       -6.70735        -5.14806         7.87138
| 74>    C       -6.39226        -4.57625         6.67095
| 75>    C       -7.20056        -4.29332         5.48310
| 76>    C       -8.57573        -4.30769         5.44730
| 77>    C       -9.35155        -3.76116         4.40662
| 78>    N      -10.03920        -3.29091         3.61565
| 79>    C       -9.38390        -4.77736         6.50032
| 80>    N      -10.09409        -5.16693         7.31464
| 81>    H       -5.37501        -6.19613         0.24523
| 82>    H       -3.31725        -5.36892        -5.11871
| 83>    H       -5.36774        -6.62123        -4.31270
| 84>    H       -1.12470        -3.79890        -2.62656
| 85>    H        2.93866        -1.46647        -1.69684
| 86>    H        1.72316        -1.74962        -3.87622
| 87>    H       -1.28210        -2.24928        -3.62387
| 88>    H        1.04930        -1.27290        -8.27019
| 89>    H       -3.50696        -2.06857        -6.76378
| 90>    H       -2.78498        -1.05008        -4.07482
| 91>    H       -5.55637        -3.18903        -5.90223
| 92>    H       -7.28343        -4.10628        -4.22943
| 93>    H       -8.39104        -4.89367        -2.19734
| 94>    H       -8.95855        -5.45667         0.25721
| 95>    H       -8.13402        -4.94389         2.67266
| 96>    H       -5.69694        -3.07404         2.61371
| 97>    H       -3.09101        -3.83883         7.16959
| 98>    H       -6.99747        -6.21415        10.32182
| 99>    H       -2.98547        -5.57574        11.62652
|100>    H       -2.41821        -4.54251         9.44206
|101>    H       -7.69541        -5.52306         8.08562
|102> *
|103>
|104>                          ****END OF INPUT****

CARTESIAN COORDINATES (ANGSTROEM)
---------------------------------
  C     -4.511620   -5.653190   -0.098580
  C     -4.209800   -5.593420   -1.455330
  C     -3.048430   -4.889420   -1.918510
  N     -2.756620   -4.826810   -3.237790
  C     -3.563980   -5.429570   -4.067620
  C     -4.707570   -6.125460   -3.613970
  N     -5.023050   -6.201980   -2.355070
  C     -2.167720   -4.232940   -1.024820
  C     -2.509170   -4.251600    0.329470
  C     -3.679940   -4.976290    0.781440
  N     -3.835160   -4.860790    2.111460
  S     -2.675960   -3.949970    2.714150
  N     -1.881890   -3.657490    1.352780
  N     -1.089860   -3.630410   -1.619040
  C      0.020350   -3.021850   -1.151150
  S      0.535220   -3.103830    0.498130
  C      2.019860   -2.307280    0.055590
  N      2.950740   -2.055740    1.066430
  O      3.988230   -1.494920    0.761040
  O      2.654400   -2.426500    2.190350
  C      2.097190   -1.981850   -1.269970
  C      0.950170   -2.365790   -1.990010
  C      0.808890   -2.051330   -3.383530
  C     -0.339980   -2.030150   -4.094690
  C     -0.445770   -1.731040   -5.485370
  O      0.661900   -1.549930   -6.256820
  C      0.295860   -1.414430   -7.520830
  C     -1.074330   -1.504530   -7.632520
  N     -1.842600   -1.463570   -8.809250
  O     -1.291660   -1.168400   -9.846340
  O     -3.030050   -1.744750   -8.699840
  C     -1.577620   -1.693470   -6.304050
  N     -2.897530   -1.831350   -5.982650
  C     -3.397230   -1.640050   -4.740840
  C     -4.562060   -2.154110   -4.250890
  C     -5.553920   -2.971680   -4.848680
  C     -6.471400   -3.453760   -3.965110
  C     -6.251750   -3.053060   -2.626600
  S     -4.896710   -1.961970   -2.529490
  C     -6.889080   -3.488580   -1.478940
  C     -7.916340   -4.441620   -1.345740
  C     -8.213350   -4.743770   -0.046940
  C     -7.425250   -4.056730    0.900110
  S     -6.348750   -2.947400    0.096150
  C     -7.418640   -4.240650    2.273530
  C     -6.480320   -3.647360    3.098970
  C     -6.312080   -3.805840    4.464990
  C     -4.994080   -3.581030    5.056670
  O     -4.004500   -3.097320    4.514090
  C     -5.066770   -4.112420    6.427080
  C     -4.086280   -4.205770    7.371420
  C     -4.389240   -4.787500    8.623970
  C     -5.708780   -5.265070    8.869230
  C     -6.003780   -5.848090   10.115710
  C     -5.021550   -5.940960   11.063050
  C     -3.718980   -5.476130   10.842230
  C     -3.415450   -4.908130    9.635570
  F     -5.302700   -6.497810   12.256070
  C     -6.707350   -5.148060    7.871380
  C     -6.392260   -4.576250    6.670950
  C     -7.200560   -4.293320    5.483100
  C     -8.575730   -4.307690    5.447300
  C     -9.351550   -3.761160    4.406620
  N    -10.039200   -3.290910    3.615650
  C     -9.383900   -4.777360    6.500320
  N    -10.094090   -5.166930    7.314640
  H     -5.375010   -6.196130    0.245230
  H     -3.317250   -5.368920   -5.118710
  H     -5.367740   -6.621230   -4.312700
  H     -1.124700   -3.798900   -2.626560
  H      2.938660   -1.466470   -1.696840
  H      1.723160   -1.749620   -3.876220
  H     -1.282100   -2.249280   -3.623870
  H      1.049300   -1.272900   -8.270190
  H     -3.506960   -2.068570   -6.763780
  H     -2.784980   -1.050080   -4.074820
  H     -5.556370   -3.189030   -5.902230
  H     -7.283430   -4.106280   -4.229430
  H     -8.391040   -4.893670   -2.197340
  H     -8.958550   -5.456670    0.257210
  H     -8.134020   -4.943890    2.672660
  H     -5.696940   -3.074040    2.613710
  H     -3.091010   -3.838830    7.169590
  H     -6.997470   -6.214150   10.321820
  H     -2.985470   -5.575740   11.626520
  H     -2.418210   -4.542510    9.442060
  H     -7.695410   -5.523060    8.085620

 Total Charge           Charge          ....    0
 Multiplicity           Mult            ....    1
 Number of Electrons    NEL             ....  482
 Basis Dimension        Dim             .... 1045

ORBITAL ENERGIES
----------------

  NO   OCC          E(Eh)            E(eV)
   0   2.0000     -89.032002     -2422.6839
   1   2.0000     -88.976577     -2421.1758
   2   2.0000     -88.974193     -2421.1109
   3   2.0000     -88.964744     -2420.8537
   4   2.0000     -24.775598      -674.1783
   5   2.0000     -19.343574      -526.3654
   6   2.0000     -19.275376      -524.5096
   7   2.0000     -19.274635      -524.4895
   8   2.0000     -19.226730      -523.1859
   9   2.0000     -19.225993      -523.1659
  10   2.0000     -19.202967      -522.5393
  11   2.0000     -14.685171      -399.6038
  12   2.0000     -14.637944      -398.3187
  13   2.0000     -14.497327      -394.4923
  14   2.0000     -14.481919      -394.0731
  15   2.0000     -14.452078      -393.2610
  16   2.0000     -14.437024      -392.8514
  17   2.0000     -14.436430      -392.8352
  18   2.0000     -14.431696      -392.7064
  19   2.0000     -14.397145      -391.7662
  20   2.0000     -14.395319      -391.7165
  21   2.0000     -10.388110      -282.6748
  22   2.0000     -10.370088      -282.1844
  23   2.0000     -10.369209      -282.1605
  24   2.0000     -10.366316      -282.0818
  25   2.0000     -10.365011      -282.0463
  26   2.0000     -10.358088      -281.8579
  27   2.0000     -10.357552      -281.8433
  28   2.0000     -10.353245      -281.7261
  29   2.0000     -10.352492      -281.7056
  30   2.0000     -10.346798      -281.5507
  31   2.0000     -10.338707      -281.3305
  32   2.0000     -10.334624      -281.2194
  33   2.0000     -10.331544      -281.1356
  34   2.0000     -10.331221      -281.1268
  35   2.0000     -10.330808      -281.1156
  36   2.0000     -10.330248      -281.1003
  37   2.0000     -10.328644      -281.0567
  38   2.0000     -10.326821      -281.0071
  39   2.0000     -10.326409      -280.9959
  40   2.0000     -10.323748      -280.9235
  41   2.0000     -10.322131      -280.8795
  42   2.0000     -10.321773      -280.8697
  43   2.0000     -10.320832      -280.8441
  44   2.0000     -10.314975      -280.6847
  45   2.0000     -10.308424      -280.5065
  46   2.0000     -10.308183      -280.4999
  47   2.0000     -10.305592      -280.4294
  48   2.0000     -10.301195      -280.3098
  49   2.0000     -10.301002      -280.3045
  50   2.0000     -10.299841      -280.2729
  51   2.0000     -10.298923      -280.2479
  52   2.0000     -10.297771      -280.2166
  53   2.0000     -10.293223      -280.0928
  54   2.0000     -10.291247      -280.0391
  55   2.0000     -10.290637      -280.0225
  56   2.0000     -10.288340      -279.9600
  57   2.0000     -10.287385      -279.9340
  58   2.0000     -10.286637      -279.9136
  59   2.0000     -10.283217      -279.8206
  60   2.0000     -10.283146      -279.8186
  61   2.0000     -10.280838      -279.7558
  62   2.0000     -10.278405      -279.6896
  63   2.0000     -10.277692      -279.6702
  64   2.0000     -10.276246      -279.6309
  65   2.0000     -10.272476      -279.5283
  66   2.0000      -8.120954      -220.9824
  67   2.0000      -8.072286      -219.6581
  68   2.0000      -8.068541      -219.5562
  69   2.0000      -8.060005      -219.3239
  70   2.0000      -6.091703      -165.7637
  71   2.0000      -6.084838      -165.5769
  72   2.0000      -6.083549      -165.5418
  73   2.0000      -6.042126      -164.4146
  74   2.0000      -6.038165      -164.3068
  75   2.0000      -6.038009      -164.3026
  76   2.0000      -6.033718      -164.1858
  77   2.0000      -6.033144      -164.1702
  78   2.0000      -6.029963      -164.0836
  79   2.0000      -6.029651      -164.0751
  80   2.0000      -6.025610      -163.9652
  81   2.0000      -6.021301      -163.8479
  82   2.0000      -1.354081       -36.8464
  83   2.0000      -1.307159       -35.5696
  84   2.0000      -1.290190       -35.1078
  85   2.0000      -1.263793       -34.3896
  86   2.0000      -1.173873       -31.9427
  87   2.0000      -1.127853       -30.6904
  88   2.0000      -1.125843       -30.6357
  89   2.0000      -1.114679       -30.3320
  90   2.0000      -1.104433       -30.0531
  91   2.0000      -1.100332       -29.9416
  92   2.0000      -1.083561       -29.4852
  93   2.0000      -1.020899       -27.7801
  94   2.0000      -1.019678       -27.7469
  95   2.0000      -1.001121       -27.2419
  96   2.0000      -0.997204       -27.1353
  97   2.0000      -0.995085       -27.0777
  98   2.0000      -0.985403       -26.8142
  99   2.0000      -0.975508       -26.5449
 100   2.0000      -0.975419       -26.5425
 101   2.0000      -0.974157       -26.5082
 102   2.0000      -0.961773       -26.1712
 103   2.0000      -0.952593       -25.9214
 104   2.0000      -0.939547       -25.5664
 105   2.0000      -0.919579       -25.0230
 106   2.0000      -0.909762       -24.7559
 107   2.0000      -0.900741       -24.5104
 108   2.0000      -0.891099       -24.2480
 109   2.0000      -0.881435       -23.9851
 110   2.0000      -0.878441       -23.9036
 111   2.0000      -0.875054       -23.8114
 112   2.0000      -0.872259       -23.7354
 113   2.0000      -0.869343       -23.6560
 114   2.0000      -0.855065       -23.2675
 115   2.0000      -0.847575       -23.0637
 116   2.0000      -0.844557       -22.9816
 117   2.0000      -0.835942       -22.7471
 118   2.0000      -0.829419       -22.5696
 119   2.0000      -0.821968       -22.3669
 120   2.0000      -0.810115       -22.0443
 121   2.0000      -0.796901       -21.6848
 122   2.0000      -0.784509       -21.3476
 123   2.0000      -0.774866       -21.0852
 124   2.0000      -0.758791       -20.6477
 125   2.0000      -0.757154       -20.6032
 126   2.0000      -0.749800       -20.4031
 127   2.0000      -0.741304       -20.1719
 128   2.0000      -0.737425       -20.0663
 129   2.0000      -0.715526       -19.4705
 130   2.0000      -0.714581       -19.4447
 131   2.0000      -0.707647       -19.2560
 132   2.0000      -0.701192       -19.0804
 133   2.0000      -0.696298       -18.9472
 134   2.0000      -0.695912       -18.9367
 135   2.0000      -0.688211       -18.7272
 136   2.0000      -0.673365       -18.3232
 137   2.0000      -0.671569       -18.2743
 138   2.0000      -0.667483       -18.1631
 139   2.0000      -0.664120       -18.0716
 140   2.0000      -0.662750       -18.0343
 141   2.0000      -0.655925       -17.8486
 142   2.0000      -0.651412       -17.7258
 143   2.0000      -0.647376       -17.6160
 144   2.0000      -0.639643       -17.4056
 145   2.0000      -0.630218       -17.1491
 146   2.0000      -0.629575       -17.1316
 147   2.0000      -0.628491       -17.1021
 148   2.0000      -0.622795       -16.9471
 149   2.0000      -0.621166       -16.9028
 150   2.0000      -0.620409       -16.8822
 151   2.0000      -0.619487       -16.8571
 152   2.0000      -0.617972       -16.8159
 153   2.0000      -0.611451       -16.6384
 154   2.0000      -0.608204       -16.5501
 155   2.0000      -0.603521       -16.4226
 156   2.0000      -0.600905       -16.3514
 157   2.0000      -0.589352       -16.0371
 158   2.0000      -0.585785       -15.9400
 159   2.0000      -0.581710       -15.8291
 160   2.0000      -0.579902       -15.7799
 161   2.0000      -0.576759       -15.6944
 162   2.0000      -0.572656       -15.5828
 163   2.0000      -0.569180       -15.4882
 164   2.0000      -0.564421       -15.3587
 165   2.0000      -0.562782       -15.3141
 166   2.0000      -0.559346       -15.2206
 167   2.0000      -0.551583       -15.0093
 168   2.0000      -0.550131       -14.9698
 169   2.0000      -0.547991       -14.9116
 170   2.0000      -0.547006       -14.8848
 171   2.0000      -0.544327       -14.8119
 172   2.0000      -0.537388       -14.6231
 173   2.0000      -0.530730       -14.4419
 174   2.0000      -0.529516       -14.4089
 175   2.0000      -0.525283       -14.2937
 176   2.0000      -0.522706       -14.2236
 177   2.0000      -0.520301       -14.1581
 178   2.0000      -0.517099       -14.0710
 179   2.0000      -0.516442       -14.0531
 180   2.0000      -0.512826       -13.9547
 181   2.0000      -0.511714       -13.9244
 182   2.0000      -0.510843       -13.9007
 183   2.0000      -0.507520       -13.8103
 184   2.0000      -0.502380       -13.6705
 185   2.0000      -0.496302       -13.5051
 186   2.0000      -0.492078       -13.3901
 187   2.0000      -0.490301       -13.3418
 188   2.0000      -0.486924       -13.2499
 189   2.0000      -0.483607       -13.1596
 190   2.0000      -0.479265       -13.0415
 191   2.0000      -0.479093       -13.0368
 192   2.0000      -0.476852       -12.9758
 193   2.0000      -0.473545       -12.8858
 194   2.0000      -0.467180       -12.7126
 195   2.0000      -0.465498       -12.6668
 196   2.0000      -0.459607       -12.5066
 197   2.0000      -0.457212       -12.4414
 198   2.0000      -0.449774       -12.2390
 199   2.0000      -0.447821       -12.1858
 200   2.0000      -0.446320       -12.1450
 201   2.0000      -0.442625       -12.0444
 202   2.0000      -0.435864       -11.8605
 203   2.0000      -0.432794       -11.7769
 204   2.0000      -0.427771       -11.6403
 205   2.0000      -0.426463       -11.6047
 206   2.0000      -0.425960       -11.5910
 207   2.0000      -0.422024       -11.4838
 208   2.0000      -0.420042       -11.4299
 209   2.0000      -0.417392       -11.3578
 210   2.0000      -0.414092       -11.2680
 211   2.0000      -0.413576       -11.2540
 212   2.0000      -0.411451       -11.1961
 213   2.0000      -0.410534       -11.1712
 214   2.0000      -0.408183       -11.1072
 215   2.0000      -0.405134       -11.0243
 216   2.0000      -0.403856       -10.9895
 217   2.0000      -0.400832       -10.9072
 218   2.0000      -0.399096       -10.8600
 219   2.0000      -0.393942       -10.7197
 220   2.0000      -0.387116       -10.5340
 221   2.0000      -0.378670       -10.3041
 222   2.0000      -0.376409       -10.2426
 223   2.0000      -0.369675       -10.0594
 224   2.0000      -0.367536       -10.0012
 225   2.0000      -0.364129        -9.9084
 226   2.0000      -0.361022        -9.8239
 227   2.0000      -0.355376        -9.6703
 228   2.0000      -0.352931        -9.6038
 229   2.0000      -0.347338        -9.4515
 230   2.0000      -0.343859        -9.3569
 231   2.0000      -0.340137        -9.2556
 232   2.0000      -0.337372        -9.1804
 233   2.0000      -0.322966        -8.7884
 234   2.0000      -0.319347        -8.6899
 235   2.0000      -0.306657        -8.3446
 236   2.0000      -0.299362        -8.1460
 237   2.0000      -0.286036        -7.7834
 238   2.0000      -0.278498        -7.5783
 239   2.0000      -0.251756        -6.8506
 240   2.0000      -0.229050        -6.2328
 241   0.0000      -0.108643        -2.9563
 242   0.0000      -0.090771        -2.4700
 243   0.0000      -0.073251        -1.9933
 244   0.0000      -0.057335        -1.5602
 245   0.0000      -0.046668        -1.2699

MULLIKEN ATOMIC CHARGES
-----------------------
   0 C :   -0.190749
   1 C :    0.059359
   2 C :   -0.032337
   3 N :   -0.079250
   4 C :    0.036981
   5 C :    0.016648
   6 N :   -0.016860
   7 C :    0.054428
   8 C :   -0.061495
   9 C :    0.186028
  10 N :   -0.292409
  11 S :    0.605467
  12 N :   -0.328806
  13 N :    0.029910
  14 C :   -0.086211
  15 S :    0.207588
  16 C :   -0.006433
  17 N :    0.271949
  18 O :   -0.260159
  19 O :   -0.268927
  20 C :    0.010761
  21 C :    0.094647
  22 C :   -0.007120
  23 C :   -0.082560
  24 C :    0.044148
  25 O :   -0.160371
  26 C :    0.083056
  27 C :    0.123067
  28 N :    0.288134
  29 O :   -0.222542
  30 O :   -0.275522
  31 C :    0.039427
  32 N :   -0.018506
  33 C :    0.092470
  34 C :   -0.095218
  35 C :    0.028694
  36 C :    0.035349
  37 C :   -0.051545
  38 S :    0.108415
  39 C :   -0.053662
  40 C :    0.061643
  41 C :    0.025728
  42 C :   -0.021322
  43 S :    0.093118
  44 C :    0.004087
  45 C :    0.054643
  46 C :   -0.124785
  47 C :    0.177444
  48 O :   -0.238495
  49 C :    0.010361
  50 C :   -0.088632
  51 C :    0.101982
  52 C :    0.103167
  53 C :   -0.099795
  54 C :    0.302187
  55 C :   -0.034605
  56 C :   -0.012322
  57 F :   -0.193497
  58 C :   -0.092600
  59 C :    0.046003
  60 C :    0.295972
  61 C :   -0.354842
  62 C :   -0.223445
  63 N :    0.157843
  64 C :   -0.177795
  65 N :    0.131587
  66 H :   -0.046457
  67 H :    0.003596
  68 H :    0.009190
  69 H :    0.145952
  70 H :    0.003644
  71 H :   -0.000537
  72 H :   -0.015492
  73 H :    0.036326
  74 H :    0.151065
  75 H :    0.039505
  76 H :   -0.002466
  77 H :   -0.003429
  78 H :   -0.007783
  79 H :    0.000119
  80 H :    0.005861
  81 H :   -0.002154
  82 H :   -0.020985
  83 H :   -0.004420
  84 H :    0.000787
  85 H :   -0.012720
  86 H :   -0.009074
Sum of atomic charges:   -0.0000000

LOEWDIN ATOMIC CHARGES
----------------------
   0 C :   -0.044279
   1 C :   -0.012742
   2 C :   -0.046267
   3 N :   -0.049740
   4 C :    0.001442
   5 C :    0.000623
   6 N :   -0.033050
   7 C :    0.018594
   8 C :   -0.079879
   9 C :   -0.043824
  10 N :   -0.298337
  11 S :    0.764884
  12 N :   -0.322714
  13 N :    0.051250
  14 C :   -0.096582
  15 S :    0.510662
  16 C :   -0.222816
  17 N :    0.273268
  18 O :   -0.225932
  19 O :   -0.235302
  20 C :   -0.004663
  21 C :   -0.111376
  22 C :    0.002136
  23 C :   -0.081603
  24 C :    0.008126
  25 O :    0.049984
  26 C :    0.091970
  27 C :   -0.097975
  28 N :    0.294636
  29 O :   -0.185764
  30 O :   -0.224996
  31 C :   -0.019485
  32 N :    0.056307
  33 C :    0.035568
  34 C :   -0.207020
  35 C :   -0.018122
  36 C :   -0.035402
  37 C :   -0.142680
  38 S :    0.401557
  39 C :   -0.205033
  40 C :    0.005283
  41 C :   -0.049034
  42 C :   -0.090688
  43 S :    0.416382
  44 C :   -0.072655
  45 C :    0.062717
  46 C :   -0.118584
  47 C :    0.093455
  48 O :   -0.222215
  49 C :   -0.055911
  50 C :    0.027886
  51 C :   -0.021733
  52 C :    0.002443
  53 C :   -0.043048
  54 C :    0.090858
  55 C :   -0.041813
  56 C :    0.002991
  57 F :   -0.067962
  58 C :    0.006865
  59 C :   -0.012740
  60 C :    0.069521
  61 C :   -0.156619
  62 C :   -0.024499
  63 N :   -0.064510
  64 C :   -0.019293
  65 N :   -0.068459
  66 H :    0.039906
  67 H :    0.022424
  68 H :    0.024370
  69 H :    0.082471
  70 H :    0.042019
  71 H :    0.036739
  72 H :    0.026305
  73 H :    0.042151
  74 H :    0.085069
  75 H :    0.037375
  76 H :    0.034154
  77 H :    0.035695
  78 H :    0.035783
  79 H :    0.039455
  80 H :    0.038099
  81 H :    0.022674
  82 H :    0.036053
  83 H :    0.042323
  84 H :    0.040314
  85 H :    0.034231
  86 H :    0.038329

  Mayer bond orders larger than 0.100000
B(  0-C ,  1-C ) :   1.2351 B(  0-C ,  7-C ) :   0.1426 B(  0-C ,  9-C ) :   1.1116
B(  0-C , 66-H ) :   1.1091 B(  1-C ,  2-C ) :   1.1965 B(  1-C ,  6-N ) :   1.3546
B(  2-C ,  3-N ) :   1.3616 B(  2-C ,  7-C ) :   1.3182 B(  3-N ,  4-C ) :   1.6805
B(  3-N , 69-H ) :   0.1098 B(  4-C ,  5-C ) :   1.1773 B(  4-C , 67-H ) :   0.9709
B(  5-C ,  6-N ) :   1.7325 B(  5-C , 68-H ) :   0.9726 B(  7-C ,  8-C ) :   1.2956
B(  7-C , 13-N ) :   1.2472 B(  8-C ,  9-C ) :   1.1558 B(  8-C , 12-N ) :   1.3938
B(  9-C , 10-N ) :   1.4277 B( 10-N , 11-S ) :   1.3243 B( 10-N , 12-N ) :   0.1424
B( 11-S , 12-N ) :   1.2991 B( 13-N , 14-C ) :   1.2158 B( 13-N , 69-H ) :   0.8267
B( 14-C , 15-S ) :   1.1698 B( 14-C , 21-C ) :   1.3267 B( 15-S , 16-C ) :   1.0646
B( 16-C , 17-N ) :   0.9801 B( 16-C , 20-C ) :   1.4739 B( 17-N , 18-O ) :   1.5291
B( 17-N , 19-O ) :   1.5106 B( 18-O , 19-O ) :   0.2541 B( 20-C , 21-C ) :   1.2312
B( 20-C , 70-H ) :   1.0060 B( 21-C , 22-C ) :   1.0965 B( 22-C , 23-C ) :   1.6461
B( 22-C , 71-H ) :   0.9811 B( 23-C , 24-C ) :   1.1697 B( 23-C , 72-H ) :   0.9379
B( 24-C , 25-O ) :   1.1135 B( 24-C , 31-C ) :   1.3859 B( 25-O , 26-C ) :   1.2136
B( 26-C , 27-C ) :   1.4292 B( 26-C , 73-H ) :   1.0164 B( 27-C , 28-N ) :   0.9481
B( 27-C , 31-C ) :   1.2434 B( 28-N , 29-O ) :   1.5616 B( 28-N , 30-O ) :   1.4662
B( 29-O , 30-O ) :   0.2615 B( 31-C , 32-N ) :   1.1866 B( 32-N , 33-C ) :   1.2340
B( 32-N , 74-H ) :   0.8693 B( 33-C , 34-C ) :   1.5653 B( 33-C , 75-H ) :   0.9277
B( 34-C , 35-C ) :   1.1446 B( 34-C , 38-S ) :   1.0198 B( 35-C , 36-C ) :   1.5955
B( 35-C , 76-H ) :   0.9976 B( 36-C , 37-C ) :   1.2075 B( 36-C , 77-H ) :   0.9939
B( 37-C , 38-S ) :   1.1088 B( 37-C , 39-C ) :   1.4361 B( 39-C , 40-C ) :   1.2392
B( 39-C , 43-S ) :   1.0423 B( 40-C , 41-C ) :   1.5161 B( 40-C , 78-H ) :   0.9934
B( 41-C , 42-C ) :   1.1996 B( 41-C , 79-H ) :   1.0027 B( 42-C , 43-S ) :   1.1032
B( 42-C , 44-C ) :   1.4488 B( 44-C , 45-C ) :   1.2939 B( 44-C , 80-H ) :   0.9649
B( 45-C , 46-C ) :   1.4481 B( 45-C , 81-H ) :   0.9227 B( 46-C , 47-C ) :   1.0340
B( 46-C , 60-C ) :   1.1013 B( 47-C , 48-O ) :   2.0457 B( 47-C , 49-C ) :   0.9476
B( 49-C , 50-C ) :   1.4719 B( 49-C , 59-C ) :   1.2121 B( 50-C , 51-C ) :   1.1799
B( 50-C , 82-H ) :   1.0148 B( 51-C , 52-C ) :   1.2631 B( 51-C , 56-C ) :   1.2390
B( 52-C , 53-C ) :   1.2088 B( 52-C , 58-C ) :   1.1873 B( 53-C , 54-C ) :   1.4343
B( 53-C , 83-H ) :   1.0065 B( 54-C , 55-C ) :   1.2617 B( 54-C , 57-F ) :   1.0853
B( 55-C , 56-C ) :   1.4545 B( 55-C , 84-H ) :   0.9930 B( 56-C , 85-H ) :   0.9965
B( 58-C , 59-C ) :   1.4793 B( 58-C , 86-H ) :   0.9923 B( 59-C , 60-C ) :   0.9817
B( 60-C , 61-C ) :   1.5942 B( 61-C , 62-C ) :   1.1673 B( 61-C , 64-C ) :   1.1396
B( 62-C , 63-N ) :   3.0085 B( 64-C , 65-N ) :   2.9671

-----------------------------------------------------------------------------
         ABSORPTION SPECTRUM VIA TRANSITION ELECTRIC DIPOLE MOMENTS
-----------------------------------------------------------------------------
State   Energy  Wavelength   fosc         T2         TX        TY        TZ
        (cm-1)    (nm)                  (au**2)     (au)      (au)      (au)
-----------------------------------------------------------------------------
   0   11207.4    892.3   0.789241163  23.18366  -2.04045  -0.98941   4.24751
   1   12750.7    784.3   0.003647853   0.09418  -0.15183  -0.04158  -0.26344
   2   15167.5    659.3   0.229310860   4.97720   0.11986   0.42673  -2.18649
   3   17169.0    582.4   0.403155754   7.73044  -1.72261  -1.36910   1.69959
   4   19991.1    500.2   0.022779662   0.37513  -0.55207  -0.13191   0.23011
   5   21835.1    458.0   0.111311706   1.67827  -1.15540  -0.12211  -0.57306
   6   22061.8    453.3   0.078747789   1.17509  -0.57616  -0.16289  -0.90366
   7   23616.7    423.4   0.031086736   0.43334  -0.51823   0.23782  -0.32898
   8   24376.7    410.2   0.310445878   4.19262   1.68986   0.12894   1.14908
   9   24941.3    400.9   0.034597712   0.45667  -0.55685   0.23589  -0.30156
  10   25142.5    397.7   0.007158828   0.09374   0.09107   0.22793  -0.18301
  11   26873.8    372.1   0.023759291   0.29106   0.29426   0.16001   0.42293
  12   27087.2    369.2   0.121750728   1.47973   0.65430   0.67348  -0.77333
  13   27301.6    366.3   0.119008882   1.43505  -1.04375  -0.58108  -0.08941
  14   27678.9    361.3   0.035240703   0.41915   0.09018   0.29638  -0.56849
  15   28085.2    356.1   0.081205816   0.95189  -0.73075   0.12666  -0.63391
  16   28267.1    353.8   0.226073059   2.63295  -1.11030   0.05210  -1.18215
  17   28758.8    347.7   0.082809946   0.94795   0.17311  -0.39317   0.87373
  18   28975.9    345.1   0.027875314   0.31671  -0.03889  -0.00260  -0.56142
  19   29072.5    344.0   0.036280083   0.41083  -0.46995  -0.14168   0.41220
  20   29360.5    340.6   0.081918611   0.91853   0.88384   0.35695   0.09972
  21   30015.4    333.2   0.011696754   0.12829  -0.31690  -0.12335   0.11248
  22   30406.8    328.9   0.031862935   0.34498  -0.15473  -0.21823  -0.52289
  23   30639.3    326.4   0.006868345   0.07380   0.14810  -0.06900  -0.21703
  24   30696.8    325.8   0.146162011   1.56754   0.10887  -0.14436  -1.23889
  25   30894.6    323.7   0.138409376   1.47489   0.79023   0.08450   0.91830
  26   31209.9    320.4   0.098631834   1.04040  -0.34510   0.03026  -0.95937
  27   31330.9    319.2   0.051431311   0.54042  -0.12965   0.13834  -0.71026
  28   31689.2    315.6   0.019525346   0.20284  -0.02428   0.32159   0.31438
  29   31933.8    313.1   0.002178361   0.02246  -0.01332   0.13331   0.06715
  30   32100.0    311.5   0.300134397   3.07812   0.88593  -0.22375   1.49773
  31   32309.2    309.5   0.077461749   0.78929   0.52510  -0.05920   0.71418
  32   32502.2    307.7   0.032663492   0.33085   0.42997  -0.12237  -0.36193
  33   32725.2    305.6   0.063055362   0.63433  -0.02754  -0.13589  -0.78429
  34   33188.2    301.3   0.127104997   1.26082   0.94334  -0.12009   0.59709
  35   33247.6    300.8   0.016395219   0.16234  -0.37531   0.07953  -0.12314
  36   33405.5    299.4   0.012170772   0.11994  -0.08011   0.00728   0.33686
  37   33886.4    295.1   0.068680081   0.66724  -0.76905   0.05316  -0.27015
  38   34098.1    293.3   0.060804948   0.58706  -0.76296   0.04314  -0.05558
  39   34504.0    289.8   0.023402991   0.22329  -0.36335  -0.14310  -0.26607
  40   34976.5    285.9   0.107902133   1.01562  -0.12544   0.19039   0.98165
  41   35080.6    285.1   0.012571486   0.11798   0.24573   0.08236  -0.22541
  42   35825.4    279.1   0.098556251   0.90567  -0.48605   0.21810  -0.78858
  43   35961.6    278.1   0.005033358   0.04608   0.04907   0.19444   0.07657
  44   36312.1    275.4   0.064250935   0.58251  -0.06634   0.10397  -0.75319
  45   36567.2    273.5   0.083127340   0.74839   0.69819   0.12963  -0.49408
  46   36850.8    271.4   0.050179802   0.44829   0.08696   0.13721  -0.64954
  47   36966.1    270.5   0.053297683   0.47466  -0.43513   0.14727  -0.51345
  48   37281.3    268.2   0.132487509   1.16993  -1.05601   0.08353  -0.21863
  49   37387.6    267.5   0.175617793   1.54638  -1.05150  -0.30439  -0.58998
  50   37784.7    264.7   0.091983150   0.80143   0.89282  -0.02217   0.06180
  51   38064.8    262.7   0.015748993   0.13621   0.36524   0.02578  -0.04628
  52   38528.1    259.6   0.049207447   0.42046  -0.50959  -0.09754   0.38893
  53   38987.5    256.5   0.147154533   1.24258  -0.60654   0.35000  -0.86729
  54   39219.2    255.0   0.740242201   6.21371  -0.52730  -0.09532  -2.43446
  55   39595.7    252.6   0.010048109   0.08354   0.26458  -0.10678   0.04625
  56   39806.1    251.2   0.032222060   0.26649  -0.50962   0.06949  -0.04409
  57   39989.9    250.1   0.012279970   0.10109   0.07819  -0.14376   0.27260

FINAL SINGLE POINT ENERGY     -4414.618250023759

DIPOLE MOMENT
-------------
                                X             Y             Z
Electronic contribution:      6.49931       4.12663      16.95824
Nuclear contribution   :     -5.20761      -4.77095     -22.11648
                        -----------------------------------------
Total Dipole Moment    :      1.29169      -0.64431      -5.15824
                        -----------------------------------------
Magnitude (a.u.)       :      5.35641
Magnitude (Debye)      :     13.61490

Rotational constants in cm-1:     0.001873     0.000555     0.000449
Rotational constants in MHz :    56.161108    16.635939    13.449285

                             ****ORCA TERMINATED NORMALLY****
TOTAL RUN TIME: 0 days 0 hours 10 minutes 8 seconds 220 msec
