                         Program Version 4.2.0 -  RELEASE  -
|  1> # ORCA input file
|  2> # SCF done       -191.131605409429          0.000532834591
|  3> ! CAM-B3LYP def2-SVP def2/J RIJCOSX Grid4 TightSCF
|  4> %maxcore 5000
|  5> %tddft
|  6>     Mode sTDDFT
|  7>     Ethresh 5.0
|  8>     maxcore 5000
|  9> end
| 10>
| 11> %pal
| 12>   nprocs 6
| 13>   end
| 14> * xyz 0 1
| 15>    C       -2.17832         6.04947         4.93731
| 16>    C       -2.57479         7.36242         4.81435
| 17>    C       -1.69385         8.46210         4.85491
| 18>    N       -1.05694         9.41858         4.87375
| 19>    C       -3.87959         7.86345         4.63432
| 20>    N       -4.88112         8.41182         4.48846
| 21>    C       -0.79232         5.63144         5.13610
| 22>    C       -0.76270         4.22059         5.22718
| 23>    C        0.39514         3.50832         5.41748
| 24>    C        1.59039         4.22850         5.52339
| 25>    C        1.55349         5.63874         5.43100
| 26>    C        0.37840         6.35707         5.23865
| 27>    S        3.13995         6.33087         5.58703
| 28>    C        3.82117         4.73638         5.77172
| 29>    C        2.91002         3.73645         5.71969
| 30>   Br        5.67145         4.54433         6.01504
| 31>    C       -2.13344         3.69539         5.08575
| 32>    O       -2.42242         2.50815         5.11774
| 33>    C       -3.00118         4.85981         4.90487
| 34>    C       -4.37310         4.92290         4.71840
| 35>    C       -5.41407         4.00846         4.65162
| 36>    S       -6.99612         4.77170         4.38527
| 37>    C       -7.89824         3.28112         4.40184
| 38>    C       -6.98930         2.21387         4.60293
| 39>    C       -5.62962         2.62152         4.74060
| 40>    N       -4.87683         1.52495         4.93448
| 41>    C       -5.70327         0.43381         4.92401
| 42>    N       -5.19052        -0.86015         5.10593
| 43>    O       -3.98792        -0.96729         5.27419
| 44>    O       -5.98096        -1.78728         5.08421
| 45>    C       -7.01990         0.81724         4.72228
| 46>    C       -9.27312         3.21453         4.25210
| 47>    C      -10.11191         4.30986         4.08735
| 48>    C      -11.51607         4.31686         3.95769
| 49>    C      -12.06478         5.56804         3.83577
| 50>    C      -11.11305         6.59916         3.86130
| 51>    S       -9.50337         5.93790         4.03562
| 52>    C      -11.23076         7.98250         3.78680
| 53>    C      -12.36038         8.81509         3.66934
| 54>    C      -12.05218        10.14649         3.64397
| 55>    C      -10.66756        10.42684         3.73767
| 56>    S       -9.77024         8.93175         3.85891
| 57>    C      -10.07930        11.67288         3.73467
| 58>    C       -8.71269        11.95472         3.83885
| 59>    S       -7.50895        10.71922         4.09971
| 60>    C       -6.27495        11.89691         4.20179
| 61>    C       -6.71585        13.18108         4.06257
| 62>    C       -5.78323        14.34593         4.08147
| 63>    C       -8.12036        13.24146         3.83723
| 64>    C       -8.89196        14.40745         3.56462
| 65>    C       -8.65217        15.67688         3.97872
| 66>    C       -9.53225        16.75239         3.67250
| 67>    C      -10.33430        16.82252         2.57687
| 68>    C      -11.24219        17.88045         2.31777
| 69>    C      -11.91825        18.64154         3.22430
| 70>    C      -12.17536        18.46083         4.63678
| 71>    C      -12.28233        17.26636         5.30494
| 72>    C      -12.64973        17.16030         6.66131
| 73>    N      -12.92667        17.02262         7.76711
| 74>    C      -12.12582        15.99988         4.70925
| 75>    N      -12.06378        14.93202         4.28992
| 76>    C      -12.57900        19.75808         5.17080
| 77>    C      -12.79493        20.64797         4.08789
| 78>    C      -12.47658        19.95787         2.82068
| 79>    O      -12.59632        20.38227         1.69414
| 80>    C      -13.21791        21.94178         4.26982
| 81>    C      -13.42618        22.38214         5.58145
| 82>    C      -13.19335        21.49076         6.65610
| 83>    C      -12.77396        20.17868         6.47246
| 84>    S      -13.49874        22.24647         8.19047
| 85>    C      -13.93510        23.72718         7.37908
| 86>    C      -13.85415        23.66198         6.02885
| 87>   Br      -14.45176        25.21902         8.39127
| 88>    H        0.38013         2.43170         5.48284
| 89>    H        0.40822         7.43160         5.17578
| 90>    H        3.15541         2.69450         5.81524
| 91>    H       -4.74249         5.93534         4.59238
| 92>    H       -3.85899         1.53790         5.05350
| 93>    H       -7.86160         0.15759         4.67351
| 94>    H       -9.72624         2.23327         4.27679
| 95>    H      -12.08653         3.40492         3.96252
| 96>    H      -13.11810         5.75889         3.73262
| 97>    H      -13.35868         8.41998         3.61059
| 98>    H      -12.77707        10.93746         3.56512
| 99>    H      -10.75537        12.51529         3.66495
|100>    H       -5.26483        11.56897         4.35503
|101>    H       -4.76367        14.00613         3.91737
|102>    H       -5.81734        14.85013         5.04696
|103>    H       -6.04903        15.06254         3.30701
|104>    H       -9.81004        14.24058         3.01858
|105>    H       -7.83997        15.88992         4.65620
|106>    H       -9.51986        17.59427         4.35514
|107>    H      -10.21800        16.08934         1.79072
|108>    H      -11.38750        18.16358         1.27988
|109>    H      -13.38313        22.59509         3.42757
|110>    H      -12.60270        19.53724         7.32119
|111>    H      -14.08555        24.48166         5.37348
|112> *
|113>
|114>                          ****END OF INPUT****

CARTESIAN COORDINATES (ANGSTROEM)
---------------------------------
  C     -2.178320    6.049470    4.937310
  C     -2.574790    7.362420    4.814350
  C     -1.693850    8.462100    4.854910
  N     -1.056940    9.418580    4.873750
  C     -3.879590    7.863450    4.634320
  N     -4.881120    8.411820    4.488460
  C     -0.792320    5.631440    5.136100
  C     -0.762700    4.220590    5.227180
  C      0.395140    3.508320    5.417480
  C      1.590390    4.228500    5.523390
  C      1.553490    5.638740    5.431000
  C      0.378400    6.357070    5.238650
  S      3.139950    6.330870    5.587030
  C      3.821170    4.736380    5.771720
  C      2.910020    3.736450    5.719690
  Br     5.671450    4.544330    6.015040
  C     -2.133440    3.695390    5.085750
  O     -2.422420    2.508150    5.117740
  C     -3.001180    4.859810    4.904870
  C     -4.373100    4.922900    4.718400
  C     -5.414070    4.008460    4.651620
  S     -6.996120    4.771700    4.385270
  C     -7.898240    3.281120    4.401840
  C     -6.989300    2.213870    4.602930
  C     -5.629620    2.621520    4.740600
  N     -4.876830    1.524950    4.934480
  C     -5.703270    0.433810    4.924010
  N     -5.190520   -0.860150    5.105930
  O     -3.987920   -0.967290    5.274190
  O     -5.980960   -1.787280    5.084210
  C     -7.019900    0.817240    4.722280
  C     -9.273120    3.214530    4.252100
  C    -10.111910    4.309860    4.087350
  C    -11.516070    4.316860    3.957690
  C    -12.064780    5.568040    3.835770
  C    -11.113050    6.599160    3.861300
  S     -9.503370    5.937900    4.035620
  C    -11.230760    7.982500    3.786800
  C    -12.360380    8.815090    3.669340
  C    -12.052180   10.146490    3.643970
  C    -10.667560   10.426840    3.737670
  S     -9.770240    8.931750    3.858910
  C    -10.079300   11.672880    3.734670
  C     -8.712690   11.954720    3.838850
  S     -7.508950   10.719220    4.099710
  C     -6.274950   11.896910    4.201790
  C     -6.715850   13.181080    4.062570
  C     -5.783230   14.345930    4.081470
  C     -8.120360   13.241460    3.837230
  C     -8.891960   14.407450    3.564620
  C     -8.652170   15.676880    3.978720
  C     -9.532250   16.752390    3.672500
  C    -10.334300   16.822520    2.576870
  C    -11.242190   17.880450    2.317770
  C    -11.918250   18.641540    3.224300
  C    -12.175360   18.460830    4.636780
  C    -12.282330   17.266360    5.304940
  C    -12.649730   17.160300    6.661310
  N    -12.926670   17.022620    7.767110
  C    -12.125820   15.999880    4.709250
  N    -12.063780   14.932020    4.289920
  C    -12.579000   19.758080    5.170800
  C    -12.794930   20.647970    4.087890
  C    -12.476580   19.957870    2.820680
  O    -12.596320   20.382270    1.694140
  C    -13.217910   21.941780    4.269820
  C    -13.426180   22.382140    5.581450
  C    -13.193350   21.490760    6.656100
  C    -12.773960   20.178680    6.472460
  S    -13.498740   22.246470    8.190470
  C    -13.935100   23.727180    7.379080
  C    -13.854150   23.661980    6.028850
  Br   -14.451760   25.219020    8.391270
  H      0.380130    2.431700    5.482840
  H      0.408220    7.431600    5.175780
  H      3.155410    2.694500    5.815240
  H     -4.742490    5.935340    4.592380
  H     -3.858990    1.537900    5.053500
  H     -7.861600    0.157590    4.673510
  H     -9.726240    2.233270    4.276790
  H    -12.086530    3.404920    3.962520
  H    -13.118100    5.758890    3.732620
  H    -13.358680    8.419980    3.610590
  H    -12.777070   10.937460    3.565120
  H    -10.755370   12.515290    3.664950
  H     -5.264830   11.568970    4.355030
  H     -4.763670   14.006130    3.917370
  H     -5.817340   14.850130    5.046960
  H     -6.049030   15.062540    3.307010
  H     -9.810040   14.240580    3.018580
  H     -7.839970   15.889920    4.656200
  H     -9.519860   17.594270    4.355140
  H    -10.218000   16.089340    1.790720
  H    -11.387500   18.163580    1.279880
  H    -13.383130   22.595090    3.427570
  H    -12.602700   19.537240    7.321190
  H    -14.085550   24.481660    5.373480

 Total Charge           Charge          ....    0
 Multiplicity           Mult            ....    1
 Number of Electrons    NEL             ....  594
 Basis Dimension        Dim             .... 1202

ORBITAL ENERGIES
----------------

  NO   OCC          E(Eh)            E(eV)
   0   2.0000    -482.890325    -13140.1138
   1   2.0000    -482.875967    -13139.7231
   2   2.0000     -88.981157     -2421.3004
   3   2.0000     -88.966171     -2420.8926
   4   2.0000     -88.965496     -2420.8742
   5   2.0000     -88.965246     -2420.8674
   6   2.0000     -88.964069     -2420.8354
   7   2.0000     -88.963816     -2420.8285
   8   2.0000     -62.568032     -1702.5627
   9   2.0000     -62.553650     -1702.1714
  10   2.0000     -56.401993     -1534.7763
  11   2.0000     -56.399258     -1534.7018
  12   2.0000     -56.399231     -1534.7011
  13   2.0000     -56.387590     -1534.3843
  14   2.0000     -56.384899     -1534.3111
  15   2.0000     -56.384859     -1534.3100
  16   2.0000     -19.227760      -523.2139
  17   2.0000     -19.226017      -523.1665
  18   2.0000     -19.219375      -522.9858
  19   2.0000     -19.206897      -522.6462
  20   2.0000     -14.637872      -398.3167
  21   2.0000     -14.460718      -393.4961
  22   2.0000     -14.426884      -392.5755
  23   2.0000     -14.421190      -392.4205
  24   2.0000     -14.405930      -392.0053
  25   2.0000     -14.397058      -391.7639
  26   2.0000     -10.370703      -282.2012
  27   2.0000     -10.364393      -282.0295
  28   2.0000     -10.357142      -281.8321
  29   2.0000     -10.350557      -281.6530
  30   2.0000     -10.348077      -281.5855
  31   2.0000     -10.346939      -281.5545
  32   2.0000     -10.343745      -281.4676
  33   2.0000     -10.339770      -281.3595
  34   2.0000     -10.332010      -281.1483
  35   2.0000     -10.331921      -281.1459
  36   2.0000     -10.330742      -281.1138
  37   2.0000     -10.330054      -281.0951
  38   2.0000     -10.326224      -280.9908
  39   2.0000     -10.324319      -280.9390
  40   2.0000     -10.324145      -280.9343
  41   2.0000     -10.323233      -280.9095
  42   2.0000     -10.320672      -280.8398
  43   2.0000     -10.320257      -280.8285
  44   2.0000     -10.318736      -280.7871
  45   2.0000     -10.316097      -280.7153
  46   2.0000     -10.315401      -280.6963
  47   2.0000     -10.313699      -280.6500
  48   2.0000     -10.313260      -280.6381
  49   2.0000     -10.312625      -280.6208
  50   2.0000     -10.311922      -280.6017
  51   2.0000     -10.311898      -280.6010
  52   2.0000     -10.310122      -280.5527
  53   2.0000     -10.308561      -280.5102
  54   2.0000     -10.307081      -280.4699
  55   2.0000     -10.306837      -280.4633
  56   2.0000     -10.306134      -280.4442
  57   2.0000     -10.305762      -280.4340
  58   2.0000     -10.302980      -280.3583
  59   2.0000     -10.302366      -280.3416
  60   2.0000     -10.301881      -280.3284
  61   2.0000     -10.301468      -280.3172
  62   2.0000     -10.300370      -280.2873
  63   2.0000     -10.299048      -280.2513
  64   2.0000     -10.298937      -280.2483
  65   2.0000     -10.297895      -280.2200
  66   2.0000     -10.295129      -280.1447
  67   2.0000     -10.294494      -280.1274
  68   2.0000     -10.293641      -280.1042
  69   2.0000     -10.293223      -280.0928
  70   2.0000     -10.292464      -280.0722
  71   2.0000     -10.290890      -280.0294
  72   2.0000     -10.290695      -280.0241
  73   2.0000     -10.290259      -280.0122
  74   2.0000     -10.287981      -279.9502
  75   2.0000     -10.287043      -279.9247
  76   2.0000     -10.285388      -279.8796
  77   2.0000     -10.284603      -279.8583
  78   2.0000     -10.276961      -279.6503
  79   2.0000     -10.274808      -279.5917
  80   2.0000     -10.274023      -279.5704
  81   2.0000      -8.797451      -239.3908
  82   2.0000      -8.783051      -238.9990
  83   2.0000      -8.077149      -219.7904
  84   2.0000      -8.062470      -219.3910
  85   2.0000      -8.061503      -219.3646
  86   2.0000      -8.060782      -219.3450
  87   2.0000      -8.059846      -219.3195
  88   2.0000      -8.058909      -219.2941
  89   2.0000      -6.633799      -180.5149
  90   2.0000      -6.619297      -180.1202
  91   2.0000      -6.619175      -180.1169
  92   2.0000      -6.618941      -180.1106
  93   2.0000      -6.604799      -179.7257
  94   2.0000      -6.604636      -179.7213
  95   2.0000      -6.046855      -164.5433
  96   2.0000      -6.042554      -164.4262
  97   2.0000      -6.038364      -164.3122
  98   2.0000      -6.032161      -164.1435
  99   2.0000      -6.031066      -164.1137
 100   2.0000      -6.029969      -164.0838
 101   2.0000      -6.029536      -164.0720
 102   2.0000      -6.028391      -164.0409
 103   2.0000      -6.027840      -164.0259
 104   2.0000      -6.026749      -163.9962
 105   2.0000      -6.025547      -163.9635
 106   2.0000      -6.025271      -163.9560
 107   2.0000      -6.024117      -163.9245
 108   2.0000      -6.023592      -163.9103
 109   2.0000      -6.023308      -163.9025
 110   2.0000      -6.022879      -163.8909
 111   2.0000      -6.021062      -163.8414
 112   2.0000      -6.020703      -163.8316
 113   2.0000      -2.749640       -74.8215
 114   2.0000      -2.745565       -74.7106
 115   2.0000      -2.745408       -74.7064
 116   2.0000      -2.735182       -74.4281
 117   2.0000      -2.733780       -74.3899
 118   2.0000      -2.733767       -74.3896
 119   2.0000      -2.731091       -74.3168
 120   2.0000      -2.730994       -74.3141
 121   2.0000      -2.719460       -74.0003
 122   2.0000      -2.719445       -73.9999
 123   2.0000      -1.307314       -35.5738
 124   2.0000      -1.134410       -30.8689
 125   2.0000      -1.126179       -30.6449
 126   2.0000      -1.120403       -30.4877
 127   2.0000      -1.092610       -29.7314
 128   2.0000      -1.029818       -28.0228
 129   2.0000      -1.020668       -27.7738
 130   2.0000      -1.018260       -27.7083
 131   2.0000      -1.009242       -27.4629
 132   2.0000      -1.002536       -27.2804
 133   2.0000      -1.001683       -27.2572
 134   2.0000      -1.001133       -27.2422
 135   2.0000      -0.996341       -27.1118
 136   2.0000      -0.991879       -26.9904
 137   2.0000      -0.981003       -26.6944
 138   2.0000      -0.980157       -26.6714
 139   2.0000      -0.973590       -26.4927
 140   2.0000      -0.951971       -25.9044
 141   2.0000      -0.935788       -25.4641
 142   2.0000      -0.929894       -25.3037
 143   2.0000      -0.917454       -24.9652
 144   2.0000      -0.914536       -24.8858
 145   2.0000      -0.908032       -24.7088
 146   2.0000      -0.905913       -24.6511
 147   2.0000      -0.894853       -24.3502
 148   2.0000      -0.892145       -24.2765
 149   2.0000      -0.890638       -24.2355
 150   2.0000      -0.885975       -24.1086
 151   2.0000      -0.881903       -23.9978
 152   2.0000      -0.873187       -23.7606
 153   2.0000      -0.872035       -23.7293
 154   2.0000      -0.868311       -23.6279
 155   2.0000      -0.857625       -23.3372
 156   2.0000      -0.851851       -23.1800
 157   2.0000      -0.841474       -22.8977
 158   2.0000      -0.838117       -22.8063
 159   2.0000      -0.835201       -22.7270
 160   2.0000      -0.822739       -22.3879
 161   2.0000      -0.816112       -22.2075
 162   2.0000      -0.807279       -21.9672
 163   2.0000      -0.792273       -21.5588
 164   2.0000      -0.779065       -21.1994
 165   2.0000      -0.774842       -21.0845
 166   2.0000      -0.771619       -20.9968
 167   2.0000      -0.761640       -20.7253
 168   2.0000      -0.751989       -20.4627
 169   2.0000      -0.747118       -20.3301
 170   2.0000      -0.733312       -19.9544
 171   2.0000      -0.728548       -19.8248
 172   2.0000      -0.708588       -19.2817
 173   2.0000      -0.706245       -19.2179
 174   2.0000      -0.702238       -19.1089
 175   2.0000      -0.694031       -18.8855
 176   2.0000      -0.684478       -18.6256
 177   2.0000      -0.683056       -18.5869
 178   2.0000      -0.676914       -18.4198
 179   2.0000      -0.674642       -18.3579
 180   2.0000      -0.673059       -18.3149
 181   2.0000      -0.664508       -18.0822
 182   2.0000      -0.657826       -17.9003
 183   2.0000      -0.650822       -17.7098
 184   2.0000      -0.646261       -17.5857
 185   2.0000      -0.644751       -17.5446
 186   2.0000      -0.641415       -17.4538
 187   2.0000      -0.630338       -17.1524
 188   2.0000      -0.629544       -17.1308
 189   2.0000      -0.625851       -17.0303
 190   2.0000      -0.622204       -16.9310
 191   2.0000      -0.620814       -16.8932
 192   2.0000      -0.611295       -16.6342
 193   2.0000      -0.608533       -16.5590
 194   2.0000      -0.607407       -16.5284
 195   2.0000      -0.600988       -16.3537
 196   2.0000      -0.598124       -16.2758
 197   2.0000      -0.594755       -16.1841
 198   2.0000      -0.587229       -15.9793
 199   2.0000      -0.585077       -15.9208
 200   2.0000      -0.583353       -15.8738
 201   2.0000      -0.574182       -15.6243
 202   2.0000      -0.566806       -15.4236
 203   2.0000      -0.561845       -15.2886
 204   2.0000      -0.557943       -15.1824
 205   2.0000      -0.554258       -15.0821
 206   2.0000      -0.551697       -15.0124
 207   2.0000      -0.547490       -14.8980
 208   2.0000      -0.542823       -14.7710
 209   2.0000      -0.538382       -14.6501
 210   2.0000      -0.536953       -14.6112
 211   2.0000      -0.534649       -14.5485
 212   2.0000      -0.533274       -14.5111
 213   2.0000      -0.530920       -14.4471
 214   2.0000      -0.526708       -14.3325
 215   2.0000      -0.524089       -14.2612
 216   2.0000      -0.523857       -14.2549
 217   2.0000      -0.522231       -14.2106
 218   2.0000      -0.519045       -14.1239
 219   2.0000      -0.517432       -14.0800
 220   2.0000      -0.514602       -14.0030
 221   2.0000      -0.513882       -13.9834
 222   2.0000      -0.512418       -13.9436
 223   2.0000      -0.510771       -13.8988
 224   2.0000      -0.508409       -13.8345
 225   2.0000      -0.507390       -13.8068
 226   2.0000      -0.502708       -13.6794
 227   2.0000      -0.501338       -13.6421
 228   2.0000      -0.497727       -13.5438
 229   2.0000      -0.495856       -13.4929
 230   2.0000      -0.493805       -13.4371
 231   2.0000      -0.490659       -13.3515
 232   2.0000      -0.487976       -13.2785
 233   2.0000      -0.483251       -13.1499
 234   2.0000      -0.482218       -13.1218
 235   2.0000      -0.481625       -13.1057
 236   2.0000      -0.477683       -12.9984
 237   2.0000      -0.475561       -12.9407
 238   2.0000      -0.470686       -12.8080
 239   2.0000      -0.467660       -12.7257
 240   2.0000      -0.465050       -12.6547
 241   2.0000      -0.464175       -12.6308
 242   2.0000      -0.463271       -12.6062
 243   2.0000      -0.461846       -12.5675
 244   2.0000      -0.457684       -12.4542
 245   2.0000      -0.457379       -12.4459
 246   2.0000      -0.454893       -12.3783
 247   2.0000      -0.452283       -12.3072
 248   2.0000      -0.450061       -12.2468
 249   2.0000      -0.448142       -12.1946
 250   2.0000      -0.446804       -12.1582
 251   2.0000      -0.444855       -12.1051
 252   2.0000      -0.443576       -12.0703
 253   2.0000      -0.440378       -11.9833
 254   2.0000      -0.436565       -11.8795
 255   2.0000      -0.436406       -11.8752
 256   2.0000      -0.435128       -11.8404
 257   2.0000      -0.430899       -11.7254
 258   2.0000      -0.428605       -11.6629
 259   2.0000      -0.426697       -11.6110
 260   2.0000      -0.425721       -11.5845
 261   2.0000      -0.422122       -11.4865
 262   2.0000      -0.416987       -11.3468
 263   2.0000      -0.414291       -11.2734
 264   2.0000      -0.411100       -11.1866
 265   2.0000      -0.406870       -11.0715
 266   2.0000      -0.403504       -10.9799
 267   2.0000      -0.400798       -10.9063
 268   2.0000      -0.393746       -10.7144
 269   2.0000      -0.393004       -10.6942
 270   2.0000      -0.390363       -10.6223
 271   2.0000      -0.386147       -10.5076
 272   2.0000      -0.383565       -10.4373
 273   2.0000      -0.379641       -10.3306
 274   2.0000      -0.374828       -10.1996
 275   2.0000      -0.374527       -10.1914
 276   2.0000      -0.366603        -9.9758
 277   2.0000      -0.365613        -9.9488
 278   2.0000      -0.363891        -9.9020
 279   2.0000      -0.359872        -9.7926
 280   2.0000      -0.356656        -9.7051
 281   2.0000      -0.354450        -9.6451
 282   2.0000      -0.352847        -9.6015
 283   2.0000      -0.343608        -9.3500
 284   2.0000      -0.337999        -9.1974
 285   2.0000      -0.333916        -9.0863
 286   2.0000      -0.325004        -8.8438
 287   2.0000      -0.322680        -8.7806
 288   2.0000      -0.321157        -8.7391
 289   2.0000      -0.310312        -8.4440
 290   2.0000      -0.303745        -8.2653
 291   2.0000      -0.302965        -8.2441
 292   2.0000      -0.300355        -8.1731
 293   2.0000      -0.284814        -7.7502
 294   2.0000      -0.280850        -7.6423
 295   2.0000      -0.259583        -7.0636
 296   2.0000      -0.219436        -5.9712
 297   0.0000      -0.119120        -3.2414
 298   0.0000      -0.097370        -2.6496
 299   0.0000      -0.067392        -1.8338
 300   0.0000      -0.061061        -1.6616
 301   0.0000      -0.049091        -1.3358

MULLIKEN ATOMIC CHARGES
-----------------------
   0 C :    0.336299
   1 C :   -0.393629
   2 C :   -0.202623
   3 N :    0.131302
   4 C :   -0.174273
   5 N :    0.116433
   6 C :    0.013536
   7 C :   -0.016944
   8 C :   -0.079588
   9 C :    0.118762
  10 C :   -0.092257
  11 C :   -0.026072
  12 S :    0.176759
  13 C :   -0.122308
  14 C :    0.035655
  15 Br:    0.013843
  16 C :    0.171583
  17 O :   -0.219505
  18 C :   -0.126216
  19 C :    0.036367
  20 C :   -0.174207
  21 S :    0.091345
  22 C :   -0.045271
  23 C :    0.078850
  24 C :    0.122486
  25 N :    0.013724
  26 C :    0.121477
  27 N :    0.281790
  28 O :   -0.255526
  29 O :   -0.256594
  30 C :   -0.093872
  31 C :   -0.018957
  32 C :   -0.009485
  33 C :    0.015880
  34 C :    0.047462
  35 C :   -0.044712
  36 S :    0.076378
  37 C :   -0.004394
  38 C :    0.025731
  39 C :    0.049632
  40 C :   -0.059681
  41 S :    0.089255
  42 C :    0.025951
  43 C :   -0.132774
  44 S :    0.158353
  45 C :   -0.081863
  46 C :   -0.093023
  47 C :    0.107983
  48 C :    0.131785
  49 C :   -0.025889
  50 C :   -0.006555
  51 C :    0.036773
  52 C :   -0.019050
  53 C :    0.049475
  54 C :   -0.126460
  55 C :    0.265508
  56 C :   -0.340605
  57 C :   -0.186292
  58 N :    0.157024
  59 C :   -0.175023
  60 N :    0.153299
  61 C :   -0.004873
  62 C :    0.007888
  63 C :    0.135959
  64 O :   -0.143139
  65 C :   -0.071794
  66 C :    0.110143
  67 C :   -0.087454
  68 C :   -0.018654
  69 S :    0.186956
  70 C :   -0.126065
  71 C :    0.044432
  72 Br:    0.027113
  73 H :   -0.009912
  74 H :   -0.010284
  75 H :   -0.004290
  76 H :   -0.019073
  77 H :    0.154979
  78 H :   -0.008944
  79 H :   -0.011223
  80 H :   -0.006772
  81 H :   -0.005573
  82 H :   -0.006664
  83 H :    0.012758
  84 H :    0.013735
  85 H :    0.039854
  86 H :    0.021153
  87 H :    0.039343
  88 H :    0.030325
  89 H :    0.018580
  90 H :   -0.007019
  91 H :    0.017932
  92 H :    0.015340
  93 H :    0.029223
  94 H :   -0.007188
  95 H :   -0.002541
  96 H :   -0.001305
Sum of atomic charges:   -0.0000000

LOEWDIN ATOMIC CHARGES
----------------------
   0 C :    0.081643
   1 C :   -0.173981
   2 C :   -0.019599
   3 N :   -0.080889
   4 C :   -0.016479
   5 N :   -0.094049
   6 C :   -0.018194
   7 C :   -0.048110
   8 C :    0.018852
   9 C :   -0.036839
  10 C :   -0.146248
  11 C :   -0.014507
  12 S :    0.426431
  13 C :   -0.275654
  14 C :   -0.069978
  15 Br:    0.129237
  16 C :    0.098681
  17 O :   -0.175009
  18 C :   -0.142904
  19 C :    0.026065
  20 C :   -0.209489
  21 S :    0.444151
  22 C :   -0.120809
  23 C :   -0.086772
  24 C :    0.017624
  25 N :    0.104998
  26 C :   -0.018911
  27 N :    0.278339
  28 O :   -0.219803
  29 O :   -0.218793
  30 C :   -0.027635
  31 C :   -0.099009
  32 C :   -0.123379
  33 C :   -0.050521
  34 C :   -0.015294
  35 C :   -0.203756
  36 S :    0.414867
  37 C :   -0.135970
  38 C :   -0.050847
  39 C :    0.005641
  40 C :   -0.170605
  41 S :    0.404788
  42 C :   -0.015998
  43 C :   -0.176508
  44 S :    0.482491
  45 C :   -0.158538
  46 C :   -0.054437
  47 C :   -0.044307
  48 C :   -0.045353
  49 C :    0.022802
  50 C :   -0.039564
  51 C :    0.027581
  52 C :   -0.042569
  53 C :    0.071378
  54 C :   -0.095719
  55 C :    0.072176
  56 C :   -0.147213
  57 C :   -0.022079
  58 N :   -0.053998
  59 C :    0.002600
  60 N :   -0.066687
  61 C :   -0.020425
  62 C :   -0.051368
  63 C :    0.082407
  64 O :   -0.142440
  65 C :    0.022854
  66 C :   -0.031840
  67 C :   -0.143420
  68 C :   -0.010872
  69 S :    0.433597
  70 C :   -0.270397
  71 C :   -0.069870
  72 Br:    0.139638
  73 H :    0.040420
  74 H :    0.039659
  75 H :    0.038193
  76 H :    0.040220
  77 H :    0.075468
  78 H :    0.037653
  79 H :    0.040905
  80 H :    0.035350
  81 H :    0.036021
  82 H :    0.035425
  83 H :    0.043263
  84 H :    0.048587
  85 H :    0.033140
  86 H :    0.037926
  87 H :    0.036672
  88 H :    0.035427
  89 H :    0.032194
  90 H :    0.031420
  91 H :    0.034641
  92 H :    0.035763
  93 H :    0.047370
  94 H :    0.042237
  95 H :    0.041178
  96 H :    0.039659

  Mayer bond orders larger than 0.100000
B(  0-C ,  1-C ) :   1.5349 B(  0-C ,  6-C ) :   0.9740 B(  0-C , 18-C ) :   1.1711
B(  1-C ,  2-C ) :   1.1591 B(  1-C ,  4-C ) :   1.1548 B(  2-C ,  3-N ) :   2.9614
B(  4-C ,  5-N ) :   2.9440 B(  6-C ,  7-C ) :   1.2770 B(  6-C , 11-C ) :   1.4259
B(  7-C ,  8-C ) :   1.4300 B(  7-C , 16-C ) :   0.9565 B(  8-C ,  9-C ) :   1.2330
B(  8-C , 73-H ) :   1.0173 B(  9-C , 10-C ) :   1.3188 B(  9-C , 14-C ) :   1.1625
B( 10-C , 11-C ) :   1.3163 B( 10-C , 12-S ) :   1.0842 B( 11-C , 74-H ) :   0.9795
B( 12-S , 13-C ) :   1.0848 B( 13-C , 14-C ) :   1.6186 B( 13-C , 15-Br) :   1.0127
B( 14-C , 75-H ) :   1.0009 B( 16-C , 17-O ) :   2.0503 B( 16-C , 18-C ) :   1.0011
B( 17-O , 77-H ) :   0.1301 B( 18-C , 19-C ) :   1.3977 B( 19-C , 20-C ) :   1.4646
B( 19-C , 76-H ) :   0.8750 B( 20-C , 21-S ) :   1.0557 B( 20-C , 24-C ) :   1.1612
B( 21-S , 22-C ) :   1.1248 B( 22-C , 23-C ) :   1.1926 B( 22-C , 31-C ) :   1.3509
B( 23-C , 24-C ) :   1.2879 B( 23-C , 30-C ) :   1.2073 B( 24-C , 25-N ) :   1.3302
B( 25-N , 26-C ) :   1.1878 B( 25-N , 77-H ) :   0.8402 B( 26-C , 27-N ) :   0.9372
B( 26-C , 30-C ) :   1.4691 B( 27-N , 28-O ) :   1.4941 B( 27-N , 29-O ) :   1.5242
B( 28-O , 29-O ) :   0.2638 B( 30-C , 78-H ) :   1.0175 B( 31-C , 32-C ) :   1.4015
B( 31-C , 79-H ) :   0.9725 B( 32-C , 33-C ) :   1.2094 B( 32-C , 36-S ) :   1.1036
B( 33-C , 34-C ) :   1.5142 B( 33-C , 80-H ) :   1.0010 B( 34-C , 35-C ) :   1.2462
B( 34-C , 81-H ) :   0.9950 B( 35-C , 36-S ) :   1.0400 B( 35-C , 37-C ) :   1.4228
B( 37-C , 38-C ) :   1.2167 B( 37-C , 41-S ) :   1.0962 B( 38-C , 39-C ) :   1.5456
B( 38-C , 82-H ) :   0.9972 B( 39-C , 40-C ) :   1.1744 B( 39-C , 83-H ) :   0.9995
B( 40-C , 41-S ) :   1.0303 B( 40-C , 42-C ) :   1.5293 B( 42-C , 43-C ) :   1.2375
B( 42-C , 84-H ) :   0.9556 B( 43-C , 44-S ) :   1.1138 B( 43-C , 48-C ) :   1.3187
B( 44-S , 45-C ) :   1.1731 B( 45-C , 46-C ) :   1.5534 B( 45-C , 85-H ) :   0.9713
B( 46-C , 47-C ) :   1.0897 B( 46-C , 48-C ) :   1.2640 B( 47-C , 86-H ) :   0.9476
B( 47-C , 87-H ) :   0.9415 B( 47-C , 88-H ) :   0.9454 B( 48-C , 49-C ) :   1.1453
B( 49-C , 50-C ) :   1.6703 B( 49-C , 89-H ) :   0.9470 B( 50-C , 51-C ) :   1.1449
B( 50-C , 90-H ) :   0.9744 B( 51-C , 52-C ) :   1.6663 B( 51-C , 91-H ) :   0.9627
B( 52-C , 53-C ) :   1.1429 B( 52-C , 92-H ) :   0.9544 B( 53-C , 54-C ) :   1.6602
B( 53-C , 93-H ) :   0.9363 B( 54-C , 55-C ) :   1.0392 B( 54-C , 63-C ) :   0.9434
B( 55-C , 56-C ) :   1.6421 B( 55-C , 61-C ) :   1.0132 B( 56-C , 57-C ) :   1.1326
B( 56-C , 59-C ) :   1.1601 B( 57-C , 58-N ) :   2.9902 B( 59-C , 60-N ) :   2.9846
B( 61-C , 62-C ) :   1.2748 B( 61-C , 68-C ) :   1.4107 B( 62-C , 63-C ) :   0.9161
B( 62-C , 65-C ) :   1.4232 B( 63-C , 64-O ) :   2.2720 B( 65-C , 66-C ) :   1.2502
B( 65-C , 94-H ) :   1.0170 B( 66-C , 67-C ) :   1.3070 B( 66-C , 71-C ) :   1.1653
B( 67-C , 68-C ) :   1.3285 B( 67-C , 69-S ) :   1.0835 B( 68-C , 95-H ) :   0.9845
B( 69-S , 70-C ) :   1.0886 B( 70-C , 71-C ) :   1.6168 B( 70-C , 72-Br) :   1.0204
B( 71-C , 96-H ) :   0.9998

-----------------------------------------------------------------------------
         ABSORPTION SPECTRUM VIA TRANSITION ELECTRIC DIPOLE MOMENTS
-----------------------------------------------------------------------------
State   Energy  Wavelength   fosc         T2         TX        TY        TZ
        (cm-1)    (nm)                  (au**2)     (au)      (au)      (au)
-----------------------------------------------------------------------------
   0    8682.0   1151.8   0.876396414  33.23184  -3.23939   4.74971  -0.42247
   1   15112.6    661.7   0.128319860   2.79531  -0.82033  -1.37712  -0.47528
   2   16626.3    601.5   0.330265054   6.53946   0.80145   2.41003   0.29811
   3   19717.4    507.2   0.661279018  11.04106   1.34212   3.03704   0.12716
   4   20982.0    476.6   0.219985052   3.45161   1.72445   0.49376  -0.48384
   5   22014.5    454.2   0.750184489  11.21849   2.79082   1.85189  -0.01809
   6   23175.9    431.5   0.019286748   0.27397   0.06141   0.51109   0.09476
   7   23263.0    429.9   0.018156123   0.25694  -0.43823  -0.10689   0.23124
   8   24314.6    411.3   0.198188819   2.68342  -1.54091   0.53340  -0.15648
   9   24903.5    401.6   0.246546657   3.25923   1.74413   0.25889   0.38759
  10   25673.8    389.5   0.136880304   1.75520  -0.35544   1.27366   0.08151
  11   26008.0    384.5   0.050781454   0.64280   0.31567  -0.72939  -0.10552
  12   26272.8    380.6   0.185841054   2.32868  -0.79989   1.20224   0.49343
  13   26852.1    372.4   0.036215147   0.44401  -0.13312  -0.64779  -0.08157
  14   28413.8    351.9   0.031556180   0.36562   0.12516   0.04324  -0.58999
  15   28906.5    345.9   0.066048875   0.75222   0.74315  -0.43672   0.09607
  16   29267.8    341.7   0.011965733   0.13459  -0.20201   0.28867  -0.10227
  17   29388.3    340.3   0.004039455   0.04525  -0.17716  -0.05283   0.10523
  18   29439.4    339.7   0.033859862   0.37864   0.51587   0.33303   0.04018
  19   29567.7    338.2   0.003925925   0.04371   0.19707   0.00018  -0.06982
  20   30136.3    331.8   0.353327053   3.85979   1.31944  -1.43691   0.23271
  21   30583.8    327.0   0.057231510   0.61606  -0.62095  -0.46892  -0.10293
  22   31013.6    322.4   0.071713767   0.76125  -0.58034   0.63228   0.15708
  23   31230.9    320.2   0.581418793   6.12886  -2.21516   1.08089  -0.23157
  24   31769.4    314.8   0.022016699   0.22815   0.32291   0.27984   0.21346
  25   31829.9    314.2   0.277136943   2.86639  -0.56984   1.55976   0.32990
  26   32124.0    311.3   0.001336766   0.01370   0.07221   0.09194  -0.00574
  27   32169.1    310.9   0.101852376   1.04233   0.57265  -0.81928   0.20781
  28   32292.7    309.7   0.116861703   1.19136  -0.39166  -0.99392   0.22381
  29   32911.9    303.8   0.049637670   0.49652   0.55987  -0.42674   0.03097
  30   33028.2    302.8   0.039049310   0.38923  -0.43483   0.44696   0.01937
  31   33352.3    299.8   0.030067074   0.29678  -0.13993  -0.46164  -0.25317
  32   33642.0    297.2   0.023111283   0.22616   0.15466  -0.43936  -0.09594
  33   34016.8    294.0   0.196036705   1.89723   0.39426  -1.27549  -0.33897
  34   34157.3    292.8   0.007551695   0.07278  -0.07763   0.14592  -0.21323
  35   34606.3    289.0   0.026248591   0.24970   0.44295  -0.21171  -0.09317
  36   34728.0    288.0   0.083505435   0.79161  -0.54615   0.64615  -0.27537
  37   35032.5    285.4   0.000046399   0.00044  -0.00081   0.00313  -0.02063
  38   35384.2    282.6   0.008528621   0.07935  -0.07622   0.26148   0.07188
  39   35714.4    280.0   0.036710544   0.33839  -0.35132   0.46285   0.02712
  40   36067.0    277.3   0.118645918   1.08297   0.87952  -0.44960   0.32753
  41   36395.4    274.8   0.032014405   0.28958  -0.13308  -0.37750   0.35967
  42   36650.9    272.8   0.300147574   2.69604  -0.35698   1.52704  -0.48659
  43   36750.0    272.1   0.114800715   1.02840  -0.11692   0.97487   0.25371
  44   36810.7    271.7   0.020350495   0.18200   0.35926   0.22972  -0.01275
  45   37555.5    266.3   0.074546916   0.65348   0.05412   0.80570  -0.03734
  46   37643.6    265.6   0.000815452   0.00713  -0.02455   0.07814  -0.02056
  47   38088.3    262.5   0.063289079   0.54703  -0.40591  -0.61812   0.01406
  48   38441.7    260.1   0.054673371   0.46822   0.05673  -0.68190  -0.00242
  49   38599.5    259.1   0.019186997   0.16364   0.14952   0.37494   0.02656
  50   38843.4    257.4   0.068586461   0.58130  -0.15968  -0.74444   0.04007
  51   39311.7    254.4   0.062430189   0.52281  -0.39427   0.59205  -0.12978
  52   39453.2    253.5   0.143556455   1.19789   0.37132  -1.02005   0.13969
  53   39558.4    252.8   0.047070400   0.39173  -0.07897  -0.41310  -0.46351
  54   39735.6    251.7   0.002608533   0.02161   0.00615  -0.14681   0.00443
  55   39788.9    251.3   0.046200061   0.38226   0.00563   0.56466  -0.25175
  56   39890.8    250.7   0.050429830   0.41619  -0.42176  -0.09701   0.47843
  57   40185.5    248.8   0.030624085   0.25088   0.15006   0.47278   0.06961
  58   40310.9    248.1   0.057238229   0.46745  -0.68344   0.01648  -0.00985

FINAL SINGLE POINT ENERGY    -10272.371391591527

DIPOLE MOMENT
-------------
                                X             Y             Z
Electronic contribution:     70.51481      71.62350      57.77031
Nuclear contribution   :    -73.50296     -67.95197     -58.51669
                        -----------------------------------------
Total Dipole Moment    :     -2.98815       3.67153      -0.74638
                        -----------------------------------------
Magnitude (a.u.)       :      4.79231
Magnitude (Debye)      :     12.18108

Rotational constants in cm-1:     0.000924     0.000171     0.000149
Rotational constants in MHz :    27.685881     5.131934     4.479749

                             ****ORCA TERMINATED NORMALLY****
TOTAL RUN TIME: 0 days 0 hours 10 minutes 36 seconds 466 msec
