                         Program Version 4.2.0 -  RELEASE  -
|  1> # ORCA input file
|  2> # SCF done       -188.621800701348          0.002779862467
|  3> ! CAM-B3LYP def2-SVP def2/J RIJCOSX Grid4 TightSCF
|  4> %maxcore 5000
|  5> %tddft
|  6>     Mode sTDDFT
|  7>     Ethresh 5.0
|  8>     maxcore 5000
|  9> end
| 10>
| 11> %pal
| 12>   nprocs 6
| 13>   end
| 14> * xyz 0 1
| 15>    C       -7.20023         6.64126       -11.92881
| 16>    C       -7.06406         6.68978       -13.29219
| 17>    C       -8.12917         6.52557       -14.20114
| 18>    N       -8.96568         6.40991       -14.97855
| 19>    C       -5.84234         6.95662       -13.94431
| 20>    N       -4.86781         7.18679       -14.50593
| 21>    C       -8.43952         6.42027       -11.19177
| 22>    C       -8.18496         6.56756        -9.80272
| 23>    C       -9.15793         6.37000        -8.85084
| 24>    C      -10.43635         6.00441        -9.28656
| 25>    C      -10.68279         5.88059       -10.67514
| 26>    C       -9.70301         6.08452       -11.63869
| 27>    S      -12.32617         5.42212       -10.99479
| 28>    C      -12.65429         5.38011        -9.28211
| 29>    C      -11.59047         5.71023        -8.51032
| 30>   Br      -14.35457         4.86276        -8.68483
| 31>    C       -6.76906         6.90567        -9.61625
| 32>    O       -6.18643         7.16390        -8.56571
| 33>    C       -6.15832         6.85122       -10.94918
| 34>    C       -4.79636         6.88034       -11.12044
| 35>    N       -3.99425         7.11699       -10.07503
| 36>    C       -2.64446         6.96132       -10.00243
| 37>    S       -1.71850         6.16992       -11.23690
| 38>    C       -0.31556         6.28739       -10.22296
| 39>    N        0.88942         5.77374       -10.72149
| 40>    O        1.87204         5.84618       -10.00864
| 41>    O        0.85444         5.28734       -11.83789
| 42>    C       -0.55387         6.89093        -9.01433
| 43>    C       -1.88760         7.30471        -8.87965
| 44>    C       -2.45367         8.02301        -7.74996
| 45>    C       -3.27872         9.06417        -7.92587
| 46>    C       -4.02046         9.79498        -6.92520
| 47>    C       -4.66214         9.27968        -5.86963
| 48>    C       -4.66184         7.83735        -5.48607
| 49>    C       -5.60333        10.15388        -5.07559
| 50>    N       -6.96709         9.91737        -5.51592
| 51>    C       -7.32638         9.89598        -6.80684
| 52>    C       -8.58736         9.65948        -7.26771
| 53>    C       -8.88995         9.62223        -8.63562
| 54>    C      -10.13349         9.35376        -9.15262
| 55>    C      -10.50993         9.26698       -10.51056
| 56>    C      -11.82380         8.95625       -10.71105
| 57>    C      -12.55848         8.78949        -9.51880
| 58>    S      -11.53131         9.03274        -8.13141
| 59>    C      -13.90013         8.47538        -9.36863
| 60>    C      -14.85773         8.22008       -10.36895
| 61>    C      -16.10616         7.95093        -9.88255
| 62>    C      -16.19209         7.97667        -8.47413
| 63>    S      -14.63425         8.35290        -7.78431
| 64>    C      -17.28262         7.78721        -7.64323
| 65>    C      -18.56669         7.47999        -8.07164
| 66>    C      -19.68571         7.36607        -7.26828
| 67>    C      -20.86192         6.60693        -7.73960
| 68>    O      -21.07995         6.22128        -8.87118
| 69>    C      -21.68474         6.37274        -6.53222
| 70>    C      -22.82324         5.63543        -6.39275
| 71>    C      -23.40507         5.49985        -5.11017
| 72>    C      -22.78431         6.12915        -3.99281
| 73>    C      -23.35088         5.96566        -2.71386
| 74>    C      -24.48501         5.21571        -2.57313
| 75>    C      -25.11747         4.59893        -3.66022
| 76>    C      -24.57769         4.74480        -4.90867
| 77>    F      -25.02570         5.05403        -1.34852
| 78>    C      -21.61533         6.90707        -4.17219
| 79>    C      -21.08027         7.03332        -5.42396
| 80>    C      -19.91517         7.77321        -5.91195
| 81>    C      -19.31494         8.81817        -5.24415
| 82>    C      -18.41680         9.72621        -5.83719
| 83>    N      -17.72283        10.52904        -6.27804
| 84>    C      -19.62155         9.17956        -3.91939
| 85>    N      -19.81443         9.50423        -2.83380
| 86>    H       -8.93929         6.48374        -7.80096
| 87>    H       -9.93565         5.96526       -12.68358
| 88>    H      -11.61999         5.74514        -7.43674
| 89>    H       -4.32479         6.69752       -12.07766
| 90>    H       -4.49869         7.30659        -9.18946
| 91>    H        0.21487         7.04198        -8.27827
| 92>    H       -2.13745         7.71491        -6.76497
| 93>    H       -3.42673         9.43510        -8.93495
| 94>    H       -4.14455        10.85039        -7.14011
| 95>    H       -4.46468         7.20450        -6.34763
| 96>    H       -5.62668         7.56226        -5.06464
| 97>    H       -3.89812         7.64334        -4.73252
| 98>    H       -5.34575        11.21221        -5.20838
| 99>    H       -5.54387         9.91408        -4.01244
|100>    H       -7.68234         9.77485        -4.81985
|101>    H       -6.52384        10.06006        -7.51192
|102>    H       -9.39333         9.48206        -6.56780
|103>    H       -8.08892         9.80638        -9.34041
|104>    H       -9.80011         9.43440       -11.30201
|105>    H      -12.27949         8.85031       -11.67900
|106>    H      -14.60916         8.23956       -11.41556
|107>    H      -16.95788         7.73579       -10.50166
|108>    H      -17.09600         7.87225        -6.58244
|109>    H      -18.72180         7.21223        -9.11003
|110>    H      -23.27473         5.15456        -7.24793
|111>    H      -22.89304         6.43131        -1.85483
|112>    H      -26.01285         4.02248        -3.48959
|113>    H      -25.04601         4.27686        -5.76207
|114>    H      -21.16669         7.37284        -3.30897
|115> *
|116>
|117>                          ****END OF INPUT****

CARTESIAN COORDINATES (ANGSTROEM)
---------------------------------
  C     -7.200230    6.641260  -11.928810
  C     -7.064060    6.689780  -13.292190
  C     -8.129170    6.525570  -14.201140
  N     -8.965680    6.409910  -14.978550
  C     -5.842340    6.956620  -13.944310
  N     -4.867810    7.186790  -14.505930
  C     -8.439520    6.420270  -11.191770
  C     -8.184960    6.567560   -9.802720
  C     -9.157930    6.370000   -8.850840
  C    -10.436350    6.004410   -9.286560
  C    -10.682790    5.880590  -10.675140
  C     -9.703010    6.084520  -11.638690
  S    -12.326170    5.422120  -10.994790
  C    -12.654290    5.380110   -9.282110
  C    -11.590470    5.710230   -8.510320
  Br   -14.354570    4.862760   -8.684830
  C     -6.769060    6.905670   -9.616250
  O     -6.186430    7.163900   -8.565710
  C     -6.158320    6.851220  -10.949180
  C     -4.796360    6.880340  -11.120440
  N     -3.994250    7.116990  -10.075030
  C     -2.644460    6.961320  -10.002430
  S     -1.718500    6.169920  -11.236900
  C     -0.315560    6.287390  -10.222960
  N      0.889420    5.773740  -10.721490
  O      1.872040    5.846180  -10.008640
  O      0.854440    5.287340  -11.837890
  C     -0.553870    6.890930   -9.014330
  C     -1.887600    7.304710   -8.879650
  C     -2.453670    8.023010   -7.749960
  C     -3.278720    9.064170   -7.925870
  C     -4.020460    9.794980   -6.925200
  C     -4.662140    9.279680   -5.869630
  C     -4.661840    7.837350   -5.486070
  C     -5.603330   10.153880   -5.075590
  N     -6.967090    9.917370   -5.515920
  C     -7.326380    9.895980   -6.806840
  C     -8.587360    9.659480   -7.267710
  C     -8.889950    9.622230   -8.635620
  C    -10.133490    9.353760   -9.152620
  C    -10.509930    9.266980  -10.510560
  C    -11.823800    8.956250  -10.711050
  C    -12.558480    8.789490   -9.518800
  S    -11.531310    9.032740   -8.131410
  C    -13.900130    8.475380   -9.368630
  C    -14.857730    8.220080  -10.368950
  C    -16.106160    7.950930   -9.882550
  C    -16.192090    7.976670   -8.474130
  S    -14.634250    8.352900   -7.784310
  C    -17.282620    7.787210   -7.643230
  C    -18.566690    7.479990   -8.071640
  C    -19.685710    7.366070   -7.268280
  C    -20.861920    6.606930   -7.739600
  O    -21.079950    6.221280   -8.871180
  C    -21.684740    6.372740   -6.532220
  C    -22.823240    5.635430   -6.392750
  C    -23.405070    5.499850   -5.110170
  C    -22.784310    6.129150   -3.992810
  C    -23.350880    5.965660   -2.713860
  C    -24.485010    5.215710   -2.573130
  C    -25.117470    4.598930   -3.660220
  C    -24.577690    4.744800   -4.908670
  F    -25.025700    5.054030   -1.348520
  C    -21.615330    6.907070   -4.172190
  C    -21.080270    7.033320   -5.423960
  C    -19.915170    7.773210   -5.911950
  C    -19.314940    8.818170   -5.244150
  C    -18.416800    9.726210   -5.837190
  N    -17.722830   10.529040   -6.278040
  C    -19.621550    9.179560   -3.919390
  N    -19.814430    9.504230   -2.833800
  H     -8.939290    6.483740   -7.800960
  H     -9.935650    5.965260  -12.683580
  H    -11.619990    5.745140   -7.436740
  H     -4.324790    6.697520  -12.077660
  H     -4.498690    7.306590   -9.189460
  H      0.214870    7.041980   -8.278270
  H     -2.137450    7.714910   -6.764970
  H     -3.426730    9.435100   -8.934950
  H     -4.144550   10.850390   -7.140110
  H     -4.464680    7.204500   -6.347630
  H     -5.626680    7.562260   -5.064640
  H     -3.898120    7.643340   -4.732520
  H     -5.345750   11.212210   -5.208380
  H     -5.543870    9.914080   -4.012440
  H     -7.682340    9.774850   -4.819850
  H     -6.523840   10.060060   -7.511920
  H     -9.393330    9.482060   -6.567800
  H     -8.088920    9.806380   -9.340410
  H     -9.800110    9.434400  -11.302010
  H    -12.279490    8.850310  -11.679000
  H    -14.609160    8.239560  -11.415560
  H    -16.957880    7.735790  -10.501660
  H    -17.096000    7.872250   -6.582440
  H    -18.721800    7.212230   -9.110030
  H    -23.274730    5.154560   -7.247930
  H    -22.893040    6.431310   -1.854830
  H    -26.012850    4.022480   -3.489590
  H    -25.046010    4.276860   -5.762070
  H    -21.166690    7.372840   -3.308970

 Total Charge           Charge          ....    0
 Multiplicity           Mult            ....    1
 Number of Electrons    NEL             ....  542
 Basis Dimension        Dim             .... 1173

ORBITAL ENERGIES
----------------

  NO   OCC          E(Eh)            E(eV)
   0   2.0000    -482.888106    -13140.0534
   1   2.0000     -89.004997     -2421.9491
   2   2.0000     -88.984447     -2421.3899
   3   2.0000     -88.963578     -2420.8220
   4   2.0000     -88.952236     -2420.5134
   5   2.0000     -62.565369     -1702.4903
   6   2.0000     -56.399372     -1534.7049
   7   2.0000     -56.396609     -1534.6298
   8   2.0000     -56.396551     -1534.6282
   9   2.0000     -24.769406      -674.0098
  10   2.0000     -19.250472      -523.8320
  11   2.0000     -19.250090      -523.8216
  12   2.0000     -19.247868      -523.7611
  13   2.0000     -19.184136      -522.0269
  14   2.0000     -14.662380      -398.9836
  15   2.0000     -14.507566      -394.7709
  16   2.0000     -14.478046      -393.9676
  17   2.0000     -14.430872      -392.6840
  18   2.0000     -14.426872      -392.5751
  19   2.0000     -14.389010      -391.5449
  20   2.0000     -14.386336      -391.4721
  21   2.0000     -10.394302      -282.8433
  22   2.0000     -10.385802      -282.6121
  23   2.0000     -10.383410      -282.5470
  24   2.0000     -10.365270      -282.0533
  25   2.0000     -10.360996      -281.9370
  26   2.0000     -10.358672      -281.8738
  27   2.0000     -10.354877      -281.7705
  28   2.0000     -10.353444      -281.7315
  29   2.0000     -10.351118      -281.6682
  30   2.0000     -10.345973      -281.5283
  31   2.0000     -10.336254      -281.2638
  32   2.0000     -10.336189      -281.2620
  33   2.0000     -10.333308      -281.1836
  34   2.0000     -10.333301      -281.1834
  35   2.0000     -10.329912      -281.0912
  36   2.0000     -10.326069      -280.9866
  37   2.0000     -10.321961      -280.8748
  38   2.0000     -10.320904      -280.8461
  39   2.0000     -10.319529      -280.8087
  40   2.0000     -10.318027      -280.7678
  41   2.0000     -10.317240      -280.7464
  42   2.0000     -10.316195      -280.7179
  43   2.0000     -10.315963      -280.7116
  44   2.0000     -10.315050      -280.6868
  45   2.0000     -10.313716      -280.6505
  46   2.0000     -10.313231      -280.6373
  47   2.0000     -10.312463      -280.6164
  48   2.0000     -10.312106      -280.6067
  49   2.0000     -10.310812      -280.5715
  50   2.0000     -10.310716      -280.5689
  51   2.0000     -10.309274      -280.5296
  52   2.0000     -10.308425      -280.5065
  53   2.0000     -10.304877      -280.4100
  54   2.0000     -10.303668      -280.3771
  55   2.0000     -10.301654      -280.3222
  56   2.0000     -10.297349      -280.2051
  57   2.0000     -10.294499      -280.1276
  58   2.0000     -10.293596      -280.1030
  59   2.0000     -10.290396      -280.0159
  60   2.0000     -10.289653      -279.9957
  61   2.0000     -10.288246      -279.9574
  62   2.0000     -10.287558      -279.9387
  63   2.0000     -10.285374      -279.8792
  64   2.0000     -10.282052      -279.7889
  65   2.0000     -10.281517      -279.7743
  66   2.0000     -10.280500      -279.7466
  67   2.0000     -10.279689      -279.7245
  68   2.0000     -10.277114      -279.6545
  69   2.0000     -10.276594      -279.6403
  70   2.0000     -10.274792      -279.5913
  71   2.0000     -10.271056      -279.4896
  72   2.0000     -10.268655      -279.4243
  73   2.0000     -10.266202      -279.3576
  74   2.0000     -10.260996      -279.2159
  75   2.0000      -8.794666      -239.3150
  76   2.0000      -8.100248      -220.4189
  77   2.0000      -8.080036      -219.8690
  78   2.0000      -8.059097      -219.2992
  79   2.0000      -8.048364      -219.0071
  80   2.0000      -6.631063      -180.4404
  81   2.0000      -6.616353      -180.0401
  82   2.0000      -6.616116      -180.0337
  83   2.0000      -6.069820      -165.1682
  84   2.0000      -6.065458      -165.0495
  85   2.0000      -6.061853      -164.9514
  86   2.0000      -6.049694      -164.6206
  87   2.0000      -6.045526      -164.5071
  88   2.0000      -6.041291      -164.3919
  89   2.0000      -6.028687      -164.0489
  90   2.0000      -6.024797      -163.9431
  91   2.0000      -6.020315      -163.8211
  92   2.0000      -6.017973      -163.7574
  93   2.0000      -6.013901      -163.6466
  94   2.0000      -6.009602      -163.5296
  95   2.0000      -2.746953       -74.7484
  96   2.0000      -2.742786       -74.6350
  97   2.0000      -2.742599       -74.6299
  98   2.0000      -2.730911       -74.3119
  99   2.0000      -2.730906       -74.3117
 100   2.0000      -1.332050       -36.2469
 101   2.0000      -1.283318       -34.9209
 102   2.0000      -1.161214       -31.5982
 103   2.0000      -1.151335       -31.3294
 104   2.0000      -1.115970       -30.3671
 105   2.0000      -1.097652       -29.8686
 106   2.0000      -1.075715       -29.2717
 107   2.0000      -1.036305       -28.1993
 108   2.0000      -1.025860       -27.9151
 109   2.0000      -1.023911       -27.8620
 110   2.0000      -1.008148       -27.4331
 111   2.0000      -1.006816       -27.3969
 112   2.0000      -1.002537       -27.2804
 113   2.0000      -0.991813       -26.9886
 114   2.0000      -0.982864       -26.7451
 115   2.0000      -0.976646       -26.5759
 116   2.0000      -0.966831       -26.3088
 117   2.0000      -0.956338       -26.0233
 118   2.0000      -0.952744       -25.9255
 119   2.0000      -0.952105       -25.9081
 120   2.0000      -0.933507       -25.4020
 121   2.0000      -0.922944       -25.1146
 122   2.0000      -0.918663       -24.9981
 123   2.0000      -0.908719       -24.7275
 124   2.0000      -0.906412       -24.6647
 125   2.0000      -0.897330       -24.4176
 126   2.0000      -0.893099       -24.3024
 127   2.0000      -0.890588       -24.2341
 128   2.0000      -0.875456       -23.8224
 129   2.0000      -0.870340       -23.6832
 130   2.0000      -0.864317       -23.5193
 131   2.0000      -0.861988       -23.4559
 132   2.0000      -0.858564       -23.3627
 133   2.0000      -0.852173       -23.1888
 134   2.0000      -0.840326       -22.8664
 135   2.0000      -0.838051       -22.8045
 136   2.0000      -0.826604       -22.4930
 137   2.0000      -0.816694       -22.2234
 138   2.0000      -0.814001       -22.1501
 139   2.0000      -0.808018       -21.9873
 140   2.0000      -0.801433       -21.8081
 141   2.0000      -0.786433       -21.3999
 142   2.0000      -0.776244       -21.1227
 143   2.0000      -0.765895       -20.8411
 144   2.0000      -0.756937       -20.5973
 145   2.0000      -0.742539       -20.2055
 146   2.0000      -0.738576       -20.0977
 147   2.0000      -0.734313       -19.9817
 148   2.0000      -0.724263       -19.7082
 149   2.0000      -0.714690       -19.4477
 150   2.0000      -0.709302       -19.3011
 151   2.0000      -0.702814       -19.1245
 152   2.0000      -0.700816       -19.0702
 153   2.0000      -0.690039       -18.7769
 154   2.0000      -0.688508       -18.7353
 155   2.0000      -0.687030       -18.6950
 156   2.0000      -0.670999       -18.2588
 157   2.0000      -0.670008       -18.2318
 158   2.0000      -0.661486       -17.9999
 159   2.0000      -0.655300       -17.8316
 160   2.0000      -0.652155       -17.7460
 161   2.0000      -0.647171       -17.6104
 162   2.0000      -0.645363       -17.5612
 163   2.0000      -0.643671       -17.5152
 164   2.0000      -0.641679       -17.4610
 165   2.0000      -0.633067       -17.2266
 166   2.0000      -0.632271       -17.2050
 167   2.0000      -0.625729       -17.0270
 168   2.0000      -0.621724       -16.9180
 169   2.0000      -0.618074       -16.8187
 170   2.0000      -0.613309       -16.6890
 171   2.0000      -0.611476       -16.6391
 172   2.0000      -0.606994       -16.5172
 173   2.0000      -0.605265       -16.4701
 174   2.0000      -0.601018       -16.3545
 175   2.0000      -0.596662       -16.2360
 176   2.0000      -0.591270       -16.0893
 177   2.0000      -0.590184       -16.0597
 178   2.0000      -0.586087       -15.9482
 179   2.0000      -0.574648       -15.6370
 180   2.0000      -0.573617       -15.6089
 181   2.0000      -0.571167       -15.5422
 182   2.0000      -0.566275       -15.4091
 183   2.0000      -0.561060       -15.2672
 184   2.0000      -0.559834       -15.2338
 185   2.0000      -0.553030       -15.0487
 186   2.0000      -0.551435       -15.0053
 187   2.0000      -0.547304       -14.8929
 188   2.0000      -0.542630       -14.7657
 189   2.0000      -0.541937       -14.7468
 190   2.0000      -0.541306       -14.7297
 191   2.0000      -0.538228       -14.6459
 192   2.0000      -0.535631       -14.5753
 193   2.0000      -0.533065       -14.5054
 194   2.0000      -0.531457       -14.4617
 195   2.0000      -0.530783       -14.4433
 196   2.0000      -0.526491       -14.3265
 197   2.0000      -0.525483       -14.2991
 198   2.0000      -0.518948       -14.1213
 199   2.0000      -0.513428       -13.9711
 200   2.0000      -0.512707       -13.9515
 201   2.0000      -0.508536       -13.8380
 202   2.0000      -0.507577       -13.8119
 203   2.0000      -0.506723       -13.7886
 204   2.0000      -0.505493       -13.7552
 205   2.0000      -0.503824       -13.7097
 206   2.0000      -0.499032       -13.5793
 207   2.0000      -0.497684       -13.5427
 208   2.0000      -0.494011       -13.4427
 209   2.0000      -0.492155       -13.3922
 210   2.0000      -0.489676       -13.3248
 211   2.0000      -0.486973       -13.2512
 212   2.0000      -0.485384       -13.2080
 213   2.0000      -0.483462       -13.1557
 214   2.0000      -0.480223       -13.0675
 215   2.0000      -0.475208       -12.9311
 216   2.0000      -0.474349       -12.9077
 217   2.0000      -0.472607       -12.8603
 218   2.0000      -0.471688       -12.8353
 219   2.0000      -0.468824       -12.7574
 220   2.0000      -0.467541       -12.7224
 221   2.0000      -0.462385       -12.5821
 222   2.0000      -0.461768       -12.5654
 223   2.0000      -0.458261       -12.4699
 224   2.0000      -0.456646       -12.4260
 225   2.0000      -0.456120       -12.4117
 226   2.0000      -0.454513       -12.3679
 227   2.0000      -0.449717       -12.2374
 228   2.0000      -0.447237       -12.1699
 229   2.0000      -0.444475       -12.0948
 230   2.0000      -0.441167       -12.0048
 231   2.0000      -0.439440       -11.9578
 232   2.0000      -0.437742       -11.9116
 233   2.0000      -0.436450       -11.8764
 234   2.0000      -0.429662       -11.6917
 235   2.0000      -0.425877       -11.5887
 236   2.0000      -0.424284       -11.5454
 237   2.0000      -0.423071       -11.5124
 238   2.0000      -0.417803       -11.3690
 239   2.0000      -0.416955       -11.3459
 240   2.0000      -0.414543       -11.2803
 241   2.0000      -0.413661       -11.2563
 242   2.0000      -0.410610       -11.1733
 243   2.0000      -0.405212       -11.0264
 244   2.0000      -0.403204       -10.9717
 245   2.0000      -0.399458       -10.8698
 246   2.0000      -0.397317       -10.8115
 247   2.0000      -0.393855       -10.7173
 248   2.0000      -0.390444       -10.6245
 249   2.0000      -0.388508       -10.5718
 250   2.0000      -0.380610       -10.3569
 251   2.0000      -0.379543       -10.3279
 252   2.0000      -0.378757       -10.3065
 253   2.0000      -0.376201       -10.2370
 254   2.0000      -0.371554       -10.1105
 255   2.0000      -0.369439       -10.0529
 256   2.0000      -0.361949        -9.8491
 257   2.0000      -0.356381        -9.6976
 258   2.0000      -0.353018        -9.6061
 259   2.0000      -0.344056        -9.3622
 260   2.0000      -0.331084        -9.0093
 261   2.0000      -0.329466        -8.9652
 262   2.0000      -0.327686        -8.9168
 263   2.0000      -0.319255        -8.6874
 264   2.0000      -0.309145        -8.4123
 265   2.0000      -0.302143        -8.2217
 266   2.0000      -0.292508        -7.9596
 267   2.0000      -0.288845        -7.8599
 268   2.0000      -0.281184        -7.6514
 269   2.0000      -0.271701        -7.3934
 270   2.0000      -0.214638        -5.8406
 271   0.0000      -0.099650        -2.7116
 272   0.0000      -0.097774        -2.6606
 273   0.0000      -0.082558        -2.2465
 274   0.0000      -0.054023        -1.4700
 275   0.0000      -0.047416        -1.2903

MULLIKEN ATOMIC CHARGES
-----------------------
   0 C :    0.309190
   1 C :   -0.337145
   2 C :   -0.188735
   3 N :    0.156852
   4 C :   -0.203045
   5 N :    0.149606
   6 C :    0.013784
   7 C :   -0.011045
   8 C :   -0.037315
   9 C :    0.101629
  10 C :   -0.075518
  11 C :   -0.035786
  12 S :    0.179886
  13 C :   -0.124346
  14 C :    0.057064
  15 Br:    0.045657
  16 C :    0.153040
  17 O :   -0.224878
  18 C :   -0.134130
  19 C :    0.030494
  20 N :   -0.027527
  21 C :   -0.112006
  22 S :    0.192259
  23 C :   -0.005675
  24 N :    0.277454
  25 O :   -0.243835
  26 O :   -0.255807
  27 C :    0.016575
  28 C :    0.092184
  29 C :   -0.032512
  30 C :   -0.020394
  31 C :    0.023302
  32 C :   -0.227098
  33 C :    0.109395
  34 C :    0.209535
  35 N :   -0.149524
  36 C :    0.109338
  37 C :   -0.043330
  38 C :    0.032724
  39 C :   -0.065412
  40 C :    0.056298
  41 C :    0.022920
  42 C :   -0.041654
  43 S :    0.073566
  44 C :   -0.054982
  45 C :    0.027601
  46 C :    0.017347
  47 C :   -0.036407
  48 S :    0.117525
  49 C :    0.025256
  50 C :    0.030824
  51 C :   -0.146889
  52 C :    0.140064
  53 O :   -0.167044
  54 C :    0.006444
  55 C :   -0.090134
  56 C :    0.101510
  57 C :    0.101703
  58 C :   -0.100798
  59 C :    0.301121
  60 C :   -0.035131
  61 C :   -0.012533
  62 F :   -0.198094
  63 C :   -0.091598
  64 C :    0.040893
  65 C :    0.281842
  66 C :   -0.349574
  67 C :   -0.222797
  68 N :    0.152155
  69 C :   -0.180279
  70 N :    0.128895
  71 H :   -0.019233
  72 H :   -0.006832
  73 H :   -0.005734
  74 H :    0.048614
  75 H :    0.191289
  76 H :    0.013575
  77 H :    0.013251
  78 H :    0.017478
  79 H :   -0.003418
  80 H :    0.032799
  81 H :    0.008742
  82 H :    0.035934
  83 H :    0.026818
  84 H :    0.023340
  85 H :    0.131733
  86 H :    0.001785
  87 H :   -0.008749
  88 H :   -0.011468
  89 H :   -0.009713
  90 H :   -0.010660
  91 H :   -0.009227
  92 H :   -0.002779
  93 H :   -0.001461
  94 H :   -0.001819
  95 H :   -0.020129
  96 H :   -0.007508
  97 H :   -0.003341
  98 H :   -0.015136
  99 H :   -0.011105
Sum of atomic charges:   -0.0000000

LOEWDIN ATOMIC CHARGES
----------------------
   0 C :    0.076953
   1 C :   -0.149164
   2 C :   -0.021506
   3 N :   -0.051116
   4 C :   -0.022624
   5 N :   -0.052543
   6 C :   -0.022999
   7 C :   -0.056986
   8 C :    0.032125
   9 C :   -0.033545
  10 C :   -0.139048
  11 C :   -0.010903
  12 S :    0.435957
  13 C :   -0.267672
  14 C :   -0.071508
  15 Br:    0.157957
  16 C :    0.094207
  17 O :   -0.183997
  18 C :   -0.148593
  19 C :    0.108995
  20 N :    0.074762
  21 C :   -0.114614
  22 S :    0.477710
  23 C :   -0.201532
  24 N :    0.273296
  25 O :   -0.210174
  26 O :   -0.222247
  27 C :    0.001115
  28 C :   -0.087273
  29 C :   -0.024072
  30 C :   -0.019002
  31 C :   -0.054375
  32 C :   -0.017764
  33 C :   -0.048456
  34 C :    0.051383
  35 N :    0.019843
  36 C :    0.083252
  37 C :   -0.129052
  38 C :    0.006703
  39 C :   -0.191332
  40 C :   -0.007682
  41 C :   -0.059546
  42 C :   -0.138786
  43 S :    0.392156
  44 C :   -0.216258
  45 C :   -0.008457
  46 C :   -0.057432
  47 C :   -0.101192
  48 S :    0.406929
  49 C :   -0.083346
  50 C :    0.056401
  51 C :   -0.120479
  52 C :    0.075565
  53 O :   -0.170253
  54 C :   -0.054630
  55 C :    0.024289
  56 C :   -0.021674
  57 C :    0.000957
  58 C :   -0.044482
  59 C :    0.088722
  60 C :   -0.044676
  61 C :    0.001340
  62 F :   -0.072093
  63 C :    0.002488
  64 C :   -0.012764
  65 C :    0.066802
  66 C :   -0.163537
  67 C :   -0.025055
  68 N :   -0.069263
  69 C :   -0.020055
  70 N :   -0.076183
  71 H :    0.038203
  72 H :    0.040832
  73 H :    0.036364
  74 H :    0.038656
  75 H :    0.086949
  76 H :    0.048715
  77 H :    0.034376
  78 H :    0.031790
  79 H :    0.028172
  80 H :    0.035045
  81 H :    0.028419
  82 H :    0.039817
  83 H :    0.026736
  84 H :    0.034646
  85 H :    0.086487
  86 H :    0.033170
  87 H :    0.018756
  88 H :    0.034327
  89 H :    0.034400
  90 H :    0.031871
  91 H :    0.033505
  92 H :    0.035277
  93 H :    0.030406
  94 H :    0.036884
  95 H :    0.036163
  96 H :    0.041088
  97 H :    0.038751
  98 H :    0.033235
  99 H :    0.036992

  Mayer bond orders larger than 0.100000
B(  0-C ,  1-C ) :   1.6349 B(  0-C ,  6-C ) :   1.0060 B(  0-C , 18-C ) :   1.0870
B(  1-C ,  2-C ) :   1.1426 B(  1-C ,  4-C ) :   1.1421 B(  2-C ,  3-N ) :   2.9748
B(  4-C ,  5-N ) :   2.9740 B(  6-C ,  7-C ) :   1.2752 B(  6-C , 11-C ) :   1.4115
B(  7-C ,  8-C ) :   1.4059 B(  7-C , 16-C ) :   0.9831 B(  8-C ,  9-C ) :   1.2420
B(  8-C , 71-H ) :   1.0232 B(  9-C , 10-C ) :   1.3070 B(  9-C , 14-C ) :   1.1606
B( 10-C , 11-C ) :   1.3143 B( 10-C , 12-S ) :   1.0863 B( 11-C , 72-H ) :   0.9832
B( 12-S , 13-C ) :   1.0764 B( 13-C , 14-C ) :   1.6109 B( 13-C , 15-Br) :   1.0327
B( 14-C , 73-H ) :   1.0032 B( 16-C , 17-O ) :   2.0127 B( 16-C , 18-C ) :   1.0045
B( 17-O , 75-H ) :   0.1393 B( 18-C , 19-C ) :   1.4566 B( 19-C , 20-N ) :   1.3394
B( 19-C , 74-H ) :   0.9367 B( 20-N , 21-C ) :   1.1605 B( 20-N , 75-H ) :   0.8216
B( 21-C , 22-S ) :   1.1435 B( 21-C , 28-C ) :   1.4225 B( 22-S , 23-C ) :   1.0934
B( 23-C , 24-N ) :   0.9638 B( 23-C , 27-C ) :   1.4884 B( 24-N , 25-O ) :   1.5400
B( 24-N , 26-O ) :   1.5159 B( 25-O , 26-O ) :   0.2635 B( 27-C , 28-C ) :   1.2363
B( 27-C , 76-H ) :   1.0088 B( 28-C , 29-C ) :   1.0247 B( 29-C , 30-C ) :   1.8007
B( 29-C , 77-H ) :   0.9710 B( 30-C , 31-C ) :   1.0784 B( 30-C , 78-H ) :   0.9559
B( 31-C , 32-C ) :   1.8390 B( 31-C , 79-H ) :   0.9414 B( 32-C , 33-C ) :   1.0813
B( 32-C , 34-C ) :   1.0393 B( 33-C , 80-H ) :   0.9396 B( 33-C , 81-H ) :   0.9446
B( 33-C , 82-H ) :   0.9432 B( 34-C , 35-N ) :   0.9819 B( 34-C , 83-H ) :   0.9423
B( 34-C , 84-H ) :   0.9391 B( 35-N , 36-C ) :   1.2825 B( 35-N , 85-H ) :   0.9379
B( 36-C , 37-C ) :   1.5349 B( 36-C , 86-H ) :   0.9575 B( 37-C , 38-C ) :   1.2220
B( 37-C , 87-H ) :   0.9665 B( 38-C , 39-C ) :   1.5172 B( 38-C , 88-H ) :   0.9771
B( 39-C , 40-C ) :   1.1819 B( 39-C , 43-S ) :   1.0123 B( 40-C , 41-C ) :   1.5262
B( 40-C , 89-H ) :   0.9980 B( 41-C , 42-C ) :   1.2270 B( 41-C , 90-H ) :   1.0008
B( 42-C , 43-S ) :   1.0920 B( 42-C , 44-C ) :   1.4180 B( 44-C , 45-C ) :   1.2438
B( 44-C , 48-S ) :   1.0406 B( 45-C , 46-C ) :   1.5217 B( 45-C , 91-H ) :   0.9961
B( 46-C , 47-C ) :   1.2199 B( 46-C , 92-H ) :   0.9914 B( 47-C , 48-S ) :   1.1073
B( 47-C , 49-C ) :   1.4149 B( 49-C , 50-C ) :   1.3085 B( 49-C , 93-H ) :   0.9446
B( 50-C , 51-C ) :   1.4688 B( 50-C , 94-H ) :   0.9484 B( 51-C , 52-C ) :   0.9752
B( 51-C , 65-C ) :   1.1106 B( 52-C , 53-O ) :   2.2398 B( 52-C , 54-C ) :   0.9159
B( 54-C , 55-C ) :   1.4840 B( 54-C , 64-C ) :   1.2171 B( 55-C , 56-C ) :   1.1787
B( 55-C , 95-H ) :   1.0153 B( 56-C , 57-C ) :   1.2640 B( 56-C , 61-C ) :   1.2386
B( 57-C , 58-C ) :   1.2051 B( 57-C , 63-C ) :   1.1898 B( 58-C , 59-C ) :   1.4376
B( 58-C , 96-H ) :   1.0073 B( 59-C , 60-C ) :   1.2597 B( 59-C , 62-F ) :   1.0800
B( 60-C , 61-C ) :   1.4542 B( 60-C , 97-H ) :   0.9930 B( 61-C , 98-H ) :   0.9968
B( 63-C , 64-C ) :   1.4751 B( 63-C , 99-H ) :   0.9944 B( 64-C , 65-C ) :   0.9864
B( 65-C , 66-C ) :   1.5808 B( 66-C , 67-C ) :   1.1638 B( 66-C , 69-C ) :   1.1412
B( 67-C , 68-N ) :   3.0168 B( 69-C , 70-N ) :   2.9735

-----------------------------------------------------------------------------
         ABSORPTION SPECTRUM VIA TRANSITION ELECTRIC DIPOLE MOMENTS
-----------------------------------------------------------------------------
State   Energy  Wavelength   fosc         T2         TX        TY        TZ
        (cm-1)    (nm)                  (au**2)     (au)      (au)      (au)
-----------------------------------------------------------------------------
   0   11667.3    857.1   1.320697126  37.26551   5.92632   0.76148  -1.25077
   1   12643.2    790.9   0.064719943   1.68522   1.18007   0.54078   0.01475
   2   15111.0    661.8   0.113415047   2.47089  -1.51354  -0.12336   0.40604
   3   21677.7    461.3   0.088913309   1.35030   0.47384   0.52546   0.92177
   4   23237.4    430.3   0.352473586   4.99360  -2.22171   0.16912   0.17025
   5   23748.2    421.1   0.693855266   9.61866  -2.41195  -0.65495  -1.83635
   6   24286.0    411.8   0.016329161   0.22135  -0.37575   0.00437   0.28310
   7   25316.6    395.0   0.040160511   0.52224  -0.51847  -0.13839   0.48403
   8   25490.9    392.3   0.134777184   1.74063   1.07206   0.24331   0.72946
   9   25681.0    389.4   0.042441689   0.54407  -0.68102   0.02257   0.28245
  10   26790.1    373.3   0.012505379   0.15367  -0.03064  -0.30249   0.24746
  11   27011.0    370.2   0.201364580   2.45424   0.59439   0.45627  -1.37578
  12   27513.9    363.5   0.012898467   0.15433   0.28404   0.27131   0.00680
  13   27839.0    359.2   0.030347171   0.35887  -0.46362  -0.15889   0.34451
  14   28079.9    356.1   0.017809621   0.20880   0.16706   0.19412  -0.37843
  15   28582.3    349.9   0.439418713   5.06124  -1.98427  -0.38525   0.98766
  16   29039.2    344.4   0.035508732   0.40256   0.48864   0.40138  -0.05185
  17   29279.2    341.5   0.019453825   0.21874  -0.34702  -0.26838  -0.16212
  18   29920.2    334.2   0.007495754   0.08248  -0.17468  -0.17733   0.14324
  19   30065.4    332.6   0.015231140   0.16678  -0.29725  -0.25947  -0.10533
  20   30641.7    326.4   0.017262240   0.18546  -0.01347  -0.16199   0.39880
  21   31893.7    313.5   0.143326026   1.47943   0.64503   0.24077  -1.00270
  22   31999.0    312.5   0.052665291   0.54183   0.35481  -0.30499   0.56826
  23   32168.4    310.9   0.028709942   0.29382   0.40358   0.02192  -0.36119
  24   32490.0    307.8   0.235702747   2.38831   1.32267   0.75457  -0.26358
  25   32657.2    306.2   0.034044489   0.34320  -0.41979  -0.39226  -0.11449
  26   32693.7    305.9   0.055340598   0.55726  -0.62934  -0.33631  -0.21928
  27   33098.0    302.1   0.278193852   2.76708   0.81972   0.06677  -1.44592
  28   33430.7    299.1   0.256159163   2.52255  -1.41731  -0.47410   0.53760
  29   33687.7    296.8   0.178775055   1.74707  -0.65497   1.05944   0.44234
  30   33984.4    294.3   0.023741074   0.22998  -0.03040  -0.38067  -0.29008
  31   34534.1    289.6   0.061764177   0.58879   0.66794  -0.07374  -0.37043
  32   34573.3    289.2   0.118038083   1.12398   0.44904   0.63173  -0.72337
  33   34835.0    287.1   0.029231508   0.27626   0.23644   0.01648  -0.46913
  34   34954.8    286.1   0.006996794   0.06590  -0.21996  -0.00885  -0.13205
  35   35219.7    283.9   0.014779671   0.13815  -0.36023   0.08717   0.02800
  36   35390.2    282.6   0.009013360   0.08385   0.25321   0.08053  -0.11509
  37   35604.4    280.9   0.016372554   0.15139  -0.13055   0.14153   0.33810
  38   35930.2    278.3   0.095308969   0.87327   0.74140  -0.16557  -0.54422
  39   36058.7    277.3   0.022716852   0.20740   0.07810  -0.29342   0.33942
  40   36428.8    274.5   0.022885238   0.20682   0.27936  -0.19823  -0.29913
  41   36476.8    274.1   0.068538755   0.61858  -0.56357   0.16362   0.52363
  42   36644.8    272.9   0.133677253   1.20094  -1.08670   0.13986  -0.02168
  43   36959.7    270.6   0.185407110   1.65148  -0.39066   0.44913   1.13893
  44   37164.6    269.1   0.088199449   0.78129  -0.71653  -0.47277  -0.21063
  45   37571.4    266.2   0.132169227   1.15811   0.67382   0.48885   0.68198
  46   37619.2    265.8   0.185250644   1.62116  -1.04353  -0.60476   0.40802
  47   37830.0    264.3   0.113822852   0.99053  -0.34997   0.25812   0.89522
  48   38098.0    262.5   0.011042940   0.09542  -0.16762   0.25356   0.05508
  49   38188.1    261.9   0.029875384   0.25755  -0.04182  -0.50539   0.01944
  50   38438.5    260.2   0.314696219   2.69526   1.10056   0.92039   0.79806
  51   38510.7    259.7   0.008301372   0.07096  -0.02777   0.07411   0.25436
  52   38743.3    258.1   0.018301694   0.15551   0.10921   0.01135  -0.37876
  53   39032.4    256.2   0.092723329   0.78206  -0.72879  -0.26196  -0.42696
  54   39305.7    254.4   0.004597207   0.03850   0.15763   0.02025  -0.11509
  55   39734.6    251.7   0.002950299   0.02444  -0.04691   0.14806   0.01791
  56   39819.8    251.1   0.014255908   0.11786   0.30379  -0.02081   0.15855
  57   40121.8    249.2   0.014873988   0.12205  -0.12370   0.31448   0.08857

FINAL SINGLE POINT ENERGY     -7021.634832235966

DIPOLE MOMENT
-------------
                                X             Y             Z
Electronic contribution:    -58.07777     -41.46756     -20.24479
Nuclear contribution   :     62.84656      41.40396      22.03980
                        -----------------------------------------
Total Dipole Moment    :      4.76878      -0.06360       1.79501
                        -----------------------------------------
Magnitude (a.u.)       :      5.09582
Magnitude (Debye)      :     12.95255

Rotational constants in cm-1:     0.002167     0.000270     0.000256
Rotational constants in MHz :    64.966498     8.084218     7.672635

                             ****ORCA TERMINATED NORMALLY****
TOTAL RUN TIME: 0 days 0 hours 11 minutes 24 seconds 893 msec
