                         Program Version 4.2.0 -  RELEASE  -
|  1> # ORCA input file
|  2> # SCF done       -187.446865388807          0.000381559997
|  3> ! CAM-B3LYP def2-SVP def2/J RIJCOSX Grid4 TightSCF
|  4> %maxcore 5000
|  5> %tddft
|  6>     Mode sTDDFT
|  7>     Ethresh 5.0
|  8>     maxcore 5000
|  9> end
| 10>
| 11> %pal
| 12>   nprocs 6
| 13>   end
| 14> * xyz 0 1
| 15>    C       -5.79613        -3.03432        -5.44890
| 16>    C       -6.72411        -3.97113        -5.09246
| 17>    C       -7.13522        -5.03515        -5.92622
| 18>    N       -7.50691        -5.91968        -6.55537
| 19>    C       -7.39211        -4.03465        -3.84884
| 20>    N       -7.98332        -4.16588        -2.87425
| 21>    C       -5.09588        -2.96921        -6.72369
| 22>    C       -4.13435        -1.92946        -6.67356
| 23>    C       -3.31418        -1.62695        -7.73404
| 24>    C       -3.45664        -2.37654        -8.90544
| 25>    C       -4.42333        -3.41153        -8.94905
| 26>    C       -5.24602        -3.72326        -7.87557
| 27>    S       -4.43296        -4.21204       -10.49122
| 28>    C       -3.15788        -3.16139       -11.04878
| 29>    C       -2.74421        -2.25656       -10.12945
| 30>   Br       -2.49487        -3.35577       -12.79143
| 31>    C       -4.16483        -1.28838        -5.34429
| 32>    O       -3.36160        -0.50281        -4.90585
| 33>    C       -5.32578        -1.91488        -4.63252
| 34>    C       -5.82795        -1.49426        -3.45820
| 35>    C       -5.41774        -0.25647        -2.79633
| 36>    N       -5.26676        -0.30291        -1.47466
| 37>    C       -4.89446         0.82213        -0.88553
| 38>    C       -4.68172         1.99644        -1.58379
| 39>    C       -4.90666         1.95879        -2.96918
| 40>    N       -5.28490         0.81908        -3.55259
| 41>    C       -4.74440         3.07439        -3.86675
| 42>    C       -4.46520         4.34638        -3.51707
| 43>    C       -4.28602         5.40198        -4.45124
| 44>    S       -4.29929         5.10883        -6.16154
| 45>    C       -4.01763         6.79784        -6.51015
| 46>    C       -3.95748         7.54206        -5.32936
| 47>    C       -4.08548         6.75106        -4.18038
| 48>    C       -4.02808         7.31701        -2.79452
| 49>    C       -3.47217         8.73798        -2.80280
| 50>    C       -4.18809         9.57135        -3.87564
| 51>    N       -3.89505        10.99057        -3.85236
| 52>    C       -3.81507         9.02706        -5.25801
| 53>    C       -3.87862         7.15438        -7.86709
| 54>    C       -3.47543         8.36037        -8.37069
| 55>    C       -3.35951         8.62889        -9.73941
| 56>    C       -2.95743         9.84971       -10.23237
| 57>    C       -2.81287        10.23727       -11.58337
| 58>    C       -2.41536        11.53148       -11.75475
| 59>    C       -2.22434        12.23291       -10.54522
| 60>    S       -2.55577        11.20040        -9.18203
| 61>    C       -1.84300        13.55437       -10.36801
| 62>    C       -1.57402        14.52706       -11.34996
| 63>    C       -1.24457        15.74888       -10.83472
| 64>    C       -1.23598        15.79650        -9.42428
| 65>    S       -1.64983        14.23355        -8.76739
| 66>    C       -0.93645        16.89309        -8.63476
| 67>    C       -0.96095        16.85930        -7.24738
| 68>    C       -0.66127        17.86757        -6.35364
| 69>    C       -0.02483        19.14431        -6.51252
| 70>    C        0.88416        19.51228        -7.47948
| 71>    C        1.48259        20.78428        -7.55219
| 72>    N        1.98583        21.80965        -7.67721
| 73>    C        1.42040        18.64036        -8.44607
| 74>    N        1.93552        17.97082        -9.22501
| 75>    C       -0.34197        19.94108        -5.32539
| 76>    C       -0.98134        19.10434        -4.37756
| 77>    C       -1.15288        17.75765        -4.96432
| 78>    O       -1.62916        16.77680        -4.43152
| 79>    C       -1.36922        19.55190        -3.13953
| 80>    C       -1.12630        20.89401        -2.82480
| 81>    C       -0.50171        21.72441        -3.78303
| 82>    C       -0.09988        21.26847        -5.03401
| 83>    S       -0.30884        23.34808        -3.19326
| 84>    C       -1.05636        22.89233        -1.68527
| 85>    C       -1.43310        21.59373        -1.62501
| 86>   Br       -1.27042        24.17547        -0.33294
| 87>    H       -2.58861        -0.83202        -7.66177
| 88>    H       -5.96616        -4.51990        -7.95869
| 89>    H       -1.96824        -1.53427       -10.30570
| 90>    H       -6.59384        -2.05327        -2.93880
| 91>    H       -4.76361         0.76646         0.18779
| 92>    H       -4.35926         2.89265        -1.08112
| 93>    H       -4.86158         2.81852        -4.91124
| 94>    H       -4.37541         4.62201        -2.47540
| 95>    H       -3.41001         6.68013        -2.15707
| 96>    H       -5.03874         7.32316        -2.37265
| 97>    H       -2.40068         8.71789        -3.01846
| 98>    H       -3.61084         9.19140        -1.81858
| 99>    H       -5.27111         9.46836        -3.73273
|100>    H       -2.89851        11.15524        -3.94875
|101>    H       -4.19684        11.41075        -2.98112
|102>    H       -2.77859         9.30964        -5.47205
|103>    H       -4.45039         9.50634        -6.00434
|104>    H       -4.08995         6.35989        -8.57303
|105>    H       -3.20946         9.16541        -7.70472
|106>    H       -3.60079         7.85129       -10.45196
|107>    H       -3.00861         9.55055       -12.38799
|108>    H       -2.25672        11.99443       -12.71187
|109>    H       -1.63288        14.31022       -12.40140
|110>    H       -1.00076        16.61397       -11.42491
|111>    H       -0.70092        17.81000        -9.15381
|112>    H       -1.34455        15.95448        -6.78325
|113>    H       -1.84633        18.88957        -2.43430
|114>    H        0.36968        21.94161        -5.73184
|115>    H       -1.90818        21.14516        -0.77167
|116> *
|117>
|118>                          ****END OF INPUT****

CARTESIAN COORDINATES (ANGSTROEM)
---------------------------------
  C     -5.796130   -3.034320   -5.448900
  C     -6.724110   -3.971130   -5.092460
  C     -7.135220   -5.035150   -5.926220
  N     -7.506910   -5.919680   -6.555370
  C     -7.392110   -4.034650   -3.848840
  N     -7.983320   -4.165880   -2.874250
  C     -5.095880   -2.969210   -6.723690
  C     -4.134350   -1.929460   -6.673560
  C     -3.314180   -1.626950   -7.734040
  C     -3.456640   -2.376540   -8.905440
  C     -4.423330   -3.411530   -8.949050
  C     -5.246020   -3.723260   -7.875570
  S     -4.432960   -4.212040  -10.491220
  C     -3.157880   -3.161390  -11.048780
  C     -2.744210   -2.256560  -10.129450
  Br    -2.494870   -3.355770  -12.791430
  C     -4.164830   -1.288380   -5.344290
  O     -3.361600   -0.502810   -4.905850
  C     -5.325780   -1.914880   -4.632520
  C     -5.827950   -1.494260   -3.458200
  C     -5.417740   -0.256470   -2.796330
  N     -5.266760   -0.302910   -1.474660
  C     -4.894460    0.822130   -0.885530
  C     -4.681720    1.996440   -1.583790
  C     -4.906660    1.958790   -2.969180
  N     -5.284900    0.819080   -3.552590
  C     -4.744400    3.074390   -3.866750
  C     -4.465200    4.346380   -3.517070
  C     -4.286020    5.401980   -4.451240
  S     -4.299290    5.108830   -6.161540
  C     -4.017630    6.797840   -6.510150
  C     -3.957480    7.542060   -5.329360
  C     -4.085480    6.751060   -4.180380
  C     -4.028080    7.317010   -2.794520
  C     -3.472170    8.737980   -2.802800
  C     -4.188090    9.571350   -3.875640
  N     -3.895050   10.990570   -3.852360
  C     -3.815070    9.027060   -5.258010
  C     -3.878620    7.154380   -7.867090
  C     -3.475430    8.360370   -8.370690
  C     -3.359510    8.628890   -9.739410
  C     -2.957430    9.849710  -10.232370
  C     -2.812870   10.237270  -11.583370
  C     -2.415360   11.531480  -11.754750
  C     -2.224340   12.232910  -10.545220
  S     -2.555770   11.200400   -9.182030
  C     -1.843000   13.554370  -10.368010
  C     -1.574020   14.527060  -11.349960
  C     -1.244570   15.748880  -10.834720
  C     -1.235980   15.796500   -9.424280
  S     -1.649830   14.233550   -8.767390
  C     -0.936450   16.893090   -8.634760
  C     -0.960950   16.859300   -7.247380
  C     -0.661270   17.867570   -6.353640
  C     -0.024830   19.144310   -6.512520
  C      0.884160   19.512280   -7.479480
  C      1.482590   20.784280   -7.552190
  N      1.985830   21.809650   -7.677210
  C      1.420400   18.640360   -8.446070
  N      1.935520   17.970820   -9.225010
  C     -0.341970   19.941080   -5.325390
  C     -0.981340   19.104340   -4.377560
  C     -1.152880   17.757650   -4.964320
  O     -1.629160   16.776800   -4.431520
  C     -1.369220   19.551900   -3.139530
  C     -1.126300   20.894010   -2.824800
  C     -0.501710   21.724410   -3.783030
  C     -0.099880   21.268470   -5.034010
  S     -0.308840   23.348080   -3.193260
  C     -1.056360   22.892330   -1.685270
  C     -1.433100   21.593730   -1.625010
  Br    -1.270420   24.175470   -0.332940
  H     -2.588610   -0.832020   -7.661770
  H     -5.966160   -4.519900   -7.958690
  H     -1.968240   -1.534270  -10.305700
  H     -6.593840   -2.053270   -2.938800
  H     -4.763610    0.766460    0.187790
  H     -4.359260    2.892650   -1.081120
  H     -4.861580    2.818520   -4.911240
  H     -4.375410    4.622010   -2.475400
  H     -3.410010    6.680130   -2.157070
  H     -5.038740    7.323160   -2.372650
  H     -2.400680    8.717890   -3.018460
  H     -3.610840    9.191400   -1.818580
  H     -5.271110    9.468360   -3.732730
  H     -2.898510   11.155240   -3.948750
  H     -4.196840   11.410750   -2.981120
  H     -2.778590    9.309640   -5.472050
  H     -4.450390    9.506340   -6.004340
  H     -4.089950    6.359890   -8.573030
  H     -3.209460    9.165410   -7.704720
  H     -3.600790    7.851290  -10.451960
  H     -3.008610    9.550550  -12.387990
  H     -2.256720   11.994430  -12.711870
  H     -1.632880   14.310220  -12.401400
  H     -1.000760   16.613970  -11.424910
  H     -0.700920   17.810000   -9.153810
  H     -1.344550   15.954480   -6.783250
  H     -1.846330   18.889570   -2.434300
  H      0.369680   21.941610   -5.731840
  H     -1.908180   21.145160   -0.771670

 Total Charge           Charge          ....    0
 Multiplicity           Mult            ....    1
 Number of Electrons    NEL             ....  580
 Basis Dimension        Dim             .... 1209

ORBITAL ENERGIES
----------------

  NO   OCC          E(Eh)            E(eV)
   0   2.0000    -482.891047    -13140.1334
   1   2.0000    -482.876903    -13139.7485
   2   2.0000     -88.980840     -2421.2918
   3   2.0000     -88.964859     -2420.8569
   4   2.0000     -88.964197     -2420.8389
   5   2.0000     -88.963598     -2420.8226
   6   2.0000     -88.959650     -2420.7151
   7   2.0000     -62.568765     -1702.5827
   8   2.0000     -62.554592     -1702.1970
   9   2.0000     -56.402719     -1534.7960
  10   2.0000     -56.399994     -1534.7218
  11   2.0000     -56.399967     -1534.7211
  12   2.0000     -56.388527     -1534.4098
  13   2.0000     -56.385842     -1534.3368
  14   2.0000     -56.385802     -1534.3357
  15   2.0000     -19.219741      -522.9958
  16   2.0000     -19.195942      -522.3481
  17   2.0000     -14.421898      -392.4398
  18   2.0000     -14.420835      -392.4109
  19   2.0000     -14.414684      -392.2435
  20   2.0000     -14.413167      -392.2022
  21   2.0000     -14.398859      -391.8129
  22   2.0000     -14.396630      -391.7522
  23   2.0000     -14.386602      -391.4793
  24   2.0000     -10.371264      -282.2164
  25   2.0000     -10.365042      -282.0471
  26   2.0000     -10.351002      -281.6651
  27   2.0000     -10.350417      -281.6492
  28   2.0000     -10.348075      -281.5854
  29   2.0000     -10.347759      -281.5768
  30   2.0000     -10.346613      -281.5456
  31   2.0000     -10.336563      -281.2722
  32   2.0000     -10.334453      -281.2148
  33   2.0000     -10.331694      -281.1397
  34   2.0000     -10.326725      -281.0045
  35   2.0000     -10.325451      -280.9698
  36   2.0000     -10.324135      -280.9340
  37   2.0000     -10.323623      -280.9201
  38   2.0000     -10.323384      -280.9136
  39   2.0000     -10.322623      -280.8929
  40   2.0000     -10.322516      -280.8899
  41   2.0000     -10.321407      -280.8598
  42   2.0000     -10.314798      -280.6799
  43   2.0000     -10.314160      -280.6626
  44   2.0000     -10.313978      -280.6576
  45   2.0000     -10.313590      -280.6471
  46   2.0000     -10.312589      -280.6198
  47   2.0000     -10.312081      -280.6060
  48   2.0000     -10.311768      -280.5975
  49   2.0000     -10.307734      -280.4877
  50   2.0000     -10.307649      -280.4854
  51   2.0000     -10.306762      -280.4613
  52   2.0000     -10.306516      -280.4546
  53   2.0000     -10.306198      -280.4459
  54   2.0000     -10.304455      -280.3985
  55   2.0000     -10.304079      -280.3882
  56   2.0000     -10.302819      -280.3540
  57   2.0000     -10.302788      -280.3531
  58   2.0000     -10.302391      -280.3423
  59   2.0000     -10.301243      -280.3111
  60   2.0000     -10.300366      -280.2872
  61   2.0000     -10.298063      -280.2246
  62   2.0000     -10.297048      -280.1969
  63   2.0000     -10.294131      -280.1176
  64   2.0000     -10.293757      -280.1074
  65   2.0000     -10.293672      -280.1050
  66   2.0000     -10.293562      -280.1021
  67   2.0000     -10.293027      -280.0875
  68   2.0000     -10.291957      -280.0584
  69   2.0000     -10.291049      -280.0337
  70   2.0000     -10.290897      -280.0295
  71   2.0000     -10.287521      -279.9377
  72   2.0000     -10.286307      -279.9047
  73   2.0000     -10.285840      -279.8919
  74   2.0000     -10.285632      -279.8863
  75   2.0000     -10.279193      -279.7111
  76   2.0000     -10.278351      -279.6882
  77   2.0000     -10.277212      -279.6572
  78   2.0000     -10.273592      -279.5587
  79   2.0000     -10.272322      -279.5241
  80   2.0000      -8.798196      -239.4111
  81   2.0000      -8.783995      -239.0246
  82   2.0000      -8.076944      -219.7848
  83   2.0000      -8.061081      -219.3532
  84   2.0000      -8.060225      -219.3299
  85   2.0000      -8.059315      -219.3051
  86   2.0000      -8.055910      -219.2124
  87   2.0000      -6.634521      -180.5345
  88   2.0000      -6.620212      -180.1451
  89   2.0000      -6.619939      -180.1377
  90   2.0000      -6.619699      -180.1312
  91   2.0000      -6.605753      -179.7517
  92   2.0000      -6.605601      -179.7475
  93   2.0000      -6.046641      -164.5375
  94   2.0000      -6.042357      -164.4209
  95   2.0000      -6.038117      -164.3055
  96   2.0000      -6.030713      -164.1040
  97   2.0000      -6.029914      -164.0823
  98   2.0000      -6.028420      -164.0416
  99   2.0000      -6.026733      -163.9957
 100   2.0000      -6.025659      -163.9665
 101   2.0000      -6.025503      -163.9623
 102   2.0000      -6.024599      -163.9377
 103   2.0000      -6.022127      -163.8704
 104   2.0000      -6.021484      -163.8529
 105   2.0000      -6.021436      -163.8516
 106   2.0000      -6.021433      -163.8515
 107   2.0000      -6.017073      -163.7329
 108   2.0000      -2.750379       -74.8416
 109   2.0000      -2.746303       -74.7307
 110   2.0000      -2.746136       -74.7262
 111   2.0000      -2.736146       -74.4543
 112   2.0000      -2.734543       -74.4107
 113   2.0000      -2.734527       -74.4103
 114   2.0000      -2.732004       -74.3416
 115   2.0000      -2.731902       -74.3388
 116   2.0000      -2.720412       -74.0262
 117   2.0000      -2.720405       -74.0260
 118   2.0000      -1.136239       -30.9186
 119   2.0000      -1.109967       -30.2037
 120   2.0000      -1.089136       -29.6369
 121   2.0000      -1.028618       -27.9901
 122   2.0000      -1.019132       -27.7320
 123   2.0000      -1.013460       -27.5776
 124   2.0000      -1.008732       -27.4490
 125   2.0000      -1.004339       -27.3295
 126   2.0000      -0.999651       -27.2019
 127   2.0000      -0.997592       -27.1459
 128   2.0000      -0.994845       -27.0711
 129   2.0000      -0.990227       -26.9455
 130   2.0000      -0.986640       -26.8479
 131   2.0000      -0.978397       -26.6235
 132   2.0000      -0.976704       -26.5775
 133   2.0000      -0.973452       -26.4890
 134   2.0000      -0.949093       -25.8261
 135   2.0000      -0.934211       -25.4212
 136   2.0000      -0.929582       -25.2952
 137   2.0000      -0.924482       -25.1564
 138   2.0000      -0.914312       -24.8797
 139   2.0000      -0.909155       -24.7394
 140   2.0000      -0.906964       -24.6797
 141   2.0000      -0.899267       -24.4703
 142   2.0000      -0.894081       -24.3292
 143   2.0000      -0.891871       -24.2690
 144   2.0000      -0.886519       -24.1234
 145   2.0000      -0.875934       -23.8354
 146   2.0000      -0.872337       -23.7375
 147   2.0000      -0.863266       -23.4906
 148   2.0000      -0.861440       -23.4410
 149   2.0000      -0.851619       -23.1737
 150   2.0000      -0.844901       -22.9909
 151   2.0000      -0.837920       -22.8010
 152   2.0000      -0.834780       -22.7155
 153   2.0000      -0.832865       -22.6634
 154   2.0000      -0.819922       -22.3112
 155   2.0000      -0.815930       -22.2026
 156   2.0000      -0.802445       -21.8356
 157   2.0000      -0.789251       -21.4766
 158   2.0000      -0.787041       -21.4165
 159   2.0000      -0.768822       -20.9207
 160   2.0000      -0.764948       -20.8153
 161   2.0000      -0.749888       -20.4055
 162   2.0000      -0.742791       -20.2124
 163   2.0000      -0.740860       -20.1598
 164   2.0000      -0.729631       -19.8543
 165   2.0000      -0.721371       -19.6295
 166   2.0000      -0.710985       -19.3469
 167   2.0000      -0.706811       -19.2333
 168   2.0000      -0.696800       -18.9609
 169   2.0000      -0.692796       -18.8519
 170   2.0000      -0.688571       -18.7370
 171   2.0000      -0.685771       -18.6608
 172   2.0000      -0.676113       -18.3980
 173   2.0000      -0.673599       -18.3296
 174   2.0000      -0.663194       -18.0464
 175   2.0000      -0.660342       -17.9688
 176   2.0000      -0.658546       -17.9199
 177   2.0000      -0.648778       -17.6542
 178   2.0000      -0.641603       -17.4589
 179   2.0000      -0.640108       -17.4182
 180   2.0000      -0.633890       -17.2490
 181   2.0000      -0.630977       -17.1697
 182   2.0000      -0.628640       -17.1062
 183   2.0000      -0.624262       -16.9870
 184   2.0000      -0.618278       -16.8242
 185   2.0000      -0.614813       -16.7299
 186   2.0000      -0.608585       -16.5605
 187   2.0000      -0.604170       -16.4403
 188   2.0000      -0.602454       -16.3936
 189   2.0000      -0.591914       -16.1068
 190   2.0000      -0.588147       -16.0043
 191   2.0000      -0.581702       -15.8289
 192   2.0000      -0.580855       -15.8059
 193   2.0000      -0.575999       -15.6737
 194   2.0000      -0.573290       -15.6000
 195   2.0000      -0.567616       -15.4456
 196   2.0000      -0.556318       -15.1382
 197   2.0000      -0.554791       -15.0966
 198   2.0000      -0.549024       -14.9397
 199   2.0000      -0.545214       -14.8360
 200   2.0000      -0.544753       -14.8235
 201   2.0000      -0.542144       -14.7525
 202   2.0000      -0.537454       -14.6249
 203   2.0000      -0.535825       -14.5805
 204   2.0000      -0.532109       -14.4794
 205   2.0000      -0.530747       -14.4424
 206   2.0000      -0.528782       -14.3889
 207   2.0000      -0.525367       -14.2960
 208   2.0000      -0.523135       -14.2352
 209   2.0000      -0.520098       -14.1526
 210   2.0000      -0.517764       -14.0891
 211   2.0000      -0.516050       -14.0424
 212   2.0000      -0.514421       -13.9981
 213   2.0000      -0.513918       -13.9844
 214   2.0000      -0.513265       -13.9667
 215   2.0000      -0.512685       -13.9509
 216   2.0000      -0.509459       -13.8631
 217   2.0000      -0.507114       -13.7993
 218   2.0000      -0.503392       -13.6980
 219   2.0000      -0.500387       -13.6162
 220   2.0000      -0.498052       -13.5527
 221   2.0000      -0.494837       -13.4652
 222   2.0000      -0.493776       -13.4363
 223   2.0000      -0.490391       -13.3442
 224   2.0000      -0.487559       -13.2672
 225   2.0000      -0.486395       -13.2355
 226   2.0000      -0.483747       -13.1634
 227   2.0000      -0.483028       -13.1439
 228   2.0000      -0.481684       -13.1073
 229   2.0000      -0.479176       -13.0390
 230   2.0000      -0.476721       -12.9722
 231   2.0000      -0.475938       -12.9509
 232   2.0000      -0.473477       -12.8840
 233   2.0000      -0.469332       -12.7712
 234   2.0000      -0.463367       -12.6089
 235   2.0000      -0.458024       -12.4635
 236   2.0000      -0.456320       -12.4171
 237   2.0000      -0.453909       -12.3515
 238   2.0000      -0.452731       -12.3194
 239   2.0000      -0.451411       -12.2835
 240   2.0000      -0.449015       -12.2183
 241   2.0000      -0.448689       -12.2094
 242   2.0000      -0.446576       -12.1519
 243   2.0000      -0.444797       -12.1035
 244   2.0000      -0.442504       -12.0411
 245   2.0000      -0.437037       -11.8924
 246   2.0000      -0.433525       -11.7968
 247   2.0000      -0.432888       -11.7795
 248   2.0000      -0.432476       -11.7683
 249   2.0000      -0.430401       -11.7118
 250   2.0000      -0.429122       -11.6770
 251   2.0000      -0.428290       -11.6544
 252   2.0000      -0.426758       -11.6127
 253   2.0000      -0.425411       -11.5760
 254   2.0000      -0.423540       -11.5251
 255   2.0000      -0.419453       -11.4139
 256   2.0000      -0.415031       -11.2936
 257   2.0000      -0.413968       -11.2646
 258   2.0000      -0.413620       -11.2552
 259   2.0000      -0.411163       -11.1883
 260   2.0000      -0.406658       -11.0657
 261   2.0000      -0.404406       -11.0044
 262   2.0000      -0.402702       -10.9581
 263   2.0000      -0.394278       -10.7288
 264   2.0000      -0.393595       -10.7103
 265   2.0000      -0.390595       -10.6286
 266   2.0000      -0.387578       -10.5465
 267   2.0000      -0.383934       -10.4474
 268   2.0000      -0.380318       -10.3490
 269   2.0000      -0.377753       -10.2792
 270   2.0000      -0.372968       -10.1490
 271   2.0000      -0.366499        -9.9730
 272   2.0000      -0.366196        -9.9647
 273   2.0000      -0.355739        -9.6801
 274   2.0000      -0.349998        -9.5239
 275   2.0000      -0.341236        -9.2855
 276   2.0000      -0.339196        -9.2300
 277   2.0000      -0.333510        -9.0753
 278   2.0000      -0.327414        -8.9094
 279   2.0000      -0.323760        -8.8100
 280   2.0000      -0.322672        -8.7803
 281   2.0000      -0.319669        -8.6986
 282   2.0000      -0.319188        -8.6855
 283   2.0000      -0.309099        -8.4110
 284   2.0000      -0.303190        -8.2502
 285   2.0000      -0.301566        -8.2060
 286   2.0000      -0.298775        -8.1301
 287   2.0000      -0.281589        -7.6624
 288   2.0000      -0.267602        -7.2818
 289   2.0000      -0.221966        -6.0400
 290   0.0000      -0.112942        -3.0733
 291   0.0000      -0.092995        -2.5305
 292   0.0000      -0.069089        -1.8800
 293   0.0000      -0.059445        -1.6176
 294   0.0000      -0.050497        -1.3741

MULLIKEN ATOMIC CHARGES
-----------------------
   0 C :    0.302072
   1 C :   -0.339202
   2 C :   -0.187601
   3 N :    0.154846
   4 C :   -0.186868
   5 N :    0.164871
   6 C :    0.022059
   7 C :   -0.012628
   8 C :   -0.073809
   9 C :    0.122367
  10 C :   -0.087531
  11 C :   -0.024981
  12 S :    0.188955
  13 C :   -0.121777
  14 C :    0.035765
  15 Br:    0.026831
  16 C :    0.151437
  17 O :   -0.126910
  18 C :   -0.054547
  19 C :    0.027780
  20 C :   -0.056550
  21 N :   -0.071561
  22 C :    0.075781
  23 C :   -0.047133
  24 C :    0.054034
  25 N :   -0.052276
  26 C :    0.026331
  27 C :    0.020459
  28 C :   -0.092880
  29 S :    0.120767
  30 C :   -0.122388
  31 C :   -0.033131
  32 C :   -0.106627
  33 C :    0.123042
  34 C :    0.071068
  35 C :   -0.065376
  36 N :   -0.160860
  37 C :    0.132213
  38 C :    0.051068
  39 C :   -0.027561
  40 C :    0.019443
  41 C :   -0.037272
  42 C :    0.054479
  43 C :    0.019014
  44 C :   -0.019660
  45 S :    0.083945
  46 C :   -0.056939
  47 C :    0.035676
  48 C :    0.034874
  49 C :   -0.016625
  50 S :    0.106379
  51 C :   -0.002453
  52 C :    0.018493
  53 C :   -0.127869
  54 C :    0.291260
  55 C :   -0.349636
  56 C :   -0.178543
  57 N :    0.133542
  58 C :   -0.220584
  59 N :    0.154048
  60 C :    0.004520
  61 C :   -0.000487
  62 C :    0.135171
  63 O :   -0.161845
  64 C :   -0.080558
  65 C :    0.115280
  66 C :   -0.089533
  67 C :   -0.025836
  68 S :    0.177792
  69 C :   -0.124632
  70 C :    0.038063
  71 Br:    0.012922
  72 H :   -0.008278
  73 H :   -0.004479
  74 H :   -0.002569
  75 H :    0.044535
  76 H :    0.010441
  77 H :   -0.007397
  78 H :   -0.003571
  79 H :   -0.010069
  80 H :    0.018879
  81 H :    0.018164
  82 H :   -0.005224
  83 H :   -0.008882
  84 H :   -0.001242
  85 H :    0.090938
  86 H :    0.092173
  87 H :    0.018685
  88 H :    0.033960
  89 H :   -0.013592
  90 H :    0.009235
  91 H :   -0.007374
  92 H :   -0.003849
  93 H :   -0.006439
  94 H :   -0.004312
  95 H :    0.001806
  96 H :    0.006198
  97 H :    0.012184
  98 H :   -0.016260
  99 H :   -0.007944
 100 H :   -0.007693
Sum of atomic charges:   -0.0000000

LOEWDIN ATOMIC CHARGES
----------------------
   0 C :    0.075009
   1 C :   -0.127574
   2 C :   -0.017064
   3 N :   -0.046475
   4 C :   -0.021665
   5 N :   -0.038092
   6 C :   -0.021876
   7 C :   -0.049158
   8 C :    0.021601
   9 C :   -0.030026
  10 C :   -0.142733
  11 C :   -0.008446
  12 S :    0.434086
  13 C :   -0.269853
  14 C :   -0.070980
  15 Br:    0.139766
  16 C :    0.084904
  17 O :   -0.122016
  18 C :   -0.060602
  19 C :    0.071588
  20 C :    0.017917
  21 N :   -0.083522
  22 C :    0.049014
  23 C :   -0.051616
  24 C :    0.038206
  25 N :   -0.069879
  26 C :   -0.031812
  27 C :   -0.015629
  28 C :   -0.171687
  29 S :    0.442218
  30 C :   -0.169741
  31 C :   -0.041664
  32 C :   -0.046942
  33 C :   -0.027383
  34 C :   -0.041413
  35 C :    0.012806
  36 N :   -0.098340
  37 C :   -0.028545
  38 C :   -0.016572
  39 C :   -0.044113
  40 C :   -0.020570
  41 C :   -0.156759
  42 C :   -0.012885
  43 C :   -0.039168
  44 C :   -0.147756
  45 S :    0.394098
  46 C :   -0.195056
  47 C :   -0.007851
  48 C :   -0.039343
  49 C :   -0.100199
  50 S :    0.403926
  51 C :   -0.071716
  52 C :    0.049713
  53 C :   -0.111085
  54 C :    0.068714
  55 C :   -0.156474
  56 C :   -0.020032
  57 N :   -0.067576
  58 C :   -0.024147
  59 N :   -0.065103
  60 C :   -0.015145
  61 C :   -0.050552
  62 C :    0.077766
  63 O :   -0.162178
  64 C :    0.016770
  65 C :   -0.037643
  66 C :   -0.145281
  67 C :   -0.016739
  68 S :    0.426143
  69 C :   -0.275662
  70 C :   -0.071189
  71 Br:    0.128451
  72 H :    0.041334
  73 H :    0.041416
  74 H :    0.039057
  75 H :    0.050926
  76 H :    0.028411
  77 H :    0.031536
  78 H :    0.029324
  79 H :    0.031358
  80 H :    0.031897
  81 H :    0.034780
  82 H :    0.019955
  83 H :    0.020719
  84 H :    0.020788
  85 H :    0.052884
  86 H :    0.055422
  87 H :    0.030941
  88 H :    0.038260
  89 H :    0.030536
  90 H :    0.023252
  91 H :    0.036591
  92 H :    0.037603
  93 H :    0.034718
  94 H :    0.035658
  95 H :    0.040018
  96 H :    0.037527
  97 H :    0.032850
  98 H :    0.038457
  99 H :    0.039641
 100 H :    0.036966

  Mayer bond orders larger than 0.100000
B(  0-C ,  1-C ) :   1.6631 B(  0-C ,  6-C ) :   1.0174 B(  0-C , 18-C ) :   1.0305
B(  1-C ,  2-C ) :   1.1372 B(  1-C ,  4-C ) :   1.1373 B(  2-C ,  3-N ) :   2.9737
B(  4-C ,  5-N ) :   2.9789 B(  6-C ,  7-C ) :   1.2715 B(  6-C , 11-C ) :   1.3945
B(  7-C ,  8-C ) :   1.4176 B(  7-C , 16-C ) :   0.9337 B(  8-C ,  9-C ) :   1.2527
B(  8-C , 72-H ) :   1.0172 B(  9-C , 10-C ) :   1.2952 B(  9-C , 14-C ) :   1.1630
B( 10-C , 11-C ) :   1.3443 B( 10-C , 12-S ) :   1.0849 B( 11-C , 73-H ) :   0.9808
B( 12-S , 13-C ) :   1.0863 B( 13-C , 14-C ) :   1.6167 B( 13-C , 15-Br) :   1.0208
B( 14-C , 74-H ) :   1.0014 B( 16-C , 17-O ) :   2.2619 B( 16-C , 18-C ) :   0.9079
B( 18-C , 19-C ) :   1.7930 B( 19-C , 20-C ) :   0.9689 B( 19-C , 75-H ) :   0.9337
B( 20-C , 21-N ) :   1.5228 B( 20-C , 25-N ) :   1.5136 B( 21-N , 22-C ) :   1.5262
B( 22-C , 23-C ) :   1.4050 B( 22-C , 76-H ) :   0.9790 B( 23-C , 24-C ) :   1.3359
B( 23-C , 77-H ) :   0.9674 B( 24-C , 25-N ) :   1.4906 B( 24-C , 26-C ) :   1.0760
B( 26-C , 27-C ) :   1.6483 B( 26-C , 78-H ) :   0.9767 B( 27-C , 28-C ) :   1.1672
B( 27-C , 79-H ) :   0.9617 B( 28-C , 29-S ) :   1.1185 B( 28-C , 32-C ) :   1.4591
B( 29-S , 30-C ) :   1.1092 B( 30-C , 31-C ) :   1.4490 B( 30-C , 38-C ) :   1.1650
B( 31-C , 32-C ) :   1.3521 B( 31-C , 37-C ) :   1.0327 B( 32-C , 33-C ) :   1.0458
B( 33-C , 34-C ) :   1.0793 B( 33-C , 80-H ) :   0.9128 B( 33-C , 81-H ) :   0.9069
B( 34-C , 35-C ) :   1.0252 B( 34-C , 82-H ) :   0.9289 B( 34-C , 83-H ) :   0.9288
B( 35-C , 36-N ) :   1.1184 B( 35-C , 37-C ) :   1.0386 B( 35-C , 84-H ) :   0.9248
B( 36-N , 85-H ) :   0.9671 B( 36-N , 86-H ) :   0.9684 B( 37-C , 87-H ) :   0.8929
B( 37-C , 88-H ) :   0.9118 B( 38-C , 39-C ) :   1.5981 B( 38-C , 89-H ) :   0.9573
B( 39-C , 40-C ) :   1.1846 B( 39-C , 90-H ) :   0.9634 B( 40-C , 41-C ) :   1.5248
B( 40-C , 91-H ) :   0.9865 B( 41-C , 42-C ) :   1.1616 B( 41-C , 45-S ) :   1.0293
B( 42-C , 43-C ) :   1.5625 B( 42-C , 92-H ) :   0.9997 B( 43-C , 44-C ) :   1.2093
B( 43-C , 93-H ) :   0.9955 B( 44-C , 45-S ) :   1.0835 B( 44-C , 46-C ) :   1.4489
B( 46-C , 47-C ) :   1.2283 B( 46-C , 50-S ) :   1.0435 B( 47-C , 48-C ) :   1.5316
B( 47-C , 94-H ) :   0.9957 B( 48-C , 49-C ) :   1.1911 B( 48-C , 95-H ) :   1.0010
B( 49-C , 50-S ) :   1.0892 B( 49-C , 51-C ) :   1.4811 B( 51-C , 52-C ) :   1.2366
B( 51-C , 96-H ) :   0.9634 B( 52-C , 53-C ) :   1.5136 B( 52-C , 97-H ) :   0.9372
B( 53-C , 54-C ) :   1.0931 B( 53-C , 62-C ) :   0.9713 B( 54-C , 55-C ) :   1.5902
B( 54-C , 60-C ) :   1.0005 B( 55-C , 56-C ) :   1.1331 B( 55-C , 58-C ) :   1.1708
B( 56-C , 57-N ) :   2.9733 B( 58-C , 59-N ) :   3.0075 B( 60-C , 61-C ) :   1.2777
B( 60-C , 67-C ) :   1.4255 B( 61-C , 62-C ) :   0.9184 B( 61-C , 64-C ) :   1.4338
B( 62-C , 63-O ) :   2.2369 B( 64-C , 65-C ) :   1.2435 B( 64-C , 98-H ) :   1.0154
B( 65-C , 66-C ) :   1.3192 B( 65-C , 70-C ) :   1.1602 B( 66-C , 67-C ) :   1.3162
B( 66-C , 68-S ) :   1.0821 B( 67-C , 99-H ) :   0.9809 B( 68-S , 69-C ) :   1.0857
B( 69-C , 70-C ) :   1.6222 B( 69-C , 71-Br) :   1.0127 B( 70-C ,100-H ) :   0.9996

-----------------------------------------------------------------------------
         ABSORPTION SPECTRUM VIA TRANSITION ELECTRIC DIPOLE MOMENTS
-----------------------------------------------------------------------------
State   Energy  Wavelength   fosc         T2         TX        TY        TZ
        (cm-1)    (nm)                  (au**2)     (au)      (au)      (au)
-----------------------------------------------------------------------------
   0   10718.4    933.0   1.623443825  49.86343  -2.02557  -6.76427  -0.07215
   1   19338.1    517.1   0.031647952   0.53878  -0.02667  -0.44201   0.58540
   2   20121.0    497.0   0.024777839   0.40540  -0.05238  -0.04523  -0.63294
   3   20940.5    477.5   0.589459955   9.26706   0.11114  -0.87010   2.91507
   4   23211.8    430.8   0.272820992   3.86941  -0.13932  -0.91046   1.73812
   5   24809.1    403.1   0.297378059   3.94615  -0.53737   0.07985   1.91076
   6   26256.3    380.9   0.001006943   0.01263  -0.03294   0.05754   0.09072
   7   26645.7    375.3   0.000781949   0.00966  -0.01117  -0.08668   0.04499
   8   27129.3    368.6   0.003631554   0.04407  -0.00711  -0.13053  -0.16426
   9   27448.0    364.3   0.034150801   0.40961  -0.04401  -0.60145  -0.21430
  10   28010.0    357.0   0.017898331   0.21037   0.15785   0.26804   0.33705
  11   28105.6    355.8   0.375387016   4.39706  -1.04879  -0.28215   1.79374
  12   28124.5    355.6   0.023330027   0.27309  -0.21367  -0.38225   0.28517
  13   28444.8    351.6   0.005560219   0.06435  -0.11050   0.01935   0.22753
  14   29018.7    344.6   0.127627259   1.44791   0.11897   1.08008   0.51690
  15   29513.5    338.8   0.040941683   0.45669  -0.05465   0.31003   0.59798
  16   30244.8    330.6   0.066213790   0.72073   0.44667   0.71704   0.08413
  17   30725.0    325.5   0.148395224   1.59002  -0.19058  -0.38657   1.18502
  18   30813.4    324.5   0.099282691   1.06074  -0.26997  -0.99381  -0.01382
  19   31483.8    317.6   0.039016218   0.40798   0.27732   0.48894  -0.30333
  20   31747.5    315.0   0.054509487   0.56525  -0.10714   0.36501   0.64848
  21   31930.3    313.2   0.392037370   4.04204   0.34650  -1.39576  -1.40493
  22   32638.2    306.4   0.027856751   0.28098   0.18856  -0.27438  -0.41248
  23   32799.4    304.9   0.223713432   2.24544   0.59954  -0.45487  -1.29579
  24   33207.7    301.1   0.124649946   1.23575   0.42433  -0.43784  -0.92951
  25   33438.9    299.1   0.059356285   0.58437  -0.01643   0.48530   0.59041
  26   33840.2    295.5   0.163842813   1.59393   0.48736   1.05594   0.49131
  27   33973.8    294.3   0.158775361   1.53856  -0.74996  -0.34567   0.92554
  28   34129.7    293.0   0.041072021   0.39618   0.30935  -0.08329  -0.54180
  29   34167.9    292.7   0.492842986   4.74861  -1.11745  -0.08953   1.86866
  30   34298.0    291.6   0.111400745   1.06929  -0.65058  -0.80206   0.05225
  31   34842.8    287.0   0.052256600   0.49375  -0.01096   0.70223   0.02245
  32   35516.5    281.6   0.042956212   0.39817  -0.37653   0.04592   0.50427
  33   35716.5    280.0   0.014849805   0.13688  -0.02750   0.00217   0.36894
  34   36297.5    275.5   0.023317308   0.21148   0.17075   0.41692   0.09222
  35   36671.9    272.7   0.043793644   0.39315   0.07657  -0.27857  -0.55649
  36   36883.1    271.1   0.005425646   0.04843  -0.02577   0.19187   0.10465
  37   37103.1    269.5   0.031425954   0.27884   0.17040   0.49121   0.09229
  38   37342.1    267.8   0.004823738   0.04253   0.11634   0.15192  -0.07690
  39   37362.4    267.6   0.021867805   0.19268   0.15840   0.35292   0.20747
  40   37523.1    266.5   0.014575568   0.12788   0.01940   0.05988  -0.35202
  41   37775.2    264.7   0.030116336   0.26246   0.12689   0.49448   0.04309
  42   38114.6    262.4   0.107937532   0.93230  -0.27147   0.36632   0.85113
  43   38253.4    261.4   0.353461651   3.04192   0.82396   0.45558  -1.46814
  44   38279.0    261.2   0.021230316   0.18259   0.18248  -0.07157  -0.37969
  45   38828.1    257.5   0.004486960   0.03804  -0.08486  -0.03457  -0.17218
  46   38943.6    256.8   0.013363827   0.11297   0.13729   0.30676  -0.00447
  47   39500.3    253.2   0.008290914   0.06910  -0.03733  -0.22539  -0.13003
  48   39764.3    251.5   0.070357058   0.58249   0.47134  -0.20287  -0.56495
  49   40178.1    248.9   0.382940384   3.13775   0.32088   1.17928   1.28222
  50   40289.7    248.2   0.020495112   0.16747   0.01449   0.06128   0.40435

FINAL SINGLE POINT ENERGY     -9819.870725672747

DIPOLE MOMENT
-------------
                                X             Y             Z
Electronic contribution:     27.50286      27.04728     -19.03863
Nuclear contribution   :    -28.37888     -28.18096      17.94819
                        -----------------------------------------
Total Dipole Moment    :     -0.87602      -1.13368      -1.09044
                        -----------------------------------------
Magnitude (a.u.)       :      1.80047
Magnitude (Debye)      :      4.57643

Rotational constants in cm-1:     0.001149     0.000142     0.000128
Rotational constants in MHz :    34.448255     4.248810     3.830674

                             ****ORCA TERMINATED NORMALLY****
TOTAL RUN TIME: 0 days 0 hours 9 minutes 37 seconds 645 msec
