                         Program Version 4.2.0 -  RELEASE  -
|  1> # ORCA input file
|  2> # SCF done       -193.120513216867          0.000669044168
|  3> ! CAM-B3LYP def2-SVP def2/J RIJCOSX Grid4 TightSCF
|  4> %maxcore 5000
|  5> %tddft
|  6>     Mode sTDDFT
|  7>     Ethresh 5.0
|  8>     maxcore 5000
|  9> end
| 10>
| 11> %pal
| 12>   nprocs 6
| 13>   end
| 14> * xyz 0 1
| 15>    C      -11.24075         4.03578         3.31204
| 16>    C      -10.88841         3.45796         4.50298
| 17>    C      -11.64466         3.56220         5.68887
| 18>    N      -12.22002         3.61694         6.68020
| 19>    C       -9.71943         2.69173         4.69059
| 20>    N       -8.77613         2.06590         4.87961
| 21>    C      -12.43294         4.84480         3.07122
| 22>    C      -12.43041         5.27847         1.71894
| 23>    C      -13.42691         6.06434         1.18904
| 24>    C      -14.47705         6.44066         2.03213
| 25>    C      -14.47460         6.00017         3.37802
| 26>    C      -13.46611         5.20608         3.91337
| 27>    S      -15.86801         6.57270         4.23963
| 28>    C      -16.42849         7.38755         2.80303
| 29>    C      -15.61323         7.23881         1.73071
| 30>   Br      -18.03371         8.35564         2.85392
| 31>    C      -11.23137         4.75542         1.06038
| 32>    O      -10.87638         4.94236        -0.10489
| 33>    C      -10.51189         3.97545         2.06367
| 34>    C       -9.34542         3.31447         1.76215
| 35>    N       -8.82754         3.38151         0.53020
| 36>    C       -7.73063         2.72282         0.07417
| 37>    S       -6.90698         1.55928         1.06928
| 38>    C       -5.86329         1.19026        -0.26275
| 39>    N       -4.86474         0.22004        -0.06482
| 40>    O       -4.13988        -0.03819        -1.00401
| 41>    O       -4.81090        -0.28665         1.03929
| 42>    C       -6.13874         1.90882        -1.39162
| 43>    C       -7.20225         2.82115        -1.21826
| 44>    C       -7.61321         3.69272        -2.28550
| 45>    C       -8.23318         4.89026        -2.19630
| 46>    C       -8.51741         5.67593        -3.35384
| 47>    O       -8.15953         5.18496        -4.57822
| 48>    C       -8.40198         6.09285        -5.50327
| 49>    C       -8.93053         7.22627        -4.93148
| 50>    N       -9.30208         8.40740        -5.60044
| 51>    O       -9.24603         8.41461        -6.81061
| 52>    O       -9.65616         9.35258        -4.90771
| 53>    C       -9.02905         6.96709        -3.51958
| 54>    N       -9.52020         7.87983        -2.64202
| 55>    C       -9.99394         7.68208        -1.39218
| 56>    C      -10.35467         8.71256        -0.57201
| 57>    C      -10.92649         8.60996         0.72161
| 58>    C      -11.18211         9.80841         1.31097
| 59>    C      -10.80999        10.92770         0.52902
| 60>    S      -10.14599        10.41268        -1.00040
| 61>    C      -10.89446        12.26447         0.87412
| 62>    C      -11.41331        12.81776         2.06445
| 63>    C      -11.31660        14.17607         2.12432
| 64>    C      -10.71552        14.76352         0.98749
| 65>    S      -10.28701        13.53093        -0.17186
| 66>    C      -10.44246        16.10524         0.81128
| 67>    C       -9.84603        16.63575        -0.32803
| 68>    C       -9.43296        17.93479        -0.52903
| 69>    C       -9.22480        19.02075         0.38833
| 70>    C       -8.91056        18.92819         1.72555
| 71>    C       -8.68402        20.04076         2.55811
| 72>    N       -8.51281        20.90938         3.29019
| 73>    C       -8.66171        17.71811         2.40182
| 74>    N       -8.39764        16.76845         2.99191
| 75>    C       -9.17162        20.25317        -0.39819
| 76>    C       -9.14074        19.91033        -1.77301
| 77>    C       -9.24093        18.44023        -1.90626
| 78>    O       -9.21414        17.78755        -2.92723
| 79>    C       -9.04770        20.85321        -2.76621
| 80>    C       -8.99448        22.19937        -2.38598
| 81>    C       -9.04135        22.53105        -1.01225
| 82>    C       -9.12636        21.57584        -0.00538
| 83>    S       -8.97560        24.25017        -0.76659
| 84>    C       -8.88100        24.49595        -2.49029
| 85>    C       -8.90051        23.35204        -3.21390
| 86>   Br       -8.76987        26.24065        -3.17101
| 87>    H      -13.39965         6.37936         0.15739
| 88>    H      -13.51043         4.89602         4.94386
| 89>    H      -15.80599         7.67223         0.76648
| 90>    H       -8.80840         2.72620         2.49438
| 91>    H       -9.39124         3.92866        -0.14066
| 92>    H       -5.57900         1.79479        -2.30241
| 93>    H       -7.32677         3.34893        -3.26993
| 94>    H       -8.46698         5.34766        -1.24958
| 95>    H       -8.17175         5.87124        -6.52711
| 96>    H       -9.62506         8.81583        -3.04618
| 97>    H      -10.13874         6.66385        -1.06246
| 98>    H      -11.13036         7.65425         1.16921
| 99>    H      -11.61417         9.92041         2.28872
|100>    H      -11.84020        12.20774         2.83995
|101>    H      -11.64390        14.77540         2.95476
|102>    H      -10.73263        16.76318         1.61788
|103>    H       -9.75665        15.98759        -1.19511
|104>    H       -9.01590        20.56401        -3.80493
|105>    H       -9.16280        21.87737         1.02832
|106>    H       -8.85130        23.31954        -4.28699
|107> *
|108>
|109>                          ****END OF INPUT****

CARTESIAN COORDINATES (ANGSTROEM)
---------------------------------
  C    -11.240750    4.035780    3.312040
  C    -10.888410    3.457960    4.502980
  C    -11.644660    3.562200    5.688870
  N    -12.220020    3.616940    6.680200
  C     -9.719430    2.691730    4.690590
  N     -8.776130    2.065900    4.879610
  C    -12.432940    4.844800    3.071220
  C    -12.430410    5.278470    1.718940
  C    -13.426910    6.064340    1.189040
  C    -14.477050    6.440660    2.032130
  C    -14.474600    6.000170    3.378020
  C    -13.466110    5.206080    3.913370
  S    -15.868010    6.572700    4.239630
  C    -16.428490    7.387550    2.803030
  C    -15.613230    7.238810    1.730710
  Br   -18.033710    8.355640    2.853920
  C    -11.231370    4.755420    1.060380
  O    -10.876380    4.942360   -0.104890
  C    -10.511890    3.975450    2.063670
  C     -9.345420    3.314470    1.762150
  N     -8.827540    3.381510    0.530200
  C     -7.730630    2.722820    0.074170
  S     -6.906980    1.559280    1.069280
  C     -5.863290    1.190260   -0.262750
  N     -4.864740    0.220040   -0.064820
  O     -4.139880   -0.038190   -1.004010
  O     -4.810900   -0.286650    1.039290
  C     -6.138740    1.908820   -1.391620
  C     -7.202250    2.821150   -1.218260
  C     -7.613210    3.692720   -2.285500
  C     -8.233180    4.890260   -2.196300
  C     -8.517410    5.675930   -3.353840
  O     -8.159530    5.184960   -4.578220
  C     -8.401980    6.092850   -5.503270
  C     -8.930530    7.226270   -4.931480
  N     -9.302080    8.407400   -5.600440
  O     -9.246030    8.414610   -6.810610
  O     -9.656160    9.352580   -4.907710
  C     -9.029050    6.967090   -3.519580
  N     -9.520200    7.879830   -2.642020
  C     -9.993940    7.682080   -1.392180
  C    -10.354670    8.712560   -0.572010
  C    -10.926490    8.609960    0.721610
  C    -11.182110    9.808410    1.310970
  C    -10.809990   10.927700    0.529020
  S    -10.145990   10.412680   -1.000400
  C    -10.894460   12.264470    0.874120
  C    -11.413310   12.817760    2.064450
  C    -11.316600   14.176070    2.124320
  C    -10.715520   14.763520    0.987490
  S    -10.287010   13.530930   -0.171860
  C    -10.442460   16.105240    0.811280
  C     -9.846030   16.635750   -0.328030
  C     -9.432960   17.934790   -0.529030
  C     -9.224800   19.020750    0.388330
  C     -8.910560   18.928190    1.725550
  C     -8.684020   20.040760    2.558110
  N     -8.512810   20.909380    3.290190
  C     -8.661710   17.718110    2.401820
  N     -8.397640   16.768450    2.991910
  C     -9.171620   20.253170   -0.398190
  C     -9.140740   19.910330   -1.773010
  C     -9.240930   18.440230   -1.906260
  O     -9.214140   17.787550   -2.927230
  C     -9.047700   20.853210   -2.766210
  C     -8.994480   22.199370   -2.385980
  C     -9.041350   22.531050   -1.012250
  C     -9.126360   21.575840   -0.005380
  S     -8.975600   24.250170   -0.766590
  C     -8.881000   24.495950   -2.490290
  C     -8.900510   23.352040   -3.213900
  Br    -8.769870   26.240650   -3.171010
  H    -13.399650    6.379360    0.157390
  H    -13.510430    4.896020    4.943860
  H    -15.805990    7.672230    0.766480
  H     -8.808400    2.726200    2.494380
  H     -9.391240    3.928660   -0.140660
  H     -5.579000    1.794790   -2.302410
  H     -7.326770    3.348930   -3.269930
  H     -8.466980    5.347660   -1.249580
  H     -8.171750    5.871240   -6.527110
  H     -9.625060    8.815830   -3.046180
  H    -10.138740    6.663850   -1.062460
  H    -11.130360    7.654250    1.169210
  H    -11.614170    9.920410    2.288720
  H    -11.840200   12.207740    2.839950
  H    -11.643900   14.775400    2.954760
  H    -10.732630   16.763180    1.617880
  H     -9.756650   15.987590   -1.195110
  H     -9.015900   20.564010   -3.804930
  H     -9.162800   21.877370    1.028320
  H     -8.851300   23.319540   -4.286990

 Total Charge           Charge          ....    0
 Multiplicity           Mult            ....    1
 Number of Electrons    NEL             ....  582
 Basis Dimension        Dim             .... 1164

ORBITAL ENERGIES
----------------

  NO   OCC          E(Eh)            E(eV)
   0   2.0000    -482.901435    -13140.4161
   1   2.0000    -482.874725    -13139.6893
   2   2.0000     -89.006831     -2421.9990
   3   2.0000     -88.996095     -2421.7069
   4   2.0000     -88.968806     -2420.9643
   5   2.0000     -88.962198     -2420.7845
   6   2.0000     -88.956723     -2420.6355
   7   2.0000     -62.579143     -1702.8650
   8   2.0000     -62.552475     -1702.1394
   9   2.0000     -56.413120     -1535.0790
  10   2.0000     -56.410356     -1535.0038
  11   2.0000     -56.410328     -1535.0031
  12   2.0000     -56.386408     -1534.3522
  13   2.0000     -56.383722     -1534.2791
  14   2.0000     -56.383681     -1534.2780
  15   2.0000     -19.345700      -526.4233
  16   2.0000     -19.274230      -524.4784
  17   2.0000     -19.272500      -524.4314
  18   2.0000     -19.259871      -524.0877
  19   2.0000     -19.253600      -523.9171
  20   2.0000     -19.252905      -523.8982
  21   2.0000     -19.193014      -522.2685
  22   2.0000     -14.683841      -399.5676
  23   2.0000     -14.665326      -399.0638
  24   2.0000     -14.518330      -395.0638
  25   2.0000     -14.492354      -394.3570
  26   2.0000     -14.437942      -392.8764
  27   2.0000     -14.433306      -392.7502
  28   2.0000     -14.396736      -391.7551
  29   2.0000     -14.394111      -391.6837
  30   2.0000     -10.405389      -283.1450
  31   2.0000     -10.391860      -282.7769
  32   2.0000     -10.391359      -282.7633
  33   2.0000     -10.389752      -282.7195
  34   2.0000     -10.377953      -282.3984
  35   2.0000     -10.372446      -282.2486
  36   2.0000     -10.371399      -282.2201
  37   2.0000     -10.366344      -282.0826
  38   2.0000     -10.363650      -282.0093
  39   2.0000     -10.363339      -282.0008
  40   2.0000     -10.358182      -281.8605
  41   2.0000     -10.353188      -281.7246
  42   2.0000     -10.348044      -281.5846
  43   2.0000     -10.345551      -281.5168
  44   2.0000     -10.344007      -281.4748
  45   2.0000     -10.339699      -281.3575
  46   2.0000     -10.338446      -281.3234
  47   2.0000     -10.335731      -281.2495
  48   2.0000     -10.332848      -281.1711
  49   2.0000     -10.329940      -281.0920
  50   2.0000     -10.328613      -281.0558
  51   2.0000     -10.328314      -281.0477
  52   2.0000     -10.327514      -281.0259
  53   2.0000     -10.326800      -281.0065
  54   2.0000     -10.323760      -280.9238
  55   2.0000     -10.323717      -280.9226
  56   2.0000     -10.323636      -280.9204
  57   2.0000     -10.321603      -280.8651
  58   2.0000     -10.320931      -280.8468
  59   2.0000     -10.320682      -280.8400
  60   2.0000     -10.320045      -280.8227
  61   2.0000     -10.317396      -280.7506
  62   2.0000     -10.316393      -280.7233
  63   2.0000     -10.315891      -280.7097
  64   2.0000     -10.312024      -280.6045
  65   2.0000     -10.310430      -280.5611
  66   2.0000     -10.302480      -280.3447
  67   2.0000     -10.301953      -280.3304
  68   2.0000     -10.300768      -280.2982
  69   2.0000     -10.297928      -280.2209
  70   2.0000     -10.294671      -280.1322
  71   2.0000     -10.291987      -280.0592
  72   2.0000     -10.291297      -280.0404
  73   2.0000     -10.288899      -279.9752
  74   2.0000     -10.287576      -279.9392
  75   2.0000     -10.285068      -279.8709
  76   2.0000     -10.284159      -279.8462
  77   2.0000     -10.274941      -279.5954
  78   2.0000     -10.274924      -279.5949
  79   2.0000     -10.270168      -279.4655
  80   2.0000      -8.808578      -239.6936
  81   2.0000      -8.781921      -238.9682
  82   2.0000      -8.102036      -220.4676
  83   2.0000      -8.092034      -220.1954
  84   2.0000      -8.064975      -219.4591
  85   2.0000      -8.058207      -219.2750
  86   2.0000      -8.053119      -219.1365
  87   2.0000      -6.645007      -180.8198
  88   2.0000      -6.630257      -180.4185
  89   2.0000      -6.630019      -180.4120
  90   2.0000      -6.618171      -180.0896
  91   2.0000      -6.603655      -179.6946
  92   2.0000      -6.603523      -179.6910
  93   2.0000      -6.071676      -165.2187
  94   2.0000      -6.067252      -165.0983
  95   2.0000      -6.063563      -164.9979
  96   2.0000      -6.061692      -164.9470
  97   2.0000      -6.057398      -164.8302
  98   2.0000      -6.053318      -164.7191
  99   2.0000      -6.034736      -164.2135
 100   2.0000      -6.030700      -164.1037
 101   2.0000      -6.027904      -164.0276
 102   2.0000      -6.025854      -163.9718
 103   2.0000      -6.023638      -163.9115
 104   2.0000      -6.022721      -163.8866
 105   2.0000      -6.019422      -163.7968
 106   2.0000      -6.018742      -163.7783
 107   2.0000      -6.014187      -163.6544
 108   2.0000      -2.760827       -75.1259
 109   2.0000      -2.756730       -75.0144
 110   2.0000      -2.756552       -75.0096
 111   2.0000      -2.744835       -74.6908
 112   2.0000      -2.744813       -74.6901
 113   2.0000      -2.734018       -74.3964
 114   2.0000      -2.729993       -74.2869
 115   2.0000      -2.729868       -74.2835
 116   2.0000      -2.718346       -73.9699
 117   2.0000      -2.718322       -73.9693
 118   2.0000      -1.352751       -36.8102
 119   2.0000      -1.336081       -36.3566
 120   2.0000      -1.266927       -34.4748
 121   2.0000      -1.173083       -31.9212
 122   2.0000      -1.172852       -31.9149
 123   2.0000      -1.155645       -31.4467
 124   2.0000      -1.124885       -30.6097
 125   2.0000      -1.107642       -30.1405
 126   2.0000      -1.097507       -29.8647
 127   2.0000      -1.045903       -28.4605
 128   2.0000      -1.034290       -28.1445
 129   2.0000      -1.027833       -27.9688
 130   2.0000      -1.015110       -27.6225
 131   2.0000      -1.012011       -27.5382
 132   2.0000      -1.011929       -27.5360
 133   2.0000      -1.006544       -27.3895
 134   2.0000      -0.995433       -27.0871
 135   2.0000      -0.988655       -26.9027
 136   2.0000      -0.974742       -26.5241
 137   2.0000      -0.973750       -26.4971
 138   2.0000      -0.971054       -26.4237
 139   2.0000      -0.963942       -26.2302
 140   2.0000      -0.952703       -25.9244
 141   2.0000      -0.931309       -25.3422
 142   2.0000      -0.927992       -25.2520
 143   2.0000      -0.927153       -25.2291
 144   2.0000      -0.912402       -24.8277
 145   2.0000      -0.908720       -24.7275
 146   2.0000      -0.906288       -24.6614
 147   2.0000      -0.896202       -24.3869
 148   2.0000      -0.892112       -24.2756
 149   2.0000      -0.886050       -24.1107
 150   2.0000      -0.871739       -23.7212
 151   2.0000      -0.870287       -23.6817
 152   2.0000      -0.869427       -23.6583
 153   2.0000      -0.861945       -23.4547
 154   2.0000      -0.855392       -23.2764
 155   2.0000      -0.851959       -23.1830
 156   2.0000      -0.837436       -22.7878
 157   2.0000      -0.837123       -22.7793
 158   2.0000      -0.831196       -22.6180
 159   2.0000      -0.814035       -22.1510
 160   2.0000      -0.813118       -22.1261
 161   2.0000      -0.798901       -21.7392
 162   2.0000      -0.786764       -21.4089
 163   2.0000      -0.779904       -21.2223
 164   2.0000      -0.766392       -20.8546
 165   2.0000      -0.755031       -20.5454
 166   2.0000      -0.750864       -20.4321
 167   2.0000      -0.744571       -20.2608
 168   2.0000      -0.738057       -20.0835
 169   2.0000      -0.730925       -19.8895
 170   2.0000      -0.721348       -19.6289
 171   2.0000      -0.713640       -19.4191
 172   2.0000      -0.704311       -19.1653
 173   2.0000      -0.697937       -18.9918
 174   2.0000      -0.690387       -18.7864
 175   2.0000      -0.684568       -18.6280
 176   2.0000      -0.679869       -18.5002
 177   2.0000      -0.675301       -18.3759
 178   2.0000      -0.670959       -18.2577
 179   2.0000      -0.668527       -18.1916
 180   2.0000      -0.664160       -18.0727
 181   2.0000      -0.658606       -17.9216
 182   2.0000      -0.656963       -17.8769
 183   2.0000      -0.653155       -17.7733
 184   2.0000      -0.650899       -17.7119
 185   2.0000      -0.646758       -17.5992
 186   2.0000      -0.642127       -17.4732
 187   2.0000      -0.641169       -17.4471
 188   2.0000      -0.637086       -17.3360
 189   2.0000      -0.630648       -17.1608
 190   2.0000      -0.626187       -17.0394
 191   2.0000      -0.623503       -16.9664
 192   2.0000      -0.619829       -16.8664
 193   2.0000      -0.616913       -16.7870
 194   2.0000      -0.613544       -16.6954
 195   2.0000      -0.606295       -16.4981
 196   2.0000      -0.604498       -16.4492
 197   2.0000      -0.602353       -16.3909
 198   2.0000      -0.597452       -16.2575
 199   2.0000      -0.591654       -16.0997
 200   2.0000      -0.584883       -15.9155
 201   2.0000      -0.582351       -15.8466
 202   2.0000      -0.579888       -15.7796
 203   2.0000      -0.579102       -15.7582
 204   2.0000      -0.577818       -15.7232
 205   2.0000      -0.573997       -15.6193
 206   2.0000      -0.569943       -15.5089
 207   2.0000      -0.564845       -15.3702
 208   2.0000      -0.559655       -15.2290
 209   2.0000      -0.554997       -15.1022
 210   2.0000      -0.550673       -14.9846
 211   2.0000      -0.546236       -14.8638
 212   2.0000      -0.541358       -14.7311
 213   2.0000      -0.537021       -14.6131
 214   2.0000      -0.534088       -14.5333
 215   2.0000      -0.533375       -14.5139
 216   2.0000      -0.530208       -14.4277
 217   2.0000      -0.529392       -14.4055
 218   2.0000      -0.526544       -14.3280
 219   2.0000      -0.522433       -14.2161
 220   2.0000      -0.520688       -14.1687
 221   2.0000      -0.519243       -14.1293
 222   2.0000      -0.516930       -14.0664
 223   2.0000      -0.513896       -13.9838
 224   2.0000      -0.508198       -13.8288
 225   2.0000      -0.505631       -13.7589
 226   2.0000      -0.501978       -13.6595
 227   2.0000      -0.498686       -13.5699
 228   2.0000      -0.497223       -13.5301
 229   2.0000      -0.494763       -13.4632
 230   2.0000      -0.492355       -13.3976
 231   2.0000      -0.488669       -13.2974
 232   2.0000      -0.484901       -13.1948
 233   2.0000      -0.481611       -13.1053
 234   2.0000      -0.480139       -13.0652
 235   2.0000      -0.479276       -13.0418
 236   2.0000      -0.477337       -12.9890
 237   2.0000      -0.472140       -12.8476
 238   2.0000      -0.471366       -12.8265
 239   2.0000      -0.469104       -12.7650
 240   2.0000      -0.468337       -12.7441
 241   2.0000      -0.463785       -12.6202
 242   2.0000      -0.462473       -12.5845
 243   2.0000      -0.460007       -12.5174
 244   2.0000      -0.454808       -12.3760
 245   2.0000      -0.450161       -12.2495
 246   2.0000      -0.447455       -12.1759
 247   2.0000      -0.447006       -12.1637
 248   2.0000      -0.444542       -12.0966
 249   2.0000      -0.439481       -11.9589
 250   2.0000      -0.437133       -11.8950
 251   2.0000      -0.432909       -11.7800
 252   2.0000      -0.431291       -11.7360
 253   2.0000      -0.431100       -11.7308
 254   2.0000      -0.430036       -11.7019
 255   2.0000      -0.426345       -11.6014
 256   2.0000      -0.425484       -11.5780
 257   2.0000      -0.420680       -11.4473
 258   2.0000      -0.417909       -11.3719
 259   2.0000      -0.413382       -11.2487
 260   2.0000      -0.411719       -11.2035
 261   2.0000      -0.410284       -11.1644
 262   2.0000      -0.407252       -11.0819
 263   2.0000      -0.404391       -11.0040
 264   2.0000      -0.403364       -10.9761
 265   2.0000      -0.400202       -10.8901
 266   2.0000      -0.400005       -10.8847
 267   2.0000      -0.393358       -10.7038
 268   2.0000      -0.392155       -10.6711
 269   2.0000      -0.391613       -10.6563
 270   2.0000      -0.390804       -10.6343
 271   2.0000      -0.384669       -10.4674
 272   2.0000      -0.382725       -10.4145
 273   2.0000      -0.380502       -10.3540
 274   2.0000      -0.375595       -10.2205
 275   2.0000      -0.371713       -10.1148
 276   2.0000      -0.364464        -9.9176
 277   2.0000      -0.360083        -9.7984
 278   2.0000      -0.358567        -9.7571
 279   2.0000      -0.353460        -9.6181
 280   2.0000      -0.341474        -9.2920
 281   2.0000      -0.340269        -9.2592
 282   2.0000      -0.333445        -9.0735
 283   2.0000      -0.321836        -8.7576
 284   2.0000      -0.316111        -8.6018
 285   2.0000      -0.313039        -8.5182
 286   2.0000      -0.300376        -8.1736
 287   2.0000      -0.297048        -8.0831
 288   2.0000      -0.280144        -7.6231
 289   2.0000      -0.276271        -7.5177
 290   2.0000      -0.223355        -6.0778
 291   0.0000      -0.108752        -2.9593
 292   0.0000      -0.099842        -2.7168
 293   0.0000      -0.094088        -2.5603
 294   0.0000      -0.072446        -1.9713
 295   0.0000      -0.059474        -1.6184

MULLIKEN ATOMIC CHARGES
-----------------------
   0 C :    0.329573
   1 C :   -0.339789
   2 C :   -0.181339
   3 N :    0.158688
   4 C :   -0.193092
   5 N :    0.151949
   6 C :    0.006780
   7 C :   -0.009273
   8 C :   -0.079101
   9 C :    0.112827
  10 C :   -0.092776
  11 C :   -0.015569
  12 S :    0.201874
  13 C :   -0.125663
  14 C :    0.041583
  15 Br:    0.039262
  16 C :    0.179186
  17 O :   -0.245321
  18 C :   -0.116645
  19 C :    0.027689
  20 N :   -0.005765
  21 C :   -0.126607
  22 S :    0.181378
  23 C :    0.011797
  24 N :    0.276495
  25 O :   -0.241040
  26 O :   -0.249429
  27 C :    0.007004
  28 C :    0.136960
  29 C :   -0.038733
  30 C :   -0.024611
  31 C :   -0.005319
  32 O :   -0.167136
  33 C :    0.093703
  34 C :    0.112663
  35 N :    0.288467
  36 O :   -0.223932
  37 O :   -0.261821
  38 C :    0.073553
  39 N :   -0.006420
  40 C :    0.044310
  41 C :   -0.063087
  42 C :    0.061939
  43 C :    0.018142
  44 C :   -0.033124
  45 S :    0.088254
  46 C :   -0.066419
  47 C :    0.040582
  48 C :    0.035623
  49 C :   -0.010967
  50 S :    0.105937
  51 C :   -0.010150
  52 C :    0.020370
  53 C :   -0.131786
  54 C :    0.286433
  55 C :   -0.351150
  56 C :   -0.178260
  57 N :    0.133493
  58 C :   -0.219092
  59 N :    0.152623
  60 C :    0.004120
  61 C :   -0.005080
  62 C :    0.134760
  63 O :   -0.156231
  64 C :   -0.074089
  65 C :    0.110990
  66 C :   -0.088931
  67 C :   -0.024695
  68 S :    0.176900
  69 C :   -0.124408
  70 C :    0.036272
  71 Br:    0.012167
  72 H :   -0.008042
  73 H :   -0.001986
  74 H :    0.001969
  75 H :    0.051006
  76 H :    0.174296
  77 H :    0.015499
  78 H :    0.010693
  79 H :   -0.005969
  80 H :    0.039391
  81 H :    0.154167
  82 H :    0.014427
  83 H :   -0.026020
  84 H :   -0.010510
  85 H :   -0.008737
  86 H :   -0.001196
  87 H :    0.007608
  88 H :    0.013505
  89 H :   -0.014407
  90 H :   -0.006833
  91 H :   -0.006355
Sum of atomic charges:   -0.0000000

LOEWDIN ATOMIC CHARGES
----------------------
   0 C :    0.076723
   1 C :   -0.140122
   2 C :   -0.020267
   3 N :   -0.044363
   4 C :   -0.020947
   5 N :   -0.044676
   6 C :   -0.017894
   7 C :   -0.061114
   8 C :    0.023644
   9 C :   -0.033972
  10 C :   -0.142626
  11 C :   -0.004668
  12 S :    0.445518
  13 C :   -0.268785
  14 C :   -0.069244
  15 Br:    0.148043
  16 C :    0.099714
  17 O :   -0.190585
  18 C :   -0.144566
  19 C :    0.113729
  20 N :    0.081722
  21 C :   -0.115494
  22 S :    0.479284
  23 C :   -0.198592
  24 N :    0.272910
  25 O :   -0.206158
  26 O :   -0.216384
  27 C :    0.002599
  28 C :   -0.083942
  29 C :   -0.024922
  30 C :   -0.041597
  31 C :   -0.005279
  32 O :    0.048542
  33 C :    0.098798
  34 C :   -0.097985
  35 N :    0.294543
  36 O :   -0.186488
  37 O :   -0.210460
  38 C :   -0.000173
  39 N :    0.054413
  40 C :    0.024283
  41 C :   -0.201407
  42 C :   -0.013113
  43 C :   -0.052492
  44 C :   -0.143562
  45 S :    0.377299
  46 C :   -0.203387
  47 C :   -0.008002
  48 C :   -0.040962
  49 C :   -0.099162
  50 S :    0.399022
  51 C :   -0.075451
  52 C :    0.051644
  53 C :   -0.112162
  54 C :    0.068454
  55 C :   -0.157498
  56 C :   -0.020398
  57 N :   -0.068664
  58 C :   -0.023603
  59 N :   -0.065940
  60 C :   -0.015468
  61 C :   -0.050582
  62 C :    0.077240
  63 O :   -0.158085
  64 C :    0.017402
  65 C :   -0.037690
  66 C :   -0.145657
  67 C :   -0.017140
  68 S :    0.425504
  69 C :   -0.276269
  70 C :   -0.070809
  71 Br:    0.127906
  72 H :    0.041549
  73 H :    0.043550
  74 H :    0.041058
  75 H :    0.037300
  76 H :    0.085400
  77 H :    0.048647
  78 H :    0.036498
  79 H :    0.030336
  80 H :    0.043443
  81 H :    0.075699
  82 H :    0.029070
  83 H :    0.032454
  84 H :    0.033737
  85 H :    0.034050
  86 H :    0.038959
  87 H :    0.037318
  88 H :    0.034754
  89 H :    0.039051
  90 H :    0.039629
  91 H :    0.037371

  Mayer bond orders larger than 0.100000
B(  0-C ,  1-C ) :   1.6420 B(  0-C ,  6-C ) :   1.0033 B(  0-C , 18-C ) :   1.0918
B(  1-C ,  2-C ) :   1.1401 B(  1-C ,  4-C ) :   1.1448 B(  2-C ,  3-N ) :   2.9694
B(  4-C ,  5-N ) :   2.9537 B(  6-C ,  7-C ) :   1.2697 B(  6-C , 11-C ) :   1.4273
B(  7-C ,  8-C ) :   1.4029 B(  7-C , 16-C ) :   0.9849 B(  8-C ,  9-C ) :   1.2464
B(  8-C , 72-H ) :   1.0179 B(  9-C , 10-C ) :   1.3053 B(  9-C , 14-C ) :   1.1667
B( 10-C , 11-C ) :   1.3160 B( 10-C , 12-S ) :   1.0967 B( 11-C , 73-H ) :   0.9791
B( 12-S , 13-C ) :   1.0894 B( 13-C , 14-C ) :   1.6132 B( 13-C , 15-Br) :   1.0273
B( 14-C , 74-H ) :   1.0004 B( 16-C , 17-O ) :   1.9227 B( 16-C , 18-C ) :   1.0273
B( 17-O , 76-H ) :   0.1318 B( 18-C , 19-C ) :   1.4394 B( 19-C , 20-N ) :   1.3451
B( 19-C , 75-H ) :   0.9288 B( 20-N , 21-C ) :   1.1768 B( 20-N , 76-H ) :   0.8308
B( 21-C , 22-S ) :   1.1405 B( 21-C , 28-C ) :   1.3924 B( 22-S , 23-C ) :   1.0884
B( 23-C , 24-N ) :   0.9566 B( 23-C , 27-C ) :   1.5074 B( 24-N , 25-O ) :   1.5433
B( 24-N , 26-O ) :   1.5209 B( 25-O , 26-O ) :   0.2666 B( 27-C , 28-C ) :   1.2065
B( 27-C , 77-H ) :   1.0076 B( 28-C , 29-C ) :   1.0591 B( 29-C , 30-C ) :   1.6816
B( 29-C , 78-H ) :   0.9690 B( 30-C , 31-C ) :   1.1921 B( 30-C , 79-H ) :   0.9432
B( 31-C , 32-O ) :   1.0929 B( 31-C , 38-C ) :   1.3644 B( 32-O , 33-C ) :   1.2211
B( 33-C , 34-C ) :   1.4378 B( 33-C , 80-H ) :   1.0135 B( 34-C , 35-N ) :   0.9470
B( 34-C , 38-C ) :   1.2365 B( 35-N , 36-O ) :   1.5616 B( 35-N , 37-O ) :   1.4658
B( 36-O , 37-O ) :   0.2622 B( 37-O , 81-H ) :   0.1058 B( 38-C , 39-N ) :   1.2245
B( 39-N , 40-C ) :   1.1914 B( 39-N , 81-H ) :   0.8529 B( 40-C , 41-C ) :   1.5727
B( 40-C , 82-H ) :   0.9350 B( 41-C , 42-C ) :   1.1599 B( 41-C , 45-S ) :   1.0069
B( 42-C , 43-C ) :   1.5948 B( 42-C , 83-H ) :   0.9927 B( 43-C , 44-C ) :   1.1933
B( 43-C , 84-H ) :   0.9939 B( 44-C , 45-S ) :   1.0831 B( 44-C , 46-C ) :   1.4765
B( 46-C , 47-C ) :   1.2182 B( 46-C , 50-S ) :   1.0361 B( 47-C , 48-C ) :   1.5458
B( 47-C , 85-H ) :   0.9932 B( 48-C , 49-C ) :   1.1856 B( 48-C , 86-H ) :   0.9994
B( 49-C , 50-S ) :   1.0889 B( 49-C , 51-C ) :   1.4925 B( 51-C , 52-C ) :   1.2313
B( 51-C , 87-H ) :   0.9603 B( 52-C , 53-C ) :   1.5166 B( 52-C , 88-H ) :   0.9425
B( 53-C , 54-C ) :   1.0984 B( 53-C , 62-C ) :   0.9667 B( 54-C , 55-C ) :   1.5896
B( 54-C , 60-C ) :   1.0024 B( 55-C , 56-C ) :   1.1348 B( 55-C , 58-C ) :   1.1667
B( 56-C , 57-N ) :   2.9754 B( 58-C , 59-N ) :   3.0129 B( 60-C , 61-C ) :   1.2793
B( 60-C , 67-C ) :   1.4258 B( 61-C , 62-C ) :   0.9172 B( 61-C , 64-C ) :   1.4318
B( 62-C , 63-O ) :   2.2506 B( 64-C , 65-C ) :   1.2455 B( 64-C , 89-H ) :   1.0165
B( 65-C , 66-C ) :   1.3204 B( 65-C , 70-C ) :   1.1590 B( 66-C , 67-C ) :   1.3146
B( 66-C , 68-S ) :   1.0808 B( 67-C , 90-H ) :   0.9823 B( 68-S , 69-C ) :   1.0851
B( 69-C , 70-C ) :   1.6216 B( 69-C , 71-Br) :   1.0117 B( 70-C , 91-H ) :   1.0005

-----------------------------------------------------------------------------
         ABSORPTION SPECTRUM VIA TRANSITION ELECTRIC DIPOLE MOMENTS
-----------------------------------------------------------------------------
State   Energy  Wavelength   fosc         T2         TX        TY        TZ
        (cm-1)    (nm)                  (au**2)     (au)      (au)      (au)
-----------------------------------------------------------------------------
   0   12361.3    809.0   1.371351308  36.52233  -0.36861  -6.01277  -0.48269
   1   13830.8    723.0   0.219747137   5.23059   0.08464  -2.11122  -0.87531
   2   15227.1    656.7   0.012374140   0.26753   0.09243  -0.46608  -0.20433
   3   18340.3    545.2   0.076042871   1.36499   0.20864   0.89993  -0.71525
   4   21451.0    466.2   0.257139275   3.94636  -1.12810   0.16881   1.62642
   5   22088.8    452.7   0.226004093   3.36837  -1.28475   1.07612   0.74817
   6   23965.6    417.3   0.006010503   0.08257  -0.04302  -0.05192   0.27932
   7   24129.6    414.4   0.021058593   0.28731   0.51647  -0.13182   0.05652
   8   24796.1    403.3   0.258025490   3.42574  -1.45861   0.92955   0.65890
   9   25302.4    395.2   0.022810787   0.29679   0.40632  -0.23944  -0.27271
  10   26157.8    382.3   0.172202058   2.16727  -0.45245  -0.75097   1.18262
  11   27179.1    367.9   0.351692389   4.25994  -1.52352   0.40448   1.33237
  12   27941.7    357.9   0.047951660   0.56497  -0.29137   0.58092   0.37764
  13   28219.2    354.4   0.020559281   0.23985  -0.24344   0.33511  -0.26132
  14   28479.2    351.1   0.002381929   0.02753  -0.01721   0.09896   0.13208
  15   28600.9    349.6   0.025508809   0.29362   0.42138  -0.31406  -0.13198
  16   29317.7    341.1   0.523750717   5.88125  -2.02454   1.30233  -0.29398
  17   29481.1    339.2   0.018922361   0.21130   0.27241  -0.24060   0.28144
  18   29955.0    333.8   0.188366447   2.07019   1.22204  -0.63752  -0.41278
  19   30423.9    328.7   0.120783394   1.30698  -0.31176   0.73176  -0.82116
  20   31054.4    322.0   0.148471938   1.57397  -0.75814   0.89710  -0.44092
  21   31953.2    313.0   0.030333963   0.31253  -0.25631  -0.14050   0.47654
  22   32143.7    311.1   0.022923940   0.23478  -0.28730  -0.37543   0.10627
  23   32182.6    310.7   0.022304455   0.22816   0.31605  -0.25693   0.24952
  24   32559.8    307.1   0.280557525   2.83672  -0.23560  -0.91837   1.39205
  25   32714.9    305.7   0.084250559   0.84782   0.13710  -0.78008   0.46957
  26   32898.3    304.0   0.094492152   0.94558   0.80290  -0.54850   0.00872
  27   33125.7    301.9   0.517572780   5.14377  -0.32221   1.81807  -1.31702
  28   33329.3    300.0   0.020583861   0.20332  -0.20336  -0.06317   0.39746
  29   33899.9    295.0   0.302730432   2.93990  -1.00760   0.82678  -1.11404
  30   34185.7    292.5   0.009618146   0.09262  -0.13557   0.16240   0.21879
  31   34429.8    290.4   0.004427371   0.04233   0.04042  -0.04216  -0.19729
  32   34506.8    289.8   0.004373720   0.04173   0.15254  -0.03000   0.13251
  33   34741.9    287.8   0.249719929   2.36633   1.06693  -1.02892   0.41148
  34   35262.3    283.6   0.020141851   0.18805  -0.15009  -0.29064   0.28469
  35   35515.1    281.6   0.241603815   2.23958  -0.60816   1.27581  -0.49198
  36   35975.7    278.0   0.080424143   0.73596  -0.30235   0.46592  -0.65381
  37   36421.0    274.6   0.269838709   2.43909   0.70769  -0.91452   1.04972
  38   36755.7    272.1   0.272614984   2.44175   0.79332   0.08778  -1.34339
  39   36801.6    271.7   0.036522059   0.32671   0.01103   0.54374   0.17588
  40   37352.7    267.7   0.028936059   0.25503   0.08476  -0.20384  -0.45420
  41   37680.5    265.4   0.003908162   0.03415   0.16738   0.07830  -0.00019
  42   37791.0    264.6   0.054826205   0.47761  -0.11630   0.28489  -0.61881
  43   38253.1    261.4   0.071877692   0.61859   0.01927   0.25389  -0.74415
  44   38420.1    260.3   0.018488005   0.15842   0.08137   0.07610  -0.38211
  45   38608.9    259.0   0.011005495   0.09384   0.11281  -0.24839   0.13934
  46   38695.2    258.4   0.021554910   0.18339  -0.14119  -0.17819   0.36291
  47   38738.8    258.1   0.053283639   0.45282   0.12843   0.22888  -0.61963
  48   39173.3    255.3   0.028313937   0.23795  -0.07767  -0.46626   0.12048
  49   39390.9    253.9   0.066193193   0.55321   0.25681  -0.62963   0.30137
  50   39492.5    253.2   0.018281279   0.15239  -0.02665  -0.38943   0.00514
  51   39645.5    252.2   0.019283770   0.16013  -0.17596   0.11369   0.34094
  52   39822.0    251.1   0.013274638   0.10974  -0.15056   0.04186  -0.29210
  53   40163.9    249.0   0.022259261   0.18245   0.32643   0.00041   0.27549
  54   40197.5    248.8   0.094527089   0.77416  -0.03673  -0.31356   0.82128

FINAL SINGLE POINT ENERGY    -10016.344796269648

DIPOLE MOMENT
-------------
                                X             Y             Z
Electronic contribution:    -63.05130     132.49233       1.01489
Nuclear contribution   :     59.82933    -135.88413      -3.61521
                        -----------------------------------------
Total Dipole Moment    :     -3.22197      -3.39180      -2.60031
                        -----------------------------------------
Magnitude (a.u.)       :      5.35229
Magnitude (Debye)      :     13.60445

Rotational constants in cm-1:     0.000872     0.000217     0.000192
Rotational constants in MHz :    26.152683     6.497001     5.766086

                             ****ORCA TERMINATED NORMALLY****
TOTAL RUN TIME: 0 days 0 hours 11 minutes 2 seconds 984 msec
