                         Program Version 4.2.0 -  RELEASE  -
|  1> # ORCA input file
|  2> # SCF done       -189.339903127254          0.000722127267
|  3> ! CAM-B3LYP def2-SVP def2/J RIJCOSX Grid4 TightSCF
|  4> %maxcore 5000
|  5> %tddft
|  6>     Mode sTDDFT
|  7>     Ethresh 5.0
|  8>     maxcore 5000
|  9> end
| 10>
| 11> %pal
| 12>   nprocs 6
| 13>   end
| 14> * xyz 0 1
| 15>    C       -7.35253         1.80429         2.04118
| 16>    C       -6.86921         1.64374         3.30903
| 17>    C       -7.64600         1.81145         4.47746
| 18>    N       -8.23006         1.92482         5.45822
| 19>    C       -5.53573         1.31517         3.64252
| 20>    N       -4.47561         1.06438         4.00218
| 21>    C       -8.70096         2.21703         1.68746
| 22>    C       -8.76877         2.41483         0.28584
| 23>    C       -9.91815         2.82095        -0.35080
| 24>    C      -11.05578         3.03911         0.43104
| 25>    C      -10.98199         2.83015         1.83121
| 26>    C       -9.82120         2.42301         2.47457
| 27>    S      -12.50450         3.14473         2.60446
| 28>    C      -13.20988         3.54933         1.06156
| 29>    C      -12.35058         3.45457         0.01839
| 30>   Br      -15.01238         4.05309         0.97367
| 31>    C       -7.46613         2.11107        -0.33132
| 32>    O       -7.21485         2.14297        -1.51234
| 33>    C       -6.58451         1.67274         0.80245
| 34>    C       -5.36935         1.10360         0.68093
| 35>    C       -4.60525         1.03916        -0.55700
| 36>    N       -3.85302        -0.04630        -0.74726
| 37>    C       -3.20883        -0.13525        -1.89612
| 38>    C       -3.29040         0.84443        -2.87399
| 39>    C       -4.04065         1.98474        -2.55267
| 40>    N       -4.67320         2.06327        -1.38478
| 41>    C       -4.22231         3.08051        -3.47543
| 42>    C       -4.98872         4.14363        -3.14721
| 43>    C       -5.26688         5.22650        -4.02298
| 44>    C       -5.37741         6.56597        -3.71365
| 45>    N       -5.36709         7.15648        -2.43278
| 46>    O       -5.45757         8.36883        -2.37815
| 47>    O       -5.28225         6.42794        -1.45883
| 48>    C       -5.44389         7.34017        -4.93531
| 49>    C       -5.36175         6.49878        -5.99270
| 50>    C       -5.34714         5.14591        -5.50152
| 51>    C       -5.59450         4.01488        -6.23294
| 52>    C       -6.10529         2.73487        -5.75591
| 53>    C       -6.28577         1.91780        -6.81099
| 54>    C       -5.85947         2.62724        -8.00664
| 55>    N       -5.84911         2.07512        -9.30763
| 56>    O       -5.43118         2.77265       -10.21456
| 57>    O       -6.25819         0.93864        -9.43945
| 58>    C       -5.47685         3.89719        -7.68226
| 59>    C       -4.90319         4.86722        -8.62564
| 60>    N       -3.57796         4.86351        -8.74302
| 61>    C       -3.06229         5.66861        -9.65535
| 62>    C       -3.84329         6.50087       -10.43886
| 63>    C       -5.21932         6.48691       -10.18704
| 64>    N       -5.73540         5.65608        -9.27808
| 65>    C       -6.12949         7.38645       -10.86234
| 66>    C       -7.44121         7.42500       -10.55887
| 67>    C       -8.36300         8.33326       -11.15098
| 68>    C       -9.59906         8.63955       -10.68472
| 69>    C      -10.26556         8.27343        -9.44882
| 70>    C       -9.66416         8.04035        -8.24076
| 71>    C      -10.36567         7.68501        -7.06899
| 72>    N      -10.87876         7.36592        -6.09341
| 73>    C       -8.28995         8.23407        -7.98183
| 74>    N       -7.20307         8.44183        -7.67741
| 75>    C      -11.69826         8.41604        -9.67625
| 76>    C      -11.90100         9.07360       -10.91790
| 77>    C      -10.59666         9.31522       -11.56461
| 78>    O      -10.37235         9.88927       -12.60283
| 79>    C      -13.15227         9.39684       -11.38469
| 80>    C      -14.25390         9.04923       -10.59605
| 81>    C      -14.04156         8.38228        -9.36413
| 82>    C      -12.77693         8.06048        -8.88805
| 83>    S      -15.54032         8.04169        -8.55590
| 84>    C      -16.42054         8.79295        -9.86052
| 85>    C      -15.63354         9.27266       -10.85356
| 86>   Br      -18.29190         8.87060        -9.78927
| 87>    H       -9.93644         2.96689        -1.41943
| 88>    H       -9.81677         2.27385         3.54126
| 89>    H      -12.61736         3.66872        -1.00034
| 90>    H       -4.89681         0.61508         1.52199
| 91>    H       -2.60919        -1.02613        -2.03097
| 92>    H       -2.79471         0.74434        -3.82554
| 93>    H       -3.73500         3.00364        -4.43758
| 94>    H       -5.35236         4.20692        -2.12835
| 95>    H       -5.54479         8.40862        -4.95682
| 96>    H       -5.44335         6.77634        -7.02387
| 97>    H       -6.37045         2.53563        -4.73635
| 98>    H       -6.67665         0.91884        -6.82494
| 99>    H       -1.98439         5.64110        -9.74763
|100>    H       -3.41456         7.14304       -11.19015
|101>    H       -5.70047         8.06982       -11.58179
|102>    H       -7.80372         6.71965        -9.82355
|103>    H       -8.08349         8.79248       -12.09328
|104>    H      -13.27767         9.90439       -12.32816
|105>    H      -12.66237         7.54835        -7.94693
|106>    H      -16.00950         9.76422       -11.73211
|107> *
|108>
|109>                          ****END OF INPUT****

CARTESIAN COORDINATES (ANGSTROEM)
---------------------------------
  C     -7.352530    1.804290    2.041180
  C     -6.869210    1.643740    3.309030
  C     -7.646000    1.811450    4.477460
  N     -8.230060    1.924820    5.458220
  C     -5.535730    1.315170    3.642520
  N     -4.475610    1.064380    4.002180
  C     -8.700960    2.217030    1.687460
  C     -8.768770    2.414830    0.285840
  C     -9.918150    2.820950   -0.350800
  C    -11.055780    3.039110    0.431040
  C    -10.981990    2.830150    1.831210
  C     -9.821200    2.423010    2.474570
  S    -12.504500    3.144730    2.604460
  C    -13.209880    3.549330    1.061560
  C    -12.350580    3.454570    0.018390
  Br   -15.012380    4.053090    0.973670
  C     -7.466130    2.111070   -0.331320
  O     -7.214850    2.142970   -1.512340
  C     -6.584510    1.672740    0.802450
  C     -5.369350    1.103600    0.680930
  C     -4.605250    1.039160   -0.557000
  N     -3.853020   -0.046300   -0.747260
  C     -3.208830   -0.135250   -1.896120
  C     -3.290400    0.844430   -2.873990
  C     -4.040650    1.984740   -2.552670
  N     -4.673200    2.063270   -1.384780
  C     -4.222310    3.080510   -3.475430
  C     -4.988720    4.143630   -3.147210
  C     -5.266880    5.226500   -4.022980
  C     -5.377410    6.565970   -3.713650
  N     -5.367090    7.156480   -2.432780
  O     -5.457570    8.368830   -2.378150
  O     -5.282250    6.427940   -1.458830
  C     -5.443890    7.340170   -4.935310
  C     -5.361750    6.498780   -5.992700
  C     -5.347140    5.145910   -5.501520
  C     -5.594500    4.014880   -6.232940
  C     -6.105290    2.734870   -5.755910
  C     -6.285770    1.917800   -6.810990
  C     -5.859470    2.627240   -8.006640
  N     -5.849110    2.075120   -9.307630
  O     -5.431180    2.772650  -10.214560
  O     -6.258190    0.938640   -9.439450
  C     -5.476850    3.897190   -7.682260
  C     -4.903190    4.867220   -8.625640
  N     -3.577960    4.863510   -8.743020
  C     -3.062290    5.668610   -9.655350
  C     -3.843290    6.500870  -10.438860
  C     -5.219320    6.486910  -10.187040
  N     -5.735400    5.656080   -9.278080
  C     -6.129490    7.386450  -10.862340
  C     -7.441210    7.425000  -10.558870
  C     -8.363000    8.333260  -11.150980
  C     -9.599060    8.639550  -10.684720
  C    -10.265560    8.273430   -9.448820
  C     -9.664160    8.040350   -8.240760
  C    -10.365670    7.685010   -7.068990
  N    -10.878760    7.365920   -6.093410
  C     -8.289950    8.234070   -7.981830
  N     -7.203070    8.441830   -7.677410
  C    -11.698260    8.416040   -9.676250
  C    -11.901000    9.073600  -10.917900
  C    -10.596660    9.315220  -11.564610
  O    -10.372350    9.889270  -12.602830
  C    -13.152270    9.396840  -11.384690
  C    -14.253900    9.049230  -10.596050
  C    -14.041560    8.382280   -9.364130
  C    -12.776930    8.060480   -8.888050
  S    -15.540320    8.041690   -8.555900
  C    -16.420540    8.792950   -9.860520
  C    -15.633540    9.272660  -10.853560
  Br   -18.291900    8.870600   -9.789270
  H     -9.936440    2.966890   -1.419430
  H     -9.816770    2.273850    3.541260
  H    -12.617360    3.668720   -1.000340
  H     -4.896810    0.615080    1.521990
  H     -2.609190   -1.026130   -2.030970
  H     -2.794710    0.744340   -3.825540
  H     -3.735000    3.003640   -4.437580
  H     -5.352360    4.206920   -2.128350
  H     -5.544790    8.408620   -4.956820
  H     -5.443350    6.776340   -7.023870
  H     -6.370450    2.535630   -4.736350
  H     -6.676650    0.918840   -6.824940
  H     -1.984390    5.641100   -9.747630
  H     -3.414560    7.143040  -11.190150
  H     -5.700470    8.069820  -11.581790
  H     -7.803720    6.719650   -9.823550
  H     -8.083490    8.792480  -12.093280
  H    -13.277670    9.904390  -12.328160
  H    -12.662370    7.548350   -7.946930
  H    -16.009500    9.764220  -11.732110

 Total Charge           Charge          ....    0
 Multiplicity           Mult            ....    1
 Number of Electrons    NEL             ....  552
 Basis Dimension        Dim             .... 1152

ORBITAL ENERGIES
----------------

  NO   OCC          E(Eh)            E(eV)
   0   2.0000    -482.893089    -13140.1890
   1   2.0000    -482.887413    -13140.0345
   2   2.0000     -88.984641     -2421.3952
   3   2.0000     -88.977939     -2421.2128
   4   2.0000     -62.570809     -1702.6383
   5   2.0000     -62.565114     -1702.4833
   6   2.0000     -56.404770     -1534.8518
   7   2.0000     -56.402035     -1534.7774
   8   2.0000     -56.402006     -1534.7766
   9   2.0000     -56.399070     -1534.6967
  10   2.0000     -56.396344     -1534.6225
  11   2.0000     -56.396319     -1534.6218
  12   2.0000     -19.245537      -523.6977
  13   2.0000     -19.243501      -523.6423
  14   2.0000     -19.235289      -523.4188
  15   2.0000     -19.233956      -523.3825
  16   2.0000     -19.227231      -523.1995
  17   2.0000     -19.220653      -523.0205
  18   2.0000     -14.652157      -398.7055
  19   2.0000     -14.643530      -398.4707
  20   2.0000     -14.428884      -392.6299
  21   2.0000     -14.427829      -392.6012
  22   2.0000     -14.425008      -392.5244
  23   2.0000     -14.422164      -392.4470
  24   2.0000     -14.419663      -392.3790
  25   2.0000     -14.418489      -392.3470
  26   2.0000     -14.417929      -392.3318
  27   2.0000     -14.415783      -392.2734
  28   2.0000     -10.377727      -282.3923
  29   2.0000     -10.373168      -282.2683
  30   2.0000     -10.367780      -282.1216
  31   2.0000     -10.364206      -282.0244
  32   2.0000     -10.361419      -281.9485
  33   2.0000     -10.358335      -281.8646
  34   2.0000     -10.354989      -281.7736
  35   2.0000     -10.352671      -281.7105
  36   2.0000     -10.349266      -281.6178
  37   2.0000     -10.345363      -281.5116
  38   2.0000     -10.344204      -281.4801
  39   2.0000     -10.336094      -281.2594
  40   2.0000     -10.336050      -281.2582
  41   2.0000     -10.335457      -281.2421
  42   2.0000     -10.334268      -281.2097
  43   2.0000     -10.331042      -281.1219
  44   2.0000     -10.330903      -281.1182
  45   2.0000     -10.330340      -281.1028
  46   2.0000     -10.329195      -281.0717
  47   2.0000     -10.328999      -281.0664
  48   2.0000     -10.328198      -281.0446
  49   2.0000     -10.327868      -281.0356
  50   2.0000     -10.325583      -280.9734
  51   2.0000     -10.321710      -280.8680
  52   2.0000     -10.320451      -280.8338
  53   2.0000     -10.319746      -280.8146
  54   2.0000     -10.319195      -280.7996
  55   2.0000     -10.317724      -280.7595
  56   2.0000     -10.316712      -280.7320
  57   2.0000     -10.315166      -280.6899
  58   2.0000     -10.313672      -280.6493
  59   2.0000     -10.312172      -280.6085
  60   2.0000     -10.311596      -280.5928
  61   2.0000     -10.311181      -280.5815
  62   2.0000     -10.310905      -280.5740
  63   2.0000     -10.309263      -280.5293
  64   2.0000     -10.308906      -280.5196
  65   2.0000     -10.308168      -280.4995
  66   2.0000     -10.305195      -280.4186
  67   2.0000     -10.304104      -280.3889
  68   2.0000     -10.304032      -280.3870
  69   2.0000     -10.303966      -280.3852
  70   2.0000     -10.301214      -280.3103
  71   2.0000     -10.298566      -280.2382
  72   2.0000     -10.296941      -280.1940
  73   2.0000     -10.295829      -280.1637
  74   2.0000     -10.295454      -280.1535
  75   2.0000     -10.294499      -280.1276
  76   2.0000     -10.294483      -280.1271
  77   2.0000     -10.292984      -280.0863
  78   2.0000     -10.287770      -279.9445
  79   2.0000     -10.280130      -279.7366
  80   2.0000      -8.800248      -239.4669
  81   2.0000      -8.794537      -239.3115
  82   2.0000      -8.080714      -219.8874
  83   2.0000      -8.073924      -219.7027
  84   2.0000      -6.636587      -180.5907
  85   2.0000      -6.630870      -180.4351
  86   2.0000      -6.621975      -180.1931
  87   2.0000      -6.621751      -180.1870
  88   2.0000      -6.616275      -180.0380
  89   2.0000      -6.616028      -180.0313
  90   2.0000      -6.050410      -164.6400
  91   2.0000      -6.046109      -164.5230
  92   2.0000      -6.043615      -164.4551
  93   2.0000      -6.041915      -164.4089
  94   2.0000      -6.039334      -164.3386
  95   2.0000      -6.035151      -164.2248
  96   2.0000      -2.752437       -74.8976
  97   2.0000      -2.748357       -74.7866
  98   2.0000      -2.748190       -74.7820
  99   2.0000      -2.746721       -74.7421
 100   2.0000      -2.742624       -74.6306
 101   2.0000      -2.742513       -74.6276
 102   2.0000      -2.736578       -74.4661
 103   2.0000      -2.736545       -74.4652
 104   2.0000      -2.730875       -74.3109
 105   2.0000      -2.730859       -74.3105
 106   2.0000      -1.324329       -36.0368
 107   2.0000      -1.314447       -35.7679
 108   2.0000      -1.142785       -31.0968
 109   2.0000      -1.142705       -31.0946
 110   2.0000      -1.136941       -30.9377
 111   2.0000      -1.131933       -30.8015
 112   2.0000      -1.099695       -29.9242
 113   2.0000      -1.093241       -29.7486
 114   2.0000      -1.034400       -28.1475
 115   2.0000      -1.026124       -27.9223
 116   2.0000      -1.024640       -27.8819
 117   2.0000      -1.016639       -27.6642
 118   2.0000      -1.016408       -27.6579
 119   2.0000      -1.006903       -27.3992
 120   2.0000      -1.001463       -27.2512
 121   2.0000      -0.998244       -27.1636
 122   2.0000      -0.997203       -27.1353
 123   2.0000      -0.995828       -27.0978
 124   2.0000      -0.992769       -27.0146
 125   2.0000      -0.990123       -26.9426
 126   2.0000      -0.955114       -25.9900
 127   2.0000      -0.947018       -25.7697
 128   2.0000      -0.933049       -25.3896
 129   2.0000      -0.925732       -25.1904
 130   2.0000      -0.919338       -25.0165
 131   2.0000      -0.911773       -24.8106
 132   2.0000      -0.911569       -24.8050
 133   2.0000      -0.910581       -24.7782
 134   2.0000      -0.897723       -24.4283
 135   2.0000      -0.896417       -24.3928
 136   2.0000      -0.888996       -24.1908
 137   2.0000      -0.886915       -24.1342
 138   2.0000      -0.882929       -24.0257
 139   2.0000      -0.878733       -23.9115
 140   2.0000      -0.849942       -23.1281
 141   2.0000      -0.849548       -23.1174
 142   2.0000      -0.839498       -22.8439
 143   2.0000      -0.837824       -22.7983
 144   2.0000      -0.832038       -22.6409
 145   2.0000      -0.820442       -22.3254
 146   2.0000      -0.797357       -21.6972
 147   2.0000      -0.792178       -21.5563
 148   2.0000      -0.787098       -21.4180
 149   2.0000      -0.773700       -21.0535
 150   2.0000      -0.763715       -20.7817
 151   2.0000      -0.755148       -20.5486
 152   2.0000      -0.751197       -20.4411
 153   2.0000      -0.745610       -20.2891
 154   2.0000      -0.738229       -20.0882
 155   2.0000      -0.725380       -19.7386
 156   2.0000      -0.716090       -19.4858
 157   2.0000      -0.706508       -19.2250
 158   2.0000      -0.704729       -19.1767
 159   2.0000      -0.695561       -18.9272
 160   2.0000      -0.692693       -18.8491
 161   2.0000      -0.686032       -18.6679
 162   2.0000      -0.676511       -18.4088
 163   2.0000      -0.674974       -18.3670
 164   2.0000      -0.670453       -18.2439
 165   2.0000      -0.660494       -17.9730
 166   2.0000      -0.659335       -17.9414
 167   2.0000      -0.651933       -17.7400
 168   2.0000      -0.651449       -17.7268
 169   2.0000      -0.636081       -17.3086
 170   2.0000      -0.635219       -17.2852
 171   2.0000      -0.633979       -17.2515
 172   2.0000      -0.633701       -17.2439
 173   2.0000      -0.627101       -17.0643
 174   2.0000      -0.625245       -17.0138
 175   2.0000      -0.622148       -16.9295
 176   2.0000      -0.619152       -16.8480
 177   2.0000      -0.612792       -16.6749
 178   2.0000      -0.610457       -16.6114
 179   2.0000      -0.606324       -16.4989
 180   2.0000      -0.603551       -16.4235
 181   2.0000      -0.595704       -16.2099
 182   2.0000      -0.592017       -16.1096
 183   2.0000      -0.587582       -15.9889
 184   2.0000      -0.585039       -15.9197
 185   2.0000      -0.582400       -15.8479
 186   2.0000      -0.575153       -15.6507
 187   2.0000      -0.574509       -15.6332
 188   2.0000      -0.560216       -15.2443
 189   2.0000      -0.554806       -15.0970
 190   2.0000      -0.553723       -15.0676
 191   2.0000      -0.551081       -14.9957
 192   2.0000      -0.549884       -14.9631
 193   2.0000      -0.545600       -14.8465
 194   2.0000      -0.545459       -14.8427
 195   2.0000      -0.543459       -14.7883
 196   2.0000      -0.539806       -14.6889
 197   2.0000      -0.537797       -14.6342
 198   2.0000      -0.535804       -14.5800
 199   2.0000      -0.532707       -14.4957
 200   2.0000      -0.531015       -14.4496
 201   2.0000      -0.529113       -14.3979
 202   2.0000      -0.524234       -14.2651
 203   2.0000      -0.520150       -14.1540
 204   2.0000      -0.517867       -14.0919
 205   2.0000      -0.516873       -14.0648
 206   2.0000      -0.515116       -14.0170
 207   2.0000      -0.512099       -13.9349
 208   2.0000      -0.510324       -13.8866
 209   2.0000      -0.507771       -13.8171
 210   2.0000      -0.505992       -13.7687
 211   2.0000      -0.504636       -13.7319
 212   2.0000      -0.501180       -13.6378
 213   2.0000      -0.497323       -13.5328
 214   2.0000      -0.496905       -13.5215
 215   2.0000      -0.496165       -13.5013
 216   2.0000      -0.491534       -13.3753
 217   2.0000      -0.490333       -13.3426
 218   2.0000      -0.485365       -13.2075
 219   2.0000      -0.480247       -13.0682
 220   2.0000      -0.476131       -12.9562
 221   2.0000      -0.471508       -12.8304
 222   2.0000      -0.470738       -12.8094
 223   2.0000      -0.466807       -12.7025
 224   2.0000      -0.466216       -12.6864
 225   2.0000      -0.460676       -12.5356
 226   2.0000      -0.459390       -12.5006
 227   2.0000      -0.458591       -12.4789
 228   2.0000      -0.456194       -12.4137
 229   2.0000      -0.454209       -12.3596
 230   2.0000      -0.451292       -12.2803
 231   2.0000      -0.450604       -12.2616
 232   2.0000      -0.447634       -12.1808
 233   2.0000      -0.446078       -12.1384
 234   2.0000      -0.442543       -12.0422
 235   2.0000      -0.441694       -12.0191
 236   2.0000      -0.438179       -11.9234
 237   2.0000      -0.432364       -11.7652
 238   2.0000      -0.430214       -11.7067
 239   2.0000      -0.427114       -11.6224
 240   2.0000      -0.424191       -11.5428
 241   2.0000      -0.421398       -11.4668
 242   2.0000      -0.419211       -11.4073
 243   2.0000      -0.417662       -11.3652
 244   2.0000      -0.411678       -11.2023
 245   2.0000      -0.399130       -10.8609
 246   2.0000      -0.395824       -10.7709
 247   2.0000      -0.393939       -10.7196
 248   2.0000      -0.392673       -10.6852
 249   2.0000      -0.391327       -10.6485
 250   2.0000      -0.389591       -10.6013
 251   2.0000      -0.387412       -10.5420
 252   2.0000      -0.382638       -10.4121
 253   2.0000      -0.382387       -10.4053
 254   2.0000      -0.382000       -10.3947
 255   2.0000      -0.377338       -10.2679
 256   2.0000      -0.376654       -10.2493
 257   2.0000      -0.374558       -10.1923
 258   2.0000      -0.369382       -10.0514
 259   2.0000      -0.366773        -9.9804
 260   2.0000      -0.361498        -9.8369
 261   2.0000      -0.358051        -9.7431
 262   2.0000      -0.353806        -9.6276
 263   2.0000      -0.346528        -9.4295
 264   2.0000      -0.345840        -9.4108
 265   2.0000      -0.342411        -9.3175
 266   2.0000      -0.337777        -9.1914
 267   2.0000      -0.325662        -8.8617
 268   2.0000      -0.325205        -8.8493
 269   2.0000      -0.319211        -8.6862
 270   2.0000      -0.318262        -8.6604
 271   2.0000      -0.314806        -8.5663
 272   2.0000      -0.310133        -8.4391
 273   2.0000      -0.303503        -8.2587
 274   2.0000      -0.295754        -8.0479
 275   2.0000      -0.286481        -7.7956
 276   0.0000      -0.124841        -3.3971
 277   0.0000      -0.105568        -2.8726
 278   0.0000      -0.092754        -2.5240
 279   0.0000      -0.072619        -1.9761
 280   0.0000      -0.061475        -1.6728

MULLIKEN ATOMIC CHARGES
-----------------------
   0 C :    0.295201
   1 C :   -0.331153
   2 C :   -0.187982
   3 N :    0.157048
   4 C :   -0.195681
   5 N :    0.171742
   6 C :    0.025337
   7 C :   -0.018738
   8 C :   -0.067447
   9 C :    0.120833
  10 C :   -0.087531
  11 C :   -0.021668
  12 S :    0.189436
  13 C :   -0.121528
  14 C :    0.038248
  15 Br:    0.027546
  16 C :    0.162980
  17 O :   -0.131372
  18 C :   -0.047950
  19 C :    0.026907
  20 C :   -0.074941
  21 N :   -0.067256
  22 C :    0.081438
  23 C :   -0.026830
  24 C :    0.035184
  25 N :   -0.024001
  26 C :   -0.019361
  27 C :    0.012182
  28 C :    0.041752
  29 C :    0.098653
  30 N :    0.265900
  31 O :   -0.242380
  32 O :   -0.245947
  33 C :    0.027467
  34 C :    0.018837
  35 C :    0.027787
  36 C :    0.034262
  37 C :    0.005623
  38 C :    0.011709
  39 C :    0.097561
  40 N :    0.260856
  41 O :   -0.235350
  42 O :   -0.237994
  43 C :    0.103757
  44 C :   -0.147078
  45 N :   -0.062812
  46 C :    0.089312
  47 C :   -0.027735
  48 C :    0.078629
  49 N :   -0.060040
  50 C :    0.007242
  51 C :    0.042883
  52 C :    0.036325
  53 C :   -0.095634
  54 C :    0.270086
  55 C :   -0.328203
  56 C :   -0.182905
  57 N :    0.156862
  58 C :   -0.182724
  59 N :    0.158988
  60 C :    0.011945
  61 C :   -0.010518
  62 C :    0.140767
  63 O :   -0.133629
  64 C :   -0.062847
  65 C :    0.112805
  66 C :   -0.087691
  67 C :   -0.016742
  68 S :    0.190015
  69 C :   -0.124618
  70 C :    0.041162
  71 Br:    0.030766
  72 H :   -0.007785
  73 H :   -0.004902
  74 H :    0.000620
  75 H :    0.041319
  76 H :    0.013486
  77 H :    0.001443
  78 H :    0.007071
  79 H :    0.048797
  80 H :    0.012145
  81 H :    0.004344
  82 H :    0.018517
  83 H :   -0.002109
  84 H :    0.015479
  85 H :    0.000437
  86 H :   -0.003834
  87 H :    0.045195
  88 H :    0.021635
  89 H :   -0.005858
  90 H :   -0.003873
  91 H :    0.000125
Sum of atomic charges:   -0.0000000

LOEWDIN ATOMIC CHARGES
----------------------
   0 C :    0.073495
   1 C :   -0.124609
   2 C :   -0.016642
   3 N :   -0.044856
   4 C :   -0.023307
   5 N :   -0.037239
   6 C :   -0.021156
   7 C :   -0.050906
   8 C :    0.025128
   9 C :   -0.029524
  10 C :   -0.141583
  11 C :   -0.008270
  12 S :    0.435475
  13 C :   -0.269514
  14 C :   -0.069148
  15 Br:    0.140697
  16 C :    0.088623
  17 O :   -0.126253
  18 C :   -0.056989
  19 C :    0.067845
  20 C :    0.015540
  21 N :   -0.078334
  22 C :    0.049775
  23 C :   -0.045666
  24 C :    0.031829
  25 N :   -0.045136
  26 C :   -0.010312
  27 C :    0.021483
  28 C :    0.013158
  29 C :   -0.035515
  30 N :    0.282873
  31 O :   -0.207329
  32 O :   -0.209220
  33 C :    0.029813
  34 C :   -0.031425
  35 C :    0.057012
  36 C :    0.034036
  37 C :   -0.023659
  38 C :   -0.008625
  39 C :   -0.018469
  40 N :    0.284368
  41 O :   -0.205021
  42 O :   -0.202269
  43 C :    0.008305
  44 C :    0.022882
  45 N :   -0.079869
  46 C :    0.061167
  47 C :   -0.048048
  48 C :    0.037047
  49 N :   -0.070813
  50 C :    0.009135
  51 C :    0.005258
  52 C :    0.066657
  53 C :   -0.076282
  54 C :    0.072371
  55 C :   -0.132049
  56 C :   -0.018475
  57 N :   -0.046279
  58 C :   -0.010329
  59 N :   -0.046052
  60 C :   -0.019160
  61 C :   -0.053025
  62 C :    0.083577
  63 O :   -0.133313
  64 C :    0.025655
  65 C :   -0.030813
  66 C :   -0.142191
  67 C :   -0.010211
  68 S :    0.435495
  69 C :   -0.269625
  70 C :   -0.069363
  71 Br:    0.142402
  72 H :    0.041769
  73 H :    0.041458
  74 H :    0.040367
  75 H :    0.051110
  76 H :    0.029418
  77 H :    0.036792
  78 H :    0.031651
  79 H :    0.045734
  80 H :    0.041814
  81 H :    0.027812
  82 H :    0.037730
  83 H :    0.037149
  84 H :    0.030539
  85 H :    0.037008
  86 H :    0.034810
  87 H :    0.039001
  88 H :    0.047259
  89 H :    0.042960
  90 H :    0.041208
  91 H :    0.040185

  Mayer bond orders larger than 0.100000
B(  0-C ,  1-C ) :   1.6694 B(  0-C ,  6-C ) :   1.0169 B(  0-C , 18-C ) :   1.0318
B(  1-C ,  2-C ) :   1.1381 B(  1-C ,  4-C ) :   1.1344 B(  2-C ,  3-N ) :   2.9748
B(  4-C ,  5-N ) :   2.9934 B(  6-C ,  7-C ) :   1.2700 B(  6-C , 11-C ) :   1.3967
B(  7-C ,  8-C ) :   1.4165 B(  7-C , 16-C ) :   0.9492 B(  8-C ,  9-C ) :   1.2540
B(  8-C , 72-H ) :   1.0163 B(  9-C , 10-C ) :   1.2932 B(  9-C , 14-C ) :   1.1644
B( 10-C , 11-C ) :   1.3424 B( 10-C , 12-S ) :   1.0877 B( 11-C , 73-H ) :   0.9803
B( 12-S , 13-C ) :   1.0857 B( 13-C , 14-C ) :   1.6157 B( 13-C , 15-Br) :   1.0212
B( 14-C , 74-H ) :   1.0009 B( 16-C , 17-O ) :   2.2259 B( 16-C , 18-C ) :   0.9091
B( 18-C , 19-C ) :   1.7403 B( 19-C , 20-C ) :   0.9950 B( 19-C , 75-H ) :   0.9428
B( 20-C , 21-N ) :   1.5163 B( 20-C , 25-N ) :   1.5383 B( 21-N , 22-C ) :   1.5464
B( 22-C , 23-C ) :   1.3724 B( 22-C , 76-H ) :   0.9791 B( 23-C , 24-C ) :   1.3324
B( 23-C , 77-H ) :   0.9752 B( 24-C , 25-N ) :   1.5077 B( 24-C , 26-C ) :   1.0766
B( 26-C , 27-C ) :   1.6808 B( 26-C , 78-H ) :   0.9713 B( 27-C , 28-C ) :   1.1019
B( 27-C , 79-H ) :   0.9429 B( 28-C , 29-C ) :   1.5674 B( 28-C , 35-C ) :   0.9951
B( 29-C , 30-N ) :   0.9365 B( 29-C , 33-C ) :   1.0973 B( 30-N , 31-O ) :   1.5380
B( 30-N , 32-O ) :   1.5067 B( 31-O , 32-O ) :   0.2673 B( 33-C , 34-C ) :   1.5899
B( 33-C , 80-H ) :   1.0158 B( 34-C , 35-C ) :   1.1125 B( 34-C , 81-H ) :   0.9944
B( 35-C , 36-C ) :   1.5382 B( 36-C , 37-C ) :   1.0801 B( 36-C , 43-C ) :   1.1122
B( 37-C , 38-C ) :   1.6464 B( 37-C , 82-H ) :   0.9916 B( 38-C , 39-C ) :   1.0944
B( 38-C , 83-H ) :   1.0150 B( 39-C , 40-N ) :   0.9204 B( 39-C , 43-C ) :   1.7180
B( 40-N , 41-O ) :   1.5316 B( 40-N , 42-O ) :   1.5390 B( 41-O , 42-O ) :   0.2726
B( 43-C , 44-C ) :   0.8498 B( 44-C , 45-N ) :   1.5423 B( 44-C , 49-N ) :   1.5749
B( 45-N , 46-C ) :   1.5294 B( 46-C , 47-C ) :   1.3697 B( 46-C , 84-H ) :   0.9789
B( 47-C , 48-C ) :   1.3439 B( 47-C , 85-H ) :   0.9755 B( 48-C , 49-N ) :   1.4705
B( 48-C , 50-C ) :   1.0531 B( 50-C , 51-C ) :   1.7239 B( 50-C , 86-H ) :   0.9857
B( 51-C , 52-C ) :   1.0695 B( 51-C , 87-H ) :   0.9374 B( 52-C , 53-C ) :   1.6741
B( 52-C , 88-H ) :   0.9598 B( 53-C , 54-C ) :   1.0244 B( 53-C , 62-C ) :   0.9254
B( 54-C , 55-C ) :   1.6486 B( 54-C , 60-C ) :   1.0251 B( 55-C , 56-C ) :   1.1315
B( 55-C , 58-C ) :   1.1626 B( 56-C , 57-N ) :   2.9864 B( 58-C , 59-N ) :   2.9539
B( 60-C , 61-C ) :   1.2685 B( 60-C , 67-C ) :   1.4115 B( 61-C , 62-C ) :   0.9245
B( 61-C , 64-C ) :   1.4240 B( 62-C , 63-O ) :   2.2800 B( 64-C , 65-C ) :   1.2564
B( 64-C , 89-H ) :   1.0151 B( 65-C , 66-C ) :   1.3013 B( 65-C , 70-C ) :   1.1637
B( 66-C , 67-C ) :   1.3315 B( 66-C , 68-S ) :   1.0870 B( 67-C , 90-H ) :   0.9818
B( 68-S , 69-C ) :   1.0873 B( 69-C , 70-C ) :   1.6189 B( 69-C , 71-Br) :   1.0229
B( 70-C , 91-H ) :   0.9997

-----------------------------------------------------------------------------
         ABSORPTION SPECTRUM VIA TRANSITION ELECTRIC DIPOLE MOMENTS
-----------------------------------------------------------------------------
State   Energy  Wavelength   fosc         T2         TX        TY        TZ
        (cm-1)    (nm)                  (au**2)     (au)      (au)      (au)
-----------------------------------------------------------------------------
   0   15003.9    666.5   0.074475059   1.63412  -0.33488   0.64528  -1.05147
   1   20959.5    477.1   0.001260500   0.01980  -0.01138  -0.07673  -0.11740
   2   23855.5    419.2   0.006752976   0.09319   0.09147   0.10606  -0.27125
   3   24210.2    413.0   0.001648603   0.02242  -0.07404   0.10886   0.07131
   4   24402.2    409.8   0.005325067   0.07184  -0.20959   0.03544  -0.16327
   5   25525.0    391.8   0.034427729   0.44404   0.59071  -0.21636   0.21973
   6   25840.0    387.0   0.007242679   0.09227  -0.19824   0.18740  -0.13364
   7   25943.5    385.5   0.025374227   0.32199  -0.54787   0.02214  -0.14608
   8   26662.9    375.1   0.547507434   6.76019  -2.56470   0.42573   0.03553
   9   26710.3    374.4   0.108944857   1.34278   0.89922  -0.21598  -0.69824
  10   26915.8    371.5   0.054936792   0.67194  -0.40585   0.67207   0.23569
  11   27386.5    365.1   0.086587349   1.04086   0.20152  -0.20259   0.97939
  12   27597.2    362.4   0.265607817   3.16848   1.70504  -0.37679   0.34546
  13   27815.3    359.5   0.010725233   0.12694   0.34418  -0.06522   0.06500
  14   28223.6    354.3   0.078995227   0.92143   0.59498  -0.62343  -0.42280
  15   28465.7    351.3   0.072688542   0.84066   0.21371   0.05865   0.88969
  16   28767.0    347.6   0.003681721   0.04213  -0.02161  -0.00323  -0.20410
  17   28894.4    346.1   0.003394336   0.03867  -0.17806  -0.02367  -0.08004
  18   28978.9    345.1   0.005114087   0.05810  -0.17125  -0.15753  -0.06290
  19   29397.6    340.2   0.132787962   1.48704   0.21241   0.49802  -1.09265
  20   29545.8    338.5   0.094184738   1.04945  -0.25863   0.31100  -0.94119
  21   29833.4    335.2   0.000507295   0.00560   0.06709   0.03215  -0.00796
  22   29867.4    334.8   0.005150889   0.05678  -0.05489   0.02603  -0.23040
  23   29971.9    333.6   0.000560020   0.00615  -0.02601   0.05795  -0.04601
  24   30481.0    328.1   0.058821739   0.63531  -0.78289  -0.12993   0.07428
  25   31773.3    314.7   0.167333268   1.73379   0.22009  -1.26677  -0.28399
  26   32252.7    310.1   0.026357068   0.26903  -0.18191   0.46398   0.14375
  27   32418.9    308.5   0.016417014   0.16671  -0.13504  -0.23840  -0.30272
  28   32557.1    307.2   0.299248503   3.02595   0.64455  -1.61559   0.01919
  29   32760.4    305.2   0.379987127   3.81852  -1.54372  -0.74903  -0.93510
  30   33009.4    302.9   0.002168632   0.02163  -0.08965  -0.04414  -0.10791
  31   33061.3    302.5   0.181825651   1.81055  -0.22061   0.81108   1.05073
  32   33130.2    301.8   0.738550869   7.33891   2.30234   0.14313   1.42044
  33   33256.2    300.7   0.027032439   0.26760   0.10200  -0.46035   0.21278
  34   33374.3    299.6   0.063143799   0.62287  -0.60884   0.39260  -0.31312
  35   33440.0    299.0   0.165502851   1.62935  -0.95911   0.16545  -0.82589
  36   33541.2    298.1   0.951049164   9.33470  -2.62440   1.52004  -0.36973
  37   34195.1    292.4   0.000681618   0.00656  -0.03140  -0.02241   0.07123
  38   34508.6    289.8   0.111755922   1.06615  -0.41522   0.15597   0.93242
  39   35062.9    285.2   0.023218876   0.21801  -0.19846   0.38250   0.17976
  40   35151.6    284.5   0.238341546   2.23218   0.87851  -0.82251  -0.88537
  41   35619.8    280.7   0.012102262   0.11185  -0.00999   0.23204   0.24065
  42   35903.6    278.5   0.006096289   0.05590   0.10648  -0.10368  -0.18388
  43   36375.3    274.9   0.000124283   0.00112   0.01621   0.00317  -0.02919
  44   36767.8    272.0   0.013032538   0.11669  -0.13601   0.18207   0.25503
  45   36872.3    271.2   0.003635229   0.03246   0.11137  -0.09255   0.10718
  46   36877.7    271.2   0.023584154   0.21054   0.18714  -0.32926  -0.25905
  47   37243.6    268.5   0.013013205   0.11503  -0.25754  -0.21489   0.05022
  48   37464.2    266.9   0.191630937   1.68393  -1.13517  -0.53003   0.33823
  49   37744.0    264.9   0.171249014   1.49367  -1.06964   0.28164   0.51983
  50   37758.5    264.8   0.002577968   0.02248  -0.13885   0.01692   0.05395
  51   37973.1    263.3   0.353069153   3.06097   0.66417  -1.40769  -0.79892
  52   38192.7    261.8   0.068958828   0.59441   0.36444   0.06723  -0.67607
  53   38220.3    261.6   0.034124973   0.29394   0.36673  -0.08514  -0.39013
  54   38435.6    260.2   0.316076896   2.70729   0.84678  -0.20118  -1.39635
  55   38886.5    257.2   0.008384185   0.07098  -0.10126   0.06005  -0.23900
  56   39020.6    256.3   0.038141424   0.32179   0.55687  -0.03175   0.10337
  57   39303.8    254.4   0.025695038   0.21522   0.35114  -0.30273  -0.01657
  58   39478.0    253.3   0.052123905   0.43467   0.07728  -0.59713  -0.26858
  59   39621.1    252.4   0.038795643   0.32235  -0.36020   0.23622   0.36988
  60   39650.5    252.2   0.003775811   0.03135   0.12326  -0.05228  -0.11586
  61   39701.5    251.9   0.014380634   0.11925   0.23784  -0.21474  -0.12870
  62   39819.2    251.1   0.000797996   0.00660   0.03774   0.05283   0.04881
  63   39846.6    251.0   0.019192831   0.15857  -0.30857   0.11922  -0.22169
  64   40222.2    248.6   0.008774040   0.07181  -0.18175  -0.08453   0.17787

FINAL SINGLE POINT ENERGY     -8932.405355386310

DIPOLE MOMENT
-------------
                                X             Y             Z
Electronic contribution:   -177.76446      29.13760      25.71979
Nuclear contribution   :    175.92507     -28.49951     -29.76605
                        -----------------------------------------
Total Dipole Moment    :     -1.83938       0.63809      -4.04625
                        -----------------------------------------
Magnitude (a.u.)       :      4.49029
Magnitude (Debye)      :     11.41340

Rotational constants in cm-1:     0.000722     0.000423     0.000290
Rotational constants in MHz :    21.654895    12.683616     8.689913

                             ****ORCA TERMINATED NORMALLY****
TOTAL RUN TIME: 0 days 0 hours 9 minutes 7 seconds 409 msec
