                         Program Version 4.2.0 -  RELEASE  -
|  1> # ORCA input file
|  2> # SCF done       -146.407403165687          0.000344275975
|  3> ! CAM-B3LYP def2-SVP def2/J RIJCOSX Grid4 TightSCF
|  4> %maxcore 5000
|  5> %tddft
|  6>     Mode sTDDFT
|  7>     Ethresh 5.0
|  8>     maxcore 5000
|  9> end
| 10>
| 11> %pal
| 12>   nprocs 6
| 13>   end
| 14> * xyz 0 1
| 15>    C        5.14919        -1.85076        -9.08207
| 16>    C        6.05089        -2.08048        -8.11691
| 17>    C        7.29885        -1.40828        -7.90145
| 18>    C        8.00636        -1.86819        -6.84446
| 19>    C        7.38490        -2.93418        -6.14007
| 20>    S        5.84345        -3.32857        -6.87806
| 21>    C        7.87252        -3.60957        -5.04520
| 22>    C        9.10242        -3.40917        -4.37492
| 23>    C        9.31099        -4.26662        -3.34046
| 24>    C        8.26449        -5.19910        -3.12004
| 25>    S        6.98407        -4.91851        -4.28878
| 26>    C        8.30239        -6.17777        -2.15928
| 27>    C        7.37507        -7.18964        -1.84246
| 28>    C        6.09895        -7.38815        -2.39690
| 29>    C        5.29640        -8.46132        -2.07099
| 30>    C        5.67459        -9.49071        -1.18433
| 31>    C        6.92772        -9.27461        -0.55283
| 32>    C        7.74588        -8.15445        -0.86722
| 33>    N        8.84602        -8.23138        -0.10725
| 34>    N        8.67691        -9.31380         0.60288
| 35>    N        7.56657        -9.96753         0.39424
| 36>    C        9.64618        -9.78647         1.54147
| 37>    C        4.86043       -10.62980        -1.02562
| 38>    C        5.16213       -11.85569        -0.47118
| 39>    C        4.30120       -12.98259        -0.50191
| 40>    C        4.86193       -14.14809        -0.06079
| 41>    C        6.19816       -13.99501         0.34791
| 42>    S        6.69646       -12.32253         0.22206
| 43>    C        7.14338       -14.92234         0.76118
| 44>    C        7.09812       -16.32190         0.88218
| 45>    C        8.29845       -16.88531         1.22096
| 46>    C        9.36041       -15.96374         1.38492
| 47>    S        8.74552       -14.33827         1.14547
| 48>    C       10.69294       -16.26433         1.56268
| 49>    C       11.76214       -15.34591         1.62693
| 50>    C       11.63762       -13.97453         1.90625
| 51>    C       12.66936       -13.07043         1.77361
| 52>    C       13.95873       -13.42514         1.34901
| 53>    C       14.15826       -14.82580         1.20261
| 54>    C       13.09274       -15.76154         1.34505
| 55>    N       13.59491       -16.97905         1.10587
| 56>    N       14.86041       -16.76387         0.85178
| 57>    N       15.25913       -15.51784         0.88501
| 58>    C       15.75610       -17.83628         0.54485
| 59>    C       15.00681       -12.52658         1.05584
| 60>    C       14.94789       -11.16631         0.87951
| 61>    C       16.04910       -10.33884         0.53844
| 62>    C       15.74244        -9.02941         0.32922
| 63>    C       14.37075        -8.72729         0.49290
| 64>    S       13.49406       -10.17825         0.94132
| 65>    C       13.72608        -7.52078         0.34493
| 66>    C       14.28996        -6.26597        -0.00944
| 67>    C       13.39570        -5.25297        -0.08102
| 68>    C       12.04504        -5.63145         0.21880
| 69>    S       11.99508        -7.36069         0.58187
| 70>    C       10.95327        -4.85287         0.24554
| 71>    H        5.31600        -1.08337        -9.81710
| 72>    H        4.24047        -2.41930        -9.15383
| 73>    H        7.61124        -0.61019        -8.55127
| 74>    H        8.96278        -1.48033        -6.54098
| 75>    H        9.79720        -2.64710        -4.67957
| 76>    H       10.19137        -4.27343        -2.72114
| 77>    H        9.21007        -6.20942        -1.56872
| 78>    H        5.72843        -6.67447        -3.11611
| 79>    H        4.33379        -8.54591        -2.55569
| 80>    H        9.23481       -10.67101         2.02156
| 81>    H        9.86131        -9.01209         2.27713
| 82>    H       10.57294       -10.03858         1.02512
| 83>    H        3.88045       -10.56460        -1.48594
| 84>    H        3.29447       -12.90229        -0.87513
| 85>    H        4.35310       -15.09589        -0.03596
| 86>    H        6.19809       -16.88125         0.69589
| 87>    H        8.45696       -17.94351         1.33656
| 88>    H       10.96522       -17.31158         1.54673
| 89>    H       10.69273       -13.60324         2.26787
| 90>    H       12.46930       -12.04094         2.02378
| 91>    H       16.60684       -17.81429         1.22628
| 92>    H       16.12324       -17.73560        -0.47769
| 93>    H       15.20964       -18.77005         0.65304
| 94>    H       15.97332       -12.98567         0.88925
| 95>    H       17.04017       -10.74899         0.45082
| 96>    H       16.46008        -8.27687         0.05477
| 97>    H       15.34366        -6.15916        -0.19911
| 98>    H       13.63802        -4.23527        -0.33208
| 99>    H       11.01925        -3.80245         0.02121
|100>    H        9.98676        -5.24916         0.49779
|101> *
|102>
|103>                          ****END OF INPUT****

CARTESIAN COORDINATES (ANGSTROEM)
---------------------------------
  C      5.149190   -1.850760   -9.082070
  C      6.050890   -2.080480   -8.116910
  C      7.298850   -1.408280   -7.901450
  C      8.006360   -1.868190   -6.844460
  C      7.384900   -2.934180   -6.140070
  S      5.843450   -3.328570   -6.878060
  C      7.872520   -3.609570   -5.045200
  C      9.102420   -3.409170   -4.374920
  C      9.310990   -4.266620   -3.340460
  C      8.264490   -5.199100   -3.120040
  S      6.984070   -4.918510   -4.288780
  C      8.302390   -6.177770   -2.159280
  C      7.375070   -7.189640   -1.842460
  C      6.098950   -7.388150   -2.396900
  C      5.296400   -8.461320   -2.070990
  C      5.674590   -9.490710   -1.184330
  C      6.927720   -9.274610   -0.552830
  C      7.745880   -8.154450   -0.867220
  N      8.846020   -8.231380   -0.107250
  N      8.676910   -9.313800    0.602880
  N      7.566570   -9.967530    0.394240
  C      9.646180   -9.786470    1.541470
  C      4.860430  -10.629800   -1.025620
  C      5.162130  -11.855690   -0.471180
  C      4.301200  -12.982590   -0.501910
  C      4.861930  -14.148090   -0.060790
  C      6.198160  -13.995010    0.347910
  S      6.696460  -12.322530    0.222060
  C      7.143380  -14.922340    0.761180
  C      7.098120  -16.321900    0.882180
  C      8.298450  -16.885310    1.220960
  C      9.360410  -15.963740    1.384920
  S      8.745520  -14.338270    1.145470
  C     10.692940  -16.264330    1.562680
  C     11.762140  -15.345910    1.626930
  C     11.637620  -13.974530    1.906250
  C     12.669360  -13.070430    1.773610
  C     13.958730  -13.425140    1.349010
  C     14.158260  -14.825800    1.202610
  C     13.092740  -15.761540    1.345050
  N     13.594910  -16.979050    1.105870
  N     14.860410  -16.763870    0.851780
  N     15.259130  -15.517840    0.885010
  C     15.756100  -17.836280    0.544850
  C     15.006810  -12.526580    1.055840
  C     14.947890  -11.166310    0.879510
  C     16.049100  -10.338840    0.538440
  C     15.742440   -9.029410    0.329220
  C     14.370750   -8.727290    0.492900
  S     13.494060  -10.178250    0.941320
  C     13.726080   -7.520780    0.344930
  C     14.289960   -6.265970   -0.009440
  C     13.395700   -5.252970   -0.081020
  C     12.045040   -5.631450    0.218800
  S     11.995080   -7.360690    0.581870
  C     10.953270   -4.852870    0.245540
  H      5.316000   -1.083370   -9.817100
  H      4.240470   -2.419300   -9.153830
  H      7.611240   -0.610190   -8.551270
  H      8.962780   -1.480330   -6.540980
  H      9.797200   -2.647100   -4.679570
  H     10.191370   -4.273430   -2.721140
  H      9.210070   -6.209420   -1.568720
  H      5.728430   -6.674470   -3.116110
  H      4.333790   -8.545910   -2.555690
  H      9.234810  -10.671010    2.021560
  H      9.861310   -9.012090    2.277130
  H     10.572940  -10.038580    1.025120
  H      3.880450  -10.564600   -1.485940
  H      3.294470  -12.902290   -0.875130
  H      4.353100  -15.095890   -0.035960
  H      6.198090  -16.881250    0.695890
  H      8.456960  -17.943510    1.336560
  H     10.965220  -17.311580    1.546730
  H     10.692730  -13.603240    2.267870
  H     12.469300  -12.040940    2.023780
  H     16.606840  -17.814290    1.226280
  H     16.123240  -17.735600   -0.477690
  H     15.209640  -18.770050    0.653040
  H     15.973320  -12.985670    0.889250
  H     17.040170  -10.748990    0.450820
  H     16.460080   -8.276870    0.054770
  H     15.343660   -6.159160   -0.199110
  H     13.638020   -4.235270   -0.332080
  H     11.019250   -3.802450    0.021210
  H      9.986760   -5.249160    0.497790

 Total Charge           Charge          ....    0
 Multiplicity           Mult            ....    1
 Number of Electrons    NEL             ....  432
 Basis Dimension        Dim             ....  958

ORBITAL ENERGIES
----------------

  NO   OCC          E(Eh)            E(eV)
   0   2.0000     -88.938645     -2420.1436
   1   2.0000     -88.935995     -2420.0714
   2   2.0000     -88.931227     -2419.9417
   3   2.0000     -88.931188     -2419.9407
   4   2.0000     -88.930774     -2419.9294
   5   2.0000     -88.925062     -2419.7739
   6   2.0000     -14.527134      -395.3034
   7   2.0000     -14.525542      -395.2601
   8   2.0000     -14.427971      -392.6050
   9   2.0000     -14.427923      -392.6038
  10   2.0000     -14.427701      -392.5977
  11   2.0000     -14.426354      -392.5611
  12   2.0000     -10.313430      -280.6427
  13   2.0000     -10.305003      -280.4134
  14   2.0000     -10.301981      -280.3312
  15   2.0000     -10.301317      -280.3131
  16   2.0000     -10.301094      -280.3070
  17   2.0000     -10.300859      -280.3006
  18   2.0000     -10.300195      -280.2826
  19   2.0000     -10.299723      -280.2697
  20   2.0000     -10.297680      -280.2141
  21   2.0000     -10.296142      -280.1723
  22   2.0000     -10.295785      -280.1626
  23   2.0000     -10.294650      -280.1317
  24   2.0000     -10.293254      -280.0937
  25   2.0000     -10.290327      -280.0140
  26   2.0000     -10.288461      -279.9632
  27   2.0000     -10.286869      -279.9199
  28   2.0000     -10.285807      -279.8910
  29   2.0000     -10.284669      -279.8601
  30   2.0000     -10.283818      -279.8369
  31   2.0000     -10.282872      -279.8112
  32   2.0000     -10.278496      -279.6921
  33   2.0000     -10.278359      -279.6884
  34   2.0000     -10.278063      -279.6803
  35   2.0000     -10.277604      -279.6678
  36   2.0000     -10.276465      -279.6368
  37   2.0000     -10.276462      -279.6367
  38   2.0000     -10.275624      -279.6139
  39   2.0000     -10.274421      -279.5812
  40   2.0000     -10.274274      -279.5772
  41   2.0000     -10.274211      -279.5755
  42   2.0000     -10.273674      -279.5609
  43   2.0000     -10.273593      -279.5587
  44   2.0000     -10.272895      -279.5397
  45   2.0000     -10.272515      -279.5293
  46   2.0000     -10.271418      -279.4995
  47   2.0000     -10.268918      -279.4315
  48   2.0000     -10.265795      -279.3465
  49   2.0000     -10.264811      -279.3197
  50   2.0000     -10.264155      -279.3019
  51   2.0000     -10.263427      -279.2821
  52   2.0000     -10.262961      -279.2694
  53   2.0000     -10.262882      -279.2672
  54   2.0000     -10.262747      -279.2635
  55   2.0000     -10.260019      -279.1893
  56   2.0000      -8.034124      -218.6196
  57   2.0000      -8.031858      -218.5580
  58   2.0000      -8.027815      -218.4480
  59   2.0000      -8.027306      -218.4341
  60   2.0000      -8.026756      -218.4191
  61   2.0000      -8.020314      -218.2438
  62   2.0000      -6.003957      -163.3760
  63   2.0000      -6.001614      -163.3122
  64   2.0000      -5.999802      -163.2629
  65   2.0000      -5.997658      -163.2046
  66   2.0000      -5.997591      -163.2028
  67   2.0000      -5.997166      -163.1912
  68   2.0000      -5.996499      -163.1730
  69   2.0000      -5.995120      -163.1355
  70   2.0000      -5.993719      -163.0974
  71   2.0000      -5.993156      -163.0821
  72   2.0000      -5.992774      -163.0717
  73   2.0000      -5.992265      -163.0578
  74   2.0000      -5.990237      -163.0026
  75   2.0000      -5.988360      -162.9516
  76   2.0000      -5.987895      -162.9389
  77   2.0000      -5.987852      -162.9377
  78   2.0000      -5.985722      -162.8798
  79   2.0000      -5.981129      -162.7548
  80   2.0000      -1.205115       -32.7928
  81   2.0000      -1.201374       -32.6910
  82   2.0000      -0.985046       -26.8045
  83   2.0000      -0.984087       -26.7784
  84   2.0000      -0.983720       -26.7684
  85   2.0000      -0.977673       -26.6038
  86   2.0000      -0.974969       -26.5303
  87   2.0000      -0.968719       -26.3602
  88   2.0000      -0.966011       -26.2865
  89   2.0000      -0.960374       -26.1331
  90   2.0000      -0.959208       -26.1014
  91   2.0000      -0.955096       -25.9895
  92   2.0000      -0.910172       -24.7670
  93   2.0000      -0.908995       -24.7350
  94   2.0000      -0.892305       -24.2809
  95   2.0000      -0.887181       -24.1414
  96   2.0000      -0.871746       -23.7214
  97   2.0000      -0.865962       -23.5640
  98   2.0000      -0.853360       -23.2211
  99   2.0000      -0.840573       -22.8731
 100   2.0000      -0.837501       -22.7896
 101   2.0000      -0.835627       -22.7386
 102   2.0000      -0.833215       -22.6729
 103   2.0000      -0.820254       -22.3203
 104   2.0000      -0.815544       -22.1921
 105   2.0000      -0.811381       -22.0788
 106   2.0000      -0.808640       -22.0042
 107   2.0000      -0.803211       -21.8565
 108   2.0000      -0.799257       -21.7489
 109   2.0000      -0.797202       -21.6930
 110   2.0000      -0.779211       -21.2034
 111   2.0000      -0.767994       -20.8982
 112   2.0000      -0.753338       -20.4994
 113   2.0000      -0.734307       -19.9815
 114   2.0000      -0.717244       -19.5172
 115   2.0000      -0.713606       -19.4182
 116   2.0000      -0.710344       -19.3294
 117   2.0000      -0.701221       -19.0812
 118   2.0000      -0.697342       -18.9756
 119   2.0000      -0.694872       -18.9084
 120   2.0000      -0.679723       -18.4962
 121   2.0000      -0.672132       -18.2897
 122   2.0000      -0.666475       -18.1357
 123   2.0000      -0.648620       -17.6499
 124   2.0000      -0.646587       -17.5945
 125   2.0000      -0.633323       -17.2336
 126   2.0000      -0.624130       -16.9835
 127   2.0000      -0.616963       -16.7884
 128   2.0000      -0.615658       -16.7529
 129   2.0000      -0.614123       -16.7111
 130   2.0000      -0.612613       -16.6701
 131   2.0000      -0.611668       -16.6443
 132   2.0000      -0.605731       -16.4828
 133   2.0000      -0.599032       -16.3005
 134   2.0000      -0.595016       -16.1912
 135   2.0000      -0.591110       -16.0849
 136   2.0000      -0.589554       -16.0426
 137   2.0000      -0.589530       -16.0419
 138   2.0000      -0.588941       -16.0259
 139   2.0000      -0.579037       -15.7564
 140   2.0000      -0.576155       -15.6780
 141   2.0000      -0.572881       -15.5889
 142   2.0000      -0.568979       -15.4827
 143   2.0000      -0.553052       -15.0493
 144   2.0000      -0.551237       -14.9999
 145   2.0000      -0.545937       -14.8557
 146   2.0000      -0.540301       -14.7023
 147   2.0000      -0.534826       -14.5534
 148   2.0000      -0.526225       -14.3193
 149   2.0000      -0.516914       -14.0659
 150   2.0000      -0.516381       -14.0514
 151   2.0000      -0.507312       -13.8046
 152   2.0000      -0.506095       -13.7716
 153   2.0000      -0.502283       -13.6678
 154   2.0000      -0.498202       -13.5568
 155   2.0000      -0.497788       -13.5455
 156   2.0000      -0.495058       -13.4712
 157   2.0000      -0.494533       -13.4569
 158   2.0000      -0.493148       -13.4193
 159   2.0000      -0.487664       -13.2700
 160   2.0000      -0.487200       -13.2574
 161   2.0000      -0.486662       -13.2427
 162   2.0000      -0.485416       -13.2088
 163   2.0000      -0.482983       -13.1426
 164   2.0000      -0.481281       -13.0963
 165   2.0000      -0.478093       -13.0096
 166   2.0000      -0.476561       -12.9679
 167   2.0000      -0.473218       -12.8769
 168   2.0000      -0.471535       -12.8311
 169   2.0000      -0.468923       -12.7601
 170   2.0000      -0.461869       -12.5681
 171   2.0000      -0.459610       -12.5066
 172   2.0000      -0.456226       -12.4145
 173   2.0000      -0.454665       -12.3721
 174   2.0000      -0.453967       -12.3531
 175   2.0000      -0.453447       -12.3389
 176   2.0000      -0.449255       -12.2248
 177   2.0000      -0.444699       -12.1009
 178   2.0000      -0.434789       -11.8312
 179   2.0000      -0.430963       -11.7271
 180   2.0000      -0.428403       -11.6574
 181   2.0000      -0.426476       -11.6050
 182   2.0000      -0.421919       -11.4810
 183   2.0000      -0.419817       -11.4238
 184   2.0000      -0.415983       -11.3195
 185   2.0000      -0.410451       -11.1689
 186   2.0000      -0.410040       -11.1577
 187   2.0000      -0.407951       -11.1009
 188   2.0000      -0.406725       -11.0676
 189   2.0000      -0.398934       -10.8555
 190   2.0000      -0.392213       -10.6727
 191   2.0000      -0.388693       -10.5769
 192   2.0000      -0.386958       -10.5297
 193   2.0000      -0.376457       -10.2439
 194   2.0000      -0.373485       -10.1630
 195   2.0000      -0.371477       -10.1084
 196   2.0000      -0.368008       -10.0140
 197   2.0000      -0.362048        -9.8518
 198   2.0000      -0.360585        -9.8120
 199   2.0000      -0.339068        -9.2265
 200   2.0000      -0.331672        -9.0253
 201   2.0000      -0.329985        -8.9793
 202   2.0000      -0.329411        -8.9637
 203   2.0000      -0.326325        -8.8798
 204   2.0000      -0.322991        -8.7890
 205   2.0000      -0.320467        -8.7204
 206   2.0000      -0.314755        -8.5649
 207   2.0000      -0.310795        -8.4572
 208   2.0000      -0.309977        -8.4349
 209   2.0000      -0.308621        -8.3980
 210   2.0000      -0.300382        -8.1738
 211   2.0000      -0.283199        -7.7062
 212   2.0000      -0.261172        -7.1069
 213   2.0000      -0.227422        -6.1885
 214   2.0000      -0.209508        -5.7010
 215   2.0000      -0.183228        -4.9859
 216   0.0000      -0.086411        -2.3514
 217   0.0000      -0.062072        -1.6891
 218   0.0000      -0.040534        -1.1030
 219   0.0000      -0.012073        -0.3285
 220   0.0000       0.004838         0.1316

MULLIKEN ATOMIC CHARGES
-----------------------
   0 C :   -0.032288
   1 C :   -0.063486
   2 C :    0.049113
   3 C :    0.030070
   4 C :   -0.068788
   5 S :    0.076940
   6 C :   -0.032216
   7 C :    0.024183
   8 C :    0.036197
   9 C :   -0.007691
  10 S :    0.057948
  11 C :   -0.063690
  12 C :    0.063237
  13 C :   -0.053344
  14 C :   -0.028918
  15 C :    0.074541
  16 C :    0.013677
  17 C :   -0.018054
  18 N :   -0.062130
  19 N :   -0.080816
  20 N :   -0.083062
  21 C :    0.149586
  22 C :   -0.065875
  23 C :    0.000556
  24 C :    0.028061
  25 C :    0.026820
  26 C :   -0.017443
  27 S :    0.087912
  28 C :   -0.048735
  29 C :    0.031687
  30 C :    0.026154
  31 C :   -0.011877
  32 S :    0.044248
  33 C :   -0.044346
  34 C :    0.047082
  35 C :   -0.049417
  36 C :   -0.047948
  37 C :    0.055820
  38 C :   -0.017826
  39 C :   -0.021964
  40 N :   -0.055957
  41 N :   -0.081658
  42 N :   -0.071096
  43 C :    0.152364
  44 C :   -0.050836
  45 C :   -0.005197
  46 C :    0.035728
  47 C :    0.023047
  48 C :   -0.031200
  49 S :    0.032892
  50 C :   -0.061100
  51 C :    0.027184
  52 C :    0.046853
  53 C :   -0.066604
  54 S :    0.076967
  55 C :   -0.035371
  56 H :    0.018153
  57 H :    0.019950
  58 H :   -0.014255
  59 H :   -0.013762
  60 H :   -0.019125
  61 H :   -0.019277
  62 H :   -0.010331
  63 H :   -0.015902
  64 H :   -0.028862
  65 H :    0.050150
  66 H :    0.048107
  67 H :    0.057590
  68 H :   -0.028524
  69 H :   -0.016518
  70 H :   -0.019864
  71 H :   -0.017881
  72 H :   -0.014522
  73 H :   -0.011275
  74 H :   -0.010031
  75 H :   -0.020689
  76 H :    0.048382
  77 H :    0.048190
  78 H :    0.047347
  79 H :   -0.010977
  80 H :   -0.013296
  81 H :   -0.017268
  82 H :   -0.012900
  83 H :   -0.015716
  84 H :    0.019796
  85 H :    0.033375
Sum of atomic charges:   -0.0000000

LOEWDIN ATOMIC CHARGES
----------------------
   0 C :   -0.081085
   1 C :   -0.139131
   2 C :   -0.034648
   3 C :   -0.026424
   4 C :   -0.178903
   5 S :    0.348518
   6 C :   -0.179217
   7 C :   -0.041581
   8 C :   -0.028416
   9 C :   -0.142733
  10 S :    0.377000
  11 C :   -0.048770
  12 C :   -0.037805
  13 C :   -0.031673
  14 C :   -0.016942
  15 C :   -0.036915
  16 C :   -0.051586
  17 C :   -0.041872
  18 N :   -0.097030
  19 N :    0.154947
  20 N :   -0.098492
  21 C :    0.026996
  22 C :   -0.048149
  23 C :   -0.146996
  24 C :   -0.030710
  25 C :   -0.039877
  26 C :   -0.181379
  27 S :    0.423686
  28 C :   -0.186978
  29 C :   -0.035696
  30 C :   -0.039376
  31 C :   -0.139423
  32 S :    0.389061
  33 C :   -0.053499
  34 C :   -0.034207
  35 C :   -0.040042
  36 C :   -0.029592
  37 C :   -0.044955
  38 C :   -0.045947
  39 C :   -0.051008
  40 N :   -0.094792
  41 N :    0.146622
  42 N :   -0.101638
  43 C :    0.031936
  44 C :   -0.042078
  45 C :   -0.145309
  46 C :   -0.029204
  47 C :   -0.041941
  48 C :   -0.180046
  49 S :    0.378022
  50 C :   -0.182241
  51 C :   -0.025430
  52 C :   -0.037214
  53 C :   -0.139002
  54 S :    0.371018
  55 C :   -0.084486
  56 H :    0.027594
  57 H :    0.025415
  58 H :    0.032241
  59 H :    0.031650
  60 H :    0.029452
  61 H :    0.032675
  62 H :    0.039012
  63 H :    0.015756
  64 H :    0.028333
  65 H :    0.040483
  66 H :    0.035940
  67 H :    0.028902
  68 H :    0.033306
  69 H :    0.030393
  70 H :    0.028847
  71 H :    0.030674
  72 H :    0.031633
  73 H :    0.035695
  74 H :    0.012384
  75 H :    0.010821
  76 H :    0.038596
  77 H :    0.038511
  78 H :    0.040368
  79 H :    0.037513
  80 H :    0.033363
  81 H :    0.030125
  82 H :    0.031738
  83 H :    0.031491
  84 H :    0.026208
  85 H :    0.027513

  Mayer bond orders larger than 0.100000
B(  0-C ,  1-C ) :   1.8600 B(  0-C , 56-H ) :   0.9510 B(  0-C , 57-H ) :   0.9411
B(  1-C ,  2-C ) :   1.0823 B(  1-C ,  5-S ) :   1.0092 B(  2-C ,  3-C ) :   1.6551
B(  2-C , 58-H ) :   0.9934 B(  3-C ,  4-C ) :   1.1581 B(  3-C , 59-H ) :   0.9916
B(  4-C ,  5-S ) :   1.0417 B(  4-C ,  6-C ) :   1.5471 B(  6-C ,  7-C ) :   1.1722
B(  6-C , 10-S ) :   1.0331 B(  7-C ,  8-C ) :   1.5898 B(  7-C , 60-H ) :   0.9927
B(  8-C ,  9-C ) :   1.1504 B(  8-C , 61-H ) :   0.9973 B(  9-C , 10-S ) :   1.0344
B(  9-C , 11-C ) :   1.5305 B( 11-C , 12-C ) :   1.1921 B( 11-C , 62-H ) :   0.9679
B( 12-C , 13-C ) :   1.3319 B( 12-C , 17-C ) :   1.1625 B( 13-C , 14-C ) :   1.3512
B( 13-C , 63-H ) :   0.9779 B( 14-C , 15-C ) :   1.3446 B( 14-C , 64-H ) :   0.9898
B( 15-C , 16-C ) :   1.1394 B( 15-C , 22-C ) :   1.1762 B( 16-C , 17-C ) :   1.2449
B( 16-C , 20-N ) :   1.4334 B( 17-C , 18-N ) :   1.4883 B( 18-N , 19-N ) :   1.2286
B( 18-N , 20-N ) :   0.1556 B( 19-N , 20-N ) :   1.2521 B( 19-N , 21-C ) :   0.9498
B( 21-C , 65-H ) :   0.9632 B( 21-C , 66-H ) :   0.9643 B( 21-C , 67-H ) :   0.9645
B( 22-C , 23-C ) :   1.5308 B( 22-C , 68-H ) :   0.9586 B( 23-C , 24-C ) :   1.1553
B( 23-C , 27-S ) :   1.0539 B( 24-C , 25-C ) :   1.5716 B( 24-C , 69-H ) :   0.9986
B( 25-C , 26-C ) :   1.1989 B( 25-C , 70-H ) :   0.9955 B( 26-C , 27-S ) :   1.0328
B( 26-C , 28-C ) :   1.4685 B( 28-C , 29-C ) :   1.2111 B( 28-C , 32-S ) :   1.0376
B( 29-C , 30-C ) :   1.5602 B( 29-C , 71-H ) :   0.9951 B( 30-C , 31-C ) :   1.1649
B( 30-C , 72-H ) :   0.9983 B( 31-C , 32-S ) :   1.0437 B( 31-C , 33-C ) :   1.5196
B( 33-C , 34-C ) :   1.1866 B( 33-C , 73-H ) :   0.9753 B( 34-C , 35-C ) :   1.3462
B( 34-C , 39-C ) :   1.1620 B( 35-C , 36-C ) :   1.3537 B( 35-C , 74-H ) :   0.9619
B( 36-C , 37-C ) :   1.3525 B( 36-C , 75-H ) :   0.9684 B( 37-C , 38-C ) :   1.1565
B( 37-C , 44-C ) :   1.1788 B( 38-C , 39-C ) :   1.2354 B( 38-C , 42-N ) :   1.4994
B( 39-C , 40-N ) :   1.5038 B( 40-N , 41-N ) :   1.2272 B( 40-N , 42-N ) :   0.1624
B( 41-N , 42-N ) :   1.2039 B( 41-N , 43-C ) :   0.9576 B( 43-C , 76-H ) :   0.9702
B( 43-C , 77-H ) :   0.9705 B( 43-C , 78-H ) :   0.9674 B( 44-C , 45-C ) :   1.5425
B( 44-C , 79-H ) :   0.9732 B( 45-C , 46-C ) :   1.1477 B( 45-C , 49-S ) :   1.0287
B( 46-C , 47-C ) :   1.5963 B( 46-C , 80-H ) :   0.9987 B( 47-C , 48-C ) :   1.1758
B( 47-C , 81-H ) :   0.9914 B( 48-C , 49-S ) :   1.0296 B( 48-C , 50-C ) :   1.5416
B( 50-C , 51-C ) :   1.1593 B( 50-C , 54-S ) :   1.0314 B( 51-C , 52-C ) :   1.6535
B( 51-C , 82-H ) :   0.9924 B( 52-C , 53-C ) :   1.0805 B( 52-C , 83-H ) :   0.9935
B( 53-C , 54-S ) :   1.0240 B( 53-C , 55-C ) :   1.8465 B( 55-C , 84-H ) :   0.9483
B( 55-C , 85-H ) :   0.9328

-----------------------------------------------------------------------------
         ABSORPTION SPECTRUM VIA TRANSITION ELECTRIC DIPOLE MOMENTS
-----------------------------------------------------------------------------
State   Energy  Wavelength   fosc         T2         TX        TY        TZ
        (cm-1)    (nm)                  (au**2)     (au)      (au)      (au)
-----------------------------------------------------------------------------
   0    7971.2   1254.5   0.414637269  17.12450   2.78894  -2.06290   2.25627
   1   13114.3    762.5   0.015063861   0.37815   0.30271   0.47918  -0.23855
   2   15512.9    644.6   2.463854589  52.28741   0.92775   6.49294  -3.04441
   3   17646.5    566.7   0.008053713   0.15025   0.21303  -0.28458  -0.15454
   4   18955.7    527.5   0.040446271   0.70245  -0.82482   0.08156   0.12439
   5   20894.3    478.6   0.627430111   9.88584   1.61282  -2.54098  -0.90999
   6   22632.0    441.9   0.040023963   0.58220   0.31985  -0.55700   0.41189
   7   23225.7    430.6   0.021522113   0.30506  -0.54401   0.08584  -0.04183
   8   24823.6    402.8   0.284259909   3.76987   1.28861  -1.08538   0.96504
   9   25672.3    389.5   0.679798983   8.71747  -2.80841   0.10959  -0.90459
  10   26022.3    384.3   0.298312953   3.77400   1.88769   0.20717   0.40952
  11   28769.6    347.6   0.050885027   0.58228  -0.56189  -0.06738  -0.51188
  12   29039.6    344.4   0.002236531   0.02535  -0.00543   0.15475  -0.03710
  13   29551.7    338.4   0.047344949   0.52743   0.55021   0.47294  -0.03205
  14   29890.7    334.6   0.012287249   0.13533  -0.35464  -0.09744  -0.00825
  15   30882.9    323.8   0.044334471   0.47261   0.01794  -0.07469   0.68316
  16   31230.1    320.2   0.013716299   0.14459   0.18503   0.12042   0.30960
  17   31666.5    315.8   0.048463510   0.50384   0.66045   0.11112   0.23515
  18   32299.2    309.6   0.001433864   0.01461  -0.11829  -0.02424  -0.00586
  19   32491.1    307.8   0.005807595   0.05884   0.02067  -0.19394   0.14423
  20   32673.5    306.1   0.006763336   0.06815  -0.07761   0.21697  -0.12267
  21   32998.5    303.0   0.007112466   0.07096   0.01025  -0.24502  -0.10401
  22   33425.9    299.2   0.041949366   0.41316  -0.46242  -0.05001  -0.44365
  23   33678.5    296.9   0.008894798   0.08695   0.16734   0.07965  -0.22935
  24   33718.3    296.6   0.011413063   0.11143   0.30211   0.03782   0.13687
  25   34166.4    292.7   0.005051845   0.04868  -0.21822  -0.02081   0.02498
  26   34430.5    290.4   0.016950676   0.16208   0.00165   0.38649  -0.11268
  27   34484.2    290.0   0.004214134   0.04023  -0.18782  -0.06207  -0.03320
  28   34858.5    286.9   0.061797453   0.58363   0.76347  -0.01569   0.02224
  29   35003.8    285.7   0.079406930   0.74683   0.62454  -0.58984   0.09414
  30   35044.5    285.4   0.014883008   0.13981   0.13126  -0.31072   0.16137
  31   35472.1    281.9   0.019630146   0.18218  -0.39880  -0.13881   0.06227
  32   37028.5    270.1   0.003492906   0.03105  -0.14778  -0.04656  -0.08395
  33   37439.7    267.1   0.026180223   0.23021  -0.17081   0.35010  -0.28010
  34   37642.0    265.7   0.019721291   0.17248   0.17858  -0.37455   0.01741
  35   37782.4    264.7   0.009476763   0.08257   0.09047  -0.27203   0.01967
  36   37981.9    263.3   0.019825479   0.17184   0.19542  -0.03222   0.36416
  37   38430.7    260.2   0.010111063   0.08662  -0.23704   0.04940  -0.16730
  38   38767.0    258.0   0.143452804   1.21821   0.21800  -0.93003   0.55293
  39   38955.4    256.7   0.026886187   0.22722  -0.11691   0.44535  -0.12333
  40   39368.2    254.0   0.011717042   0.09798   0.00529  -0.10970   0.29312
  41   39476.2    253.3   0.031522414   0.26288   0.48145   0.14629   0.09844
  42   40039.5    249.8   0.011328388   0.09314  -0.20720  -0.13388   0.17970
  43   40196.3    248.8   0.026941654   0.22066  -0.46314  -0.06421  -0.04511

FINAL SINGLE POINT ENERGY     -4408.908339005647

DIPOLE MOMENT
-------------
                                X             Y             Z
Electronic contribution:     -9.40123      -4.95510       5.48146
Nuclear contribution   :     10.52767       5.08049      -5.97914
                        -----------------------------------------
Total Dipole Moment    :      1.12644       0.12539      -0.49768
                        -----------------------------------------
Magnitude (a.u.)       :      1.23785
Magnitude (Debye)      :      3.14636

Rotational constants in cm-1:     0.001719     0.000634     0.000505
Rotational constants in MHz :    51.532763    18.999753    15.128290

                             ****ORCA TERMINATED NORMALLY****
TOTAL RUN TIME: 0 days 0 hours 8 minutes 33 seconds 7 msec
