                         Program Version 4.2.0 -  RELEASE  -
|  1> # ORCA input file
|  2> # SCF done       -167.875520568591          0.000318059195
|  3> ! CAM-B3LYP def2-SVP def2/J RIJCOSX Grid4 TightSCF
|  4> %maxcore 5000
|  5> %tddft
|  6>     Mode sTDDFT
|  7>     Ethresh 5.0
|  8>     maxcore 5000
|  9> end
| 10>
| 11> %pal
| 12>   nprocs 6
| 13>   end
| 14> * xyz 0 1
| 15>    C        6.07416        -5.33132         4.93355
| 16>    O        5.72257        -4.08718         4.58397
| 17>    C        6.44245        -3.71550         3.49760
| 18>    C        7.27801        -4.76418         3.15036
| 19>    C        7.03321        -5.79936         4.08000
| 20>    F        7.61715        -6.99400         4.12083
| 21>    F        8.14213        -4.79640         2.13975
| 22>    C        6.22789        -2.41910         2.94113
| 23>    C        6.88495        -1.93152         1.86549
| 24>    C        6.65429        -0.64690         1.30220
| 25>    C        5.70131         0.38020         1.73959
| 26>    N        5.69022         1.45336         1.00277
| 27>    C        6.62300         1.23887         0.02924
| 28>    C        7.25779        -0.07176         0.20413
| 29>    C        8.22149        -0.30137        -0.84221
| 30>    S        9.11616        -1.66847        -1.04926
| 31>    C        8.16568         0.89108        -1.65331
| 32>    C        7.15822         1.81324        -1.09480
| 33>    N        7.03215         2.92315        -1.87544
| 34>    C        7.84411         2.73629        -2.87496
| 35>    C        8.60157         1.48260        -2.82057
| 36>    C        9.57601         1.07846        -3.79532
| 37>    C        9.48324         1.52945        -5.09819
| 38>    C       10.42555         1.10585        -6.04941
| 39>    C       10.53546         1.38985        -7.40890
| 40>    C        9.59604         2.21471        -8.21599
| 41>    C       10.29993         3.36622        -8.96130
| 42>    N        9.40328         4.50296        -9.03266
| 43>    C        8.79507         1.31911        -9.18290
| 44>    N        7.90275         0.47361        -8.41602
| 45>    C       11.70274         0.68495        -7.88604
| 46>    C       12.27995         0.62633        -9.10154
| 47>    C       13.49362        -0.20387        -9.35243
| 48>    C       14.02070        -0.91781        -8.15292
| 49>    C       13.44775        -0.83241        -6.93787
| 50>    C       12.28628        -0.04672        -6.75141
| 51>    C       11.50325         0.21653        -5.64338
| 52>    C       11.58103        -0.21268        -4.29943
| 53>    C       10.64347         0.20517        -3.41080
| 54>    C       13.15370        -1.14448       -10.48724
| 55>    C       12.80036        -2.41914       -10.29754
| 56>    C       12.46868        -3.33927       -11.34185
| 57>    C       12.47789        -3.11816       -12.78876
| 58>    N       12.14117        -4.16097       -13.49649
| 59>    C       11.88637        -5.14839       -12.59172
| 60>    C       12.07876        -4.65264       -11.22129
| 61>    C       11.81310        -5.70195       -10.26863
| 62>    S       11.90070        -5.59200        -8.63107
| 63>    C       11.46820        -6.83797       -11.08419
| 64>    C       11.52208        -6.46938       -12.50934
| 65>    N       11.20876        -7.53602       -13.29743
| 66>    C       10.97313        -8.52103       -12.48083
| 67>    C       11.11500        -8.16993       -11.06495
| 68>    C       10.91392        -9.05716        -9.97672
| 69>    O       11.04992        -8.62289        -8.70558
| 70>    C       10.80999        -9.63942        -7.85848
| 71>    C       10.50872       -10.77225        -8.59832
| 72>    C       10.57376       -10.40438        -9.95016
| 73>    F       10.35518       -11.18457       -11.00731
| 74>    F       10.21487       -11.97449        -8.10397
| 75>    C       10.88039        -9.46096        -6.43452
| 76>    C       11.18224        -8.29990        -5.85599
| 77>    H        5.59434        -5.77804         5.78027
| 78>    H        5.47833        -1.83296         3.45258
| 79>    H        7.63524        -2.53224         1.36996
| 80>    H        5.04749         0.30747         2.59051
| 81>    H        7.94773         3.49123        -3.63488
| 82>    H        8.66945         2.17026        -5.40051
| 83>    H        8.87262         2.67676        -7.53942
| 84>    H       10.64149         3.01679        -9.95053
| 85>    H       11.18019         3.67935        -8.39232
| 86>    H        8.58109         4.27929        -9.58253
| 87>    H        9.85978         5.30155        -9.45733
| 88>    H        9.49776         0.75544        -9.82144
| 89>    H        8.17619         1.94756        -9.82986
| 90>    H        8.43270        -0.15443        -7.82074
| 91>    H        7.31685        -0.08543        -9.02499
| 92>    H       11.88155         1.15756        -9.95405
| 93>    H       14.28326         0.46787        -9.72569
| 94>    H       14.90068        -1.52127        -8.31547
| 95>    H       13.86263        -1.36155        -6.09299
| 96>    H       12.38273        -0.86629        -3.99096
| 97>    H       10.69286        -0.10947        -2.38127
| 98>    H       13.17593        -0.71378       -11.47812
| 99>    H       12.76076        -2.82397        -9.29423
|100>    H       12.73275        -2.19684       -13.28229
|101>    H       10.69895        -9.49188       -12.85267
|102>    H       10.66564       -10.35048        -5.85947
|103>    H       11.39305        -7.42267        -6.44391
|104>    H       11.22431        -8.20121        -4.78621
|105> *
|106>
|107>                          ****END OF INPUT****

CARTESIAN COORDINATES (ANGSTROEM)
---------------------------------
  C      6.074160   -5.331320    4.933550
  O      5.722570   -4.087180    4.583970
  C      6.442450   -3.715500    3.497600
  C      7.278010   -4.764180    3.150360
  C      7.033210   -5.799360    4.080000
  F      7.617150   -6.994000    4.120830
  F      8.142130   -4.796400    2.139750
  C      6.227890   -2.419100    2.941130
  C      6.884950   -1.931520    1.865490
  C      6.654290   -0.646900    1.302200
  C      5.701310    0.380200    1.739590
  N      5.690220    1.453360    1.002770
  C      6.623000    1.238870    0.029240
  C      7.257790   -0.071760    0.204130
  C      8.221490   -0.301370   -0.842210
  S      9.116160   -1.668470   -1.049260
  C      8.165680    0.891080   -1.653310
  C      7.158220    1.813240   -1.094800
  N      7.032150    2.923150   -1.875440
  C      7.844110    2.736290   -2.874960
  C      8.601570    1.482600   -2.820570
  C      9.576010    1.078460   -3.795320
  C      9.483240    1.529450   -5.098190
  C     10.425550    1.105850   -6.049410
  C     10.535460    1.389850   -7.408900
  C      9.596040    2.214710   -8.215990
  C     10.299930    3.366220   -8.961300
  N      9.403280    4.502960   -9.032660
  C      8.795070    1.319110   -9.182900
  N      7.902750    0.473610   -8.416020
  C     11.702740    0.684950   -7.886040
  C     12.279950    0.626330   -9.101540
  C     13.493620   -0.203870   -9.352430
  C     14.020700   -0.917810   -8.152920
  C     13.447750   -0.832410   -6.937870
  C     12.286280   -0.046720   -6.751410
  C     11.503250    0.216530   -5.643380
  C     11.581030   -0.212680   -4.299430
  C     10.643470    0.205170   -3.410800
  C     13.153700   -1.144480  -10.487240
  C     12.800360   -2.419140  -10.297540
  C     12.468680   -3.339270  -11.341850
  C     12.477890   -3.118160  -12.788760
  N     12.141170   -4.160970  -13.496490
  C     11.886370   -5.148390  -12.591720
  C     12.078760   -4.652640  -11.221290
  C     11.813100   -5.701950  -10.268630
  S     11.900700   -5.592000   -8.631070
  C     11.468200   -6.837970  -11.084190
  C     11.522080   -6.469380  -12.509340
  N     11.208760   -7.536020  -13.297430
  C     10.973130   -8.521030  -12.480830
  C     11.115000   -8.169930  -11.064950
  C     10.913920   -9.057160   -9.976720
  O     11.049920   -8.622890   -8.705580
  C     10.809990   -9.639420   -7.858480
  C     10.508720  -10.772250   -8.598320
  C     10.573760  -10.404380   -9.950160
  F     10.355180  -11.184570  -11.007310
  F     10.214870  -11.974490   -8.103970
  C     10.880390   -9.460960   -6.434520
  C     11.182240   -8.299900   -5.855990
  H      5.594340   -5.778040    5.780270
  H      5.478330   -1.832960    3.452580
  H      7.635240   -2.532240    1.369960
  H      5.047490    0.307470    2.590510
  H      7.947730    3.491230   -3.634880
  H      8.669450    2.170260   -5.400510
  H      8.872620    2.676760   -7.539420
  H     10.641490    3.016790   -9.950530
  H     11.180190    3.679350   -8.392320
  H      8.581090    4.279290   -9.582530
  H      9.859780    5.301550   -9.457330
  H      9.497760    0.755440   -9.821440
  H      8.176190    1.947560   -9.829860
  H      8.432700   -0.154430   -7.820740
  H      7.316850   -0.085430   -9.024990
  H     11.881550    1.157560   -9.954050
  H     14.283260    0.467870   -9.725690
  H     14.900680   -1.521270   -8.315470
  H     13.862630   -1.361550   -6.092990
  H     12.382730   -0.866290   -3.990960
  H     10.692860   -0.109470   -2.381270
  H     13.175930   -0.713780  -11.478120
  H     12.760760   -2.823970   -9.294230
  H     12.732750   -2.196840  -13.282290
  H     10.698950   -9.491880  -12.852670
  H     10.665640  -10.350480   -5.859470
  H     11.393050   -7.422670   -6.443910
  H     11.224310   -8.201210   -4.786210

 Total Charge           Charge          ....    0
 Multiplicity           Mult            ....    1
 Number of Electrons    NEL             ....  442
 Basis Dimension        Dim             .... 1016

ORBITAL ENERGIES
----------------

  NO   OCC          E(Eh)            E(eV)
   0   2.0000     -88.897930     -2419.0356
   1   2.0000     -88.887784     -2418.7596
   2   2.0000     -24.816414      -675.2890
   3   2.0000     -24.805538      -674.9930
   4   2.0000     -24.801655      -674.8873
   5   2.0000     -24.796908      -674.7582
   6   2.0000     -19.309167      -525.4292
   7   2.0000     -19.306459      -525.3555
   8   2.0000     -14.418805      -392.3556
   9   2.0000     -14.416245      -392.2860
  10   2.0000     -14.407250      -392.0412
  11   2.0000     -14.405407      -391.9910
  12   2.0000     -14.379259      -391.2795
  13   2.0000     -14.374232      -391.1427
  14   2.0000     -10.381239      -282.4879
  15   2.0000     -10.372376      -282.2467
  16   2.0000     -10.366558      -282.0884
  17   2.0000     -10.365502      -282.0596
  18   2.0000     -10.356215      -281.8069
  19   2.0000     -10.352251      -281.6991
  20   2.0000     -10.342847      -281.4432
  21   2.0000     -10.340813      -281.3878
  22   2.0000     -10.339671      -281.3568
  23   2.0000     -10.337739      -281.3042
  24   2.0000     -10.335526      -281.2440
  25   2.0000     -10.332033      -281.1489
  26   2.0000     -10.331780      -281.1420
  27   2.0000     -10.329207      -281.0720
  28   2.0000     -10.325556      -280.9727
  29   2.0000     -10.323629      -280.9202
  30   2.0000     -10.319791      -280.8158
  31   2.0000     -10.317369      -280.7499
  32   2.0000     -10.316927      -280.7379
  33   2.0000     -10.307366      -280.4777
  34   2.0000     -10.303883      -280.3829
  35   2.0000     -10.300408      -280.2884
  36   2.0000     -10.298484      -280.2360
  37   2.0000     -10.296713      -280.1878
  38   2.0000     -10.296391      -280.1790
  39   2.0000     -10.295166      -280.1457
  40   2.0000     -10.295131      -280.1448
  41   2.0000     -10.292008      -280.0598
  42   2.0000     -10.289432      -279.9897
  43   2.0000     -10.285451      -279.8814
  44   2.0000     -10.284898      -279.8663
  45   2.0000     -10.284474      -279.8548
  46   2.0000     -10.283788      -279.8361
  47   2.0000     -10.282205      -279.7930
  48   2.0000     -10.281738      -279.7803
  49   2.0000     -10.280979      -279.7597
  50   2.0000     -10.276560      -279.6394
  51   2.0000     -10.275224      -279.6031
  52   2.0000     -10.274376      -279.5800
  53   2.0000     -10.271842      -279.5110
  54   2.0000     -10.269256      -279.4407
  55   2.0000     -10.264847      -279.3207
  56   2.0000     -10.264363      -279.3075
  57   2.0000     -10.262769      -279.2641
  58   2.0000     -10.261946      -279.2417
  59   2.0000     -10.261122      -279.2193
  60   2.0000     -10.260591      -279.2049
  61   2.0000     -10.258138      -279.1381
  62   2.0000      -7.993323      -217.5094
  63   2.0000      -7.983529      -217.2429
  64   2.0000      -5.962061      -162.2359
  65   2.0000      -5.962015      -162.2347
  66   2.0000      -5.952556      -161.9773
  67   2.0000      -5.952389      -161.9727
  68   2.0000      -5.951917      -161.9599
  69   2.0000      -5.942889      -161.7142
  70   2.0000      -1.331164       -36.2228
  71   2.0000      -1.318494       -35.8781
  72   2.0000      -1.317367       -35.8474
  73   2.0000      -1.308715       -35.6120
  74   2.0000      -1.233165       -33.5561
  75   2.0000      -1.226325       -33.3700
  76   2.0000      -1.085177       -29.5292
  77   2.0000      -1.073220       -29.2038
  78   2.0000      -1.066160       -29.0117
  79   2.0000      -1.054427       -28.6924
  80   2.0000      -0.985170       -26.8078
  81   2.0000      -0.966261       -26.2933
  82   2.0000      -0.962786       -26.1987
  83   2.0000      -0.952315       -25.9138
  84   2.0000      -0.951355       -25.8877
  85   2.0000      -0.948180       -25.8013
  86   2.0000      -0.925631       -25.1877
  87   2.0000      -0.922205       -25.0945
  88   2.0000      -0.921372       -25.0718
  89   2.0000      -0.919567       -25.0227
  90   2.0000      -0.907472       -24.6936
  91   2.0000      -0.898858       -24.4592
  92   2.0000      -0.882245       -24.0071
  93   2.0000      -0.874566       -23.7982
  94   2.0000      -0.874094       -23.7853
  95   2.0000      -0.863589       -23.4994
  96   2.0000      -0.851152       -23.1610
  97   2.0000      -0.841986       -22.9116
  98   2.0000      -0.836693       -22.7676
  99   2.0000      -0.832116       -22.6430
 100   2.0000      -0.826547       -22.4915
 101   2.0000      -0.818885       -22.2830
 102   2.0000      -0.813818       -22.1451
 103   2.0000      -0.795567       -21.6485
 104   2.0000      -0.776760       -21.1367
 105   2.0000      -0.767177       -20.8759
 106   2.0000      -0.755381       -20.5550
 107   2.0000      -0.748223       -20.3602
 108   2.0000      -0.741113       -20.1667
 109   2.0000      -0.730018       -19.8648
 110   2.0000      -0.726443       -19.7675
 111   2.0000      -0.725324       -19.7371
 112   2.0000      -0.722628       -19.6637
 113   2.0000      -0.717410       -19.5217
 114   2.0000      -0.706390       -19.2219
 115   2.0000      -0.701410       -19.0863
 116   2.0000      -0.694716       -18.9042
 117   2.0000      -0.694618       -18.9015
 118   2.0000      -0.688251       -18.7283
 119   2.0000      -0.687026       -18.6949
 120   2.0000      -0.670654       -18.2494
 121   2.0000      -0.666119       -18.1260
 122   2.0000      -0.661857       -18.0100
 123   2.0000      -0.660550       -17.9745
 124   2.0000      -0.647245       -17.6124
 125   2.0000      -0.641782       -17.4638
 126   2.0000      -0.637749       -17.3540
 127   2.0000      -0.630565       -17.1586
 128   2.0000      -0.629731       -17.1359
 129   2.0000      -0.620454       -16.8834
 130   2.0000      -0.616602       -16.7786
 131   2.0000      -0.612168       -16.6579
 132   2.0000      -0.606702       -16.5092
 133   2.0000      -0.603968       -16.4348
 134   2.0000      -0.595351       -16.2003
 135   2.0000      -0.593426       -16.1479
 136   2.0000      -0.589729       -16.0473
 137   2.0000      -0.585239       -15.9252
 138   2.0000      -0.578573       -15.7438
 139   2.0000      -0.575659       -15.6645
 140   2.0000      -0.571754       -15.5582
 141   2.0000      -0.569091       -15.4857
 142   2.0000      -0.562346       -15.3022
 143   2.0000      -0.560796       -15.2600
 144   2.0000      -0.559938       -15.2367
 145   2.0000      -0.559603       -15.2276
 146   2.0000      -0.552902       -15.0452
 147   2.0000      -0.551992       -15.0205
 148   2.0000      -0.551658       -15.0114
 149   2.0000      -0.548085       -14.9142
 150   2.0000      -0.547738       -14.9047
 151   2.0000      -0.543128       -14.7793
 152   2.0000      -0.539955       -14.6929
 153   2.0000      -0.539043       -14.6681
 154   2.0000      -0.533068       -14.5055
 155   2.0000      -0.532713       -14.4959
 156   2.0000      -0.526749       -14.3336
 157   2.0000      -0.524314       -14.2673
 158   2.0000      -0.522652       -14.2221
 159   2.0000      -0.521129       -14.1806
 160   2.0000      -0.519679       -14.1412
 161   2.0000      -0.517576       -14.0839
 162   2.0000      -0.514855       -14.0099
 163   2.0000      -0.512367       -13.9422
 164   2.0000      -0.510399       -13.8887
 165   2.0000      -0.507365       -13.8061
 166   2.0000      -0.505050       -13.7431
 167   2.0000      -0.499024       -13.5791
 168   2.0000      -0.494975       -13.4689
 169   2.0000      -0.493411       -13.4264
 170   2.0000      -0.492550       -13.4030
 171   2.0000      -0.490818       -13.3558
 172   2.0000      -0.489421       -13.3178
 173   2.0000      -0.485110       -13.2005
 174   2.0000      -0.480983       -13.0882
 175   2.0000      -0.476926       -12.9778
 176   2.0000      -0.474613       -12.9149
 177   2.0000      -0.471882       -12.8406
 178   2.0000      -0.463978       -12.6255
 179   2.0000      -0.463309       -12.6073
 180   2.0000      -0.459976       -12.5166
 181   2.0000      -0.454660       -12.3719
 182   2.0000      -0.447192       -12.1687
 183   2.0000      -0.439824       -11.9682
 184   2.0000      -0.437919       -11.9164
 185   2.0000      -0.435897       -11.8614
 186   2.0000      -0.432944       -11.7810
 187   2.0000      -0.429980       -11.7004
 188   2.0000      -0.427811       -11.6413
 189   2.0000      -0.424517       -11.5517
 190   2.0000      -0.420087       -11.4312
 191   2.0000      -0.414309       -11.2739
 192   2.0000      -0.411834       -11.2066
 193   2.0000      -0.408696       -11.1212
 194   2.0000      -0.406877       -11.0717
 195   2.0000      -0.405052       -11.0220
 196   2.0000      -0.398257       -10.8371
 197   2.0000      -0.392261       -10.6740
 198   2.0000      -0.385910       -10.5012
 199   2.0000      -0.369947       -10.0668
 200   2.0000      -0.365967        -9.9585
 201   2.0000      -0.358704        -9.7608
 202   2.0000      -0.354017        -9.6333
 203   2.0000      -0.349866        -9.5203
 204   2.0000      -0.346782        -9.4364
 205   2.0000      -0.345088        -9.3903
 206   2.0000      -0.342502        -9.3200
 207   2.0000      -0.341561        -9.2943
 208   2.0000      -0.334463        -9.1012
 209   2.0000      -0.328189        -8.9305
 210   2.0000      -0.317363        -8.6359
 211   2.0000      -0.306474        -8.3396
 212   2.0000      -0.304879        -8.2962
 213   2.0000      -0.297539        -8.0965
 214   2.0000      -0.294397        -8.0110
 215   2.0000      -0.284549        -7.7430
 216   2.0000      -0.283450        -7.7131
 217   2.0000      -0.273852        -7.4519
 218   2.0000      -0.267966        -7.2917
 219   2.0000      -0.261094        -7.1047
 220   2.0000      -0.220734        -6.0065
 221   0.0000      -0.112975        -3.0742
 222   0.0000      -0.102378        -2.7858
 223   0.0000      -0.081819        -2.2264
 224   0.0000      -0.077159        -2.0996
 225   0.0000      -0.058107        -1.5812

MULLIKEN ATOMIC CHARGES
-----------------------
   0 C :    0.059245
   1 O :   -0.183072
   2 C :    0.097796
   3 C :    0.129941
   4 C :    0.216033
   5 F :   -0.168361
   6 F :   -0.157437
   7 C :    0.022342
   8 C :   -0.029475
   9 C :   -0.002016
  10 C :    0.049949
  11 N :   -0.025594
  12 C :    0.019701
  13 C :   -0.002663
  14 C :   -0.006021
  15 S :   -0.132229
  16 C :   -0.015801
  17 C :   -0.015589
  18 N :   -0.023448
  19 C :    0.050135
  20 C :    0.000831
  21 C :    0.072952
  22 C :   -0.101160
  23 C :    0.053642
  24 C :   -0.074009
  25 C :   -0.026555
  26 C :    0.130980
  27 N :   -0.211307
  28 C :    0.156581
  29 N :   -0.226447
  30 C :    0.094602
  31 C :   -0.108560
  32 C :    0.178494
  33 C :   -0.060528
  34 C :    0.025225
  35 C :    0.006470
  36 C :    0.044200
  37 C :   -0.013889
  38 C :    0.024699
  39 C :   -0.103912
  40 C :    0.023521
  41 C :    0.004359
  42 C :    0.053996
  43 N :   -0.030462
  44 C :    0.015765
  45 C :   -0.006922
  46 C :   -0.013833
  47 S :   -0.116919
  48 C :   -0.005261
  49 C :   -0.000509
  50 N :   -0.022218
  51 C :    0.061566
  52 C :   -0.001840
  53 C :    0.056582
  54 O :   -0.167392
  55 C :    0.086320
  56 C :    0.166573
  57 C :    0.151433
  58 F :   -0.161322
  59 F :   -0.163630
  60 C :   -0.032110
  61 C :    0.018302
  62 H :    0.023040
  63 H :   -0.003419
  64 H :    0.006647
  65 H :    0.005612
  66 H :    0.013859
  67 H :   -0.025941
  68 H :   -0.011191
  69 H :   -0.023323
  70 H :    0.002441
  71 H :    0.087888
  72 H :    0.090967
  73 H :   -0.026114
  74 H :   -0.018786
  75 H :    0.101997
  76 H :    0.092148
  77 H :   -0.012947
  78 H :    0.034562
  79 H :   -0.007836
  80 H :   -0.033165
  81 H :   -0.037155
  82 H :   -0.028592
  83 H :   -0.002515
  84 H :    0.012261
  85 H :    0.003704
  86 H :    0.014267
  87 H :    0.006365
  88 H :    0.040519
  89 H :    0.032963
Sum of atomic charges:   -0.0000000

LOEWDIN ATOMIC CHARGES
----------------------
   0 C :    0.011331
   1 O :    0.027489
   2 C :   -0.008795
   3 C :    0.022716
   4 C :    0.010723
   5 F :   -0.045105
   6 F :   -0.033080
   7 C :   -0.022022
   8 C :   -0.012037
   9 C :   -0.039061
  10 C :    0.081130
  11 N :   -0.079613
  12 C :    0.029336
  13 C :   -0.039405
  14 C :   -0.136491
  15 S :    0.052918
  16 C :   -0.050735
  17 C :    0.038720
  18 N :   -0.080448
  19 C :    0.087266
  20 C :   -0.019188
  21 C :   -0.030078
  22 C :    0.006441
  23 C :   -0.023489
  24 C :   -0.027592
  25 C :   -0.039656
  26 C :    0.025942
  27 N :   -0.114773
  28 C :    0.026871
  29 N :   -0.117176
  30 C :   -0.018812
  31 C :    0.067881
  32 C :   -0.030330
  33 C :   -0.036016
  34 C :   -0.011943
  35 C :   -0.040345
  36 C :   -0.026612
  37 C :   -0.010933
  38 C :   -0.014841
  39 C :    0.005222
  40 C :   -0.018546
  41 C :   -0.035159
  42 C :    0.085294
  43 N :   -0.081819
  44 C :    0.033725
  45 C :   -0.037175
  46 C :   -0.143144
  47 S :    0.060078
  48 C :   -0.042369
  49 C :    0.037685
  50 N :   -0.076132
  51 C :    0.090535
  52 C :   -0.049044
  53 C :   -0.005259
  54 O :    0.044841
  55 C :    0.020805
  56 C :    0.012805
  57 C :    0.030046
  58 F :   -0.037208
  59 F :   -0.043571
  60 C :   -0.047037
  61 C :   -0.005116
  62 H :    0.030684
  63 H :    0.036303
  64 H :    0.029931
  65 H :    0.021978
  66 H :    0.026213
  67 H :    0.028286
  68 H :    0.030959
  69 H :   -0.006407
  70 H :    0.020504
  71 H :    0.049697
  72 H :    0.054550
  73 H :   -0.005116
  74 H :    0.010417
  75 H :    0.054561
  76 H :    0.055046
  77 H :    0.024138
  78 H :    0.059303
  79 H :    0.025897
  80 H :    0.031784
  81 H :    0.028074
  82 H :    0.015398
  83 H :    0.021502
  84 H :    0.033689
  85 H :    0.022273
  86 H :    0.026104
  87 H :    0.040857
  88 H :    0.022720
  89 H :    0.031012

  Mayer bond orders larger than 0.100000
B(  0-C ,  1-O ) :   1.1337 B(  0-C ,  2-C ) :   0.1164 B(  0-C ,  4-C ) :   1.4844
B(  0-C , 62-H ) :   1.0083 B(  1-O ,  2-C ) :   1.1381 B(  2-C ,  3-C ) :   1.3964
B(  2-C ,  7-C ) :   1.1166 B(  3-C ,  4-C ) :   1.2095 B(  3-C ,  6-F ) :   1.1504
B(  4-C ,  5-F ) :   1.1429 B(  7-C ,  8-C ) :   1.6441 B(  7-C , 63-H ) :   0.9662
B(  8-C ,  9-C ) :   1.1197 B(  8-C , 64-H ) :   0.9684 B(  9-C , 10-C ) :   1.0128
B(  9-C , 13-C ) :   1.4999 B( 10-C , 11-N ) :   1.7361 B( 10-C , 65-H ) :   0.9890
B( 11-N , 12-C ) :   1.2611 B( 12-C , 13-C ) :   1.0706 B( 12-C , 17-C ) :   1.5193
B( 13-C , 14-C ) :   1.0393 B( 14-C , 15-S ) :   1.6849 B( 14-C , 16-C ) :   1.0323
B( 16-C , 17-C ) :   1.0726 B( 16-C , 20-C ) :   1.5296 B( 17-C , 18-N ) :   1.2670
B( 18-N , 19-C ) :   1.7214 B( 19-C , 20-C ) :   1.0395 B( 19-C , 66-H ) :   0.9863
B( 20-C , 21-C ) :   1.0172 B( 21-C , 22-C ) :   1.4874 B( 21-C , 38-C ) :   1.1429
B( 22-C , 23-C ) :   1.1505 B( 22-C , 67-H ) :   0.9942 B( 23-C , 24-C ) :   1.4809
B( 23-C , 36-C ) :   1.1092 B( 24-C , 25-C ) :   1.0538 B( 24-C , 30-C ) :   1.0719
B( 25-C , 26-C ) :   1.0251 B( 25-C , 28-C ) :   1.0334 B( 25-C , 68-H ) :   0.8724
B( 26-C , 27-N ) :   1.1061 B( 26-C , 69-H ) :   0.9241 B( 26-C , 70-H ) :   0.9466
B( 27-N , 71-H ) :   0.9701 B( 27-N , 72-H ) :   0.9674 B( 28-C , 29-N ) :   1.0952
B( 28-C , 73-H ) :   0.9293 B( 28-C , 74-H ) :   0.9332 B( 29-N , 75-H ) :   0.9692
B( 29-N , 76-H ) :   0.9666 B( 30-C , 31-C ) :   1.6854 B( 30-C , 35-C ) :   1.0501
B( 31-C , 32-C ) :   0.9665 B( 31-C , 77-H ) :   0.9562 B( 32-C , 33-C ) :   1.0017
B( 32-C , 39-C ) :   0.9499 B( 32-C , 78-H ) :   0.8554 B( 33-C , 34-C ) :   1.7102
B( 33-C , 79-H ) :   0.9751 B( 34-C , 35-C ) :   1.1262 B( 34-C , 80-H ) :   0.9931
B( 35-C , 36-C ) :   1.4420 B( 36-C , 37-C ) :   1.1346 B( 37-C , 38-C ) :   1.6134
B( 37-C , 81-H ) :   0.9947 B( 38-C , 82-H ) :   0.9677 B( 39-C , 40-C ) :   1.7980
B( 39-C , 83-H ) :   0.9708 B( 40-C , 41-C ) :   1.0810 B( 40-C , 84-H ) :   0.9537
B( 41-C , 42-C ) :   1.0112 B( 41-C , 45-C ) :   1.5385 B( 42-C , 43-N ) :   1.7279
B( 42-C , 85-H ) :   0.9903 B( 43-N , 44-C ) :   1.2622 B( 44-C , 45-C ) :   1.0686
B( 44-C , 49-C ) :   1.5148 B( 45-C , 46-C ) :   1.0241 B( 46-C , 47-S ) :   1.7201
B( 46-C , 48-C ) :   1.0291 B( 48-C , 49-C ) :   1.0704 B( 48-C , 52-C ) :   1.5082
B( 49-C , 50-N ) :   1.2616 B( 50-N , 51-C ) :   1.7288 B( 51-C , 52-C ) :   1.0405
B( 51-C , 86-H ) :   0.9876 B( 52-C , 53-C ) :   1.0683 B( 53-C , 54-O ) :   1.1803
B( 53-C , 55-C ) :   0.1338 B( 53-C , 57-C ) :   1.3550 B( 54-O , 55-C ) :   1.1500
B( 55-C , 56-C ) :   1.3716 B( 55-C , 60-C ) :   1.1180 B( 56-C , 57-C ) :   1.2169
B( 56-C , 59-F ) :   1.1764 B( 57-C , 58-F ) :   1.1538 B( 60-C , 61-C ) :   1.9107
B( 60-C , 87-H ) :   0.9586 B( 61-C , 88-H ) :   0.9480 B( 61-C , 89-H ) :   0.9471

-----------------------------------------------------------------------------
         ABSORPTION SPECTRUM VIA TRANSITION ELECTRIC DIPOLE MOMENTS
-----------------------------------------------------------------------------
State   Energy  Wavelength   fosc         T2         TX        TY        TZ
        (cm-1)    (nm)                  (au**2)     (au)      (au)      (au)
-----------------------------------------------------------------------------
   0   10447.6    957.2   0.073377408   2.31218  -0.29397   0.10138   1.48845
   1   11361.3    880.2   0.058128411   1.68436  -0.53719  -0.63557   0.99591
   2   13989.6    714.8   0.047567761   1.11939   0.85793  -0.54276  -0.29793
   3   15464.1    646.7   0.000038431   0.00082  -0.02217   0.00852   0.01594
   4   15868.0    630.2   0.106817816   2.21614  -0.25783  -1.38993   0.46664
   5   16227.5    616.2   0.049436830   1.00294  -0.36713  -0.40775   0.83779
   6   16781.6    595.9   0.008834728   0.17331  -0.15760  -0.34107   0.17930
   7   17187.8    581.8   0.124189382   2.37871  -0.33147  -0.96672   1.15511
   8   17750.3    563.4   0.054436541   1.00963  -0.71294   0.42394   0.56711
   9   18090.3    552.8   0.000007766   0.00014  -0.00975   0.00375   0.00568
  10   18813.8    531.5   0.108852994   1.90476  -0.82032   0.24499   1.08251
  11   19296.3    518.2   0.012486354   0.21303  -0.10353  -0.28998  -0.34383
  12   20850.3    479.6   0.015790294   0.24932  -0.16422   0.12924   0.45348
  13   22683.0    440.9   0.180697868   2.62258   0.28554   1.41940  -0.72550
  14   23644.5    422.9   0.392339076   5.46270   0.55269   1.45910  -1.74019
  15   24424.0    409.4   0.087403044   1.17811  -0.36052   0.14090   1.01404
  16   24961.7    400.6   0.298108102   3.93165  -0.56087  -0.29730   1.87848
  17   25243.9    396.1   0.344346256   4.49070  -0.50872  -1.72711   1.11759
  18   25665.6    389.6   0.001870786   0.02400  -0.14715   0.04384   0.02053
  19   25967.9    385.1   0.020448743   0.25924   0.15100  -0.02898  -0.48539
  20   26246.9    381.0   0.116649459   1.46312  -0.44155  -0.23438   1.10146
  21   26313.0    380.0   0.040951062   0.51236   0.06205  -0.38400  -0.60087
  22   26506.1    377.3   0.001407897   0.01749   0.13165   0.00481  -0.01143
  23   26602.8    375.9   0.129378802   1.60108   0.36636   0.77405  -0.93151
  24   27031.7    369.9   0.194180670   2.36488  -0.67576   0.48033   1.29518
  25   27239.3    367.1   0.007229772   0.08738  -0.01628  -0.01980   0.29448
  26   27614.3    362.1   0.072613511   0.86568  -0.37360  -0.51242   0.68084
  27   28224.1    354.3   0.038051147   0.44384   0.34212   0.10273  -0.56235
  28   28698.8    348.4   0.370317607   4.24801   0.60347   1.88008  -0.59086
  29   29420.8    339.9   0.000777939   0.00870  -0.00732  -0.09234   0.01120
  30   29583.2    338.0   0.002611305   0.02906  -0.02540  -0.12277  -0.11550
  31   29671.5    337.0   0.012235380   0.13575  -0.10896  -0.23183   0.26484
  32   30143.7    331.7   0.031482385   0.34383  -0.31294  -0.03318   0.49478
  33   30647.4    326.3   0.011101740   0.11925   0.18794  -0.01521  -0.28931
  34   30875.7    323.9   0.005556462   0.05925   0.23695   0.05329   0.01622
  35   31201.5    320.5   0.003697112   0.03901   0.15106  -0.04140  -0.12032
  36   31394.6    318.5   0.001192945   0.01251  -0.09678   0.04003   0.03925
  37   31521.2    317.2   0.017404907   0.18178  -0.03801  -0.37809  -0.19334
  38   31840.8    314.1   0.008035059   0.08308  -0.05177   0.28321  -0.01375
  39   32415.8    308.5   0.000056022   0.00057   0.02194   0.00935  -0.00011
  40   32589.9    306.8   0.093383134   0.94332  -0.34965  -0.90415  -0.05991
  41   32669.0    306.1   0.052952821   0.53362  -0.26808  -0.66547   0.13747
  42   32766.5    305.2   0.138762150   1.39417   0.10385  -1.01395  -0.59606
  43   33266.7    300.6   0.008534720   0.08446   0.06276  -0.16666  -0.22967
  44   33630.6    297.3   0.104812568   1.02602  -0.60466  -0.36686   0.72514
  45   33671.1    297.0   0.034826284   0.34051   0.06084   0.56133   0.14736
  46   33991.3    294.2   0.024714550   0.23936   0.11966  -0.44430   0.16625
  47   34174.8    292.6   0.004279688   0.04123  -0.01177  -0.07900   0.18668
  48   34365.6    291.0   0.063444661   0.60778   0.00703  -0.77883  -0.03402
  49   34475.2    290.1   0.017980024   0.17170  -0.09278  -0.39539   0.08218
  50   34824.7    287.2   0.038068946   0.35988  -0.06679   0.54245   0.24732
  51   34887.0    286.6   0.193543781   1.82638  -0.83953  -0.14019   1.04972
  52   35378.2    282.7   0.140841748   1.31060   0.33091   0.62445  -0.90064
  53   35568.5    281.1   0.011792278   0.10915   0.06516   0.13829  -0.29287
  54   35902.2    278.5   0.004577799   0.04198   0.00650  -0.14346   0.14613
  55   36203.0    276.2   0.078215902   0.71126   0.56080  -0.03209  -0.62907
  56   36239.6    275.9   0.002707030   0.02459   0.09174  -0.04525   0.11886
  57   36524.4    273.8   0.041219579   0.37153  -0.10686  -0.27623   0.53274
  58   36613.6    273.1   0.011835357   0.10642  -0.10035  -0.12279   0.28508
  59   36690.5    272.6   0.226183178   2.02947   0.81693   0.22498  -1.14520
  60   37009.4    270.2   0.003167883   0.02818   0.12169   0.02707  -0.11242
  61   37057.6    269.9   0.131702103   1.17001   0.50291   0.07741  -0.95452
  62   37193.0    268.9   0.059992450   0.53102   0.10467   0.48595   0.53284
  63   37516.2    266.6   0.047956341   0.42083  -0.12984  -0.59633   0.21989
  64   37757.2    264.9   0.198090580   1.72719  -0.88370   0.64578   0.72749
  65   38157.9    262.1   0.036111045   0.31155   0.07765   0.48730  -0.26088
  66   38172.5    262.0   0.030175606   0.26024  -0.15887  -0.35990   0.32477
  67   38558.1    259.3   0.171655316   1.46561  -0.09425   1.12829  -0.42859
  68   38725.0    258.2   0.049101855   0.41743   0.29850  -0.08961  -0.56595
  69   38778.2    257.9   0.002984009   0.02533  -0.01922  -0.00256   0.15798
  70   38976.1    256.6   0.026062873   0.22014  -0.16558   0.42415  -0.11323
  71   39325.0    254.3   0.068396239   0.57258   0.21584  -0.69012   0.22299
  72   39435.0    253.6   0.073839264   0.61643  -0.47427  -0.15291   0.60672
  73   39601.1    252.5   0.059200893   0.49215  -0.12687  -0.51951   0.45405
  74   39906.9    250.6   0.075164572   0.62007  -0.09922  -0.48548   0.61199
  75   40022.4    249.9   0.192204480   1.58101  -0.43462   1.16936  -0.15722
  76   40190.1    248.8   0.023298534   0.19085   0.17801  -0.39468  -0.05816

FINAL SINGLE POINT ENERGY     -3516.746297690276

DIPOLE MOMENT
-------------
                                X             Y             Z
Electronic contribution:     -9.80740     -75.56871      35.18234
Nuclear contribution   :     10.53963      75.38455     -35.77630
                        -----------------------------------------
Total Dipole Moment    :      0.73224      -0.18416      -0.59396
                        -----------------------------------------
Magnitude (a.u.)       :      0.96067
Magnitude (Debye)      :      2.44182

Rotational constants in cm-1:     0.001103     0.000543     0.000384
Rotational constants in MHz :    33.075242    16.280486    11.513744

                             ****ORCA TERMINATED NORMALLY****
TOTAL RUN TIME: 0 days 0 hours 7 minutes 29 seconds 401 msec
