                         Program Version 4.2.0 -  RELEASE  -
|  1> # ORCA input file
|  2> # SCF done       -190.370615309723          0.000921196746
|  3> ! CAM-B3LYP def2-SVP def2/J RIJCOSX Grid4 TightSCF
|  4> %maxcore 5000
|  5> %tddft
|  6>     Mode sTDDFT
|  7>     Ethresh 5.0
|  8>     maxcore 5000
|  9> end
| 10>
| 11> %pal
| 12>   nprocs 6
| 13>   end
| 14> * xyz 0 1
| 15>    C        8.26704        -2.77599         0.24762
| 16>    O        7.28263        -3.67188         0.30782
| 17>    C        7.65274        -4.75188        -0.42985
| 18>    C        8.89665        -4.52965        -0.96978
| 19>    C        9.30205        -3.24246        -0.52943
| 20>    C       10.58281        -2.60609        -0.89281
| 21>    O       11.35179        -3.08544        -1.67777
| 22>    O       10.85664        -1.43069        -0.29088
| 23>    C        6.74577        -5.85910        -0.50067
| 24>    C        6.96912        -6.97123        -1.22420
| 25>    C        6.04290        -8.06238        -1.36781
| 26>    C        5.79829        -8.65879        -2.56794
| 27>    C        4.66343        -9.54572        -2.42943
| 28>    C        4.07897       -10.26664        -3.47777
| 29>    N        3.60220       -10.86406        -4.33488
| 30>    C        4.25453        -9.53802        -1.12459
| 31>    C        5.14898        -8.69747        -0.37090
| 32>    C        5.27659        -8.68430         0.99670
| 33>    C        4.44242        -9.43153         1.97529
| 34>    C        4.70022        -8.90669         3.20962
| 35>    C        5.75607        -7.93056         3.08794
| 36>    C        6.13431        -7.83535         1.77451
| 37>    C        6.31141        -7.22194         4.16114
| 38>    N        6.75683        -6.63355         5.04072
| 39>    C        3.64072       -10.58296         1.70606
| 40>    C        2.62048       -11.00489         2.48691
| 41>    C        1.84225       -12.19885         2.30129
| 42>    C        0.85635       -12.50034         3.22656
| 43>    C        0.08197       -13.66331         3.09454
| 44>    C       -0.95299       -14.17624         3.88342
| 45>    C       -1.47655       -13.48584         5.10239
| 46>    C       -2.51712       -12.41228         4.70190
| 47>    N       -3.67198       -12.99579         4.03810
| 48>    C       -1.97613       -14.37902         6.25142
| 49>    N       -3.27200       -15.00956         6.02411
| 50>    C       -1.37638       -15.40348         3.25535
| 51>    C       -2.33657       -16.29287         3.58659
| 52>    C       -2.57726       -17.51279         2.77778
| 53>    C       -1.71341       -17.64720         1.56238
| 54>    C       -0.75798       -16.75234         1.24759
| 55>    C       -0.55132       -15.61359         2.06077
| 56>    C        0.32780       -14.54842         1.97028
| 57>    C        1.32951       -14.22031         1.03265
| 58>    C        2.05655       -13.08459         1.19678
| 59>    C       -2.40670       -18.77463         3.59622
| 60>    C       -1.72777       -18.83831         4.73800
| 61>    C       -1.48555       -20.08332         5.44127
| 62>    C       -1.09977       -21.23647         4.83978
| 63>    C       -0.85179       -22.24106         5.86064
| 64>    C       -0.38515       -23.53494         5.60263
| 65>    N       -0.01451       -24.59980         5.38341
| 66>    C       -1.13127       -21.70128         7.08255
| 67>    C       -1.59317       -20.34738         6.89121
| 68>    C       -2.12533       -19.52426         7.85293
| 69>    C       -2.37033       -19.85173         9.27971
| 70>    C       -2.65721       -18.68207         9.92482
| 71>    C       -2.68559       -17.61410         8.95392
| 72>    C       -2.41512       -18.12424         7.71078
| 73>    C       -2.97544       -16.27505         9.23926
| 74>    N       -3.21717       -15.17162         9.44935
| 75>    C       -2.44011       -21.15744         9.85143
| 76>    C       -2.36891       -21.41736        11.17790
| 77>    C       -2.47909       -22.73009        11.71175
| 78>    O       -2.61027       -23.79724        10.90142
| 79>    C       -2.67508       -24.91215        11.66788
| 80>    C       -2.58528       -24.56627        12.99650
| 81>    C       -2.45651       -23.15713        13.04271
| 82>    C       -2.33361       -22.27946        14.21471
| 83>    O       -2.28336       -21.07869        14.15065
| 84>    O       -2.27955       -22.89923        15.40931
| 85>    C       -2.81023       -26.17950        11.00047
| 86>    C       -2.89005       -27.35972        11.60946
| 87>    H        8.10886        -1.85774         0.78243
| 88>    H        9.47290        -5.17658        -1.59638
| 89>    H       10.17653        -1.15697         0.33550
| 90>    H        5.83077        -5.73783         0.06303
| 91>    H        7.84777        -7.01874        -1.85407
| 92>    H        6.29777        -8.45816        -3.49741
| 93>    H        3.39792       -10.05306        -0.73928
| 94>    H        4.27804        -9.21662         4.14684
| 95>    H        6.92756        -7.22409         1.39596
| 96>    H        3.93905       -11.17333         0.85303
| 97>    H        2.33526       -10.39354         3.33388
| 98>    H        0.69244       -11.83431         4.06249
| 99>    H       -0.63051       -12.92805         5.52362
|100>    H       -2.00201       -11.66337         4.07739
|101>    H       -2.87127       -11.91155         5.60815
|102>    H       -3.38523       -13.45394         3.17902
|103>    H       -4.34508       -12.27463         3.80355
|104>    H       -1.99179       -13.75002         7.15415
|105>    H       -1.23603       -15.17089         6.42517
|106>    H       -3.87878       -14.34115         5.55203
|107>    H       -3.69119       -15.23522         6.92040
|108>    H       -2.95185       -16.13257         4.46666
|109>    H       -3.63067       -17.48868         2.45528
|110>    H       -1.87997       -18.52279         0.95333
|111>    H       -0.14445       -16.88663         0.36844
|112>    H        1.50898       -14.87359         0.19168
|113>    H        2.81884       -12.84158         0.47376
|114>    H       -2.85069       -19.66582         3.17483
|115>    H       -1.28102       -17.94348         5.14942
|116>    H       -0.93504       -21.39304         3.79014
|117>    H       -0.97452       -22.18508         8.02534
|118>    H       -2.89409       -18.55770        10.96401
|119>    H       -2.39762       -17.55816         6.80264
|120>    H       -2.61692       -21.98537         9.17988
|121>    H       -2.20513       -20.64020        11.90778
|122>    H       -2.61570       -25.25830        13.81518
|123>    H       -2.32255       -23.86030        15.32738
|124>    H       -2.83998       -26.11201         9.92168
|125>    H       -2.85950       -27.45616        12.68100
|126>    H       -2.98513       -28.27097        11.04706
|127> *
|128>
|129>                          ****END OF INPUT****

CARTESIAN COORDINATES (ANGSTROEM)
---------------------------------
  C      8.267040   -2.775990    0.247620
  O      7.282630   -3.671880    0.307820
  C      7.652740   -4.751880   -0.429850
  C      8.896650   -4.529650   -0.969780
  C      9.302050   -3.242460   -0.529430
  C     10.582810   -2.606090   -0.892810
  O     11.351790   -3.085440   -1.677770
  O     10.856640   -1.430690   -0.290880
  C      6.745770   -5.859100   -0.500670
  C      6.969120   -6.971230   -1.224200
  C      6.042900   -8.062380   -1.367810
  C      5.798290   -8.658790   -2.567940
  C      4.663430   -9.545720   -2.429430
  C      4.078970  -10.266640   -3.477770
  N      3.602200  -10.864060   -4.334880
  C      4.254530   -9.538020   -1.124590
  C      5.148980   -8.697470   -0.370900
  C      5.276590   -8.684300    0.996700
  C      4.442420   -9.431530    1.975290
  C      4.700220   -8.906690    3.209620
  C      5.756070   -7.930560    3.087940
  C      6.134310   -7.835350    1.774510
  C      6.311410   -7.221940    4.161140
  N      6.756830   -6.633550    5.040720
  C      3.640720  -10.582960    1.706060
  C      2.620480  -11.004890    2.486910
  C      1.842250  -12.198850    2.301290
  C      0.856350  -12.500340    3.226560
  C      0.081970  -13.663310    3.094540
  C     -0.952990  -14.176240    3.883420
  C     -1.476550  -13.485840    5.102390
  C     -2.517120  -12.412280    4.701900
  N     -3.671980  -12.995790    4.038100
  C     -1.976130  -14.379020    6.251420
  N     -3.272000  -15.009560    6.024110
  C     -1.376380  -15.403480    3.255350
  C     -2.336570  -16.292870    3.586590
  C     -2.577260  -17.512790    2.777780
  C     -1.713410  -17.647200    1.562380
  C     -0.757980  -16.752340    1.247590
  C     -0.551320  -15.613590    2.060770
  C      0.327800  -14.548420    1.970280
  C      1.329510  -14.220310    1.032650
  C      2.056550  -13.084590    1.196780
  C     -2.406700  -18.774630    3.596220
  C     -1.727770  -18.838310    4.738000
  C     -1.485550  -20.083320    5.441270
  C     -1.099770  -21.236470    4.839780
  C     -0.851790  -22.241060    5.860640
  C     -0.385150  -23.534940    5.602630
  N     -0.014510  -24.599800    5.383410
  C     -1.131270  -21.701280    7.082550
  C     -1.593170  -20.347380    6.891210
  C     -2.125330  -19.524260    7.852930
  C     -2.370330  -19.851730    9.279710
  C     -2.657210  -18.682070    9.924820
  C     -2.685590  -17.614100    8.953920
  C     -2.415120  -18.124240    7.710780
  C     -2.975440  -16.275050    9.239260
  N     -3.217170  -15.171620    9.449350
  C     -2.440110  -21.157440    9.851430
  C     -2.368910  -21.417360   11.177900
  C     -2.479090  -22.730090   11.711750
  O     -2.610270  -23.797240   10.901420
  C     -2.675080  -24.912150   11.667880
  C     -2.585280  -24.566270   12.996500
  C     -2.456510  -23.157130   13.042710
  C     -2.333610  -22.279460   14.214710
  O     -2.283360  -21.078690   14.150650
  O     -2.279550  -22.899230   15.409310
  C     -2.810230  -26.179500   11.000470
  C     -2.890050  -27.359720   11.609460
  H      8.108860   -1.857740    0.782430
  H      9.472900   -5.176580   -1.596380
  H     10.176530   -1.156970    0.335500
  H      5.830770   -5.737830    0.063030
  H      7.847770   -7.018740   -1.854070
  H      6.297770   -8.458160   -3.497410
  H      3.397920  -10.053060   -0.739280
  H      4.278040   -9.216620    4.146840
  H      6.927560   -7.224090    1.395960
  H      3.939050  -11.173330    0.853030
  H      2.335260  -10.393540    3.333880
  H      0.692440  -11.834310    4.062490
  H     -0.630510  -12.928050    5.523620
  H     -2.002010  -11.663370    4.077390
  H     -2.871270  -11.911550    5.608150
  H     -3.385230  -13.453940    3.179020
  H     -4.345080  -12.274630    3.803550
  H     -1.991790  -13.750020    7.154150
  H     -1.236030  -15.170890    6.425170
  H     -3.878780  -14.341150    5.552030
  H     -3.691190  -15.235220    6.920400
  H     -2.951850  -16.132570    4.466660
  H     -3.630670  -17.488680    2.455280
  H     -1.879970  -18.522790    0.953330
  H     -0.144450  -16.886630    0.368440
  H      1.508980  -14.873590    0.191680
  H      2.818840  -12.841580    0.473760
  H     -2.850690  -19.665820    3.174830
  H     -1.281020  -17.943480    5.149420
  H     -0.935040  -21.393040    3.790140
  H     -0.974520  -22.185080    8.025340
  H     -2.894090  -18.557700   10.964010
  H     -2.397620  -17.558160    6.802640
  H     -2.616920  -21.985370    9.179880
  H     -2.205130  -20.640200   11.907780
  H     -2.615700  -25.258300   13.815180
  H     -2.322550  -23.860300   15.327380
  H     -2.839980  -26.112010    9.921680
  H     -2.859500  -27.456160   12.681000
  H     -2.985130  -28.270970   11.047060

 Total Charge           Charge          ....    0
 Multiplicity           Mult            ....    1
 Number of Electrons    NEL             ....  490
 Basis Dimension        Dim             .... 1208

ORBITAL ENERGIES
----------------

  NO   OCC          E(Eh)            E(eV)
   0   2.0000     -19.312349      -525.5157
   1   2.0000     -19.311733      -525.4990
   2   2.0000     -19.263319      -524.1816
   3   2.0000     -19.259825      -524.0865
   4   2.0000     -19.201153      -522.4899
   5   2.0000     -19.197533      -522.3914
   6   2.0000     -14.421432      -392.4271
   7   2.0000     -14.416284      -392.2870
   8   2.0000     -14.412163      -392.1749
   9   2.0000     -14.410934      -392.1415
  10   2.0000     -14.392970      -391.6526
  11   2.0000     -14.370503      -391.0413
  12   2.0000     -10.409680      -283.2618
  13   2.0000     -10.405456      -283.1468
  14   2.0000     -10.355301      -281.7821
  15   2.0000     -10.353409      -281.7306
  16   2.0000     -10.350155      -281.6420
  17   2.0000     -10.344177      -281.4794
  18   2.0000     -10.329082      -281.0686
  19   2.0000     -10.327712      -281.0313
  20   2.0000     -10.326122      -280.9881
  21   2.0000     -10.325855      -280.9808
  22   2.0000     -10.325342      -280.9668
  23   2.0000     -10.324654      -280.9481
  24   2.0000     -10.322078      -280.8780
  25   2.0000     -10.320452      -280.8338
  26   2.0000     -10.319997      -280.8214
  27   2.0000     -10.314597      -280.6745
  28   2.0000     -10.310679      -280.5678
  29   2.0000     -10.309315      -280.5307
  30   2.0000     -10.301605      -280.3209
  31   2.0000     -10.301428      -280.3161
  32   2.0000     -10.301184      -280.3095
  33   2.0000     -10.300934      -280.3027
  34   2.0000     -10.299918      -280.2750
  35   2.0000     -10.299006      -280.2502
  36   2.0000     -10.298078      -280.2249
  37   2.0000     -10.298034      -280.2238
  38   2.0000     -10.297887      -280.2198
  39   2.0000     -10.297506      -280.2094
  40   2.0000     -10.297106      -280.1985
  41   2.0000     -10.296477      -280.1814
  42   2.0000     -10.296363      -280.1783
  43   2.0000     -10.295661      -280.1592
  44   2.0000     -10.295612      -280.1579
  45   2.0000     -10.294997      -280.1411
  46   2.0000     -10.294551      -280.1290
  47   2.0000     -10.294217      -280.1199
  48   2.0000     -10.293444      -280.0989
  49   2.0000     -10.291664      -280.0504
  50   2.0000     -10.291217      -280.0383
  51   2.0000     -10.291110      -280.0353
  52   2.0000     -10.288253      -279.9576
  53   2.0000     -10.285986      -279.8959
  54   2.0000     -10.285732      -279.8890
  55   2.0000     -10.285621      -279.8860
  56   2.0000     -10.285596      -279.8853
  57   2.0000     -10.283579      -279.8304
  58   2.0000     -10.281555      -279.7753
  59   2.0000     -10.280733      -279.7530
  60   2.0000     -10.280249      -279.7398
  61   2.0000     -10.273078      -279.5447
  62   2.0000     -10.273028      -279.5433
  63   2.0000     -10.271981      -279.5148
  64   2.0000     -10.271226      -279.4943
  65   2.0000     -10.270550      -279.4759
  66   2.0000     -10.270247      -279.4676
  67   2.0000     -10.266884      -279.3761
  68   2.0000     -10.262957      -279.2693
  69   2.0000     -10.261919      -279.2410
  70   2.0000     -10.261519      -279.2301
  71   2.0000     -10.260067      -279.1906
  72   2.0000      -1.231608       -33.5138
  73   2.0000      -1.231021       -33.4978
  74   2.0000      -1.185357       -32.2552
  75   2.0000      -1.181241       -32.1432
  76   2.0000      -1.099658       -29.9232
  77   2.0000      -1.096527       -29.8380
  78   2.0000      -1.017982       -27.7007
  79   2.0000      -1.013218       -27.5711
  80   2.0000      -1.008047       -27.4303
  81   2.0000      -1.001135       -27.2423
  82   2.0000      -0.995554       -27.0904
  83   2.0000      -0.989043       -26.9132
  84   2.0000      -0.987317       -26.8663
  85   2.0000      -0.982840       -26.7444
  86   2.0000      -0.977520       -26.5997
  87   2.0000      -0.972930       -26.4748
  88   2.0000      -0.948233       -25.8027
  89   2.0000      -0.945765       -25.7356
  90   2.0000      -0.930209       -25.3123
  91   2.0000      -0.925320       -25.1792
  92   2.0000      -0.924051       -25.1447
  93   2.0000      -0.921284       -25.0694
  94   2.0000      -0.913870       -24.8677
  95   2.0000      -0.897250       -24.4154
  96   2.0000      -0.893227       -24.3059
  97   2.0000      -0.884733       -24.0748
  98   2.0000      -0.880678       -23.9645
  99   2.0000      -0.877714       -23.8838
 100   2.0000      -0.867508       -23.6061
 101   2.0000      -0.862656       -23.4741
 102   2.0000      -0.850759       -23.1503
 103   2.0000      -0.840281       -22.8652
 104   2.0000      -0.836737       -22.7688
 105   2.0000      -0.828411       -22.5422
 106   2.0000      -0.815413       -22.1885
 107   2.0000      -0.811078       -22.0706
 108   2.0000      -0.806936       -21.9578
 109   2.0000      -0.800374       -21.7793
 110   2.0000      -0.797357       -21.6972
 111   2.0000      -0.784417       -21.3451
 112   2.0000      -0.757925       -20.6242
 113   2.0000      -0.756540       -20.5865
 114   2.0000      -0.752463       -20.4756
 115   2.0000      -0.746379       -20.3100
 116   2.0000      -0.743582       -20.2339
 117   2.0000      -0.729048       -19.8384
 118   2.0000      -0.728544       -19.8247
 119   2.0000      -0.728248       -19.8166
 120   2.0000      -0.721578       -19.6351
 121   2.0000      -0.712011       -19.3748
 122   2.0000      -0.706972       -19.2377
 123   2.0000      -0.700514       -19.0620
 124   2.0000      -0.697921       -18.9914
 125   2.0000      -0.687924       -18.7194
 126   2.0000      -0.683538       -18.6000
 127   2.0000      -0.681756       -18.5515
 128   2.0000      -0.678537       -18.4639
 129   2.0000      -0.675738       -18.3878
 130   2.0000      -0.665170       -18.1002
 131   2.0000      -0.656018       -17.8512
 132   2.0000      -0.650909       -17.7121
 133   2.0000      -0.644044       -17.5253
 134   2.0000      -0.641488       -17.4558
 135   2.0000      -0.636821       -17.3288
 136   2.0000      -0.632658       -17.2155
 137   2.0000      -0.625676       -17.0255
 138   2.0000      -0.623524       -16.9669
 139   2.0000      -0.619521       -16.8580
 140   2.0000      -0.615794       -16.7566
 141   2.0000      -0.610219       -16.6049
 142   2.0000      -0.599984       -16.3264
 143   2.0000      -0.595413       -16.2020
 144   2.0000      -0.591641       -16.0994
 145   2.0000      -0.587707       -15.9923
 146   2.0000      -0.583331       -15.8732
 147   2.0000      -0.579489       -15.7687
 148   2.0000      -0.577329       -15.7099
 149   2.0000      -0.575998       -15.6737
 150   2.0000      -0.574633       -15.6366
 151   2.0000      -0.570595       -15.5267
 152   2.0000      -0.563924       -15.3451
 153   2.0000      -0.559023       -15.2118
 154   2.0000      -0.553619       -15.0647
 155   2.0000      -0.553043       -15.0491
 156   2.0000      -0.548328       -14.9208
 157   2.0000      -0.543211       -14.7815
 158   2.0000      -0.537556       -14.6277
 159   2.0000      -0.536059       -14.5869
 160   2.0000      -0.532373       -14.4866
 161   2.0000      -0.529400       -14.4057
 162   2.0000      -0.528403       -14.3786
 163   2.0000      -0.527467       -14.3531
 164   2.0000      -0.524200       -14.2642
 165   2.0000      -0.524088       -14.2612
 166   2.0000      -0.523025       -14.2322
 167   2.0000      -0.520375       -14.1601
 168   2.0000      -0.518400       -14.1064
 169   2.0000      -0.516415       -14.0524
 170   2.0000      -0.515850       -14.0370
 171   2.0000      -0.514604       -14.0031
 172   2.0000      -0.510232       -13.8841
 173   2.0000      -0.509513       -13.8646
 174   2.0000      -0.506804       -13.7908
 175   2.0000      -0.505778       -13.7629
 176   2.0000      -0.502201       -13.6656
 177   2.0000      -0.500432       -13.6174
 178   2.0000      -0.499551       -13.5935
 179   2.0000      -0.498515       -13.5653
 180   2.0000      -0.498288       -13.5591
 181   2.0000      -0.496027       -13.4976
 182   2.0000      -0.494841       -13.4653
 183   2.0000      -0.493380       -13.4255
 184   2.0000      -0.490361       -13.3434
 185   2.0000      -0.489808       -13.3283
 186   2.0000      -0.486821       -13.2471
 187   2.0000      -0.485817       -13.2197
 188   2.0000      -0.482726       -13.1356
 189   2.0000      -0.479119       -13.0375
 190   2.0000      -0.473297       -12.8791
 191   2.0000      -0.469941       -12.7878
 192   2.0000      -0.468755       -12.7555
 193   2.0000      -0.466000       -12.6805
 194   2.0000      -0.458998       -12.4900
 195   2.0000      -0.456234       -12.4148
 196   2.0000      -0.454790       -12.3755
 197   2.0000      -0.453159       -12.3311
 198   2.0000      -0.451444       -12.2844
 199   2.0000      -0.449897       -12.2423
 200   2.0000      -0.447277       -12.1710
 201   2.0000      -0.446756       -12.1568
 202   2.0000      -0.444245       -12.0885
 203   2.0000      -0.443943       -12.0803
 204   2.0000      -0.441650       -12.0179
 205   2.0000      -0.440275       -11.9805
 206   2.0000      -0.438626       -11.9356
 207   2.0000      -0.436440       -11.8761
 208   2.0000      -0.432342       -11.7646
 209   2.0000      -0.429349       -11.6832
 210   2.0000      -0.426333       -11.6011
 211   2.0000      -0.421576       -11.4717
 212   2.0000      -0.418606       -11.3908
 213   2.0000      -0.416913       -11.3448
 214   2.0000      -0.415944       -11.3184
 215   2.0000      -0.413637       -11.2556
 216   2.0000      -0.413146       -11.2423
 217   2.0000      -0.411651       -11.2016
 218   2.0000      -0.409066       -11.1312
 219   2.0000      -0.400431       -10.8963
 220   2.0000      -0.399914       -10.8822
 221   2.0000      -0.396971       -10.8021
 222   2.0000      -0.392921       -10.6919
 223   2.0000      -0.389235       -10.5916
 224   2.0000      -0.386931       -10.5289
 225   2.0000      -0.371465       -10.1081
 226   2.0000      -0.370050       -10.0696
 227   2.0000      -0.368305       -10.0221
 228   2.0000      -0.366663        -9.9774
 229   2.0000      -0.358798        -9.7634
 230   2.0000      -0.356172        -9.6919
 231   2.0000      -0.353664        -9.6237
 232   2.0000      -0.335737        -9.1359
 233   2.0000      -0.334628        -9.1057
 234   2.0000      -0.329862        -8.9760
 235   2.0000      -0.324046        -8.8178
 236   2.0000      -0.318208        -8.6589
 237   2.0000      -0.316111        -8.6018
 238   2.0000      -0.313009        -8.5174
 239   2.0000      -0.299566        -8.1516
 240   2.0000      -0.295702        -8.0465
 241   2.0000      -0.275237        -7.4896
 242   2.0000      -0.267105        -7.2683
 243   2.0000      -0.262590        -7.1454
 244   2.0000      -0.221062        -6.0154
 245   0.0000      -0.125586        -3.4174
 246   0.0000      -0.119503        -3.2518
 247   0.0000      -0.067952        -1.8491
 248   0.0000      -0.048047        -1.3074
 249   0.0000      -0.031681        -0.8621

MULLIKEN ATOMIC CHARGES
-----------------------
   0 C :    0.073168
   1 O :   -0.174681
   2 C :    0.150043
   3 C :   -0.073746
   4 C :   -0.038411
   5 C :    0.171624
   6 O :   -0.165429
   7 O :   -0.159280
   8 C :    0.016139
   9 C :   -0.026791
  10 C :    0.064659
  11 C :   -0.003005
  12 C :   -0.095520
  13 C :   -0.130153
  14 N :    0.136859
  15 C :   -0.040898
  16 C :    0.042246
  17 C :    0.068030
  18 C :    0.077711
  19 C :   -0.025339
  20 C :   -0.091601
  21 C :   -0.045591
  22 C :   -0.134161
  23 N :    0.137477
  24 C :   -0.027024
  25 C :   -0.006164
  26 C :    0.133063
  27 C :   -0.108522
  28 C :    0.056789
  29 C :   -0.054989
  30 C :   -0.051596
  31 C :    0.135072
  32 N :   -0.237332
  33 C :    0.141465
  34 N :   -0.223458
  35 C :    0.069209
  36 C :   -0.153468
  37 C :    0.184723
  38 C :   -0.036574
  39 C :    0.013913
  40 C :    0.019765
  41 C :    0.031514
  42 C :    0.002163
  43 C :   -0.017931
  44 C :   -0.083640
  45 C :   -0.001980
  46 C :    0.075766
  47 C :   -0.017215
  48 C :   -0.099667
  49 C :   -0.128535
  50 N :    0.140200
  51 C :   -0.040283
  52 C :    0.058513
  53 C :    0.065645
  54 C :    0.076477
  55 C :   -0.016100
  56 C :   -0.089953
  57 C :   -0.028922
  58 C :   -0.099593
  59 N :    0.112231
  60 C :   -0.018609
  61 C :   -0.030071
  62 C :    0.110232
  63 O :   -0.191606
  64 C :    0.169197
  65 C :   -0.100199
  66 C :   -0.036375
  67 C :    0.166072
  68 O :   -0.180804
  69 O :   -0.154544
  70 C :    0.001877
  71 C :   -0.015323
  72 H :    0.013652
  73 H :    0.006422
  74 H :    0.175173
  75 H :    0.017644
  76 H :    0.007992
  77 H :   -0.008261
  78 H :    0.004742
  79 H :   -0.010320
  80 H :    0.010118
  81 H :    0.007318
  82 H :   -0.021006
  83 H :   -0.041320
  84 H :   -0.003957
  85 H :   -0.008466
  86 H :    0.001926
  87 H :    0.109172
  88 H :    0.103598
  89 H :    0.001573
  90 H :   -0.011729
  91 H :    0.101932
  92 H :    0.095031
  93 H :   -0.000100
  94 H :    0.035972
  95 H :   -0.016650
  96 H :   -0.036421
  97 H :   -0.035697
  98 H :   -0.034342
  99 H :    0.004392
 100 H :    0.038320
 101 H :   -0.006402
 102 H :    0.004793
 103 H :    0.004842
 104 H :   -0.021778
 105 H :    0.012309
 106 H :    0.027758
 107 H :   -0.019518
 108 H :    0.175849
 109 H :    0.011060
 110 H :    0.018788
 111 H :    0.038836
Sum of atomic charges:   -0.0000000

LOEWDIN ATOMIC CHARGES
----------------------
   0 C :    0.041232
   1 O :    0.033473
   2 C :    0.021669
   3 C :   -0.028307
   4 C :   -0.124601
   5 C :    0.081504
   6 O :   -0.151773
   7 O :   -0.034027
   8 C :   -0.028502
   9 C :   -0.010839
  10 C :   -0.024271
  11 C :    0.004195
  12 C :   -0.055023
  13 C :   -0.030967
  14 N :   -0.043950
  15 C :   -0.000883
  16 C :    0.030856
  17 C :    0.044281
  18 C :   -0.020531
  19 C :   -0.003899
  20 C :   -0.050366
  21 C :   -0.010430
  22 C :   -0.029766
  23 N :   -0.045529
  24 C :   -0.043480
  25 C :    0.006567
  26 C :   -0.029699
  27 C :   -0.010375
  28 C :   -0.024940
  29 C :   -0.043547
  30 C :   -0.039521
  31 C :    0.028059
  32 N :   -0.096692
  33 C :    0.028037
  34 N :   -0.106481
  35 C :   -0.035895
  36 C :    0.077668
  37 C :   -0.034572
  38 C :   -0.030889
  39 C :   -0.019091
  40 C :   -0.032944
  41 C :   -0.036212
  42 C :   -0.001687
  43 C :   -0.033187
  44 C :    0.015508
  45 C :   -0.036570
  46 C :   -0.021809
  47 C :    0.007500
  48 C :   -0.050408
  49 C :   -0.030520
  50 N :   -0.042788
  51 C :   -0.002602
  52 C :    0.040442
  53 C :    0.038258
  54 C :   -0.028646
  55 C :    0.014795
  56 C :   -0.055704
  57 C :    0.006501
  58 C :   -0.019159
  59 N :   -0.050592
  60 C :   -0.012808
  61 C :   -0.022763
  62 C :    0.064522
  63 O :    0.026989
  64 C :    0.038457
  65 C :   -0.067460
  66 C :   -0.122252
  67 C :    0.085377
  68 O :   -0.164694
  69 O :   -0.030003
  70 C :   -0.035717
  71 C :   -0.024181
  72 H :    0.023121
  73 H :    0.039043
  74 H :    0.090789
  75 H :    0.039557
  76 H :    0.037005
  77 H :    0.033424
  78 H :    0.035724
  79 H :    0.030646
  80 H :    0.034534
  81 H :    0.026896
  82 H :    0.028268
  83 H :    0.021291
  84 H :    0.035474
  85 H :    0.004474
  86 H :    0.016876
  87 H :    0.057145
  88 H :    0.060124
  89 H :    0.011718
  90 H :    0.007226
  91 H :    0.040142
  92 H :    0.050599
  93 H :    0.020525
  94 H :    0.061552
  95 H :    0.021962
  96 H :    0.029764
  97 H :    0.028344
  98 H :    0.023154
  99 H :    0.026695
 100 H :    0.033519
 101 H :    0.033594
 102 H :    0.035310
 103 H :    0.037085
 104 H :    0.033397
 105 H :    0.030588
 106 H :    0.042661
 107 H :    0.025181
 108 H :    0.091064
 109 H :    0.041318
 110 H :    0.023058
 111 H :    0.032813

  Mayer bond orders larger than 0.100000
B(  0-C ,  1-O ) :   1.1987 B(  0-C ,  4-C ) :   1.4669 B(  0-C , 72-H ) :   1.0042
B(  1-O ,  2-C ) :   1.1177 B(  2-C ,  3-C ) :   1.5116 B(  2-C ,  8-C ) :   1.0961
B(  3-C ,  4-C ) :   1.2347 B(  3-C , 73-H ) :   1.0178 B(  4-C ,  5-C ) :   0.9034
B(  5-C ,  6-O ) :   2.2149 B(  5-C ,  7-O ) :   1.2348 B(  7-O , 74-H ) :   0.9592
B(  8-C ,  9-C ) :   1.7313 B(  8-C , 75-H ) :   0.9606 B(  9-C , 10-C ) :   1.0717
B(  9-C , 76-H ) :   0.9605 B( 10-C , 11-C ) :   1.6274 B( 10-C , 16-C ) :   1.0389
B( 11-C , 12-C ) :   1.0942 B( 11-C , 77-H ) :   1.0199 B( 12-C , 13-C ) :   1.0607
B( 12-C , 15-C ) :   1.6351 B( 13-C , 14-N ) :   3.0403 B( 15-C , 16-C ) :   1.0698
B( 15-C , 78-H ) :   1.0130 B( 16-C , 17-C ) :   1.5442 B( 17-C , 18-C ) :   1.0292
B( 17-C , 21-C ) :   1.0689 B( 18-C , 19-C ) :   1.6310 B( 18-C , 24-C ) :   1.0671
B( 19-C , 20-C ) :   1.0939 B( 19-C , 79-H ) :   1.0146 B( 20-C , 21-C ) :   1.6304
B( 20-C , 22-C ) :   1.0584 B( 21-C , 80-H ) :   1.0152 B( 22-C , 23-N ) :   3.0409
B( 24-C , 25-C ) :   1.6789 B( 24-C , 81-H ) :   0.9514 B( 25-C , 26-C ) :   1.0841
B( 25-C , 82-H ) :   0.9897 B( 26-C , 27-C ) :   1.4801 B( 26-C , 43-C ) :   1.1252
B( 27-C , 28-C ) :   1.1330 B( 27-C , 83-H ) :   0.9971 B( 28-C , 29-C ) :   1.4629
B( 28-C , 41-C ) :   1.1328 B( 29-C , 30-C ) :   1.0264 B( 29-C , 35-C ) :   1.1027
B( 30-C , 31-C ) :   1.0406 B( 30-C , 33-C ) :   1.0610 B( 30-C , 84-H ) :   0.8832
B( 31-C , 32-N ) :   1.0511 B( 31-C , 85-H ) :   0.9393 B( 31-C , 86-H ) :   0.9439
B( 32-N , 87-H ) :   0.9612 B( 32-N , 88-H ) :   0.9658 B( 32-N , 91-H ) :   0.1172
B( 33-C , 34-N ) :   1.0661 B( 33-C , 89-H ) :   0.9329 B( 33-C , 90-H ) :   0.9417
B( 34-N , 91-H ) :   0.9109 B( 34-N , 92-H ) :   0.9532 B( 34-N , 93-H ) :   0.1914
B( 35-C , 36-C ) :   1.6244 B( 35-C , 40-C ) :   1.0670 B( 36-C , 37-C ) :   0.9613
B( 36-C , 93-H ) :   0.9128 B( 37-C , 38-C ) :   0.9753 B( 37-C , 44-C ) :   0.9523
B( 37-C , 94-H ) :   0.8502 B( 38-C , 39-C ) :   1.7353 B( 38-C , 95-H ) :   0.9669
B( 39-C , 40-C ) :   1.1318 B( 39-C , 96-H ) :   0.9885 B( 40-C , 41-C ) :   1.4190
B( 41-C , 42-C ) :   1.1459 B( 42-C , 43-C ) :   1.6139 B( 42-C , 97-H ) :   0.9898
B( 43-C , 98-H ) :   0.9817 B( 44-C , 45-C ) :   1.9045 B( 44-C , 99-H ) :   0.9732
B( 45-C , 46-C ) :   0.9901 B( 45-C ,100-H ) :   0.9222 B( 46-C , 47-C ) :   1.6801
B( 46-C , 52-C ) :   1.0628 B( 47-C , 48-C ) :   1.0687 B( 47-C ,101-H ) :   1.0191
B( 48-C , 49-C ) :   1.0568 B( 48-C , 51-C ) :   1.6618 B( 49-C , 50-N ) :   3.0389
B( 51-C , 52-C ) :   1.0539 B( 51-C ,102-H ) :   1.0143 B( 52-C , 53-C ) :   1.5268
B( 53-C , 54-C ) :   1.0330 B( 53-C , 57-C ) :   1.0593 B( 54-C , 55-C ) :   1.6223
B( 54-C , 60-C ) :   1.0586 B( 55-C , 56-C ) :   1.0876 B( 55-C ,103-H ) :   1.0142
B( 56-C , 57-C ) :   1.6314 B( 56-C , 58-C ) :   1.0663 B( 57-C ,104-H ) :   1.0137
B( 58-C , 59-N ) :   2.9515 B( 60-C , 61-C ) :   1.6451 B( 60-C ,105-H ) :   0.9695
B( 61-C , 62-C ) :   1.1743 B( 61-C ,106-H ) :   0.9496 B( 62-C , 63-O ) :   1.1746
B( 62-C , 66-C ) :   1.4244 B( 63-O , 64-C ) :   1.1160 B( 64-C , 65-C ) :   1.5486
B( 64-C , 70-C ) :   1.0997 B( 65-C , 66-C ) :   1.1794 B( 65-C ,107-H ) :   0.9800
B( 66-C , 67-C ) :   0.9268 B( 67-C , 68-O ) :   2.1366 B( 67-C , 69-O ) :   1.2482
B( 69-O ,108-H ) :   0.9611 B( 70-C , 71-C ) :   1.9363 B( 70-C ,109-H ) :   0.9544
B( 71-C ,110-H ) :   0.9563 B( 71-C ,111-H ) :   0.9493

-----------------------------------------------------------------------------
         ABSORPTION SPECTRUM VIA TRANSITION ELECTRIC DIPOLE MOMENTS
-----------------------------------------------------------------------------
State   Energy  Wavelength   fosc         T2         TX        TY        TZ
        (cm-1)    (nm)                  (au**2)     (au)      (au)      (au)
-----------------------------------------------------------------------------
   0    7555.7   1323.5   0.017825521   0.77668   0.28059   0.66084  -0.51111
   1    8553.9   1169.1   0.111676539   4.29807   1.37039   1.34398  -0.78346
   2   11952.1    836.7   0.089304951   2.45985   0.24516   0.93569  -1.23459
   3   13712.8    729.2   0.051432461   1.23477  -0.50463  -0.97768   0.15575
   4   14701.5    680.2   0.021556391   0.48272  -0.42447  -0.15038   0.52908
   5   15634.8    639.6   0.036177934   0.76177  -0.15976   0.57665   0.63539
   6   17069.7    585.8   0.020503730   0.39544  -0.09998  -0.13115   0.60683
   7   19600.6    510.2   0.000103568   0.00174  -0.00769  -0.03439   0.02231
   8   20537.9    486.9   0.000341212   0.00547  -0.04883  -0.05320   0.01599
   9   23828.0    419.7   0.068883262   0.95171  -0.01873   0.94937  -0.22374
  10   24946.3    400.9   0.000218069   0.00288  -0.02439  -0.04648   0.01107
  11   25548.8    391.4   0.236886366   3.05243   1.23489   1.18666  -0.34541
  12   25965.0    385.1   0.085961147   1.08991  -0.44887  -0.69676  -0.63478
  13   26309.7    380.1   0.015832101   0.19811  -0.17025   0.00202   0.41124
  14   26313.0    380.0   0.012909537   0.16152   0.14632   0.05848  -0.36971
  15   27043.2    369.8   0.001483959   0.01807   0.05696  -0.10994   0.05229
  16   27612.5    362.2   0.026919057   0.32094  -0.22628  -0.51470   0.06950
  17   27851.4    359.0   0.128704628   1.52133   0.59826   0.72092  -0.80230
  18   27992.3    357.2   0.599714039   7.05312  -0.98630  -0.75380   2.34779
  19   28408.5    352.0   0.326638871   3.78525   0.61559   1.14548  -1.44713
  20   29020.0    344.6   0.709591548   8.04983  -1.77201  -1.98385   0.98698
  21   30134.2    331.8   0.166135827   1.81501   0.00214  -0.28019   1.31776
  22   30325.9    329.8   0.002035558   0.02210  -0.01179  -0.08413   0.12198
  23   30425.1    328.7   0.041619936   0.45034   0.15006   0.13862   0.63923
  24   31021.2    322.4   0.004428421   0.04700  -0.04716   0.07835   0.19655
  25   31035.2    322.2   0.330412833   3.50491   0.34075  -1.82392   0.24926
  26   31906.6    313.4   0.021477514   0.22161   0.20701  -0.38830   0.16726
  27   31993.2    312.6   0.087343758   0.89877  -0.88133  -0.23392  -0.25945
  28   32059.0    311.9   0.074974120   0.76990   0.67907  -0.07330   0.55081
  29   32584.9    306.9   0.973492053   9.83538  -0.04815   2.96304   1.02638
  30   33273.0    300.5   0.067069614   0.66360  -0.50910   0.63399   0.04975
  31   33465.6    298.8   0.015480057   0.15228  -0.19984  -0.22928  -0.24449
  32   33756.9    296.2   0.033114227   0.32294  -0.29169   0.48480  -0.05315
  33   34106.8    293.2   0.006236822   0.06020  -0.15297   0.18558   0.04859
  34   34199.8    292.4   0.283605712   2.73003   1.07485   1.16222   0.47325
  35   34444.9    290.3   0.018609843   0.17787   0.09232  -0.32678  -0.25012
  36   36090.7    277.1   0.042013178   0.38324   0.20855   0.52409   0.25510
  37   36384.2    274.8   0.251835113   2.27866   0.36828   0.84063   1.19849
  38   36609.6    273.2   0.003674771   0.03305   0.02166   0.14901   0.10184
  39   36686.1    272.6   0.420580679   3.77419  -1.04465  -1.53668  -0.56701
  40   36728.0    272.3   0.010919210   0.09787  -0.16797  -0.25459  -0.06962
  41   36795.2    271.8   0.042889131   0.38374  -0.13473   0.15932   0.58327
  42   37540.0    266.4   0.449730082   3.94397   0.98671   1.50460   0.84057
  43   38063.5    262.7   0.074426940   0.64372   0.21349   0.55221   0.54148
  44   38323.7    260.9   0.032718933   0.28107   0.08368   0.17376  -0.49383
  45   38432.0    260.2   0.028651827   0.24543   0.10188   0.28053   0.39542
  46   38467.5    260.0   0.000877787   0.00751   0.02892  -0.01309   0.08065
  47   38668.9    258.6   0.004062651   0.03459  -0.13830  -0.08713   0.08872
  48   39003.7    256.4   0.076459090   0.64535   0.56839   0.46481  -0.32594
  49   39222.3    255.0   0.125655373   1.05469   0.68202   0.76426  -0.07375
  50   39278.6    254.6   0.006385260   0.05352  -0.11974  -0.12639   0.15233
  51   39316.8    254.3   0.185694722   1.55488   0.13467   1.00241   0.72932
  52   39322.8    254.3   0.071777014   0.60092   0.11031   0.63130   0.43613
  53   39726.5    251.7   0.328627273   2.72332   0.94860   1.19087   0.63664
  54   40042.9    249.7   0.022723047   0.18682  -0.28747  -0.27874   0.16273
  55   40161.7    249.0   0.232815965   1.90843   0.94566   0.99234  -0.17153

FINAL SINGLE POINT ENERGY     -3086.100182313537

DIPOLE MOMENT
-------------
                                X             Y             Z
Electronic contribution:     33.88969      16.28863      -5.23582
Nuclear contribution   :    -36.95014     -18.15078       6.05106
                        -----------------------------------------
Total Dipole Moment    :     -3.06046      -1.86215       0.81524
                        -----------------------------------------
Magnitude (a.u.)       :      3.67405
Magnitude (Debye)      :      9.33868

Rotational constants in cm-1:     0.001837     0.000219     0.000210
Rotational constants in MHz :    55.059810     6.555340     6.288388

                             ****ORCA TERMINATED NORMALLY****
TOTAL RUN TIME: 0 days 0 hours 10 minutes 50 seconds 72 msec
