                         Program Version 4.2.0 -  RELEASE  -
|  1> # ORCA input file
|  2> # SCF done       -188.875885558903          0.000318063765
|  3> ! CAM-B3LYP def2-SVP def2/J RIJCOSX Grid4 TightSCF
|  4> %maxcore 5000
|  5> %tddft
|  6>     Mode sTDDFT
|  7>     Ethresh 5.0
|  8>     maxcore 5000
|  9> end
| 10>
| 11> %pal
| 12>   nprocs 6
| 13>   end
| 14> * xyz 0 1
| 15>    C        1.25800         0.63121        -1.96542
| 16>    C        1.93580        -0.50864        -1.57238
| 17>    F        3.25728        -0.57925        -1.76138
| 18>    C        1.26172        -1.58148        -0.99552
| 19>    F        1.93456        -2.68397        -0.66562
| 20>    C       -0.12165        -1.53630        -0.82054
| 21>    C       -0.79400        -0.36967        -1.19533
| 22>    C       -0.10912         0.69659        -1.76184
| 23>    F       -0.77491         1.79997        -2.12092
| 24>    F       -2.11468        -0.27872        -1.00103
| 25>    C       -0.86145        -2.67954        -0.28365
| 26>    N       -0.59490        -3.18569         0.89063
| 27>    C       -1.53572        -4.15108         1.09715
| 28>    C       -2.46065        -4.22545        -0.03531
| 29>    C       -3.48054        -5.26195         0.19005
| 30>    O       -4.39502        -5.59433        -0.52821
| 31>    C       -3.09953        -5.79390         1.51843
| 32>    C       -1.90544        -5.08155         2.03173
| 33>    N       -1.54021        -5.57493         3.24295
| 34>    C       -2.40228        -6.52334         3.50066
| 35>    C       -3.40026        -6.71940         2.46070
| 36>    C       -2.02147        -3.30860        -0.95676
| 37>    C       -2.54405        -2.98748        -2.24295
| 38>    C       -1.80343        -2.43659        -3.22965
| 39>    C       -2.26282        -1.92794        -4.49080
| 40>    C       -1.36035        -1.21405        -5.25714
| 41>    C       -1.78105        -0.57892        -6.43497
| 42>    C       -1.08720         0.24452        -7.31924
| 43>    C        0.34165         0.64306        -7.18293
| 44>    C        1.12385         0.61062        -8.50859
| 45>    N        2.48861         0.19870        -8.24018
| 46>    C        0.44232         2.02653        -6.50486
| 47>    N        0.08894         1.90747        -5.10200
| 48>    C       -2.03787         0.67134        -8.31608
| 49>    C       -1.91946         1.48733        -9.38175
| 50>    C       -3.08642         1.80683       -10.25597
| 51>    C       -4.35087         1.09996        -9.89840
| 52>    C       -4.45393         0.27787        -8.83595
| 53>    C       -3.33473         0.04093        -8.00605
| 54>    C       -3.16624        -0.70759        -6.85665
| 55>    C       -4.05678        -1.48711        -6.08221
| 56>    C       -3.61703        -2.06920        -4.93684
| 57>    C       -3.24736         3.30532       -10.18755
| 58>    C       -3.97207         3.92503        -9.24491
| 59>    C       -4.08044         5.34934        -9.20046
| 60>    N       -3.54504         6.11654       -10.14023
| 61>    C       -3.83802         7.38314        -9.79445
| 62>    C       -4.61283         7.43150        -8.54275
| 63>    C       -4.91380         8.82858        -8.17888
| 64>    O       -5.51661         9.24126        -7.21244
| 65>    C       -4.29245         9.58874        -9.27629
| 66>    C       -3.64426         8.67047       -10.23642
| 67>    N       -3.06492         9.36359       -11.24489
| 68>    C       -3.30970        10.62517       -10.97747
| 69>    C       -4.07019        10.83691        -9.76421
| 70>    C       -4.77524         6.12764        -8.14931
| 71>    C       -5.42085         5.56161        -7.00701
| 72>    C       -6.05683         6.30238        -6.07782
| 73>    C       -6.71370         5.79912        -4.88970
| 74>    C       -6.54045         4.51653        -4.34913
| 75>    F       -5.71074         3.63429        -4.93175
| 76>    C       -7.19620         4.11866        -3.19230
| 77>    F       -6.99855         2.88240        -2.71752
| 78>    C       -8.05204         4.97265        -2.52119
| 79>    C       -8.23693         6.24478        -3.03350
| 80>    C       -7.58277         6.65173        -4.18748
| 81>    F       -7.80141         7.88562        -4.65058
| 82>    F       -9.06061         7.08918        -2.40251
| 83>    H        1.78078         1.45075        -2.42917
| 84>    H       -2.34029        -7.08058         4.41936
| 85>    H       -4.18648        -7.44790         2.48250
| 86>    H       -3.58870        -3.22465        -2.38647
| 87>    H       -0.74014        -2.31185        -3.06442
| 88>    H       -0.33670        -1.10699        -4.92801
| 89>    H        0.83395        -0.07190        -6.51761
| 90>    H        1.05837         1.59331        -9.00622
| 91>    H        0.68223        -0.13830        -9.17186
| 92>    H        2.96437         0.88395        -7.66356
| 93>    H        3.01258         0.09504        -9.10115
| 94>    H       -0.18402         2.74520        -7.06193
| 95>    H        1.47886         2.37341        -6.54997
| 96>    H       -0.87689         1.60928        -5.00706
| 97>    H        0.17405         2.80388        -4.63537
| 98>    H       -0.99196         1.98068        -9.63016
| 99>    H       -2.81966         1.55209       -11.29131
|100>    H       -5.19871         1.30498       -10.53369
|101>    H       -5.38889        -0.21110        -8.60496
|102>    H       -5.08141        -1.60208        -6.40254
|103>    H       -4.29537        -2.65763        -4.34020
|104>    H       -2.72238         3.90640       -10.91568
|105>    H       -4.49222         3.35009        -8.49163
|106>    H       -2.95285        11.39783       -11.63624
|107>    H       -4.37103        11.78877        -9.37375
|108>    H       -5.37693         4.48684        -6.92592
|109>    H       -6.11393         7.37579        -6.21072
|110>    H       -8.55804         4.65713        -1.62436
|111> *
|112>
|113>                          ****END OF INPUT****

CARTESIAN COORDINATES (ANGSTROEM)
---------------------------------
  C      1.258000    0.631210   -1.965420
  C      1.935800   -0.508640   -1.572380
  F      3.257280   -0.579250   -1.761380
  C      1.261720   -1.581480   -0.995520
  F      1.934560   -2.683970   -0.665620
  C     -0.121650   -1.536300   -0.820540
  C     -0.794000   -0.369670   -1.195330
  C     -0.109120    0.696590   -1.761840
  F     -0.774910    1.799970   -2.120920
  F     -2.114680   -0.278720   -1.001030
  C     -0.861450   -2.679540   -0.283650
  N     -0.594900   -3.185690    0.890630
  C     -1.535720   -4.151080    1.097150
  C     -2.460650   -4.225450   -0.035310
  C     -3.480540   -5.261950    0.190050
  O     -4.395020   -5.594330   -0.528210
  C     -3.099530   -5.793900    1.518430
  C     -1.905440   -5.081550    2.031730
  N     -1.540210   -5.574930    3.242950
  C     -2.402280   -6.523340    3.500660
  C     -3.400260   -6.719400    2.460700
  C     -2.021470   -3.308600   -0.956760
  C     -2.544050   -2.987480   -2.242950
  C     -1.803430   -2.436590   -3.229650
  C     -2.262820   -1.927940   -4.490800
  C     -1.360350   -1.214050   -5.257140
  C     -1.781050   -0.578920   -6.434970
  C     -1.087200    0.244520   -7.319240
  C      0.341650    0.643060   -7.182930
  C      1.123850    0.610620   -8.508590
  N      2.488610    0.198700   -8.240180
  C      0.442320    2.026530   -6.504860
  N      0.088940    1.907470   -5.102000
  C     -2.037870    0.671340   -8.316080
  C     -1.919460    1.487330   -9.381750
  C     -3.086420    1.806830  -10.255970
  C     -4.350870    1.099960   -9.898400
  C     -4.453930    0.277870   -8.835950
  C     -3.334730    0.040930   -8.006050
  C     -3.166240   -0.707590   -6.856650
  C     -4.056780   -1.487110   -6.082210
  C     -3.617030   -2.069200   -4.936840
  C     -3.247360    3.305320  -10.187550
  C     -3.972070    3.925030   -9.244910
  C     -4.080440    5.349340   -9.200460
  N     -3.545040    6.116540  -10.140230
  C     -3.838020    7.383140   -9.794450
  C     -4.612830    7.431500   -8.542750
  C     -4.913800    8.828580   -8.178880
  O     -5.516610    9.241260   -7.212440
  C     -4.292450    9.588740   -9.276290
  C     -3.644260    8.670470  -10.236420
  N     -3.064920    9.363590  -11.244890
  C     -3.309700   10.625170  -10.977470
  C     -4.070190   10.836910   -9.764210
  C     -4.775240    6.127640   -8.149310
  C     -5.420850    5.561610   -7.007010
  C     -6.056830    6.302380   -6.077820
  C     -6.713700    5.799120   -4.889700
  C     -6.540450    4.516530   -4.349130
  F     -5.710740    3.634290   -4.931750
  C     -7.196200    4.118660   -3.192300
  F     -6.998550    2.882400   -2.717520
  C     -8.052040    4.972650   -2.521190
  C     -8.236930    6.244780   -3.033500
  C     -7.582770    6.651730   -4.187480
  F     -7.801410    7.885620   -4.650580
  F     -9.060610    7.089180   -2.402510
  H      1.780780    1.450750   -2.429170
  H     -2.340290   -7.080580    4.419360
  H     -4.186480   -7.447900    2.482500
  H     -3.588700   -3.224650   -2.386470
  H     -0.740140   -2.311850   -3.064420
  H     -0.336700   -1.106990   -4.928010
  H      0.833950   -0.071900   -6.517610
  H      1.058370    1.593310   -9.006220
  H      0.682230   -0.138300   -9.171860
  H      2.964370    0.883950   -7.663560
  H      3.012580    0.095040   -9.101150
  H     -0.184020    2.745200   -7.061930
  H      1.478860    2.373410   -6.549970
  H     -0.876890    1.609280   -5.007060
  H      0.174050    2.803880   -4.635370
  H     -0.991960    1.980680   -9.630160
  H     -2.819660    1.552090  -11.291310
  H     -5.198710    1.304980  -10.533690
  H     -5.388890   -0.211100   -8.604960
  H     -5.081410   -1.602080   -6.402540
  H     -4.295370   -2.657630   -4.340200
  H     -2.722380    3.906400  -10.915680
  H     -4.492220    3.350090   -8.491630
  H     -2.952850   11.397830  -11.636240
  H     -4.371030   11.788770   -9.373750
  H     -5.376930    4.486840   -6.925920
  H     -6.113930    7.375790   -6.210720
  H     -8.558040    4.657130   -1.624360

 Total Charge           Charge          ....    0
 Multiplicity           Mult            ....    1
 Number of Electrons    NEL             ....  470
 Basis Dimension        Dim             .... 1092

ORBITAL ENERGIES
----------------

  NO   OCC          E(Eh)            E(eV)
   0   2.0000     -24.803932      -674.9493
   1   2.0000     -24.802147      -674.9007
   2   2.0000     -24.799469      -674.8279
   3   2.0000     -24.797733      -674.7806
   4   2.0000     -24.796519      -674.7476
   5   2.0000     -24.795354      -674.7159
   6   2.0000     -24.795060      -674.7079
   7   2.0000     -24.794423      -674.6906
   8   2.0000     -19.213290      -522.8202
   9   2.0000     -19.205806      -522.6165
  10   2.0000     -14.415225      -392.2582
  11   2.0000     -14.410195      -392.1213
  12   2.0000     -14.405928      -392.0052
  13   2.0000     -14.405164      -391.9844
  14   2.0000     -14.384668      -391.4267
  15   2.0000     -14.382416      -391.3654
  16   2.0000     -10.383515      -282.5498
  17   2.0000     -10.383029      -282.5366
  18   2.0000     -10.379609      -282.4435
  19   2.0000     -10.379372      -282.4371
  20   2.0000     -10.379318      -282.4356
  21   2.0000     -10.378163      -282.4042
  22   2.0000     -10.377658      -282.3904
  23   2.0000     -10.377107      -282.3754
  24   2.0000     -10.373120      -282.2669
  25   2.0000     -10.366421      -282.0846
  26   2.0000     -10.349641      -281.6280
  27   2.0000     -10.345855      -281.5250
  28   2.0000     -10.334235      -281.2088
  29   2.0000     -10.330712      -281.1130
  30   2.0000     -10.325536      -280.9721
  31   2.0000     -10.324761      -280.9510
  32   2.0000     -10.324231      -280.9366
  33   2.0000     -10.323487      -280.9164
  34   2.0000     -10.317576      -280.7555
  35   2.0000     -10.315791      -280.7069
  36   2.0000     -10.314186      -280.6633
  37   2.0000     -10.313696      -280.6499
  38   2.0000     -10.308806      -280.5169
  39   2.0000     -10.306689      -280.4593
  40   2.0000     -10.305321      -280.4220
  41   2.0000     -10.303619      -280.3757
  42   2.0000     -10.302012      -280.3320
  43   2.0000     -10.293635      -280.1041
  44   2.0000     -10.293461      -280.0993
  45   2.0000     -10.292328      -280.0685
  46   2.0000     -10.291706      -280.0516
  47   2.0000     -10.290131      -280.0087
  48   2.0000     -10.289969      -280.0043
  49   2.0000     -10.289958      -280.0040
  50   2.0000     -10.288906      -279.9754
  51   2.0000     -10.288785      -279.9721
  52   2.0000     -10.287088      -279.9259
  53   2.0000     -10.283991      -279.8416
  54   2.0000     -10.283287      -279.8225
  55   2.0000     -10.282108      -279.7904
  56   2.0000     -10.281646      -279.7778
  57   2.0000     -10.280955      -279.7590
  58   2.0000     -10.279570      -279.7213
  59   2.0000     -10.278686      -279.6973
  60   2.0000     -10.274080      -279.5719
  61   2.0000     -10.273664      -279.5606
  62   2.0000     -10.271173      -279.4928
  63   2.0000     -10.269638      -279.4511
  64   2.0000     -10.269547      -279.4486
  65   2.0000     -10.268837      -279.4293
  66   2.0000     -10.268784      -279.4278
  67   2.0000     -10.266623      -279.3690
  68   2.0000      -1.323977       -36.0273
  69   2.0000      -1.323315       -36.0092
  70   2.0000      -1.321359       -35.9560
  71   2.0000      -1.320044       -35.9202
  72   2.0000      -1.308635       -35.6098
  73   2.0000      -1.305964       -35.5371
  74   2.0000      -1.305842       -35.5338
  75   2.0000      -1.304249       -35.4904
  76   2.0000      -1.128201       -30.6999
  77   2.0000      -1.120615       -30.4935
  78   2.0000      -1.079569       -29.3766
  79   2.0000      -1.079486       -29.3743
  80   2.0000      -1.060141       -28.8479
  81   2.0000      -1.059810       -28.8389
  82   2.0000      -0.992055       -26.9952
  83   2.0000      -0.988809       -26.9068
  84   2.0000      -0.987251       -26.8645
  85   2.0000      -0.972145       -26.4534
  86   2.0000      -0.958578       -26.0842
  87   2.0000      -0.956355       -26.0237
  88   2.0000      -0.939093       -25.5540
  89   2.0000      -0.934860       -25.4388
  90   2.0000      -0.928358       -25.2619
  91   2.0000      -0.923458       -25.1286
  92   2.0000      -0.906022       -24.6541
  93   2.0000      -0.891294       -24.2533
  94   2.0000      -0.884672       -24.0731
  95   2.0000      -0.883355       -24.0373
  96   2.0000      -0.873409       -23.7667
  97   2.0000      -0.858259       -23.3544
  98   2.0000      -0.856255       -23.2999
  99   2.0000      -0.853868       -23.2349
 100   2.0000      -0.851313       -23.1654
 101   2.0000      -0.847175       -23.0528
 102   2.0000      -0.839932       -22.8557
 103   2.0000      -0.833833       -22.6897
 104   2.0000      -0.828940       -22.5566
 105   2.0000      -0.809215       -22.0199
 106   2.0000      -0.790207       -21.5026
 107   2.0000      -0.776856       -21.1393
 108   2.0000      -0.767291       -20.8791
 109   2.0000      -0.762239       -20.7416
 110   2.0000      -0.752786       -20.4843
 111   2.0000      -0.747199       -20.3323
 112   2.0000      -0.741722       -20.1833
 113   2.0000      -0.734591       -19.9892
 114   2.0000      -0.730325       -19.8731
 115   2.0000      -0.728498       -19.8235
 116   2.0000      -0.727757       -19.8033
 117   2.0000      -0.712738       -19.3946
 118   2.0000      -0.699440       -19.0327
 119   2.0000      -0.697714       -18.9858
 120   2.0000      -0.693253       -18.8644
 121   2.0000      -0.689383       -18.7591
 122   2.0000      -0.670279       -18.2392
 123   2.0000      -0.666890       -18.1470
 124   2.0000      -0.665647       -18.1132
 125   2.0000      -0.661347       -17.9962
 126   2.0000      -0.661155       -17.9909
 127   2.0000      -0.657689       -17.8966
 128   2.0000      -0.651127       -17.7181
 129   2.0000      -0.650463       -17.7000
 130   2.0000      -0.647358       -17.6155
 131   2.0000      -0.639882       -17.4121
 132   2.0000      -0.638929       -17.3861
 133   2.0000      -0.634026       -17.2527
 134   2.0000      -0.626465       -17.0470
 135   2.0000      -0.620408       -16.8822
 136   2.0000      -0.619223       -16.8499
 137   2.0000      -0.617080       -16.7916
 138   2.0000      -0.605997       -16.4900
 139   2.0000      -0.602297       -16.3893
 140   2.0000      -0.601588       -16.3700
 141   2.0000      -0.594778       -16.1847
 142   2.0000      -0.594130       -16.1671
 143   2.0000      -0.589164       -16.0320
 144   2.0000      -0.586990       -15.9728
 145   2.0000      -0.582085       -15.8393
 146   2.0000      -0.581634       -15.8271
 147   2.0000      -0.576710       -15.6931
 148   2.0000      -0.575457       -15.6590
 149   2.0000      -0.573975       -15.6186
 150   2.0000      -0.572418       -15.5763
 151   2.0000      -0.569333       -15.4923
 152   2.0000      -0.569036       -15.4842
 153   2.0000      -0.562335       -15.3019
 154   2.0000      -0.556628       -15.1466
 155   2.0000      -0.555532       -15.1168
 156   2.0000      -0.554228       -15.0813
 157   2.0000      -0.552230       -15.0269
 158   2.0000      -0.550424       -14.9778
 159   2.0000      -0.549058       -14.9406
 160   2.0000      -0.546722       -14.8771
 161   2.0000      -0.546332       -14.8665
 162   2.0000      -0.543802       -14.7976
 163   2.0000      -0.542415       -14.7599
 164   2.0000      -0.539984       -14.6937
 165   2.0000      -0.537151       -14.6166
 166   2.0000      -0.533023       -14.5043
 167   2.0000      -0.530666       -14.4402
 168   2.0000      -0.527725       -14.3601
 169   2.0000      -0.520824       -14.1723
 170   2.0000      -0.519137       -14.1264
 171   2.0000      -0.518829       -14.1181
 172   2.0000      -0.517946       -14.0940
 173   2.0000      -0.517159       -14.0726
 174   2.0000      -0.516856       -14.0644
 175   2.0000      -0.512621       -13.9491
 176   2.0000      -0.507965       -13.8224
 177   2.0000      -0.504930       -13.7398
 178   2.0000      -0.501635       -13.6502
 179   2.0000      -0.500445       -13.6178
 180   2.0000      -0.495643       -13.4871
 181   2.0000      -0.492917       -13.4130
 182   2.0000      -0.492518       -13.4021
 183   2.0000      -0.490793       -13.3552
 184   2.0000      -0.485542       -13.2123
 185   2.0000      -0.483200       -13.1485
 186   2.0000      -0.480976       -13.0880
 187   2.0000      -0.478798       -13.0288
 188   2.0000      -0.475300       -12.9336
 189   2.0000      -0.474854       -12.9214
 190   2.0000      -0.472956       -12.8698
 191   2.0000      -0.471577       -12.8323
 192   2.0000      -0.470844       -12.8123
 193   2.0000      -0.468444       -12.7470
 194   2.0000      -0.464661       -12.6441
 195   2.0000      -0.463751       -12.6193
 196   2.0000      -0.461334       -12.5535
 197   2.0000      -0.458692       -12.4817
 198   2.0000      -0.454760       -12.3747
 199   2.0000      -0.448621       -12.2076
 200   2.0000      -0.447531       -12.1779
 201   2.0000      -0.441530       -12.0146
 202   2.0000      -0.438903       -11.9432
 203   2.0000      -0.435525       -11.8512
 204   2.0000      -0.433640       -11.7999
 205   2.0000      -0.428418       -11.6579
 206   2.0000      -0.417782       -11.3684
 207   2.0000      -0.415202       -11.2982
 208   2.0000      -0.409274       -11.1369
 209   2.0000      -0.401623       -10.9287
 210   2.0000      -0.397951       -10.8288
 211   2.0000      -0.389485       -10.5984
 212   2.0000      -0.385026       -10.4771
 213   2.0000      -0.371544       -10.1102
 214   2.0000      -0.362036        -9.8515
 215   2.0000      -0.360433        -9.8079
 216   2.0000      -0.356792        -9.7088
 217   2.0000      -0.354449        -9.6451
 218   2.0000      -0.354039        -9.6339
 219   2.0000      -0.352398        -9.5892
 220   2.0000      -0.340909        -9.2766
 221   2.0000      -0.334906        -9.1132
 222   2.0000      -0.334043        -9.0898
 223   2.0000      -0.331288        -9.0148
 224   2.0000      -0.329089        -8.9550
 225   2.0000      -0.326208        -8.8766
 226   2.0000      -0.322158        -8.7664
 227   2.0000      -0.317479        -8.6390
 228   2.0000      -0.316633        -8.6160
 229   2.0000      -0.311251        -8.4696
 230   2.0000      -0.307553        -8.3689
 231   2.0000      -0.303640        -8.2625
 232   2.0000      -0.284869        -7.7517
 233   2.0000      -0.276440        -7.5223
 234   2.0000      -0.227055        -6.1785
 235   0.0000      -0.116134        -3.1602
 236   0.0000      -0.107477        -2.9246
 237   0.0000      -0.076586        -2.0840
 238   0.0000      -0.056863        -1.5473
 239   0.0000      -0.042233        -1.1492

MULLIKEN ATOMIC CHARGES
-----------------------
   0 C :   -0.107679
   1 C :    0.222664
   2 F :   -0.171674
   3 C :    0.243717
   4 F :   -0.148290
   5 C :   -0.207759
   6 C :    0.238167
   7 C :    0.237304
   8 F :   -0.177313
   9 F :   -0.158954
  10 C :    0.004631
  11 N :   -0.015203
  12 C :    0.069492
  13 C :   -0.134073
  14 C :    0.207874
  15 O :   -0.126993
  16 C :   -0.040614
  17 C :   -0.015900
  18 N :   -0.051406
  19 C :    0.090146
  20 C :   -0.092926
  21 C :    0.043180
  22 C :   -0.025969
  23 C :    0.017420
  24 C :    0.097941
  25 C :   -0.102493
  26 C :    0.043910
  27 C :   -0.064723
  28 C :   -0.034497
  29 C :    0.110009
  30 N :   -0.204895
  31 C :    0.162501
  32 N :   -0.237210
  33 C :    0.098893
  34 C :   -0.117580
  35 C :    0.170410
  36 C :   -0.058079
  37 C :    0.017662
  38 C :    0.002829
  39 C :    0.049768
  40 C :    0.000529
  41 C :   -0.000863
  42 C :   -0.036488
  43 C :   -0.007111
  44 C :    0.035468
  45 N :   -0.040080
  46 C :    0.073693
  47 C :   -0.161253
  48 C :    0.218301
  49 O :   -0.134752
  50 C :   -0.011562
  51 C :   -0.043747
  52 N :   -0.057398
  53 C :    0.089303
  54 C :   -0.095963
  55 C :    0.045848
  56 C :   -0.020187
  57 C :   -0.004019
  58 C :   -0.047171
  59 C :    0.176330
  60 F :   -0.174836
  61 C :    0.255585
  62 F :   -0.175212
  63 C :   -0.155418
  64 C :    0.249333
  65 C :    0.183327
  66 F :   -0.159208
  67 F :   -0.173978
  68 H :    0.011449
  69 H :    0.010858
  70 H :   -0.002291
  71 H :    0.007232
  72 H :   -0.002348
  73 H :   -0.027830
  74 H :   -0.002832
  75 H :   -0.012179
  76 H :    0.003150
  77 H :    0.087946
  78 H :    0.091537
  79 H :   -0.019972
  80 H :   -0.018400
  81 H :    0.107735
  82 H :    0.095714
  83 H :   -0.010356
  84 H :    0.036523
  85 H :   -0.004794
  86 H :   -0.031301
  87 H :   -0.035434
  88 H :   -0.019375
  89 H :    0.034203
  90 H :    0.008945
  91 H :    0.008666
  92 H :   -0.005818
  93 H :   -0.011753
  94 H :    0.020118
  95 H :    0.017846
Sum of atomic charges:   -0.0000000

LOEWDIN ATOMIC CHARGES
----------------------
   0 C :   -0.042104
   1 C :    0.054831
   2 F :   -0.048079
   3 C :    0.069303
   4 F :   -0.033908
   5 C :   -0.085473
   6 C :    0.065308
   7 C :    0.057149
   8 F :   -0.047725
   9 F :   -0.038261
  10 C :    0.073276
  11 N :   -0.074930
  12 C :    0.048322
  13 C :   -0.058510
  14 C :    0.066582
  15 O :   -0.138031
  16 C :   -0.037276
  17 C :    0.029928
  18 N :   -0.093928
  19 C :    0.077932
  20 C :   -0.032943
  21 C :   -0.018071
  22 C :   -0.031127
  23 C :    0.004759
  24 C :   -0.029303
  25 C :   -0.002680
  26 C :   -0.023911
  27 C :   -0.031201
  28 C :   -0.040266
  29 C :    0.024534
  30 N :   -0.113137
  31 C :    0.028583
  32 N :   -0.119484
  33 C :   -0.016589
  34 C :    0.065866
  35 C :   -0.031790
  36 C :   -0.036952
  37 C :   -0.014849
  38 C :   -0.039153
  39 C :   -0.026313
  40 C :   -0.006730
  41 C :   -0.016916
  42 C :    0.077626
  43 C :   -0.050558
  44 C :    0.076145
  45 N :   -0.108934
  46 C :    0.047163
  47 C :   -0.042471
  48 C :    0.067370
  49 O :   -0.136361
  50 C :   -0.040073
  51 C :    0.019121
  52 N :   -0.097841
  53 C :    0.072437
  54 C :   -0.036289
  55 C :   -0.027730
  56 C :   -0.026716
  57 C :    0.014171
  58 C :   -0.066759
  59 C :    0.060985
  60 F :   -0.046832
  61 C :    0.056603
  62 F :   -0.050978
  63 C :   -0.057780
  64 C :    0.056098
  65 C :    0.061322
  66 F :   -0.037100
  67 F :   -0.049639
  68 H :    0.053671
  69 H :    0.024162
  70 H :    0.034987
  71 H :    0.037784
  72 H :    0.029923
  73 H :    0.027161
  74 H :    0.032959
  75 H :   -0.004523
  76 H :    0.020058
  77 H :    0.049790
  78 H :    0.055144
  79 H :   -0.001672
  80 H :    0.009790
  81 H :    0.054573
  82 H :    0.054301
  83 H :    0.028367
  84 H :    0.060078
  85 H :    0.026696
  86 H :    0.032017
  87 H :    0.028333
  88 H :    0.029352
  89 H :    0.038535
  90 H :    0.035710
  91 H :    0.023347
  92 H :    0.034307
  93 H :    0.024475
  94 H :    0.036411
  95 H :    0.054552

  Mayer bond orders larger than 0.100000
B(  0-C ,  1-C ) :   1.3298 B(  0-C ,  5-C ) :   0.1310 B(  0-C ,  7-C ) :   1.3250
B(  0-C , 68-H ) :   1.0144 B(  1-C ,  2-F ) :   1.1240 B(  1-C ,  3-C ) :   1.2801
B(  3-C ,  4-F ) :   1.2099 B(  3-C ,  5-C ) :   1.3393 B(  5-C ,  6-C ) :   1.3390
B(  5-C , 10-C ) :   0.9153 B(  6-C ,  7-C ) :   1.3158 B(  6-C ,  9-F ) :   1.1705
B(  7-C ,  8-F ) :   1.1052 B( 10-C , 11-N ) :   1.7319 B( 10-C , 12-C ) :   0.1148
B( 10-C , 21-C ) :   1.0418 B( 11-N , 12-C ) :   1.2741 B( 12-C , 13-C ) :   1.0557
B( 12-C , 17-C ) :   1.4711 B( 13-C , 14-C ) :   0.8962 B( 13-C , 21-C ) :   1.5540
B( 14-C , 15-O ) :   2.2965 B( 14-C , 16-C ) :   0.8891 B( 16-C , 17-C ) :   1.0443
B( 16-C , 20-C ) :   1.6414 B( 17-C , 18-N ) :   1.2917 B( 18-N , 19-C ) :   1.6804
B( 19-C , 20-C ) :   1.0544 B( 19-C , 69-H ) :   0.9885 B( 20-C , 70-H ) :   1.0094
B( 21-C , 22-C ) :   1.1261 B( 22-C , 23-C ) :   1.6501 B( 22-C , 71-H ) :   0.9598
B( 23-C , 24-C ) :   1.1034 B( 23-C , 72-H ) :   0.9701 B( 24-C , 25-C ) :   1.4825
B( 24-C , 41-C ) :   1.1279 B( 25-C , 26-C ) :   1.1323 B( 25-C , 73-H ) :   1.0004
B( 26-C , 27-C ) :   1.4918 B( 26-C , 39-C ) :   1.1121 B( 27-C , 28-C ) :   1.0492
B( 27-C , 33-C ) :   1.0828 B( 28-C , 29-C ) :   1.0294 B( 28-C , 31-C ) :   1.0316
B( 28-C , 74-H ) :   0.8752 B( 29-C , 30-N ) :   1.1105 B( 29-C , 75-H ) :   0.9235
B( 29-C , 76-H ) :   0.9482 B( 30-N , 77-H ) :   0.9702 B( 30-N , 78-H ) :   0.9674
B( 31-C , 32-N ) :   1.0972 B( 31-C , 79-H ) :   0.9279 B( 31-C , 80-H ) :   0.9348
B( 32-N , 81-H ) :   0.9562 B( 32-N , 82-H ) :   0.9591 B( 33-C , 34-C ) :   1.6697
B( 33-C , 38-C ) :   1.0461 B( 34-C , 35-C ) :   0.9664 B( 34-C , 83-H ) :   0.9614
B( 35-C , 36-C ) :   0.9936 B( 35-C , 42-C ) :   0.9484 B( 35-C , 84-H ) :   0.8634
B( 36-C , 37-C ) :   1.7034 B( 36-C , 85-H ) :   0.9804 B( 37-C , 38-C ) :   1.1309
B( 37-C , 86-H ) :   0.9922 B( 38-C , 39-C ) :   1.4424 B( 39-C , 40-C ) :   1.1342
B( 40-C , 41-C ) :   1.6208 B( 40-C , 87-H ) :   0.9904 B( 41-C , 88-H ) :   0.9830
B( 42-C , 43-C ) :   1.7749 B( 42-C , 89-H ) :   0.9689 B( 43-C , 44-C ) :   1.1196
B( 43-C , 90-H ) :   0.9521 B( 44-C , 45-N ) :   1.5998 B( 44-C , 46-C ) :   0.1108
B( 44-C , 55-C ) :   1.0046 B( 45-N , 46-C ) :   1.3591 B( 46-C , 47-C ) :   1.0527
B( 46-C , 51-C ) :   1.4126 B( 47-C , 48-C ) :   0.8911 B( 47-C , 55-C ) :   1.5634
B( 48-C , 49-O ) :   2.1902 B( 48-C , 50-C ) :   0.9320 B( 49-O , 94-H ) :   0.1035
B( 50-C , 51-C ) :   1.0705 B( 50-C , 54-C ) :   1.5964 B( 51-C , 52-N ) :   1.3174
B( 52-N , 53-C ) :   1.6518 B( 53-C , 54-C ) :   1.0757 B( 53-C , 91-H ) :   0.9894
B( 54-C , 92-H ) :   1.0122 B( 55-C , 56-C ) :   1.1175 B( 56-C , 57-C ) :   1.6841
B( 56-C , 93-H ) :   0.9607 B( 57-C , 58-C ) :   1.0795 B( 57-C , 94-H ) :   0.9558
B( 58-C , 59-C ) :   1.2678 B( 58-C , 63-C ) :   0.1229 B( 58-C , 65-C ) :   1.2835
B( 59-C , 60-F ) :   1.1208 B( 59-C , 61-C ) :   1.3193 B( 61-C , 62-F ) :   1.1209
B( 61-C , 63-C ) :   1.3195 B( 63-C , 64-C ) :   1.3144 B( 63-C , 95-H ) :   1.0203
B( 64-C , 65-C ) :   1.3069 B( 64-C , 67-F ) :   1.1245 B( 65-C , 66-F ) :   1.1580

-----------------------------------------------------------------------------
         ABSORPTION SPECTRUM VIA TRANSITION ELECTRIC DIPOLE MOMENTS
-----------------------------------------------------------------------------
State   Energy  Wavelength   fosc         T2         TX        TY        TZ
        (cm-1)    (nm)                  (au**2)     (au)      (au)      (au)
-----------------------------------------------------------------------------
   0   10467.8    955.3   0.082022355   2.57961  -0.16932  -1.45722   0.65379
   1   12968.8    771.1   0.087646957   2.22492  -0.48898  -0.58097   1.28386
   2   14961.6    668.4   0.105763905   2.32720   0.91849  -0.77406   0.94043
   3   18517.3    540.0   0.078920866   1.40310   0.43723   0.72477  -0.82864
   4   20136.5    496.6   0.083791099   1.36990   0.37331   0.76288  -0.80533
   5   21920.2    456.2   0.004574623   0.06870  -0.07986   0.20228  -0.14633
   6   21976.2    455.0   0.000823278   0.01233  -0.10675  -0.00846   0.02943
   7   23604.6    423.6   0.278041153   3.87783  -0.02434  -1.56467   1.19542
   8   24354.8    410.6   0.184629745   2.49570   0.28608  -1.41117   0.64997
   9   24955.7    400.7   0.303731004   4.00677   0.20345   1.74051  -0.96747
  10   25416.8    393.4   0.185736840   2.40576   0.21678  -0.78324   1.32110
  11   25818.8    387.3   0.019341802   0.24662  -0.06398  -0.49145   0.03176
  12   26052.8    383.8   0.478490751   6.04637  -0.12681  -2.19806   1.09490
  13   26517.8    377.1   0.018245832   0.22652  -0.01805  -0.14582   0.45269
  14   26628.0    375.5   0.028219360   0.34889  -0.06198  -0.06267   0.58405
  15   26775.7    373.5   0.229343894   2.81982  -0.01930  -0.31845   1.64865
  16   27544.6    363.0   0.007608329   0.09093   0.22657  -0.15251  -0.12783
  17   27649.3    361.7   0.004062803   0.04837   0.10287   0.15097   0.12248
  18   27852.3    359.0   0.032316765   0.38198   0.00645   0.37626  -0.49028
  19   27889.7    358.6   0.054438478   0.64259  -0.14389   0.31392  -0.72343
  20   29142.9    343.1   0.034025335   0.38437   0.12354  -0.59745   0.11025
  21   29203.3    342.4   0.436359234   4.91913  -0.65535  -1.44350   1.55112
  22   29569.3    338.2   0.061900640   0.68917   0.19335   0.64397  -0.48692
  23   29818.4    335.4   0.046690317   0.51549  -0.39170  -0.52206   0.29918
  24   29960.8    333.8   0.118657270   1.30382  -0.53250  -0.53248   0.85833
  25   30368.0    329.3   0.544113757   5.89860  -1.02317  -0.93226   1.99565
  26   30717.0    325.6   0.000443397   0.00475   0.03231   0.02984  -0.05308
  27   31059.2    322.0   0.031722948   0.33625  -0.29414  -0.16603   0.47134
  28   31379.2    318.7   0.049186421   0.51604  -0.52425  -0.32722   0.36623
  29   31512.9    317.3   0.012390788   0.12945   0.25496   0.24520  -0.06568
  30   31695.5    315.5   0.033664351   0.34966  -0.24569   0.35471  -0.40432
  31   32353.4    309.1   0.151745187   1.54408   0.33391  -0.58946   1.04170
  32   32441.8    308.2   0.014897711   0.15118  -0.00763   0.29294   0.25555
  33   32907.4    303.9   0.006457933   0.06461  -0.06514   0.15143  -0.19347
  34   33290.5    300.4   0.017188531   0.16998   0.09125   0.30269   0.26463
  35   33611.7    297.5   0.040632663   0.39798   0.13133   0.52095  -0.33067
  36   34336.0    291.2   0.074858089   0.71774  -0.10405  -0.36725   0.75633
  37   34406.0    290.6   0.030963188   0.29627  -0.05542   0.32347  -0.43424
  38   34584.8    289.1   0.000455899   0.00434  -0.01426  -0.03972   0.05058
  39   34693.7    288.2   0.092838242   0.88095   0.02593   0.52094  -0.78032
  40   35309.4    283.2   0.237651467   2.21577  -0.41324   0.82001  -1.17158
  41   35772.4    279.5   0.118285348   1.08858   0.21253  -0.87978   0.51902
  42   36265.6    275.7   0.005493543   0.04987   0.04583  -0.11580   0.18536
  43   36302.2    275.5   0.004530844   0.04109  -0.06613   0.13006  -0.14071
  44   36476.1    274.2   0.040300340   0.36373   0.33635   0.18048  -0.46693
  45   37019.4    270.1   0.022124129   0.19675  -0.04614   0.26058   0.35597
  46   37110.1    269.5   0.182841218   1.62202   0.10439   1.19972  -0.41448
  47   37188.0    268.9   0.009431448   0.08349  -0.14597  -0.21344  -0.12896
  48   37295.2    268.1   0.175274439   1.54718  -0.19560  -0.88173   0.85526
  49   37611.0    265.9   0.147788097   1.29360   0.45038   0.96822  -0.39154
  50   37912.9    263.8   0.009841444   0.08546  -0.26358  -0.08288  -0.09546
  51   38003.5    263.1   0.089466847   0.77502  -0.02787   0.84627  -0.24100
  52   38581.9    259.2   0.046683785   0.39834  -0.25461  -0.55281  -0.16708
  53   38728.9    258.2   0.019537382   0.16608  -0.15456  -0.32250   0.19540
  54   38977.0    256.6   0.324048473   2.73701  -0.64509   1.32397   0.75363
  55   38985.0    256.5   0.015053189   0.12712   0.32827  -0.00811  -0.13890
  56   39619.8    252.4   0.462594294   3.84382   0.87484   0.66801  -1.62242
  57   40010.6    249.9   0.075657836   0.62252   0.12063  -0.77953   0.01746

FINAL SINGLE POINT ENERGY     -3271.863491809857

DIPOLE MOMENT
-------------
                                X             Y             Z
Electronic contribution:    -25.75083      12.69771      58.02075
Nuclear contribution   :     25.77537     -11.99060     -59.79864
                        -----------------------------------------
Total Dipole Moment    :      0.02455       0.70711      -1.77789
                        -----------------------------------------
Magnitude (a.u.)       :      1.91351
Magnitude (Debye)      :      4.86375

Rotational constants in cm-1:     0.001531     0.000504     0.000440
Rotational constants in MHz :    45.884918    15.114486    13.194807

                             ****ORCA TERMINATED NORMALLY****
TOTAL RUN TIME: 0 days 0 hours 17 minutes 23 seconds 58 msec
