                         Program Version 4.2.0 -  RELEASE  -
|  1> # ORCA input file
|  2> # SCF done       -184.757379042752          0.000493166796
|  3> ! CAM-B3LYP def2-SVP def2/J RIJCOSX Grid4 TightSCF
|  4> %maxcore 5000
|  5> %tddft
|  6>     Mode sTDDFT
|  7>     Ethresh 5.0
|  8>     maxcore 5000
|  9> end
| 10>
| 11> %pal
| 12>   nprocs 6
| 13>   end
| 14> * xyz 0 1
| 15>    C       -9.87431         8.08971        -2.93258
| 16>    C       -9.26464         8.76904        -3.95175
| 17>    C       -9.59083        10.09048        -4.32630
| 18>    N       -9.81582        11.15818        -4.68125
| 19>    C       -8.26594         8.23182        -4.79158
| 20>    N       -7.45639         7.84800        -5.50913
| 21>    C      -10.93342         8.60047        -2.07370
| 22>    C      -11.42587         7.54284        -1.26655
| 23>    C      -12.43478         7.71960        -0.35054
| 24>    C      -12.96955         9.00157        -0.20517
| 25>    C      -12.46788        10.05387        -1.01137
| 26>    C      -11.45918         9.87362        -1.94920
| 27>    S      -13.27567        11.54975        -0.66499
| 28>    C      -14.25380        10.77386         0.53037
| 29>    C      -13.99532         9.45500         0.67053
| 30>    C      -10.70076         6.30454        -1.58834
| 31>    O      -11.01435         5.17266        -1.29180
| 32>    C       -9.59022         6.72800        -2.50037
| 33>    C       -8.51431         5.96574        -2.81158
| 34>    C       -8.16472         4.77406        -2.10974
| 35>    C       -7.45077         3.60812        -2.65472
| 36>    N       -7.21921         2.67117        -1.78649
| 37>    C       -7.72759         3.12712        -0.60326
| 38>    C       -8.32482         4.46335        -0.78392
| 39>    C       -8.74884         4.98893         0.48962
| 40>    S       -9.09533         6.56704         0.81731
| 41>    C       -8.57335         3.89672         1.40276
| 42>    C       -7.87379         2.78539         0.71199
| 43>    N       -7.58828         1.78133         1.58893
| 44>    C       -8.04184         2.17831         2.73791
| 45>    C       -8.71158         3.48726         2.71019
| 46>    C       -9.38017         4.06468         3.81934
| 47>    S       -8.79079         3.76603         5.42865
| 48>    C      -10.02172         4.79836         6.10885
| 49>    C      -10.88905         5.26441         5.13071
| 50>    C      -10.52815         4.84489         3.83740
| 51>    C      -11.37713         5.13529         2.65043
| 52>    C      -12.82036         5.37054         3.08207
| 53>    C      -12.85216         6.47543         4.14432
| 54>    C      -14.27998         6.85953         4.43245
| 55>    O      -14.83502         6.75711         5.48689
| 56>    C      -12.13746         6.02308         5.41680
| 57>    C      -10.00558         5.00927         7.51424
| 58>    C       -9.61973         3.95178         8.46472
| 59>    N       -9.66049         4.30521         9.71060
| 60>    C      -10.02773         5.61776         9.70696
| 61>    C      -10.26869         6.09297         8.32273
| 62>    C      -10.52168         7.50957         8.34411
| 63>    S      -10.69022         8.56618         7.09353
| 64>    C      -10.47221         7.86324         9.74125
| 65>    C      -10.16809         6.67819        10.55685
| 66>    N      -10.05711         7.02218        11.87460
| 67>    C      -10.30020         8.29393        11.92751
| 68>    C      -10.56512         8.91674        10.61527
| 69>    C      -10.76135        10.29902        10.34735
| 70>    C      -11.28697        11.23386        11.17473
| 71>    C      -12.00236        11.11223        12.43143
| 72>    C      -12.80137        10.06194        12.79747
| 73>    C      -13.53811        10.02174        13.99969
| 74>    N      -14.13993         9.94691        14.97360
| 75>    C      -13.05601         8.95194        11.96309
| 76>    N      -13.34269         8.06604        11.29242
| 77>    C      -11.90685        12.39938        13.10547
| 78>    C      -11.36581        13.35062        12.19906
| 79>    C      -11.04410        12.68799        10.92369
| 80>    O      -10.62170        13.18109         9.90584
| 81>    C      -11.18995        14.67099        12.53888
| 82>    C      -11.55332        15.06807        13.82897
| 83>    C      -12.07932        14.10791        14.72919
| 84>    C      -12.26547        12.77412        14.38590
| 85>    S      -12.44655        14.82211        16.26592
| 86>    C      -11.91102        16.36703        15.70353
| 87>    C      -11.47316        16.35760        14.42535
| 88>    H      -12.79248         6.89008         0.23899
| 89>    H      -11.11150        10.70574        -2.53858
| 90>    H      -14.97476        11.36170         1.06465
| 91>    H      -14.50845         8.81386         1.36435
| 92>    H       -7.82884         6.27483        -3.59046
| 93>    H       -7.14802         3.49912        -3.68164
| 94>    H       -7.94369         1.56460         3.61706
| 95>    H      -11.31240         4.32075         1.92499
| 96>    H      -10.99694         6.03424         2.14834
| 97>    H      -13.23908         4.45306         3.50153
| 98>    H      -13.42486         5.65182         2.21842
| 99>    H      -12.35393         7.36046         3.73000
|100>    H      -14.81284         7.24723         3.53952
|101>    H      -12.81546         5.39930         6.00893
|102>    H      -11.91227         6.90104         6.02851
|103>    H       -9.34486         2.95085         8.17861
|104>    H      -10.24380         8.82245        12.86349
|105>    H      -10.39162        10.66003         9.39176
|106>    H      -10.78464        15.37556        11.82941
|107>    H      -12.66309        12.07538        15.10363
|108>    H      -11.95704        17.20124        16.37630
|109>    H      -11.10307        17.22460        13.90898
|110> *
|111>
|112>                          ****END OF INPUT****

CARTESIAN COORDINATES (ANGSTROEM)
---------------------------------
  C     -9.874310    8.089710   -2.932580
  C     -9.264640    8.769040   -3.951750
  C     -9.590830   10.090480   -4.326300
  N     -9.815820   11.158180   -4.681250
  C     -8.265940    8.231820   -4.791580
  N     -7.456390    7.848000   -5.509130
  C    -10.933420    8.600470   -2.073700
  C    -11.425870    7.542840   -1.266550
  C    -12.434780    7.719600   -0.350540
  C    -12.969550    9.001570   -0.205170
  C    -12.467880   10.053870   -1.011370
  C    -11.459180    9.873620   -1.949200
  S    -13.275670   11.549750   -0.664990
  C    -14.253800   10.773860    0.530370
  C    -13.995320    9.455000    0.670530
  C    -10.700760    6.304540   -1.588340
  O    -11.014350    5.172660   -1.291800
  C     -9.590220    6.728000   -2.500370
  C     -8.514310    5.965740   -2.811580
  C     -8.164720    4.774060   -2.109740
  C     -7.450770    3.608120   -2.654720
  N     -7.219210    2.671170   -1.786490
  C     -7.727590    3.127120   -0.603260
  C     -8.324820    4.463350   -0.783920
  C     -8.748840    4.988930    0.489620
  S     -9.095330    6.567040    0.817310
  C     -8.573350    3.896720    1.402760
  C     -7.873790    2.785390    0.711990
  N     -7.588280    1.781330    1.588930
  C     -8.041840    2.178310    2.737910
  C     -8.711580    3.487260    2.710190
  C     -9.380170    4.064680    3.819340
  S     -8.790790    3.766030    5.428650
  C    -10.021720    4.798360    6.108850
  C    -10.889050    5.264410    5.130710
  C    -10.528150    4.844890    3.837400
  C    -11.377130    5.135290    2.650430
  C    -12.820360    5.370540    3.082070
  C    -12.852160    6.475430    4.144320
  C    -14.279980    6.859530    4.432450
  O    -14.835020    6.757110    5.486890
  C    -12.137460    6.023080    5.416800
  C    -10.005580    5.009270    7.514240
  C     -9.619730    3.951780    8.464720
  N     -9.660490    4.305210    9.710600
  C    -10.027730    5.617760    9.706960
  C    -10.268690    6.092970    8.322730
  C    -10.521680    7.509570    8.344110
  S    -10.690220    8.566180    7.093530
  C    -10.472210    7.863240    9.741250
  C    -10.168090    6.678190   10.556850
  N    -10.057110    7.022180   11.874600
  C    -10.300200    8.293930   11.927510
  C    -10.565120    8.916740   10.615270
  C    -10.761350   10.299020   10.347350
  C    -11.286970   11.233860   11.174730
  C    -12.002360   11.112230   12.431430
  C    -12.801370   10.061940   12.797470
  C    -13.538110   10.021740   13.999690
  N    -14.139930    9.946910   14.973600
  C    -13.056010    8.951940   11.963090
  N    -13.342690    8.066040   11.292420
  C    -11.906850   12.399380   13.105470
  C    -11.365810   13.350620   12.199060
  C    -11.044100   12.687990   10.923690
  O    -10.621700   13.181090    9.905840
  C    -11.189950   14.670990   12.538880
  C    -11.553320   15.068070   13.828970
  C    -12.079320   14.107910   14.729190
  C    -12.265470   12.774120   14.385900
  S    -12.446550   14.822110   16.265920
  C    -11.911020   16.367030   15.703530
  C    -11.473160   16.357600   14.425350
  H    -12.792480    6.890080    0.238990
  H    -11.111500   10.705740   -2.538580
  H    -14.974760   11.361700    1.064650
  H    -14.508450    8.813860    1.364350
  H     -7.828840    6.274830   -3.590460
  H     -7.148020    3.499120   -3.681640
  H     -7.943690    1.564600    3.617060
  H    -11.312400    4.320750    1.924990
  H    -10.996940    6.034240    2.148340
  H    -13.239080    4.453060    3.501530
  H    -13.424860    5.651820    2.218420
  H    -12.353930    7.360460    3.730000
  H    -14.812840    7.247230    3.539520
  H    -12.815460    5.399300    6.008930
  H    -11.912270    6.901040    6.028510
  H     -9.344860    2.950850    8.178610
  H    -10.243800    8.822450   12.863490
  H    -10.391620   10.660030    9.391760
  H    -10.784640   15.375560   11.829410
  H    -12.663090   12.075380   15.103630
  H    -11.957040   17.201240   16.376300
  H    -11.103070   17.224600   13.908980

 Total Charge           Charge          ....    0
 Multiplicity           Mult            ....    1
 Number of Electrons    NEL             ....  524
 Basis Dimension        Dim             .... 1152

ORBITAL ENERGIES
----------------

  NO   OCC          E(Eh)            E(eV)
   0   2.0000     -88.976908     -2421.1847
   1   2.0000     -88.974462     -2421.1182
   2   2.0000     -88.973392     -2421.0891
   3   2.0000     -88.918638     -2419.5992
   4   2.0000     -88.916093     -2419.5299
   5   2.0000     -19.224514      -523.1256
   6   2.0000     -19.224451      -523.1239
   7   2.0000     -19.221203      -523.0355
   8   2.0000     -14.430736      -392.6803
   9   2.0000     -14.428733      -392.6258
  10   2.0000     -14.425420      -392.5356
  11   2.0000     -14.424841      -392.5199
  12   2.0000     -14.423900      -392.4943
  13   2.0000     -14.423764      -392.4906
  14   2.0000     -14.423239      -392.4763
  15   2.0000     -14.421345      -392.4248
  16   2.0000     -10.375993      -282.3451
  17   2.0000     -10.375137      -282.3218
  18   2.0000     -10.363204      -281.9971
  19   2.0000     -10.356112      -281.8041
  20   2.0000     -10.355715      -281.7933
  21   2.0000     -10.355128      -281.7774
  22   2.0000     -10.352303      -281.7005
  23   2.0000     -10.350592      -281.6539
  24   2.0000     -10.350462      -281.6504
  25   2.0000     -10.349378      -281.6209
  26   2.0000     -10.347695      -281.5751
  27   2.0000     -10.346373      -281.5391
  28   2.0000     -10.345538      -281.5164
  29   2.0000     -10.344215      -281.4804
  30   2.0000     -10.344147      -281.4785
  31   2.0000     -10.341841      -281.4158
  32   2.0000     -10.340506      -281.3795
  33   2.0000     -10.329304      -281.0746
  34   2.0000     -10.328024      -281.0398
  35   2.0000     -10.327127      -281.0154
  36   2.0000     -10.326018      -280.9852
  37   2.0000     -10.325555      -280.9726
  38   2.0000     -10.325430      -280.9692
  39   2.0000     -10.325393      -280.9682
  40   2.0000     -10.325326      -280.9664
  41   2.0000     -10.325172      -280.9622
  42   2.0000     -10.324999      -280.9575
  43   2.0000     -10.323646      -280.9207
  44   2.0000     -10.323295      -280.9111
  45   2.0000     -10.321642      -280.8662
  46   2.0000     -10.321551      -280.8637
  47   2.0000     -10.317899      -280.7643
  48   2.0000     -10.316661      -280.7306
  49   2.0000     -10.314713      -280.6776
  50   2.0000     -10.314369      -280.6682
  51   2.0000     -10.312867      -280.6274
  52   2.0000     -10.312570      -280.6193
  53   2.0000     -10.312546      -280.6187
  54   2.0000     -10.312312      -280.6123
  55   2.0000     -10.311907      -280.6012
  56   2.0000     -10.311444      -280.5887
  57   2.0000     -10.311165      -280.5811
  58   2.0000     -10.310515      -280.5634
  59   2.0000     -10.310213      -280.5551
  60   2.0000     -10.310125      -280.5528
  61   2.0000     -10.307783      -280.4890
  62   2.0000     -10.306730      -280.4604
  63   2.0000     -10.300359      -280.2870
  64   2.0000     -10.300178      -280.2821
  65   2.0000     -10.299798      -280.2717
  66   2.0000     -10.299164      -280.2545
  67   2.0000     -10.296793      -280.1900
  68   2.0000     -10.296170      -280.1730
  69   2.0000     -10.288779      -279.9719
  70   2.0000     -10.287128      -279.9270
  71   2.0000     -10.280728      -279.7528
  72   2.0000     -10.272750      -279.5358
  73   2.0000      -8.072417      -219.6616
  74   2.0000      -8.070649      -219.6135
  75   2.0000      -8.069696      -219.5876
  76   2.0000      -8.013472      -218.0577
  77   2.0000      -8.011335      -217.9995
  78   2.0000      -6.041705      -164.4032
  79   2.0000      -6.040149      -164.3608
  80   2.0000      -6.039186      -164.3346
  81   2.0000      -6.037701      -164.2942
  82   2.0000      -6.035843      -164.2436
  83   2.0000      -6.034904      -164.2181
  84   2.0000      -6.034398      -164.2043
  85   2.0000      -6.032376      -164.1493
  86   2.0000      -6.031361      -164.1217
  87   2.0000      -5.982222      -162.7845
  88   2.0000      -5.981847      -162.7743
  89   2.0000      -5.980258      -162.7311
  90   2.0000      -5.979839      -162.7197
  91   2.0000      -5.973095      -162.5362
  92   2.0000      -5.970606      -162.4684
  93   2.0000      -1.139842       -31.0167
  94   2.0000      -1.139587       -31.0097
  95   2.0000      -1.137881       -30.9633
  96   2.0000      -1.096983       -29.8504
  97   2.0000      -1.096404       -29.8347
  98   2.0000      -1.077251       -29.3135
  99   2.0000      -1.076961       -29.3056
 100   2.0000      -1.029813       -28.0226
 101   2.0000      -1.027212       -27.9519
 102   2.0000      -1.016572       -27.6623
 103   2.0000      -1.015480       -27.6326
 104   2.0000      -1.010938       -27.5090
 105   2.0000      -1.003092       -27.2955
 106   2.0000      -1.000755       -27.2319
 107   2.0000      -0.994532       -27.0626
 108   2.0000      -0.992496       -27.0072
 109   2.0000      -0.977841       -26.6084
 110   2.0000      -0.976447       -26.5705
 111   2.0000      -0.942912       -25.6579
 112   2.0000      -0.941149       -25.6100
 113   2.0000      -0.939386       -25.5620
 114   2.0000      -0.923395       -25.1269
 115   2.0000      -0.921921       -25.0868
 116   2.0000      -0.921604       -25.0781
 117   2.0000      -0.895416       -24.3655
 118   2.0000      -0.892748       -24.2929
 119   2.0000      -0.890113       -24.2212
 120   2.0000      -0.888891       -24.1879
 121   2.0000      -0.886879       -24.1332
 122   2.0000      -0.869349       -23.6562
 123   2.0000      -0.866629       -23.5822
 124   2.0000      -0.859403       -23.3856
 125   2.0000      -0.852666       -23.2022
 126   2.0000      -0.845683       -23.0122
 127   2.0000      -0.842331       -22.9210
 128   2.0000      -0.831491       -22.6260
 129   2.0000      -0.830766       -22.6063
 130   2.0000      -0.811919       -22.0934
 131   2.0000      -0.798301       -21.7229
 132   2.0000      -0.792578       -21.5671
 133   2.0000      -0.782727       -21.2991
 134   2.0000      -0.776629       -21.1332
 135   2.0000      -0.765190       -20.8219
 136   2.0000      -0.764052       -20.7909
 137   2.0000      -0.756615       -20.5885
 138   2.0000      -0.753819       -20.5125
 139   2.0000      -0.747091       -20.3294
 140   2.0000      -0.724023       -19.7017
 141   2.0000      -0.720426       -19.6038
 142   2.0000      -0.717604       -19.5270
 143   2.0000      -0.713032       -19.4026
 144   2.0000      -0.708458       -19.2781
 145   2.0000      -0.704271       -19.1642
 146   2.0000      -0.697241       -18.9729
 147   2.0000      -0.696509       -18.9530
 148   2.0000      -0.688666       -18.7395
 149   2.0000      -0.686823       -18.6894
 150   2.0000      -0.671290       -18.2667
 151   2.0000      -0.669341       -18.2137
 152   2.0000      -0.666659       -18.1407
 153   2.0000      -0.661750       -18.0071
 154   2.0000      -0.650304       -17.6957
 155   2.0000      -0.640949       -17.4411
 156   2.0000      -0.639545       -17.4029
 157   2.0000      -0.629542       -17.1307
 158   2.0000      -0.629018       -17.1165
 159   2.0000      -0.626717       -17.0538
 160   2.0000      -0.622705       -16.9447
 161   2.0000      -0.613200       -16.6860
 162   2.0000      -0.608251       -16.5514
 163   2.0000      -0.601251       -16.3609
 164   2.0000      -0.600425       -16.3384
 165   2.0000      -0.595683       -16.2094
 166   2.0000      -0.591405       -16.0929
 167   2.0000      -0.586955       -15.9719
 168   2.0000      -0.581071       -15.8117
 169   2.0000      -0.576237       -15.6802
 170   2.0000      -0.572783       -15.5862
 171   2.0000      -0.568051       -15.4575
 172   2.0000      -0.559924       -15.2363
 173   2.0000      -0.558533       -15.1985
 174   2.0000      -0.557069       -15.1586
 175   2.0000      -0.555576       -15.1180
 176   2.0000      -0.553771       -15.0689
 177   2.0000      -0.547718       -14.9042
 178   2.0000      -0.545963       -14.8564
 179   2.0000      -0.544072       -14.8050
 180   2.0000      -0.541025       -14.7220
 181   2.0000      -0.538976       -14.6663
 182   2.0000      -0.538687       -14.6584
 183   2.0000      -0.537168       -14.6171
 184   2.0000      -0.531815       -14.4714
 185   2.0000      -0.527582       -14.3562
 186   2.0000      -0.526607       -14.3297
 187   2.0000      -0.523939       -14.2571
 188   2.0000      -0.518636       -14.1128
 189   2.0000      -0.518315       -14.1041
 190   2.0000      -0.515570       -14.0294
 191   2.0000      -0.511759       -13.9257
 192   2.0000      -0.508563       -13.8387
 193   2.0000      -0.507652       -13.8139
 194   2.0000      -0.506865       -13.7925
 195   2.0000      -0.505219       -13.7477
 196   2.0000      -0.503532       -13.7018
 197   2.0000      -0.501634       -13.6502
 198   2.0000      -0.500381       -13.6160
 199   2.0000      -0.499560       -13.5937
 200   2.0000      -0.497741       -13.5442
 201   2.0000      -0.496767       -13.5177
 202   2.0000      -0.494661       -13.4604
 203   2.0000      -0.493402       -13.4261
 204   2.0000      -0.491543       -13.3756
 205   2.0000      -0.487881       -13.2759
 206   2.0000      -0.483030       -13.1439
 207   2.0000      -0.477281       -12.9875
 208   2.0000      -0.475382       -12.9358
 209   2.0000      -0.469015       -12.7626
 210   2.0000      -0.461706       -12.5637
 211   2.0000      -0.460971       -12.5437
 212   2.0000      -0.459403       -12.5010
 213   2.0000      -0.456920       -12.4334
 214   2.0000      -0.454953       -12.3799
 215   2.0000      -0.452557       -12.3147
 216   2.0000      -0.451187       -12.2774
 217   2.0000      -0.450268       -12.2524
 218   2.0000      -0.449103       -12.2207
 219   2.0000      -0.444359       -12.0916
 220   2.0000      -0.443068       -12.0565
 221   2.0000      -0.441507       -12.0140
 222   2.0000      -0.439623       -11.9627
 223   2.0000      -0.439378       -11.9561
 224   2.0000      -0.438727       -11.9384
 225   2.0000      -0.434623       -11.8267
 226   2.0000      -0.433436       -11.7944
 227   2.0000      -0.432075       -11.7574
 228   2.0000      -0.431333       -11.7372
 229   2.0000      -0.429323       -11.6825
 230   2.0000      -0.427483       -11.6324
 231   2.0000      -0.424576       -11.5533
 232   2.0000      -0.423677       -11.5288
 233   2.0000      -0.416678       -11.3384
 234   2.0000      -0.413836       -11.2610
 235   2.0000      -0.411821       -11.2062
 236   2.0000      -0.408360       -11.1120
 237   2.0000      -0.388512       -10.5720
 238   2.0000      -0.387350       -10.5403
 239   2.0000      -0.385261       -10.4835
 240   2.0000      -0.372938       -10.1482
 241   2.0000      -0.372362       -10.1325
 242   2.0000      -0.368370       -10.0238
 243   2.0000      -0.365250        -9.9390
 244   2.0000      -0.361918        -9.8483
 245   2.0000      -0.361091        -9.8258
 246   2.0000      -0.347869        -9.4660
 247   2.0000      -0.344389        -9.3713
 248   2.0000      -0.342082        -9.3085
 249   2.0000      -0.336384        -9.1535
 250   2.0000      -0.330949        -9.0056
 251   2.0000      -0.328516        -8.9394
 252   2.0000      -0.324459        -8.8290
 253   2.0000      -0.322370        -8.7721
 254   2.0000      -0.321640        -8.7523
 255   2.0000      -0.310326        -8.4444
 256   2.0000      -0.308158        -8.3854
 257   2.0000      -0.302565        -8.2332
 258   2.0000      -0.301614        -8.2073
 259   2.0000      -0.298687        -8.1277
 260   2.0000      -0.297306        -8.0901
 261   2.0000      -0.280185        -7.6242
 262   0.0000      -0.129801        -3.5321
 263   0.0000      -0.123399        -3.3578
 264   0.0000      -0.109133        -2.9697
 265   0.0000      -0.095871        -2.6088
 266   0.0000      -0.082106        -2.2342

MULLIKEN ATOMIC CHARGES
-----------------------
   0 C :    0.297107
   1 C :   -0.338830
   2 C :   -0.184561
   3 N :    0.159326
   4 C :   -0.182073
   5 N :    0.151530
   6 C :    0.021249
   7 C :    0.018907
   8 C :   -0.064498
   9 C :    0.129211
  10 C :   -0.096266
  11 C :   -0.022609
  12 S :    0.148736
  13 C :   -0.043594
  14 C :    0.021317
  15 C :    0.108853
  16 O :   -0.149279
  17 C :   -0.038310
  18 C :   -0.037013
  19 C :   -0.002108
  20 C :    0.071712
  21 N :   -0.024257
  22 C :    0.025643
  23 C :    0.033423
  24 C :   -0.019198
  25 S :   -0.107584
  26 C :   -0.010846
  27 C :   -0.002754
  28 N :   -0.019163
  29 C :    0.058387
  30 C :    0.002941
  31 C :   -0.147245
  32 S :    0.134539
  33 C :   -0.149141
  34 C :   -0.034856
  35 C :   -0.083496
  36 C :    0.165036
  37 C :    0.012437
  38 C :   -0.154254
  39 C :    0.157466
  40 O :   -0.162443
  41 C :    0.223486
  42 C :   -0.013296
  43 C :    0.055267
  44 N :   -0.016198
  45 C :   -0.013995
  46 C :    0.007396
  47 C :   -0.009129
  48 S :   -0.094774
  49 C :    0.048402
  50 C :    0.053306
  51 N :   -0.014253
  52 C :    0.068010
  53 C :   -0.064908
  54 C :    0.025234
  55 C :   -0.119242
  56 C :    0.258718
  57 C :   -0.331814
  58 C :   -0.177531
  59 N :    0.164388
  60 C :   -0.196172
  61 N :    0.178642
  62 C :    0.008901
  63 C :   -0.003531
  64 C :    0.138550
  65 O :   -0.130919
  66 C :   -0.062850
  67 C :    0.107455
  68 C :   -0.094050
  69 C :   -0.022605
  70 S :    0.146388
  71 C :   -0.049550
  72 C :    0.030936
  73 H :   -0.037563
  74 H :   -0.003159
  75 H :    0.043385
  76 H :   -0.020820
  77 H :    0.025333
  78 H :    0.016943
  79 H :    0.017282
  80 H :    0.028094
  81 H :    0.022499
  82 H :    0.017844
  83 H :    0.003482
  84 H :    0.021965
  85 H :   -0.012193
  86 H :    0.029487
  87 H :    0.005826
  88 H :    0.014986
  89 H :    0.021960
  90 H :    0.032089
  91 H :   -0.007504
  92 H :   -0.001742
  93 H :    0.042452
  94 H :   -0.004345
Sum of atomic charges:   -0.0000000

LOEWDIN ATOMIC CHARGES
----------------------
   0 C :    0.077228
   1 C :   -0.132934
   2 C :   -0.019107
   3 N :   -0.046332
   4 C :   -0.018684
   5 N :   -0.047085
   6 C :   -0.018963
   7 C :   -0.049062
   8 C :    0.015935
   9 C :   -0.031981
  10 C :   -0.143733
  11 C :   -0.006228
  12 S :    0.436068
  13 C :   -0.144160
  14 C :   -0.062711
  15 C :    0.070960
  16 O :   -0.146231
  17 C :   -0.055761
  18 C :    0.050439
  19 C :   -0.049032
  20 C :    0.096379
  21 N :   -0.079505
  22 C :    0.039198
  23 C :    0.002499
  24 C :   -0.131045
  25 S :    0.113407
  26 C :   -0.034534
  27 C :    0.047678
  28 N :   -0.070613
  29 C :    0.088721
  30 C :   -0.050939
  31 C :   -0.170621
  32 S :    0.437329
  33 C :   -0.166549
  34 C :   -0.024796
  35 C :   -0.027706
  36 C :   -0.030984
  37 C :   -0.014954
  38 C :   -0.069590
  39 C :    0.117635
  40 O :   -0.112584
  41 C :   -0.026501
  42 C :   -0.049095
  43 C :    0.084643
  44 N :   -0.068119
  45 C :    0.047762
  46 C :   -0.033974
  47 C :   -0.136542
  48 S :    0.094326
  49 C :    0.001763
  50 C :    0.042082
  51 N :   -0.070305
  52 C :    0.090736
  53 C :   -0.053297
  54 C :    0.069495
  55 C :   -0.071831
  56 C :    0.064691
  57 C :   -0.131472
  58 C :   -0.019849
  59 N :   -0.040961
  60 C :   -0.022174
  61 N :   -0.034919
  62 C :   -0.021735
  63 C :   -0.056062
  64 C :    0.083888
  65 O :   -0.130668
  66 C :    0.026871
  67 C :   -0.033545
  68 C :   -0.144076
  69 C :   -0.009181
  70 S :    0.434635
  71 C :   -0.146522
  72 C :   -0.056435
  73 H :    0.035459
  74 H :    0.041758
  75 H :    0.031695
  76 H :    0.030395
  77 H :    0.047062
  78 H :    0.030372
  79 H :    0.025772
  80 H :    0.037320
  81 H :    0.015190
  82 H :    0.028005
  83 H :    0.020229
  84 H :    0.038639
  85 H :   -0.011369
  86 H :    0.040911
  87 H :    0.015071
  88 H :    0.024466
  89 H :    0.026909
  90 H :    0.050442
  91 H :    0.042274
  92 H :    0.041418
  93 H :    0.030855
  94 H :    0.036446

  Mayer bond orders larger than 0.100000
B(  0-C ,  1-C ) :   1.6517 B(  0-C ,  6-C ) :   1.0168 B(  0-C , 17-C ) :   1.0524
B(  1-C ,  2-C ) :   1.1332 B(  1-C ,  4-C ) :   1.1417 B(  2-C ,  3-N ) :   2.9794
B(  4-C ,  5-N ) :   2.9730 B(  6-C ,  7-C ) :   1.2643 B(  6-C , 11-C ) :   1.4014
B(  7-C ,  8-C ) :   1.4278 B(  7-C , 15-C ) :   0.9304 B(  8-C ,  9-C ) :   1.2539
B(  8-C , 73-H ) :   1.0109 B(  9-C , 10-C ) :   1.2934 B(  9-C , 14-C ) :   1.1685
B( 10-C , 11-C ) :   1.3311 B( 10-C , 12-S ) :   1.0996 B( 11-C , 74-H ) :   0.9829
B( 12-S , 13-C ) :   1.1295 B( 13-C , 14-C ) :   1.6283 B( 13-C , 75-H ) :   0.9686
B( 14-C , 76-H ) :   1.0001 B( 15-C , 16-O ) :   2.2248 B( 15-C , 17-C ) :   0.9017
B( 17-C , 18-C ) :   1.7074 B( 18-C , 19-C ) :   1.0649 B( 18-C , 77-H ) :   0.9345
B( 19-C , 20-C ) :   1.0168 B( 19-C , 23-C ) :   1.5522 B( 20-C , 21-N ) :   1.7221
B( 20-C , 78-H ) :   0.9936 B( 21-N , 22-C ) :   1.2616 B( 22-C , 23-C ) :   1.0686
B( 22-C , 27-C ) :   1.5261 B( 23-C , 24-C ) :   1.0108 B( 24-C , 25-S ) :   1.6633
B( 24-C , 26-C ) :   1.0676 B( 26-C , 27-C ) :   1.0526 B( 26-C , 30-C ) :   1.5435
B( 27-C , 28-N ) :   1.2641 B( 28-N , 29-C ) :   1.7289 B( 29-C , 30-C ) :   1.0266
B( 29-C , 79-H ) :   0.9888 B( 30-C , 31-C ) :   1.0696 B( 31-C , 32-S ) :   1.1179
B( 31-C , 33-C ) :   0.1198 B( 31-C , 35-C ) :   1.5127 B( 32-S , 33-C ) :   1.1143
B( 33-C , 34-C ) :   1.5162 B( 33-C , 42-C ) :   1.0572 B( 34-C , 35-C ) :   1.2956
B( 34-C , 41-C ) :   1.0643 B( 35-C , 36-C ) :   1.0652 B( 36-C , 37-C ) :   1.0861
B( 36-C , 80-H ) :   0.9109 B( 36-C , 81-H ) :   0.8607 B( 37-C , 38-C ) :   1.0378
B( 37-C , 82-H ) :   0.9382 B( 37-C , 83-H ) :   0.9343 B( 38-C , 39-C ) :   0.9173
B( 38-C , 41-C ) :   1.0429 B( 38-C , 84-H ) :   0.9002 B( 39-C , 40-O ) :   2.2157
B( 39-C , 85-H ) :   0.9497 B( 41-C , 86-H ) :   0.8916 B( 41-C , 87-H ) :   0.8539
B( 42-C , 43-C ) :   1.0275 B( 42-C , 46-C ) :   1.5584 B( 43-C , 44-N ) :   1.7320
B( 43-C , 88-H ) :   0.9889 B( 44-N , 45-C ) :   1.2686 B( 45-C , 46-C ) :   1.0555
B( 45-C , 50-C ) :   1.5165 B( 46-C , 47-C ) :   1.0498 B( 47-C , 48-S ) :   1.6793
B( 47-C , 49-C ) :   1.0172 B( 49-C , 50-C ) :   1.0615 B( 49-C , 53-C ) :   1.5588
B( 50-C , 51-N ) :   1.2556 B( 51-N , 52-C ) :   1.7519 B( 52-C , 53-C ) :   0.9957
B( 52-C , 89-H ) :   0.9869 B( 53-C , 54-C ) :   1.0428 B( 54-C , 55-C ) :   1.7076
B( 54-C , 90-H ) :   0.9467 B( 55-C , 56-C ) :   1.0196 B( 55-C , 64-C ) :   0.9214
B( 56-C , 57-C ) :   1.6576 B( 56-C , 62-C ) :   1.0219 B( 57-C , 58-C ) :   1.1317
B( 57-C , 60-C ) :   1.1517 B( 58-C , 59-N ) :   2.9909 B( 60-C , 61-N ) :   3.0074
B( 62-C , 63-C ) :   1.2640 B( 62-C , 69-C ) :   1.4134 B( 63-C , 64-C ) :   0.9241
B( 63-C , 66-C ) :   1.4268 B( 64-C , 65-O ) :   2.2824 B( 66-C , 67-C ) :   1.2545
B( 66-C , 91-H ) :   1.0147 B( 67-C , 68-C ) :   1.2972 B( 67-C , 72-C ) :   1.1752
B( 68-C , 69-C ) :   1.3248 B( 68-C , 70-S ) :   1.1000 B( 69-C , 92-H ) :   0.9852
B( 70-S , 71-C ) :   1.1283 B( 71-C , 72-C ) :   1.6282 B( 71-C , 93-H ) :   0.9681
B( 72-C , 94-H ) :   0.9992

-----------------------------------------------------------------------------
         ABSORPTION SPECTRUM VIA TRANSITION ELECTRIC DIPOLE MOMENTS
-----------------------------------------------------------------------------
State   Energy  Wavelength   fosc         T2         TX        TY        TZ
        (cm-1)    (nm)                  (au**2)     (au)      (au)      (au)
-----------------------------------------------------------------------------
   0   15208.4    657.5   0.075066605   1.62495   0.26300  -0.18752  -1.23313
   1   15797.5    633.0   0.076029608   1.58442  -0.18919   0.46333   1.15497
   2   16453.0    607.8   0.269730808   5.39709  -0.30668   0.68387   2.19895
   3   17111.8    584.4   0.038566600   0.74198   0.14593  -0.56947  -0.62959
   4   17773.4    562.6   0.003871771   0.07172   0.01975   0.10030   0.24752
   5   17860.4    559.9   0.002279323   0.04201  -0.04320   0.15556  -0.12629
   6   19390.6    515.7   0.046423970   0.78818  -0.14692   0.44282  -0.75532
   7   20300.9    492.6   0.136272877   2.20988   0.36898  -0.68980  -1.26409
   8   20545.8    486.7   0.532854083   8.53811   0.38131  -0.50552  -2.85257
   9   22541.4    443.6   0.058998944   0.86167   0.23967  -0.09542  -0.89169
  10   22980.8    435.1   0.079355354   1.13681   0.18000  -0.70309   0.78107
  11   23233.2    430.4   0.022031248   0.31218   0.33444  -0.01473  -0.44734
  12   23521.9    425.1   0.012398828   0.17353   0.03558   0.39992   0.11105
  13   24241.5    412.5   0.009760599   0.13255  -0.01685   0.31481  -0.18211
  14   24586.1    406.7   0.012885952   0.17255  -0.16431   0.38031   0.03020
  15   24890.5    401.8   0.025633469   0.33904  -0.45409  -0.33207  -0.15025
  16   25413.9    393.5   0.016377544   0.21215   0.08174  -0.05364   0.45011
  17   25535.2    391.6   0.286250427   3.69048  -0.59151   1.24794   1.33538
  18   25917.7    385.8   0.043066145   0.54704   0.00444  -0.07465  -0.73583
  19   25991.8    384.7   0.098001571   1.24129   0.40647  -0.83876  -0.61038
  20   26137.4    382.6   0.142432347   1.79400   0.44372  -0.77503  -0.99822
  21   26576.6    376.3   0.079556396   0.98549  -0.26010   0.22011   0.93241
  22   26787.3    373.3   0.034504733   0.42406  -0.34589  -0.24073  -0.49645
  23   26845.6    372.5   0.010827364   0.13278  -0.26273  -0.23925   0.08070
  24   26958.1    370.9   0.005750914   0.07023   0.07129   0.18555   0.17527
  25   27035.8    369.9   0.067542863   0.82246   0.39825  -0.09658   0.80903
  26   27323.0    366.0   0.162223154   1.95461   0.47727  -1.30788  -0.12755
  27   27702.2    361.0   0.084978264   1.00988  -0.00755  -0.04489  -1.00389
  28   27927.1    358.1   0.110602411   1.30381  -0.25957   1.07482   0.28497
  29   28001.2    357.1   0.045848208   0.53904   0.33258  -0.64283  -0.12330
  30   28892.7    346.1   0.081368302   0.92713   0.01707   0.92218   0.27645
  31   29097.3    343.7   0.026124319   0.29558  -0.13120   0.43537   0.29802
  32   29373.1    340.4   0.005884067   0.06595  -0.19683   0.15022   0.06811
  33   29466.8    339.4   0.029081726   0.32491   0.34606  -0.41987   0.16990
  34   29692.9    336.8   0.024195000   0.26826  -0.34691   0.06133  -0.37966
  35   29862.9    334.9   0.027188333   0.29973  -0.32020   0.42466   0.12987
  36   29920.2    334.2   0.001777131   0.01955  -0.09574   0.08908  -0.04952
  37   30019.9    333.1   0.085730339   0.94016  -0.17543  -0.94174   0.15000
  38   30130.1    331.9   0.045026314   0.49197  -0.24114  -0.53313  -0.38678
  39   30279.2    330.3   0.032914343   0.35786  -0.38510   0.44492  -0.10774
  40   30285.8    330.2   0.126285836   1.37275   0.34781  -1.02763   0.44245
  41   30397.0    329.0   0.108299221   1.17293  -0.11229   1.06051  -0.18877
  42   30497.2    327.9   0.056620186   0.61120  -0.20864   0.60017   0.45548
  43   30864.8    324.0   0.225420981   2.40439  -0.96258   1.11179   0.49170
  44   31068.4    321.9   0.124498306   1.31923  -0.51416   0.89773   0.49894
  45   31123.1    321.3   0.102196497   1.08101  -0.46140   0.75160   0.55065
  46   31338.0    319.1   0.031586262   0.33182  -0.51600  -0.20655  -0.15134
  47   31444.3    318.0   0.252078425   2.63918   1.13588  -0.44100  -1.07446
  48   31600.6    316.4   0.257856781   2.68633   0.21395  -1.62494  -0.01146
  49   31833.0    314.1   0.036793256   0.38051   0.02726  -0.47617  -0.39119
  50   32216.5    310.4   0.022828499   0.23328   0.29414   0.38284   0.01403
  51   32454.5    308.1   0.003246674   0.03293   0.05539   0.12582   0.11847
  52   32520.5    307.5   0.094857928   0.96027   0.47952   0.61678   0.59152
  53   32754.0    305.3   0.030936738   0.31095  -0.04789  -0.55477   0.02978
  54   32969.6    303.3   0.039000310   0.38943  -0.15165  -0.13550  -0.58998
  55   33301.3    300.3   0.054887896   0.54261   0.25113  -0.55096  -0.41951
  56   33445.2    299.0   0.016541753   0.16283  -0.39133   0.02845   0.09422
  57   33524.9    298.3   0.097545428   0.95789  -0.01155  -0.80682   0.55389
  58   33743.6    296.4   0.051879739   0.50615   0.31669  -0.57343  -0.27755
  59   33827.0    295.6   0.102583371   0.99836   0.01730  -0.89408   0.44574
  60   33901.0    295.0   0.043435592   0.42180  -0.30460  -0.56958  -0.06782
  61   33969.0    294.4   0.193842432   1.87863  -0.23707   0.98390  -0.92432
  62   34025.6    293.9   0.143715655   1.39051   0.25679   0.93616   0.66945
  63   34225.6    292.2   0.002034545   0.01957  -0.04912  -0.04645   0.12247
  64   34275.6    291.8   0.023445562   0.22519   0.27732  -0.26730  -0.27720
  65   34474.5    290.1   0.039053697   0.37294  -0.44219  -0.39759  -0.13903
  66   34630.3    288.8   0.104664450   0.99499  -0.61875   0.17921   0.76159
  67   34722.6    288.0   0.086999168   0.82486   0.15926   0.69569   0.56170
  68   34789.7    287.4   0.090130071   0.85289  -0.10393   0.87614   0.27288
  69   34981.4    285.9   0.053616791   0.50459  -0.47887  -0.14707   0.50363
  70   35078.9    285.1   0.019650733   0.18442   0.23409   0.31614   0.17227
  71   35336.1    283.0   0.036836597   0.34319  -0.17827   0.19902   0.52135
  72   35641.3    280.6   0.019228816   0.17761  -0.22140   0.22376   0.28023
  73   35656.3    280.5   0.056806030   0.52449   0.53118   0.07793  -0.48607
  74   36287.2    275.6   0.016659728   0.15114  -0.24506  -0.26064   0.15217
  75   36404.3    274.7   0.002204738   0.01994  -0.05385  -0.04028   0.12416
  76   36489.1    274.1   0.102906518   0.92844   0.08437   0.94124   0.18814
  77   36526.4    273.8   0.018026260   0.16247  -0.21834  -0.13932   0.30885
  78   36812.4    271.6   0.078564505   0.70260   0.22615   0.79053  -0.16285
  79   36892.2    271.1   0.021593830   0.19270  -0.12739   0.40855   0.09773
  80   37025.4    270.1   0.014483243   0.12878   0.04862  -0.34961   0.06472
  81   37140.9    269.2   0.004262931   0.03779  -0.04974  -0.02074  -0.18677
  82   37355.4    267.7   0.001105655   0.00974   0.05375  -0.02059   0.08019
  83   37613.3    265.9   0.080538504   0.70492   0.60542   0.29242  -0.50287
  84   37717.7    265.1   0.142586151   1.24454  -0.24755  -1.02170   0.37335
  85   37815.9    264.4   0.019983911   0.17397  -0.17812   0.06165   0.37208
  86   37863.8    264.1   0.160670924   1.39698   0.69347   0.12407  -0.94904
  87   38112.7    262.4   0.027839070   0.24047   0.38175  -0.30296  -0.05433
  88   38423.0    260.3   0.016971748   0.14542  -0.19299   0.17157   0.28060
  89   38510.4    259.7   0.050398705   0.43084   0.30112   0.49368  -0.31057
  90   38669.9    258.6   0.004782955   0.04072   0.05304  -0.12715   0.14744
  91   38903.1    257.0   0.182609764   1.54531   0.40446  -0.15570  -1.16511
  92   39034.6    256.2   0.022290430   0.18799  -0.15602   0.01691  -0.40418
  93   39341.1    254.2   0.043850710   0.36695  -0.24239   0.54849  -0.08576
  94   39411.7    253.7   0.034881883   0.29137   0.22112  -0.32838  -0.36694
  95   39842.2    251.0   0.163308312   1.34940   0.13135  -0.95101   0.65400
  96   40006.3    250.0   0.046609703   0.38355  -0.28902   0.14064  -0.52937
  97   40105.7    249.3   0.017100411   0.14037  -0.03061  -0.08031  -0.36467
  98   40229.0    248.6   0.042221837   0.34552  -0.14350   0.28269   0.49499
  99   40301.1    248.1   0.019820985   0.16191  -0.15769   0.23608  -0.28515

FINAL SINGLE POINT ENERGY     -4835.492998482886

DIPOLE MOMENT
-------------
                                X             Y             Z
Electronic contribution:     15.32047      -0.90527       2.22695
Nuclear contribution   :    -15.68630       2.93840      -0.32616
                        -----------------------------------------
Total Dipole Moment    :     -0.36583       2.03314       1.90080
                        -----------------------------------------
Magnitude (a.u.)       :      2.80723
Magnitude (Debye)      :      7.13540

Rotational constants in cm-1:     0.001423     0.000352     0.000305
Rotational constants in MHz :    42.654655    10.553542     9.157452

                             ****ORCA TERMINATED NORMALLY****
TOTAL RUN TIME: 0 days 0 hours 11 minutes 35 seconds 850 msec
