                         Program Version 4.2.0 -  RELEASE  -
|  1> # ORCA input file
|  2> # SCF done       -203.693526674294          0.000994450484
|  3> ! CAM-B3LYP def2-SVP def2/J RIJCOSX Grid4 TightSCF
|  4> %maxcore 5000
|  5> %tddft
|  6>     Mode sTDDFT
|  7>     Ethresh 5.0
|  8>     maxcore 5000
|  9> end
| 10>
| 11> %pal
| 12>   nprocs 6
| 13>   end
| 14> * xyz 0 1
| 15>    C        0.59278        -9.17271        -6.96099
| 16>    O        1.32115        -9.20503        -5.98108
| 17>    C        0.94616        -9.61850        -8.32611
| 18>    C       -0.20243        -9.58780        -9.13604
| 19>    C       -0.11970        -9.98796       -10.45810
| 20>    C        1.11200       -10.40843       -10.95007
| 21>    C        2.24548       -10.43294       -10.13906
| 22>    C        2.16630       -10.03864        -8.80879
| 23>   Br        3.90838       -11.00248       -10.83651
| 24>   Br        1.22754       -10.95297       -12.75866
| 25>    C       -1.32410        -9.08805        -8.33883
| 26>    C       -2.59363        -8.87151        -8.81127
| 27>    C       -3.00672        -9.16558       -10.12743
| 28>    N       -3.40437        -9.38566       -11.18155
| 29>    C       -3.65769        -8.31469        -8.07175
| 30>    N       -4.56956        -7.85549        -7.54538
| 31>    C       -0.82075        -8.81012        -7.01236
| 32>    C       -1.57919        -8.39112        -5.93800
| 33>    C       -1.15173        -7.88081        -4.71260
| 34>    C        0.03302        -7.30677        -4.25198
| 35>    C       -0.03545        -6.78553        -2.93114
| 36>    C        1.16845        -6.08646        -2.61821
| 37>    C        2.08355        -6.06515        -3.61823
| 38>    S        1.52621        -6.94876        -5.02553
| 39>    C        3.42230        -5.42349        -3.60662
| 40>    F        1.38080        -5.44574        -1.45383
| 41>    C       -1.27551        -6.97892        -2.32687
| 42>    S       -2.35876        -7.75526        -3.43693
| 43>    C       -1.73924        -6.63065        -1.01231
| 44>    C       -3.07544        -6.35011        -0.82005
| 45>    C       -3.53860        -5.95815         0.44721
| 46>    C       -4.80658        -5.58858         0.87993
| 47>    C       -6.04993        -5.62848         0.06181
| 48>    C       -6.85830        -6.92052         0.33199
| 49>    N       -7.10311        -7.10942         1.75474
| 50>    C       -6.96347        -4.40392         0.23345
| 51>    N       -7.84105        -4.30625        -0.92111
| 52>    C       -4.68041        -5.25655         2.27994
| 53>    C       -5.58581        -4.83166         3.18083
| 54>    C       -5.21149        -4.53777         4.58895
| 55>    C       -3.77777        -4.82398         4.93240
| 56>    C       -2.88590        -5.24291         4.01805
| 57>    C       -3.27828        -5.45976         2.67438
| 58>    C       -2.59253        -5.87877         1.55381
| 59>    C       -1.23892        -6.22740         1.33524
| 60>    C       -0.82798        -6.58959         0.09505
| 61>    C       -6.10963        -5.22118         5.58101
| 62>    C       -6.95185        -6.21542         5.28233
| 63>    C       -7.80103        -6.85449         6.23676
| 64>    C       -8.68894        -7.88260         6.00070
| 65>    C       -9.41193        -8.33075         7.13464
| 66>    C      -10.35595        -9.32064         6.74987
| 67>    C      -10.31987        -9.66474         5.43403
| 68>    S       -9.11625        -8.75070         4.55920
| 69>    C      -11.15774       -10.67704         4.74697
| 70>    F      -11.27146        -9.84337         7.58899
| 71>    C       -9.05396        -7.64859         8.29859
| 72>    S       -7.88099        -6.40626         7.91061
| 73>    C       -9.46509        -7.78542         9.63539
| 74>    C       -9.98520        -8.86917        10.28617
| 75>    C      -10.72256        -8.64987        11.55727
| 76>    O      -10.77315        -7.63023        12.20408
| 77>    C      -11.41309        -9.93099        11.82488
| 78>    C      -11.02536       -10.88091        10.86235
| 79>    C      -10.02999       -10.27715         9.97641
| 80>    C       -9.15619       -10.97802         9.18426
| 81>    C       -8.04578       -10.40602         8.53660
| 82>    N       -7.11471        -9.99464         8.00470
| 83>    C       -9.23937       -12.36714         8.95991
| 84>    N       -9.27110       -13.48904         8.72041
| 85>    C      -11.57287       -12.15121        10.88910
| 86>    C      -12.49692       -12.45485        11.88314
| 87>    C      -12.86443       -11.51167        12.84406
| 88>    C      -12.32030       -10.23354        12.81818
| 89>   Br      -14.11211       -11.95830        14.19181
| 90>   Br      -13.26012       -14.18377        11.91432
| 91>    H       -0.97428        -9.98626       -11.11494
| 92>    H        3.03590       -10.05755        -8.17063
| 93>    H       -2.65509        -8.46122        -6.03569
| 94>    H        3.57564        -4.90237        -2.66438
| 95>    H        3.51081        -4.71241        -4.42689
| 96>    H        4.20314        -6.17353        -3.72861
| 97>    H       -3.75707        -6.39393        -1.65808
| 98>    H       -5.75933        -5.66405        -0.99359
| 99>    H       -6.31940        -7.76682        -0.12070
|100>    H       -7.81823        -6.80705        -0.17480
|101>    H       -6.26375        -7.46828         2.19952
|102>    H       -7.84145        -7.79046         1.89378
|103>    H       -6.34261        -3.50549         0.39153
|104>    H       -7.60145        -4.54716         1.10645
|105>    H       -7.30876        -4.09021        -1.75773
|106>    H       -8.52361        -3.56858        -0.78989
|107>    H       -6.62136        -4.68562         2.92028
|108>    H       -5.36552        -3.45289         4.73190
|109>    H       -3.49579        -4.66648         5.96181
|110>    H       -1.85875        -5.42594         4.29796
|111>    H       -0.54352        -6.20831         2.16068
|112>    H        0.19403        -6.88554        -0.06983
|113>    H       -6.02160        -4.88049         6.60469
|114>    H       -7.04607        -6.58328         4.26874
|115>    H      -11.91589       -11.05532         5.42895
|116>    H      -10.54238       -11.51109         4.40872
|117>    H      -11.64307       -10.24379         3.87348
|118>    H       -9.39504        -6.88725        10.24262
|119>    H      -11.31584       -12.90164        10.15902
|120>    H      -12.60009        -9.49574        13.55404
|121> *
|122>
|123>                          ****END OF INPUT****

CARTESIAN COORDINATES (ANGSTROEM)
---------------------------------
  C      0.592780   -9.172710   -6.960990
  O      1.321150   -9.205030   -5.981080
  C      0.946160   -9.618500   -8.326110
  C     -0.202430   -9.587800   -9.136040
  C     -0.119700   -9.987960  -10.458100
  C      1.112000  -10.408430  -10.950070
  C      2.245480  -10.432940  -10.139060
  C      2.166300  -10.038640   -8.808790
  Br     3.908380  -11.002480  -10.836510
  Br     1.227540  -10.952970  -12.758660
  C     -1.324100   -9.088050   -8.338830
  C     -2.593630   -8.871510   -8.811270
  C     -3.006720   -9.165580  -10.127430
  N     -3.404370   -9.385660  -11.181550
  C     -3.657690   -8.314690   -8.071750
  N     -4.569560   -7.855490   -7.545380
  C     -0.820750   -8.810120   -7.012360
  C     -1.579190   -8.391120   -5.938000
  C     -1.151730   -7.880810   -4.712600
  C      0.033020   -7.306770   -4.251980
  C     -0.035450   -6.785530   -2.931140
  C      1.168450   -6.086460   -2.618210
  C      2.083550   -6.065150   -3.618230
  S      1.526210   -6.948760   -5.025530
  C      3.422300   -5.423490   -3.606620
  F      1.380800   -5.445740   -1.453830
  C     -1.275510   -6.978920   -2.326870
  S     -2.358760   -7.755260   -3.436930
  C     -1.739240   -6.630650   -1.012310
  C     -3.075440   -6.350110   -0.820050
  C     -3.538600   -5.958150    0.447210
  C     -4.806580   -5.588580    0.879930
  C     -6.049930   -5.628480    0.061810
  C     -6.858300   -6.920520    0.331990
  N     -7.103110   -7.109420    1.754740
  C     -6.963470   -4.403920    0.233450
  N     -7.841050   -4.306250   -0.921110
  C     -4.680410   -5.256550    2.279940
  C     -5.585810   -4.831660    3.180830
  C     -5.211490   -4.537770    4.588950
  C     -3.777770   -4.823980    4.932400
  C     -2.885900   -5.242910    4.018050
  C     -3.278280   -5.459760    2.674380
  C     -2.592530   -5.878770    1.553810
  C     -1.238920   -6.227400    1.335240
  C     -0.827980   -6.589590    0.095050
  C     -6.109630   -5.221180    5.581010
  C     -6.951850   -6.215420    5.282330
  C     -7.801030   -6.854490    6.236760
  C     -8.688940   -7.882600    6.000700
  C     -9.411930   -8.330750    7.134640
  C    -10.355950   -9.320640    6.749870
  C    -10.319870   -9.664740    5.434030
  S     -9.116250   -8.750700    4.559200
  C    -11.157740  -10.677040    4.746970
  F    -11.271460   -9.843370    7.588990
  C     -9.053960   -7.648590    8.298590
  S     -7.880990   -6.406260    7.910610
  C     -9.465090   -7.785420    9.635390
  C     -9.985200   -8.869170   10.286170
  C    -10.722560   -8.649870   11.557270
  O    -10.773150   -7.630230   12.204080
  C    -11.413090   -9.930990   11.824880
  C    -11.025360  -10.880910   10.862350
  C    -10.029990  -10.277150    9.976410
  C     -9.156190  -10.978020    9.184260
  C     -8.045780  -10.406020    8.536600
  N     -7.114710   -9.994640    8.004700
  C     -9.239370  -12.367140    8.959910
  N     -9.271100  -13.489040    8.720410
  C    -11.572870  -12.151210   10.889100
  C    -12.496920  -12.454850   11.883140
  C    -12.864430  -11.511670   12.844060
  C    -12.320300  -10.233540   12.818180
  Br   -14.112110  -11.958300   14.191810
  Br   -13.260120  -14.183770   11.914320
  H     -0.974280   -9.986260  -11.114940
  H      3.035900  -10.057550   -8.170630
  H     -2.655090   -8.461220   -6.035690
  H      3.575640   -4.902370   -2.664380
  H      3.510810   -4.712410   -4.426890
  H      4.203140   -6.173530   -3.728610
  H     -3.757070   -6.393930   -1.658080
  H     -5.759330   -5.664050   -0.993590
  H     -6.319400   -7.766820   -0.120700
  H     -7.818230   -6.807050   -0.174800
  H     -6.263750   -7.468280    2.199520
  H     -7.841450   -7.790460    1.893780
  H     -6.342610   -3.505490    0.391530
  H     -7.601450   -4.547160    1.106450
  H     -7.308760   -4.090210   -1.757730
  H     -8.523610   -3.568580   -0.789890
  H     -6.621360   -4.685620    2.920280
  H     -5.365520   -3.452890    4.731900
  H     -3.495790   -4.666480    5.961810
  H     -1.858750   -5.425940    4.297960
  H     -0.543520   -6.208310    2.160680
  H      0.194030   -6.885540   -0.069830
  H     -6.021600   -4.880490    6.604690
  H     -7.046070   -6.583280    4.268740
  H    -11.915890  -11.055320    5.428950
  H    -10.542380  -11.511090    4.408720
  H    -11.643070  -10.243790    3.873480
  H     -9.395040   -6.887250   10.242620
  H    -11.315840  -12.901640   10.159020
  H    -12.600090   -9.495740   13.554040

 Total Charge           Charge          ....    0
 Multiplicity           Mult            ....    1
 Number of Electrons    NEL             ....  658
 Basis Dimension        Dim             .... 1302

ORBITAL ENERGIES
----------------

  NO   OCC          E(Eh)            E(eV)
   0   2.0000    -482.874569    -13139.6850
   1   2.0000    -482.873562    -13139.6576
   2   2.0000    -482.871912    -13139.6127
   3   2.0000    -482.869359    -13139.5433
   4   2.0000     -88.980006     -2421.2691
   5   2.0000     -88.975028     -2421.1336
   6   2.0000     -88.974541     -2421.1203
   7   2.0000     -88.965833     -2420.8834
   8   2.0000     -62.552196     -1702.1318
   9   2.0000     -62.551227     -1702.1054
  10   2.0000     -62.549494     -1702.0583
  11   2.0000     -62.546951     -1701.9891
  12   2.0000     -56.386140     -1534.3449
  13   2.0000     -56.385180     -1534.3187
  14   2.0000     -56.383493     -1534.2728
  15   2.0000     -56.383429     -1534.2711
  16   2.0000     -56.383402     -1534.2704
  17   2.0000     -56.382524     -1534.2465
  18   2.0000     -56.382423     -1534.2437
  19   2.0000     -56.380909     -1534.2025
  20   2.0000     -56.380800     -1534.1996
  21   2.0000     -56.380710     -1534.1971
  22   2.0000     -56.378245     -1534.1300
  23   2.0000     -56.378158     -1534.1277
  24   2.0000     -24.804119      -674.9544
  25   2.0000     -24.792938      -674.6501
  26   2.0000     -19.218974      -522.9749
  27   2.0000     -19.214843      -522.8625
  28   2.0000     -14.415257      -392.2591
  29   2.0000     -14.414846      -392.2479
  30   2.0000     -14.414325      -392.2337
  31   2.0000     -14.411644      -392.1608
  32   2.0000     -14.396395      -391.7458
  33   2.0000     -14.385997      -391.4629
  34   2.0000     -10.373573      -282.2793
  35   2.0000     -10.369709      -282.1741
  36   2.0000     -10.361910      -281.9619
  37   2.0000     -10.361431      -281.9489
  38   2.0000     -10.351354      -281.6747
  39   2.0000     -10.350543      -281.6526
  40   2.0000     -10.347091      -281.5587
  41   2.0000     -10.345902      -281.5263
  42   2.0000     -10.342912      -281.4449
  43   2.0000     -10.341551      -281.4079
  44   2.0000     -10.340177      -281.3705
  45   2.0000     -10.339489      -281.3518
  46   2.0000     -10.338431      -281.3230
  47   2.0000     -10.334859      -281.2258
  48   2.0000     -10.330553      -281.1086
  49   2.0000     -10.327497      -281.0255
  50   2.0000     -10.324581      -280.9461
  51   2.0000     -10.323661      -280.9211
  52   2.0000     -10.322430      -280.8876
  53   2.0000     -10.321466      -280.8614
  54   2.0000     -10.319651      -280.8120
  55   2.0000     -10.318189      -280.7722
  56   2.0000     -10.317818      -280.7621
  57   2.0000     -10.316849      -280.7357
  58   2.0000     -10.315625      -280.7024
  59   2.0000     -10.314816      -280.6804
  60   2.0000     -10.314605      -280.6747
  61   2.0000     -10.310159      -280.5537
  62   2.0000     -10.309283      -280.5299
  63   2.0000     -10.309278      -280.5297
  64   2.0000     -10.308629      -280.5121
  65   2.0000     -10.308384      -280.5054
  66   2.0000     -10.307266      -280.4750
  67   2.0000     -10.306094      -280.4431
  68   2.0000     -10.304417      -280.3974
  69   2.0000     -10.304287      -280.3939
  70   2.0000     -10.302930      -280.3570
  71   2.0000     -10.300545      -280.2921
  72   2.0000     -10.299635      -280.2673
  73   2.0000     -10.298522      -280.2370
  74   2.0000     -10.298505      -280.2366
  75   2.0000     -10.295740      -280.1613
  76   2.0000     -10.293729      -280.1066
  77   2.0000     -10.292057      -280.0611
  78   2.0000     -10.288416      -279.9620
  79   2.0000     -10.287674      -279.9418
  80   2.0000     -10.287345      -279.9329
  81   2.0000     -10.283136      -279.8183
  82   2.0000     -10.282923      -279.8126
  83   2.0000     -10.281341      -279.7695
  84   2.0000     -10.280279      -279.7406
  85   2.0000     -10.277508      -279.6652
  86   2.0000     -10.275597      -279.6132
  87   2.0000     -10.274428      -279.5814
  88   2.0000     -10.273596      -279.5588
  89   2.0000     -10.272446      -279.5275
  90   2.0000     -10.271329      -279.4971
  91   2.0000     -10.270637      -279.4782
  92   2.0000      -8.781526      -238.9575
  93   2.0000      -8.780575      -238.9316
  94   2.0000      -8.778793      -238.8831
  95   2.0000      -8.776244      -238.8137
  96   2.0000      -8.075185      -219.7370
  97   2.0000      -8.070242      -219.6024
  98   2.0000      -8.070123      -219.5992
  99   2.0000      -8.060213      -219.3295
 100   2.0000      -6.617638      -180.0751
 101   2.0000      -6.616727      -180.0503
 102   2.0000      -6.614838      -179.9989
 103   2.0000      -6.612382      -179.9321
 104   2.0000      -6.603653      -179.6945
 105   2.0000      -6.602891      -179.6738
 106   2.0000      -6.602685      -179.6682
 107   2.0000      -6.601916      -179.6473
 108   2.0000      -6.600952      -179.6210
 109   2.0000      -6.600189      -179.6003
 110   2.0000      -6.598334      -179.5498
 111   2.0000      -6.597611      -179.5301
 112   2.0000      -6.044470      -164.4784
 113   2.0000      -6.040433      -164.3685
 114   2.0000      -6.039898      -164.3540
 115   2.0000      -6.039570      -164.3451
 116   2.0000      -6.037208      -164.2808
 117   2.0000      -6.035884      -164.2447
 118   2.0000      -6.035424      -164.2322
 119   2.0000      -6.032255      -164.1460
 120   2.0000      -6.031068      -164.1137
 121   2.0000      -6.029888      -164.0816
 122   2.0000      -6.025429      -163.9603
 123   2.0000      -6.021797      -163.8614
 124   2.0000      -2.733511       -74.3826
 125   2.0000      -2.732574       -74.3571
 126   2.0000      -2.730795       -74.3087
 127   2.0000      -2.729777       -74.2810
 128   2.0000      -2.729230       -74.2661
 129   2.0000      -2.728873       -74.2564
 130   2.0000      -2.728285       -74.2404
 131   2.0000      -2.728262       -74.2398
 132   2.0000      -2.727001       -74.2055
 133   2.0000      -2.726426       -74.1898
 134   2.0000      -2.724478       -74.1368
 135   2.0000      -2.723972       -74.1230
 136   2.0000      -2.718080       -73.9627
 137   2.0000      -2.718053       -73.9620
 138   2.0000      -2.717101       -73.9361
 139   2.0000      -2.717072       -73.9353
 140   2.0000      -2.715370       -73.8890
 141   2.0000      -2.715362       -73.8888
 142   2.0000      -2.712769       -73.8182
 143   2.0000      -2.712750       -73.8177
 144   2.0000      -1.315474       -35.7959
 145   2.0000      -1.304401       -35.4946
 146   2.0000      -1.134508       -30.8715
 147   2.0000      -1.129061       -30.7233
 148   2.0000      -1.031827       -28.0774
 149   2.0000      -1.023328       -27.8462
 150   2.0000      -1.021062       -27.7845
 151   2.0000      -1.018636       -27.7185
 152   2.0000      -1.005886       -27.3715
 153   2.0000      -1.003455       -27.3054
 154   2.0000      -0.995064       -27.0771
 155   2.0000      -0.993549       -27.0358
 156   2.0000      -0.991756       -26.9871
 157   2.0000      -0.977106       -26.5884
 158   2.0000      -0.976374       -26.5685
 159   2.0000      -0.971894       -26.4466
 160   2.0000      -0.970990       -26.4220
 161   2.0000      -0.965805       -26.2809
 162   2.0000      -0.960025       -26.1236
 163   2.0000      -0.953757       -25.9530
 164   2.0000      -0.932007       -25.3612
 165   2.0000      -0.920770       -25.0554
 166   2.0000      -0.915832       -24.9211
 167   2.0000      -0.913759       -24.8647
 168   2.0000      -0.908978       -24.7346
 169   2.0000      -0.906736       -24.6736
 170   2.0000      -0.900689       -24.5090
 171   2.0000      -0.891970       -24.2717
 172   2.0000      -0.881032       -23.9741
 173   2.0000      -0.875161       -23.8143
 174   2.0000      -0.871331       -23.7101
 175   2.0000      -0.863572       -23.4990
 176   2.0000      -0.855525       -23.2800
 177   2.0000      -0.850494       -23.1431
 178   2.0000      -0.849219       -23.1084
 179   2.0000      -0.847641       -23.0655
 180   2.0000      -0.846689       -23.0396
 181   2.0000      -0.839815       -22.8525
 182   2.0000      -0.837953       -22.8019
 183   2.0000      -0.826217       -22.4825
 184   2.0000      -0.805772       -21.9262
 185   2.0000      -0.795549       -21.6480
 186   2.0000      -0.791440       -21.5362
 187   2.0000      -0.786831       -21.4108
 188   2.0000      -0.775744       -21.1091
 189   2.0000      -0.768398       -20.9092
 190   2.0000      -0.765942       -20.8423
 191   2.0000      -0.761182       -20.7128
 192   2.0000      -0.754477       -20.5304
 193   2.0000      -0.738609       -20.0986
 194   2.0000      -0.731303       -19.8998
 195   2.0000      -0.720799       -19.6139
 196   2.0000      -0.710692       -19.3389
 197   2.0000      -0.702577       -19.1181
 198   2.0000      -0.693672       -18.8758
 199   2.0000      -0.691080       -18.8053
 200   2.0000      -0.686302       -18.6752
 201   2.0000      -0.684230       -18.6189
 202   2.0000      -0.682112       -18.5612
 203   2.0000      -0.677319       -18.4308
 204   2.0000      -0.674981       -18.3672
 205   2.0000      -0.668854       -18.2004
 206   2.0000      -0.663695       -18.0600
 207   2.0000      -0.662406       -18.0250
 208   2.0000      -0.655436       -17.8353
 209   2.0000      -0.649886       -17.6843
 210   2.0000      -0.647120       -17.6090
 211   2.0000      -0.641190       -17.4477
 212   2.0000      -0.633136       -17.2285
 213   2.0000      -0.617676       -16.8078
 214   2.0000      -0.614861       -16.7312
 215   2.0000      -0.611924       -16.6513
 216   2.0000      -0.610275       -16.6064
 217   2.0000      -0.602140       -16.3851
 218   2.0000      -0.594908       -16.1883
 219   2.0000      -0.591259       -16.0890
 220   2.0000      -0.589900       -16.0520
 221   2.0000      -0.584806       -15.9134
 222   2.0000      -0.581976       -15.8364
 223   2.0000      -0.578811       -15.7503
 224   2.0000      -0.575605       -15.6630
 225   2.0000      -0.574456       -15.6317
 226   2.0000      -0.567091       -15.4313
 227   2.0000      -0.565939       -15.4000
 228   2.0000      -0.558290       -15.1919
 229   2.0000      -0.555843       -15.1253
 230   2.0000      -0.555063       -15.1040
 231   2.0000      -0.552126       -15.0241
 232   2.0000      -0.551027       -14.9942
 233   2.0000      -0.548404       -14.9228
 234   2.0000      -0.546023       -14.8581
 235   2.0000      -0.540936       -14.7196
 236   2.0000      -0.540521       -14.7083
 237   2.0000      -0.537423       -14.6240
 238   2.0000      -0.535158       -14.5624
 239   2.0000      -0.533267       -14.5109
 240   2.0000      -0.529982       -14.4215
 241   2.0000      -0.526331       -14.3222
 242   2.0000      -0.525610       -14.3026
 243   2.0000      -0.523823       -14.2539
 244   2.0000      -0.522005       -14.2045
 245   2.0000      -0.519369       -14.1327
 246   2.0000      -0.518168       -14.1001
 247   2.0000      -0.516493       -14.0545
 248   2.0000      -0.512852       -13.9554
 249   2.0000      -0.511554       -13.9201
 250   2.0000      -0.510868       -13.9014
 251   2.0000      -0.509454       -13.8630
 252   2.0000      -0.505799       -13.7635
 253   2.0000      -0.504182       -13.7195
 254   2.0000      -0.503075       -13.6894
 255   2.0000      -0.498461       -13.5638
 256   2.0000      -0.496330       -13.5058
 257   2.0000      -0.495255       -13.4766
 258   2.0000      -0.494400       -13.4533
 259   2.0000      -0.493114       -13.4183
 260   2.0000      -0.491945       -13.3865
 261   2.0000      -0.490488       -13.3468
 262   2.0000      -0.485815       -13.2197
 263   2.0000      -0.484564       -13.1857
 264   2.0000      -0.483366       -13.1530
 265   2.0000      -0.480940       -13.0870
 266   2.0000      -0.475440       -12.9374
 267   2.0000      -0.469370       -12.7722
 268   2.0000      -0.467483       -12.7209
 269   2.0000      -0.463399       -12.6097
 270   2.0000      -0.460924       -12.5424
 271   2.0000      -0.457633       -12.4528
 272   2.0000      -0.456673       -12.4267
 273   2.0000      -0.456152       -12.4125
 274   2.0000      -0.453752       -12.3472
 275   2.0000      -0.450943       -12.2708
 276   2.0000      -0.449620       -12.2348
 277   2.0000      -0.447263       -12.1707
 278   2.0000      -0.445853       -12.1323
 279   2.0000      -0.444893       -12.1062
 280   2.0000      -0.442885       -12.0515
 281   2.0000      -0.441229       -12.0065
 282   2.0000      -0.438764       -11.9394
 283   2.0000      -0.437407       -11.9025
 284   2.0000      -0.435118       -11.8402
 285   2.0000      -0.433219       -11.7885
 286   2.0000      -0.428534       -11.6610
 287   2.0000      -0.426341       -11.6013
 288   2.0000      -0.425887       -11.5890
 289   2.0000      -0.424062       -11.5393
 290   2.0000      -0.422837       -11.5060
 291   2.0000      -0.422168       -11.4878
 292   2.0000      -0.421591       -11.4721
 293   2.0000      -0.416987       -11.3468
 294   2.0000      -0.415225       -11.2988
 295   2.0000      -0.413863       -11.2618
 296   2.0000      -0.406973       -11.0743
 297   2.0000      -0.406462       -11.0604
 298   2.0000      -0.403846       -10.9892
 299   2.0000      -0.400826       -10.9070
 300   2.0000      -0.397562       -10.8182
 301   2.0000      -0.394672       -10.7396
 302   2.0000      -0.392600       -10.6832
 303   2.0000      -0.390214       -10.6183
 304   2.0000      -0.388322       -10.5668
 305   2.0000      -0.384711       -10.4685
 306   2.0000      -0.377424       -10.2702
 307   2.0000      -0.373968       -10.1762
 308   2.0000      -0.368584       -10.0297
 309   2.0000      -0.350028        -9.5247
 310   2.0000      -0.345735        -9.4079
 311   2.0000      -0.345395        -9.3987
 312   2.0000      -0.342416        -9.3176
 313   2.0000      -0.340291        -9.2598
 314   2.0000      -0.338505        -9.2112
 315   2.0000      -0.338055        -9.1989
 316   2.0000      -0.332007        -9.0344
 317   2.0000      -0.328867        -8.9489
 318   2.0000      -0.325410        -8.8549
 319   2.0000      -0.319013        -8.6808
 320   2.0000      -0.318610        -8.6698
 321   2.0000      -0.313159        -8.5215
 322   2.0000      -0.310087        -8.4379
 323   2.0000      -0.307312        -8.3624
 324   2.0000      -0.307228        -8.3601
 325   2.0000      -0.301034        -8.1915
 326   2.0000      -0.265378        -7.2213
 327   2.0000      -0.264239        -7.1903
 328   2.0000      -0.231262        -6.2930
 329   0.0000      -0.098608        -2.6833
 330   0.0000      -0.096711        -2.6316
 331   0.0000      -0.074734        -2.0336
 332   0.0000      -0.066642        -1.8134
 333   0.0000      -0.060275        -1.6402

MULLIKEN ATOMIC CHARGES
-----------------------
   0 C :    0.126854
   1 O :   -0.175980
   2 C :   -0.006043
   3 C :    0.031836
   4 C :   -0.016751
   5 C :   -0.025758
   6 C :   -0.012946
   7 C :   -0.030754
   8 Br:    0.006452
   9 Br:    0.014272
  10 C :    0.317739
  11 C :   -0.354971
  12 C :   -0.186442
  13 N :    0.152751
  14 C :   -0.198223
  15 N :    0.156175
  16 C :   -0.099219
  17 C :    0.021506
  18 C :   -0.152957
  19 C :   -0.014366
  20 C :    0.074777
  21 C :    0.224010
  22 C :   -0.306672
  23 S :    0.202030
  24 C :    0.119081
  25 F :   -0.183762
  26 C :   -0.106528
  27 S :    0.161778
  28 C :    0.090740
  29 C :   -0.106014
  30 C :    0.052972
  31 C :   -0.048785
  32 C :   -0.017519
  33 C :    0.146253
  34 N :   -0.245047
  35 C :    0.112932
  36 N :   -0.217023
  37 C :    0.058344
  38 C :   -0.126194
  39 C :    0.187874
  40 C :   -0.039604
  41 C :    0.021885
  42 C :    0.012301
  43 C :    0.040609
  44 C :   -0.008959
  45 C :    0.006832
  46 C :   -0.102677
  47 C :    0.039066
  48 C :   -0.078058
  49 C :   -0.049001
  50 C :    0.121990
  51 C :    0.221408
  52 C :   -0.277192
  53 S :    0.132233
  54 C :    0.115572
  55 F :   -0.183284
  56 C :   -0.163242
  57 S :    0.161675
  58 C :    0.066891
  59 C :   -0.140419
  60 C :    0.134352
  61 O :   -0.139622
  62 C :    0.006680
  63 C :    0.019350
  64 C :    0.296340
  65 C :   -0.343061
  66 C :   -0.210627
  67 N :    0.170260
  68 C :   -0.186675
  69 N :    0.155478
  70 C :   -0.012571
  71 C :   -0.022989
  72 C :   -0.017804
  73 C :   -0.024520
  74 Br:    0.010115
  75 Br:    0.016865
  76 H :    0.006351
  77 H :    0.001402
  78 H :    0.013864
  79 H :    0.032329
  80 H :    0.037460
  81 H :    0.041725
  82 H :   -0.018489
  83 H :   -0.026000
  84 H :   -0.010696
  85 H :    0.007725
  86 H :    0.121592
  87 H :    0.102649
  88 H :   -0.007575
  89 H :    0.004588
  90 H :    0.093568
  91 H :    0.092788
  92 H :    0.014215
  93 H :    0.052061
  94 H :   -0.008508
  95 H :   -0.032226
  96 H :   -0.030545
  97 H :   -0.020885
  98 H :    0.010781
  99 H :   -0.025958
 100 H :    0.041131
 101 H :    0.053726
 102 H :    0.039681
 103 H :    0.023686
 104 H :    0.007764
 105 H :    0.005782
Sum of atomic charges:   -0.0000000

LOEWDIN ATOMIC CHARGES
----------------------
   0 C :    0.061785
   1 O :   -0.170772
   2 C :   -0.037019
   3 C :   -0.013784
   4 C :   -0.007504
   5 C :   -0.122976
   6 C :   -0.123539
   7 C :   -0.000141
   8 Br:    0.131534
   9 Br:    0.134660
  10 C :    0.077660
  11 C :   -0.142036
  12 C :   -0.019953
  13 N :   -0.051978
  14 C :   -0.022215
  15 N :   -0.054277
  16 C :   -0.117125
  17 C :    0.036636
  18 C :   -0.198922
  19 C :   -0.153824
  20 C :   -0.101723
  21 C :    0.030716
  22 C :   -0.198373
  23 S :    0.492186
  24 C :   -0.056540
  25 F :   -0.057951
  26 C :   -0.111137
  27 S :    0.474503
  28 C :   -0.053178
  29 C :   -0.000597
  30 C :   -0.024612
  31 C :   -0.029265
  32 C :   -0.039676
  33 C :    0.033341
  34 N :   -0.113583
  35 C :    0.022807
  36 N :   -0.115093
  37 C :   -0.023412
  38 C :    0.081711
  39 C :   -0.032374
  40 C :   -0.029089
  41 C :   -0.014453
  42 C :   -0.035762
  43 C :   -0.032107
  44 C :   -0.004043
  45 C :   -0.023392
  46 C :    0.012060
  47 C :   -0.051066
  48 C :   -0.154559
  49 C :   -0.182057
  50 C :   -0.063048
  51 C :    0.027115
  52 C :   -0.164692
  53 S :    0.410164
  54 C :   -0.054682
  55 F :   -0.056017
  56 C :   -0.185406
  57 S :    0.473423
  58 C :    0.043856
  59 C :   -0.099182
  60 C :    0.083287
  61 O :   -0.139709
  62 C :   -0.043851
  63 C :   -0.005586
  64 C :    0.067019
  65 C :   -0.141741
  66 C :   -0.018923
  67 N :   -0.052336
  68 C :   -0.021223
  69 N :   -0.053665
  70 C :   -0.009829
  71 C :   -0.118967
  72 C :   -0.125542
  73 C :    0.006083
  74 Br:    0.134001
  75 Br:    0.138384
  76 H :    0.044071
  77 H :    0.043911
  78 H :    0.042903
  79 H :    0.041920
  80 H :    0.040066
  81 H :    0.041949
  82 H :    0.019740
  83 H :    0.026066
  84 H :    0.003363
  85 H :    0.020861
  86 H :    0.054775
  87 H :    0.051355
  88 H :   -0.000231
  89 H :    0.016455
  90 H :    0.053057
  91 H :    0.055857
  92 H :    0.033550
  93 H :    0.069550
  94 H :    0.025406
  95 H :    0.031805
  96 H :    0.030059
  97 H :    0.026321
  98 H :    0.023308
  99 H :    0.032146
 100 H :    0.045903
 101 H :    0.048513
 102 H :    0.042343
 103 H :    0.046337
 104 H :    0.044203
 105 H :    0.046013

  Mayer bond orders larger than 0.100000
B(  0-C ,  1-O ) :   2.1448 B(  0-C ,  2-C ) :   0.9311 B(  0-C , 16-C ) :   1.0072
B(  2-C ,  3-C ) :   1.3317 B(  2-C ,  7-C ) :   1.3780 B(  3-C ,  4-C ) :   1.3705
B(  3-C , 10-C ) :   0.9835 B(  4-C ,  5-C ) :   1.3604 B(  4-C , 76-H ) :   0.9805
B(  5-C ,  6-C ) :   1.4357 B(  5-C ,  9-Br) :   1.0528 B(  6-C ,  7-C ) :   1.3399
B(  6-C ,  8-Br) :   1.0292 B(  7-C , 77-H ) :   1.0091 B( 10-C , 11-C ) :   1.6237
B( 10-C , 16-C ) :   1.1042 B( 11-C , 12-C ) :   1.1446 B( 11-C , 14-C ) :   1.1457
B( 12-C , 13-N ) :   2.9683 B( 14-C , 15-N ) :   2.9776 B( 16-C , 17-C ) :   1.4728
B( 17-C , 18-C ) :   1.3057 B( 17-C , 78-H ) :   0.9207 B( 18-C , 19-C ) :   1.3918
B( 18-C , 27-S ) :   1.0826 B( 19-C , 20-C ) :   1.2492 B( 19-C , 23-S ) :   1.1315
B( 20-C , 21-C ) :   1.0867 B( 20-C , 26-C ) :   1.3758 B( 21-C , 22-C ) :   1.6529
B( 21-C , 25-F ) :   1.1324 B( 22-C , 23-S ) :   1.0601 B( 22-C , 24-C ) :   1.0671
B( 24-C , 79-H ) :   0.9555 B( 24-C , 80-H ) :   0.9476 B( 24-C , 81-H ) :   0.9488
B( 26-C , 27-S ) :   1.1866 B( 26-C , 28-C ) :   1.0624 B( 28-C , 29-C ) :   1.4820
B( 28-C , 45-C ) :   1.1443 B( 29-C , 30-C ) :   1.1631 B( 29-C , 82-H ) :   0.9850
B( 30-C , 31-C ) :   1.4750 B( 30-C , 43-C ) :   1.1175 B( 31-C , 32-C ) :   1.0226
B( 31-C , 37-C ) :   1.0996 B( 32-C , 33-C ) :   1.0243 B( 32-C , 35-C ) :   1.0300
B( 32-C , 83-H ) :   0.8913 B( 33-C , 34-N ) :   1.0831 B( 33-C , 84-H ) :   0.9416
B( 33-C , 85-H ) :   0.9320 B( 34-N , 86-H ) :   0.9397 B( 34-N , 87-H ) :   0.9603
B( 35-C , 36-N ) :   1.0874 B( 35-C , 88-H ) :   0.9555 B( 35-C , 89-H ) :   0.9208
B( 36-N , 90-H ) :   0.9695 B( 36-N , 91-H ) :   0.9677 B( 37-C , 38-C ) :   1.6529
B( 37-C , 42-C ) :   1.0630 B( 38-C , 39-C ) :   0.9660 B( 38-C , 92-H ) :   0.9635
B( 39-C , 40-C ) :   0.9793 B( 39-C , 46-C ) :   0.9531 B( 39-C , 93-H ) :   0.8345
B( 40-C , 41-C ) :   1.7443 B( 40-C , 94-H ) :   0.9677 B( 41-C , 42-C ) :   1.1285
B( 41-C , 95-H ) :   0.9879 B( 42-C , 43-C ) :   1.4371 B( 43-C , 44-C ) :   1.1371
B( 44-C , 45-C ) :   1.6166 B( 44-C , 96-H ) :   0.9936 B( 45-C , 97-H ) :   0.9798
B( 46-C , 47-C ) :   1.8288 B( 46-C , 98-H ) :   0.9708 B( 47-C , 48-C ) :   1.1182
B( 47-C , 99-H ) :   0.9330 B( 48-C , 49-C ) :   1.5059 B( 48-C , 57-S ) :   1.1494
B( 49-C , 50-C ) :   1.2543 B( 49-C , 53-S ) :   1.0379 B( 50-C , 51-C ) :   1.1021
B( 50-C , 56-C ) :   1.3534 B( 51-C , 52-C ) :   1.6295 B( 51-C , 55-F ) :   1.1189
B( 52-C , 53-S ) :   1.0848 B( 52-C , 54-C ) :   1.0692 B( 54-C ,100-H ) :   0.9546
B( 54-C ,101-H ) :   0.9458 B( 54-C ,102-H ) :   0.9451 B( 56-C , 57-S ) :   1.0973
B( 56-C , 58-C ) :   1.1799 B( 58-C , 59-C ) :   1.6235 B( 58-C ,103-H ) :   0.9272
B( 59-C , 60-C ) :   0.9542 B( 59-C , 64-C ) :   1.0632 B( 60-C , 61-O ) :   2.2690
B( 60-C , 62-C ) :   0.9177 B( 62-C , 63-C ) :   1.3315 B( 62-C , 73-C ) :   1.3731
B( 63-C , 64-C ) :   1.0006 B( 63-C , 70-C ) :   1.3743 B( 64-C , 65-C ) :   1.6305
B( 65-C , 66-C ) :   1.1776 B( 65-C , 68-C ) :   1.1311 B( 66-C , 67-N ) :   3.0046
B( 68-C , 69-N ) :   2.9880 B( 70-C , 71-C ) :   1.3630 B( 70-C ,104-H ) :   0.9825
B( 71-C , 72-C ) :   1.4283 B( 71-C , 75-Br) :   1.0502 B( 72-C , 73-C ) :   1.3524
B( 72-C , 74-Br) :   1.0305 B( 73-C ,105-H ) :   1.0078

-----------------------------------------------------------------------------
         ABSORPTION SPECTRUM VIA TRANSITION ELECTRIC DIPOLE MOMENTS
-----------------------------------------------------------------------------
State   Energy  Wavelength   fosc         T2         TX        TY        TZ
        (cm-1)    (nm)                  (au**2)     (au)      (au)      (au)
-----------------------------------------------------------------------------
   0   13355.3    748.8   0.107492460   2.64973  -1.13000   0.46617   1.07495
   1   17238.9    580.1   0.307125034   5.86517  -0.74855  -0.56753   2.23221
   2   18075.9    553.2   0.912244922  16.61454  -0.29502   0.91496   3.96111
   3   19100.5    523.5   0.336817019   5.80531  -0.79614  -1.74295   1.46068
   4   20738.7    482.2   0.187816466   2.98145   0.22027  -0.85817  -1.48205
   5   23026.1    434.3   0.341706557   4.88550  -1.13269   0.80545   1.71865
   6   24752.0    404.0   0.023192099   0.30846   0.29819  -0.03254  -0.46742
   7   25081.2    398.7   0.121855890   1.59946  -0.68640  -0.29187   1.02134
   8   26434.3    378.3   0.082040347   1.02173   0.92623  -0.02992  -0.40364
   9   26793.3    373.2   0.067155560   0.82515   0.08502   0.14674   0.89240
  10   26883.0    372.0   0.010083742   0.12349  -0.29440   0.08740   0.17081
  11   28281.6    353.6   0.065930363   0.76746  -0.51607   0.12197   0.69732
  12   28319.3    353.1   0.078263925   0.90982  -0.53874   0.23162   0.75228
  13   28795.1    347.3   0.089843889   1.02718  -0.98194  -0.16566  -0.18849
  14   28965.6    345.2   0.121747958   1.38374   1.15462   0.17646  -0.13946
  15   29561.4    338.3   0.095868462   1.06765   0.54432   0.86613   0.14553
  16   29792.1    335.7   0.149879044   1.65621   0.97413   0.82190  -0.17823
  17   29894.8    334.5   0.061747269   0.67998   0.70219  -0.17359  -0.39596
  18   30403.5    328.9   0.113912220   1.23345  -0.81240   0.36437   0.66384
  19   30542.0    327.4   0.096369604   1.03877  -0.90837  -0.04320  -0.46018
  20   30581.3    327.0   0.071442871   0.76909   0.50782   0.22307  -0.67930
  21   31481.0    317.7   0.009842023   0.10292   0.27740   0.13372  -0.08996
  22   31699.0    315.5   0.055051001   0.57174   0.66224   0.13493  -0.33907
  23   32511.4    307.6   0.299799683   3.03579   1.23875  -0.37616  -1.16610
  24   32637.8    306.4   0.203894330   2.05665   0.85335  -0.29369  -1.11453
  25   32847.0    304.4   0.178229949   1.78632  -0.94142   0.33734   0.88671
  26   33300.2    300.3   0.031921076   0.31558   0.03588   0.53702  -0.16093
  27   33439.6    299.0   0.005765363   0.05676   0.19197  -0.14067   0.01082
  28   33752.1    296.3   0.005339438   0.05208   0.14608   0.12623  -0.12169
  29   33964.6    294.4   0.004332677   0.04200  -0.13408  -0.14998   0.03906
  30   34350.1    291.1   0.241248276   2.31213  -1.35623   0.62716  -0.28188
  31   34463.7    290.2   0.654797324   6.25491  -2.11456   0.03983   1.33491
  32   35048.4    285.3   0.249430702   2.34292   0.54578   0.34208   1.38853
  33   35367.7    282.7   0.002952668   0.02748   0.12905  -0.06935  -0.07760
  34   35377.5    282.7   0.063249841   0.58858   0.50903  -0.36858  -0.44002
  35   35485.4    281.8   0.014832364   0.13761  -0.03555   0.32832   0.16896
  36   35861.0    278.9   0.021431439   0.19675   0.33932   0.15232   0.24168
  37   36284.8    275.6   0.015352612   0.13929  -0.16183  -0.08967   0.32414
  38   36456.1    274.3   0.000270578   0.00244  -0.04728  -0.00269   0.01416
  39   36759.1    272.0   0.006021031   0.05392   0.13662   0.02353  -0.18630
  40   36965.1    270.5   0.000955276   0.00851   0.03793  -0.05882   0.06008
  41   37031.8    270.0   0.009047735   0.08043   0.20279   0.17863  -0.08603
  42   37158.9    269.1   0.066399446   0.58827  -0.64341  -0.33835   0.24457
  43   37294.9    268.1   0.018308800   0.16162   0.33335  -0.15663  -0.16111
  44   37660.1    265.5   0.038390212   0.33559  -0.17826  -0.49216  -0.24819
  45   37725.3    265.1   0.064008659   0.55858   0.27428   0.46596  -0.51598
  46   38125.4    262.3   0.040987345   0.35392  -0.10090   0.30646   0.49983
  47   38132.5    262.2   0.027347447   0.23610  -0.18011   0.45091  -0.01853
  48   38561.6    259.3   0.003753481   0.03204  -0.00144  -0.03265  -0.17600
  49   38567.7    259.3   0.004257253   0.03634  -0.06528   0.01745   0.17825
  50   38621.7    258.9   0.020951130   0.17859   0.38248   0.17959  -0.00650
  51   38681.7    258.5   0.035683679   0.30370  -0.08872   0.10045  -0.53454
  52   38932.7    256.9   0.153149430   1.29502  -0.83541  -0.63056   0.44666
  53   38970.3    256.6   0.046684797   0.39438   0.37753  -0.47079  -0.17382
  54   39124.4    255.6   0.081604251   0.68666   0.07385   0.82060  -0.08844
  55   39499.4    253.2   0.031333718   0.26115   0.21153   0.17521   0.43094
  56   39739.9    251.6   0.000575694   0.00477  -0.02302   0.06487   0.00554
  57   39919.7    250.5   0.104812120   0.86437  -0.13144   0.42491   0.81642
  58   40027.4    249.8   0.027235996   0.22401  -0.32656   0.11291   0.32345

FINAL SINGLE POINT ENERGY    -14791.195097803726

DIPOLE MOMENT
-------------
                                X             Y             Z
Electronic contribution:    -14.31855    -166.83093     -21.96339
Nuclear contribution   :     14.60018     169.38703      23.64742
                        -----------------------------------------
Total Dipole Moment    :      0.28163       2.55609       1.68403
                        -----------------------------------------
Magnitude (a.u.)       :      3.07391
Magnitude (Debye)      :      7.81325

Rotational constants in cm-1:     0.001249     0.000121     0.000116
Rotational constants in MHz :    37.445505     3.615371     3.462834

                             ****ORCA TERMINATED NORMALLY****
TOTAL RUN TIME: 0 days 0 hours 13 minutes 39 seconds 586 msec
