                         Program Version 4.2.0 -  RELEASE  -
|  1> # ORCA input file
|  2> # SCF done       -200.298201678941          0.000891732221
|  3> ! CAM-B3LYP def2-SVP def2/J RIJCOSX Grid4 TightSCF
|  4> %maxcore 5000
|  5> %tddft
|  6>     Mode sTDDFT
|  7>     Ethresh 5.0
|  8>     maxcore 5000
|  9> end
| 10>
| 11> %pal
| 12>   nprocs 6
| 13>   end
| 14> * xyz 0 1
| 15>    C       -1.05911         0.28020        -3.65401
| 16>    C       -1.43895         0.72187        -4.89188
| 17>    C       -2.16361        -0.06231        -5.81449
| 18>    N       -2.76504        -0.65801        -6.58890
| 19>    C       -1.06549         1.97385        -5.42145
| 20>    N       -0.73617         2.95831        -5.91191
| 21>    C       -1.17381        -1.08419        -3.15916
| 22>    C       -0.26846        -1.25309        -2.06839
| 23>    C       -0.12797        -2.45467        -1.43454
| 24>    C       -0.90394        -3.55509        -1.86215
| 25>    C       -1.82224        -3.38769        -2.93998
| 26>    C       -1.94414        -2.13499        -3.58200
| 27>    C       -2.59474        -4.49249        -3.35280
| 28>    C       -2.46551        -5.70623        -2.73456
| 29>    C       -1.56048        -5.87069        -1.67496
| 30>    C       -0.79624        -4.81860        -1.24821
| 31>    C        0.40899         0.02367        -1.79007
| 32>    O        1.27624         0.26015        -0.98260
| 33>    C       -0.25162         1.01512        -2.69278
| 34>    C       -0.13232         2.34026        -2.46638
| 35>    C       -0.97934         3.36987        -3.00468
| 36>    C       -2.33673         3.34653        -3.02932
| 37>    C       -2.81641         4.61806        -3.54687
| 38>    C       -4.17262         4.91436        -3.74531
| 39>    N       -5.28776         5.13966        -3.89191
| 40>    C       -1.74828         5.42383        -3.80814
| 41>    C       -0.54360         4.69198        -3.49765
| 42>    C        0.74332         5.04904        -3.78277
| 43>    C        1.24078         6.36221        -4.26087
| 44>    C        2.46862         6.14845        -4.81452
| 45>    C        2.82757         4.75696        -4.63429
| 46>    C        1.82286         4.11570        -3.96438
| 47>    C        4.02709         4.18749        -5.08680
| 48>    N        5.01534         3.73619        -5.45504
| 49>    C        0.64589         7.64752        -4.10161
| 50>    C       -0.24187         8.01082        -3.14901
| 51>    C       -0.79109         9.31993        -3.04546
| 52>    S       -0.41238        10.57349        -4.20968
| 53>    C       -1.44174        11.71541        -3.42041
| 54>    C       -2.02287        11.13855        -2.29810
| 55>    C       -1.66568         9.79132        -2.09907
| 56>    N       -2.84040        11.83848        -1.36737
| 57>    O       -2.83747        13.05443        -1.40269
| 58>    O       -3.47778        11.17012        -0.58062
| 59>    C       -1.58551        13.03464        -3.96060
| 60>    C       -0.56179        13.80407        -4.41791
| 61>    C       -1.08827        15.10779        -4.77356
| 62>    C       -0.31293        16.14319        -5.31560
| 63>    N        0.33434        16.97700        -5.76483
| 64>    C       -2.42880        15.13563        -4.51041
| 65>    C       -2.82684        13.83333        -4.04454
| 66>    C       -4.10876        13.36858        -3.92757
| 67>    C       -5.35144        14.17452        -3.84432
| 68>    C       -6.40431        13.30614        -3.91174
| 69>    C       -5.89081        11.95979        -4.03388
| 70>    C       -4.52224        11.99454        -4.00779
| 71>    C       -6.69184        10.81502        -4.16185
| 72>    N       -7.35172         9.88321        -4.26998
| 73>    C       -5.42066        15.57462        -3.59722
| 74>    C       -6.52015        16.32733        -3.86638
| 75>    C       -6.55299        17.72005        -3.62526
| 76>    C       -7.60295        18.53428        -3.94335
| 77>    C       -7.67968        19.97298        -3.76042
| 78>    C       -6.72465        20.78534        -3.20477
| 79>    C       -6.86329        22.18179        -3.05566
| 80>    N       -6.90827        23.31863        -2.90272
| 81>    C       -5.47369        20.36555        -2.70627
| 82>    N       -4.43663        20.10585        -2.28644
| 83>    C       -8.96488        20.42068        -4.28614
| 84>    C       -9.67881        19.28856        -4.77267
| 85>    C       -8.87206        18.07494        -4.57270
| 86>    O       -9.18808        16.94056        -4.86601
| 87>    C      -10.91760        19.40076        -5.33545
| 88>    C      -11.51153        20.67755        -5.44399
| 89>    C      -10.80513        21.81640        -4.95961
| 90>    C       -9.52500        21.66789        -4.37823
| 91>    C      -11.40523        23.08682        -5.07576
| 92>    C      -12.64206        23.22733        -5.64413
| 93>    C      -13.33622        22.10525        -6.12099
| 94>    C      -12.78331        20.85720        -6.02242
| 95>    H        0.56878        -2.56491        -0.61694
| 96>    H       -2.65260        -2.03175        -4.38918
| 97>    H       -3.28732        -4.36137        -4.17107
| 98>    H       -3.05980        -6.54699        -3.05914
| 99>    H       -1.47202        -6.83538        -1.19847
|100>    H       -0.09791        -4.93987        -0.43326
|101>    H        0.61629         2.64168        -1.73945
|102>    H       -2.97809         2.54868        -2.70158
|103>    H       -1.78433         6.38742        -4.27595
|104>    H        3.10802         6.88143        -5.27001
|105>    H        1.78488         3.06803        -3.73804
|106>    H        1.01647         8.41177        -4.77602
|107>    H       -0.57097         7.30623        -2.39788
|108>    H       -2.03901         9.21163        -1.27444
|109>    H        0.47615        13.53206        -4.47151
|110>    H       -3.09293        15.94618        -4.73742
|111>    H       -7.44829        13.54430        -3.83861
|112>    H       -3.87662        11.14923        -4.14808
|113>    H       -4.55094        16.04676        -3.15966
|114>    H       -7.38953        15.87512        -4.31876
|115>    H       -5.66926        18.15347        -3.17428
|116>    H      -11.43582        18.52484        -5.69672
|117>    H       -9.01836        22.55083        -4.02281
|118>    H      -10.86709        23.94790        -4.70752
|119>    H      -13.09254        24.20477        -5.72986
|120>    H      -14.31091        22.23471        -6.56709
|121>    H      -13.31268        19.98939        -6.38776
|122> *
|123>
|124>                          ****END OF INPUT****

CARTESIAN COORDINATES (ANGSTROEM)
---------------------------------
  C     -1.059110    0.280200   -3.654010
  C     -1.438950    0.721870   -4.891880
  C     -2.163610   -0.062310   -5.814490
  N     -2.765040   -0.658010   -6.588900
  C     -1.065490    1.973850   -5.421450
  N     -0.736170    2.958310   -5.911910
  C     -1.173810   -1.084190   -3.159160
  C     -0.268460   -1.253090   -2.068390
  C     -0.127970   -2.454670   -1.434540
  C     -0.903940   -3.555090   -1.862150
  C     -1.822240   -3.387690   -2.939980
  C     -1.944140   -2.134990   -3.582000
  C     -2.594740   -4.492490   -3.352800
  C     -2.465510   -5.706230   -2.734560
  C     -1.560480   -5.870690   -1.674960
  C     -0.796240   -4.818600   -1.248210
  C      0.408990    0.023670   -1.790070
  O      1.276240    0.260150   -0.982600
  C     -0.251620    1.015120   -2.692780
  C     -0.132320    2.340260   -2.466380
  C     -0.979340    3.369870   -3.004680
  C     -2.336730    3.346530   -3.029320
  C     -2.816410    4.618060   -3.546870
  C     -4.172620    4.914360   -3.745310
  N     -5.287760    5.139660   -3.891910
  C     -1.748280    5.423830   -3.808140
  C     -0.543600    4.691980   -3.497650
  C      0.743320    5.049040   -3.782770
  C      1.240780    6.362210   -4.260870
  C      2.468620    6.148450   -4.814520
  C      2.827570    4.756960   -4.634290
  C      1.822860    4.115700   -3.964380
  C      4.027090    4.187490   -5.086800
  N      5.015340    3.736190   -5.455040
  C      0.645890    7.647520   -4.101610
  C     -0.241870    8.010820   -3.149010
  C     -0.791090    9.319930   -3.045460
  S     -0.412380   10.573490   -4.209680
  C     -1.441740   11.715410   -3.420410
  C     -2.022870   11.138550   -2.298100
  C     -1.665680    9.791320   -2.099070
  N     -2.840400   11.838480   -1.367370
  O     -2.837470   13.054430   -1.402690
  O     -3.477780   11.170120   -0.580620
  C     -1.585510   13.034640   -3.960600
  C     -0.561790   13.804070   -4.417910
  C     -1.088270   15.107790   -4.773560
  C     -0.312930   16.143190   -5.315600
  N      0.334340   16.977000   -5.764830
  C     -2.428800   15.135630   -4.510410
  C     -2.826840   13.833330   -4.044540
  C     -4.108760   13.368580   -3.927570
  C     -5.351440   14.174520   -3.844320
  C     -6.404310   13.306140   -3.911740
  C     -5.890810   11.959790   -4.033880
  C     -4.522240   11.994540   -4.007790
  C     -6.691840   10.815020   -4.161850
  N     -7.351720    9.883210   -4.269980
  C     -5.420660   15.574620   -3.597220
  C     -6.520150   16.327330   -3.866380
  C     -6.552990   17.720050   -3.625260
  C     -7.602950   18.534280   -3.943350
  C     -7.679680   19.972980   -3.760420
  C     -6.724650   20.785340   -3.204770
  C     -6.863290   22.181790   -3.055660
  N     -6.908270   23.318630   -2.902720
  C     -5.473690   20.365550   -2.706270
  N     -4.436630   20.105850   -2.286440
  C     -8.964880   20.420680   -4.286140
  C     -9.678810   19.288560   -4.772670
  C     -8.872060   18.074940   -4.572700
  O     -9.188080   16.940560   -4.866010
  C    -10.917600   19.400760   -5.335450
  C    -11.511530   20.677550   -5.443990
  C    -10.805130   21.816400   -4.959610
  C     -9.525000   21.667890   -4.378230
  C    -11.405230   23.086820   -5.075760
  C    -12.642060   23.227330   -5.644130
  C    -13.336220   22.105250   -6.120990
  C    -12.783310   20.857200   -6.022420
  H      0.568780   -2.564910   -0.616940
  H     -2.652600   -2.031750   -4.389180
  H     -3.287320   -4.361370   -4.171070
  H     -3.059800   -6.546990   -3.059140
  H     -1.472020   -6.835380   -1.198470
  H     -0.097910   -4.939870   -0.433260
  H      0.616290    2.641680   -1.739450
  H     -2.978090    2.548680   -2.701580
  H     -1.784330    6.387420   -4.275950
  H      3.108020    6.881430   -5.270010
  H      1.784880    3.068030   -3.738040
  H      1.016470    8.411770   -4.776020
  H     -0.570970    7.306230   -2.397880
  H     -2.039010    9.211630   -1.274440
  H      0.476150   13.532060   -4.471510
  H     -3.092930   15.946180   -4.737420
  H     -7.448290   13.544300   -3.838610
  H     -3.876620   11.149230   -4.148080
  H     -4.550940   16.046760   -3.159660
  H     -7.389530   15.875120   -4.318760
  H     -5.669260   18.153470   -3.174280
  H    -11.435820   18.524840   -5.696720
  H     -9.018360   22.550830   -4.022810
  H    -10.867090   23.947900   -4.707520
  H    -13.092540   24.204770   -5.729860
  H    -14.310910   22.234710   -6.567090
  H    -13.312680   19.989390   -6.387760

 Total Charge           Charge          ....    0
 Multiplicity           Mult            ....    1
 Number of Electrons    NEL             ....  534
 Basis Dimension        Dim             .... 1259

ORBITAL ENERGIES
----------------

  NO   OCC          E(Eh)            E(eV)
   0   2.0000     -89.000487     -2421.8264
   1   2.0000     -19.257877      -524.0335
   2   2.0000     -19.256898      -524.0068
   3   2.0000     -19.229365      -523.2576
   4   2.0000     -19.219019      -522.9761
   5   2.0000     -14.665706      -399.0741
   6   2.0000     -14.429540      -392.6477
   7   2.0000     -14.427539      -392.5933
   8   2.0000     -14.422213      -392.4484
   9   2.0000     -14.421265      -392.4226
  10   2.0000     -14.419273      -392.3684
  11   2.0000     -14.418642      -392.3512
  12   2.0000     -14.418008      -392.3340
  13   2.0000     -14.415095      -392.2547
  14   2.0000     -10.380265      -282.4614
  15   2.0000     -10.369468      -282.1676
  16   2.0000     -10.359025      -281.8834
  17   2.0000     -10.358041      -281.8566
  18   2.0000     -10.355902      -281.7984
  19   2.0000     -10.350600      -281.6541
  20   2.0000     -10.343371      -281.4574
  21   2.0000     -10.341819      -281.4152
  22   2.0000     -10.341777      -281.4140
  23   2.0000     -10.341105      -281.3958
  24   2.0000     -10.340179      -281.3706
  25   2.0000     -10.339463      -281.3511
  26   2.0000     -10.338768      -281.3322
  27   2.0000     -10.338509      -281.3251
  28   2.0000     -10.336596      -281.2731
  29   2.0000     -10.335841      -281.2525
  30   2.0000     -10.335389      -281.2402
  31   2.0000     -10.335073      -281.2316
  32   2.0000     -10.332194      -281.1533
  33   2.0000     -10.329272      -281.0738
  34   2.0000     -10.325731      -280.9774
  35   2.0000     -10.320714      -280.8409
  36   2.0000     -10.320639      -280.8389
  37   2.0000     -10.320206      -280.8271
  38   2.0000     -10.320163      -280.8259
  39   2.0000     -10.318977      -280.7936
  40   2.0000     -10.318096      -280.7697
  41   2.0000     -10.317911      -280.7646
  42   2.0000     -10.317896      -280.7642
  43   2.0000     -10.317581      -280.7556
  44   2.0000     -10.317205      -280.7454
  45   2.0000     -10.317089      -280.7423
  46   2.0000     -10.316791      -280.7341
  47   2.0000     -10.316338      -280.7218
  48   2.0000     -10.315944      -280.7111
  49   2.0000     -10.315939      -280.7110
  50   2.0000     -10.315882      -280.7094
  51   2.0000     -10.315592      -280.7015
  52   2.0000     -10.315350      -280.6949
  53   2.0000     -10.314060      -280.6598
  54   2.0000     -10.312756      -280.6244
  55   2.0000     -10.312587      -280.6197
  56   2.0000     -10.311792      -280.5981
  57   2.0000     -10.310837      -280.5721
  58   2.0000     -10.310175      -280.5541
  59   2.0000     -10.309293      -280.5301
  60   2.0000     -10.309154      -280.5264
  61   2.0000     -10.308855      -280.5182
  62   2.0000     -10.308573      -280.5105
  63   2.0000     -10.303759      -280.3795
  64   2.0000     -10.302186      -280.3367
  65   2.0000     -10.301712      -280.3238
  66   2.0000     -10.298593      -280.2390
  67   2.0000     -10.298347      -280.2323
  68   2.0000     -10.297601      -280.2120
  69   2.0000     -10.297426      -280.2072
  70   2.0000     -10.296098      -280.1711
  71   2.0000     -10.295647      -280.1588
  72   2.0000     -10.295407      -280.1523
  73   2.0000     -10.294959      -280.1401
  74   2.0000     -10.292586      -280.0755
  75   2.0000     -10.289231      -279.9842
  76   2.0000     -10.287393      -279.9342
  77   2.0000     -10.286850      -279.9194
  78   2.0000     -10.286590      -279.9124
  79   2.0000     -10.286093      -279.8988
  80   2.0000      -8.095687      -220.2948
  81   2.0000      -6.064873      -165.0336
  82   2.0000      -6.060787      -164.9224
  83   2.0000      -6.057931      -164.8447
  84   2.0000      -1.338458       -36.4213
  85   2.0000      -1.156993       -31.4834
  86   2.0000      -1.144523       -31.1440
  87   2.0000      -1.133407       -30.8416
  88   2.0000      -1.040481       -28.3129
  89   2.0000      -1.035822       -28.1861
  90   2.0000      -1.027356       -27.9558
  91   2.0000      -1.024189       -27.8696
  92   2.0000      -1.019177       -27.7332
  93   2.0000      -1.014087       -27.5947
  94   2.0000      -1.013553       -27.5802
  95   2.0000      -1.011357       -27.5204
  96   2.0000      -1.006403       -27.3856
  97   2.0000      -0.999687       -27.2029
  98   2.0000      -0.999133       -27.1878
  99   2.0000      -0.998696       -27.1759
 100   2.0000      -0.994674       -27.0665
 101   2.0000      -0.991369       -26.9765
 102   2.0000      -0.990453       -26.9516
 103   2.0000      -0.982963       -26.7478
 104   2.0000      -0.972528       -26.4638
 105   2.0000      -0.944013       -25.6879
 106   2.0000      -0.937661       -25.5150
 107   2.0000      -0.935059       -25.4443
 108   2.0000      -0.920900       -25.0590
 109   2.0000      -0.920353       -25.0441
 110   2.0000      -0.912845       -24.8398
 111   2.0000      -0.898851       -24.4590
 112   2.0000      -0.897194       -24.4139
 113   2.0000      -0.895805       -24.3761
 114   2.0000      -0.892457       -24.2850
 115   2.0000      -0.891232       -24.2517
 116   2.0000      -0.886624       -24.1263
 117   2.0000      -0.881892       -23.9975
 118   2.0000      -0.869849       -23.6698
 119   2.0000      -0.851568       -23.1723
 120   2.0000      -0.844007       -22.9666
 121   2.0000      -0.839513       -22.8443
 122   2.0000      -0.831297       -22.6207
 123   2.0000      -0.829330       -22.5672
 124   2.0000      -0.828514       -22.5450
 125   2.0000      -0.813730       -22.1427
 126   2.0000      -0.812434       -22.1075
 127   2.0000      -0.801022       -21.7969
 128   2.0000      -0.789327       -21.4787
 129   2.0000      -0.786027       -21.3889
 130   2.0000      -0.773401       -21.0453
 131   2.0000      -0.762908       -20.7598
 132   2.0000      -0.756361       -20.5816
 133   2.0000      -0.740553       -20.1515
 134   2.0000      -0.739458       -20.1217
 135   2.0000      -0.735320       -20.0091
 136   2.0000      -0.734092       -19.9757
 137   2.0000      -0.717319       -19.5192
 138   2.0000      -0.711581       -19.3631
 139   2.0000      -0.707250       -19.2452
 140   2.0000      -0.704813       -19.1789
 141   2.0000      -0.700099       -19.0507
 142   2.0000      -0.698382       -19.0039
 143   2.0000      -0.695360       -18.9217
 144   2.0000      -0.689393       -18.7593
 145   2.0000      -0.682803       -18.5800
 146   2.0000      -0.672876       -18.3099
 147   2.0000      -0.667621       -18.1669
 148   2.0000      -0.665579       -18.1113
 149   2.0000      -0.656487       -17.8639
 150   2.0000      -0.653709       -17.7883
 151   2.0000      -0.652681       -17.7604
 152   2.0000      -0.649900       -17.6847
 153   2.0000      -0.644499       -17.5377
 154   2.0000      -0.643766       -17.5178
 155   2.0000      -0.639327       -17.3970
 156   2.0000      -0.634489       -17.2653
 157   2.0000      -0.619795       -16.8655
 158   2.0000      -0.618325       -16.8255
 159   2.0000      -0.614420       -16.7192
 160   2.0000      -0.610764       -16.6197
 161   2.0000      -0.610537       -16.6135
 162   2.0000      -0.607181       -16.5222
 163   2.0000      -0.605020       -16.4634
 164   2.0000      -0.597774       -16.2663
 165   2.0000      -0.593794       -16.1579
 166   2.0000      -0.591497       -16.0954
 167   2.0000      -0.578590       -15.7442
 168   2.0000      -0.569556       -15.4984
 169   2.0000      -0.567196       -15.4342
 170   2.0000      -0.561587       -15.2816
 171   2.0000      -0.557086       -15.1591
 172   2.0000      -0.556885       -15.1536
 173   2.0000      -0.555764       -15.1231
 174   2.0000      -0.549564       -14.9544
 175   2.0000      -0.547311       -14.8931
 176   2.0000      -0.546586       -14.8734
 177   2.0000      -0.542400       -14.7595
 178   2.0000      -0.540433       -14.7059
 179   2.0000      -0.540156       -14.6984
 180   2.0000      -0.539388       -14.6775
 181   2.0000      -0.538070       -14.6416
 182   2.0000      -0.533460       -14.5162
 183   2.0000      -0.530963       -14.4482
 184   2.0000      -0.530619       -14.4389
 185   2.0000      -0.526654       -14.3310
 186   2.0000      -0.525667       -14.3041
 187   2.0000      -0.521987       -14.2040
 188   2.0000      -0.521652       -14.1949
 189   2.0000      -0.520502       -14.1636
 190   2.0000      -0.518039       -14.0965
 191   2.0000      -0.516603       -14.0575
 192   2.0000      -0.516146       -14.0451
 193   2.0000      -0.515258       -14.0209
 194   2.0000      -0.512041       -13.9333
 195   2.0000      -0.511966       -13.9313
 196   2.0000      -0.509835       -13.8733
 197   2.0000      -0.508464       -13.8360
 198   2.0000      -0.506224       -13.7751
 199   2.0000      -0.505135       -13.7454
 200   2.0000      -0.503375       -13.6975
 201   2.0000      -0.499111       -13.5815
 202   2.0000      -0.498030       -13.5521
 203   2.0000      -0.497675       -13.5424
 204   2.0000      -0.496766       -13.5177
 205   2.0000      -0.493356       -13.4249
 206   2.0000      -0.489611       -13.3230
 207   2.0000      -0.487806       -13.2739
 208   2.0000      -0.476517       -12.9667
 209   2.0000      -0.475222       -12.9315
 210   2.0000      -0.473955       -12.8970
 211   2.0000      -0.466172       -12.6852
 212   2.0000      -0.464185       -12.6311
 213   2.0000      -0.463679       -12.6173
 214   2.0000      -0.459966       -12.5163
 215   2.0000      -0.454642       -12.3714
 216   2.0000      -0.453341       -12.3360
 217   2.0000      -0.452570       -12.3150
 218   2.0000      -0.450524       -12.2594
 219   2.0000      -0.450044       -12.2463
 220   2.0000      -0.448896       -12.2151
 221   2.0000      -0.448188       -12.1958
 222   2.0000      -0.447174       -12.1682
 223   2.0000      -0.445281       -12.1167
 224   2.0000      -0.445145       -12.1130
 225   2.0000      -0.444434       -12.0937
 226   2.0000      -0.444328       -12.0908
 227   2.0000      -0.441825       -12.0227
 228   2.0000      -0.440720       -11.9926
 229   2.0000      -0.439518       -11.9599
 230   2.0000      -0.436933       -11.8895
 231   2.0000      -0.434530       -11.8242
 232   2.0000      -0.433828       -11.8051
 233   2.0000      -0.428473       -11.6593
 234   2.0000      -0.427361       -11.6291
 235   2.0000      -0.423239       -11.5169
 236   2.0000      -0.422679       -11.5017
 237   2.0000      -0.421341       -11.4653
 238   2.0000      -0.420666       -11.4469
 239   2.0000      -0.419593       -11.4177
 240   2.0000      -0.419076       -11.4036
 241   2.0000      -0.417555       -11.3623
 242   2.0000      -0.411019       -11.1844
 243   2.0000      -0.407046       -11.0763
 244   2.0000      -0.405671       -11.0389
 245   2.0000      -0.401114       -10.9149
 246   2.0000      -0.398378       -10.8404
 247   2.0000      -0.389966       -10.6115
 248   2.0000      -0.387518       -10.5449
 249   2.0000      -0.386635       -10.5209
 250   2.0000      -0.375746       -10.2246
 251   2.0000      -0.369018       -10.0415
 252   2.0000      -0.367297        -9.9947
 253   2.0000      -0.361384        -9.8338
 254   2.0000      -0.348216        -9.4755
 255   2.0000      -0.346739        -9.4352
 256   2.0000      -0.342107        -9.3092
 257   2.0000      -0.337942        -9.1959
 258   2.0000      -0.336558        -9.1582
 259   2.0000      -0.328835        -8.9480
 260   2.0000      -0.321909        -8.7596
 261   2.0000      -0.317948        -8.6518
 262   2.0000      -0.313178        -8.5220
 263   2.0000      -0.303336        -8.2542
 264   2.0000      -0.297587        -8.0978
 265   2.0000      -0.284669        -7.7462
 266   2.0000      -0.279842        -7.6149
 267   0.0000      -0.139920        -3.8074
 268   0.0000      -0.134563        -3.6616
 269   0.0000      -0.098195        -2.6720
 270   0.0000      -0.095714        -2.6045
 271   0.0000      -0.074154        -2.0178

MULLIKEN ATOMIC CHARGES
-----------------------
   0 C :    0.270882
   1 C :   -0.337390
   2 C :   -0.181737
   3 N :    0.164359
   4 C :   -0.167211
   5 N :    0.164878
   6 C :    0.039425
   7 C :    0.004180
   8 C :   -0.079339
   9 C :    0.097275
  10 C :    0.097944
  11 C :   -0.081874
  12 C :   -0.019921
  13 C :    0.039506
  14 C :    0.038682
  15 C :   -0.016098
  16 C :    0.142846
  17 O :   -0.130948
  18 C :   -0.115729
  19 C :    0.005259
  20 C :   -0.017168
  21 C :    0.034941
  22 C :   -0.112033
  23 C :   -0.136951
  24 N :    0.162980
  25 C :   -0.008653
  26 C :    0.090098
  27 C :    0.046772
  28 C :    0.080809
  29 C :    0.000405
  30 C :   -0.089044
  31 C :   -0.018361
  32 C :   -0.132300
  33 N :    0.152824
  34 C :   -0.020334
  35 C :    0.018508
  36 C :   -0.037358
  37 S :    0.174387
  38 C :   -0.201317
  39 C :    0.179773
  40 C :   -0.044499
  41 N :    0.258746
  42 O :   -0.236925
  43 O :   -0.227355
  44 C :    0.076658
  45 C :   -0.004954
  46 C :   -0.095040
  47 C :   -0.135898
  48 N :    0.156297
  49 C :   -0.025317
  50 C :    0.097333
  51 C :    0.048776
  52 C :    0.081848
  53 C :   -0.002266
  54 C :   -0.085417
  55 C :   -0.033467
  56 C :   -0.135166
  57 N :    0.159957
  58 C :   -0.003054
  59 C :   -0.002692
  60 C :   -0.039159
  61 C :   -0.065898
  62 C :    0.338654
  63 C :   -0.353679
  64 C :   -0.180458
  65 N :    0.146318
  66 C :   -0.187195
  67 N :    0.147619
  68 C :    0.044680
  69 C :   -0.000295
  70 C :    0.150911
  71 O :   -0.153375
  72 C :   -0.079425
  73 C :    0.098479
  74 C :    0.096473
  75 C :   -0.083295
  76 C :   -0.017364
  77 C :    0.035112
  78 C :    0.039029
  79 C :   -0.016417
  80 H :   -0.006814
  81 H :   -0.001549
  82 H :   -0.006052
  83 H :   -0.000456
  84 H :   -0.001295
  85 H :   -0.013274
  86 H :    0.039967
  87 H :    0.005337
  88 H :    0.021363
  89 H :   -0.004358
  90 H :    0.010778
  91 H :    0.003718
  92 H :    0.013901
  93 H :    0.010402
  94 H :    0.003591
  95 H :    0.010027
  96 H :    0.015193
  97 H :    0.018981
  98 H :    0.028486
  99 H :    0.030312
 100 H :    0.009155
 101 H :   -0.013783
 102 H :   -0.009446
 103 H :   -0.008639
 104 H :   -0.004333
 105 H :   -0.004758
 106 H :   -0.017703
Sum of atomic charges:   -0.0000000

LOEWDIN ATOMIC CHARGES
----------------------
   0 C :    0.068966
   1 C :   -0.130320
   2 C :   -0.019779
   3 N :   -0.040918
   4 C :   -0.012124
   5 N :   -0.048339
   6 C :   -0.025975
   7 C :   -0.059578
   8 C :    0.036968
   9 C :   -0.007193
  10 C :   -0.004189
  11 C :    0.020737
  12 C :   -0.004432
  13 C :   -0.008865
  14 C :   -0.008605
  15 C :   -0.007567
  16 C :    0.083650
  17 O :   -0.134377
  18 C :   -0.076048
  19 C :    0.061598
  20 C :   -0.044170
  21 C :    0.041673
  22 C :   -0.056233
  23 C :   -0.035872
  24 N :   -0.027537
  25 C :    0.023794
  26 C :    0.036939
  27 C :    0.048373
  28 C :   -0.026160
  29 C :    0.016329
  30 C :   -0.041933
  31 C :    0.008717
  32 C :   -0.030118
  33 N :   -0.031617
  34 C :   -0.017169
  35 C :   -0.035345
  36 C :   -0.160705
  37 S :    0.478949
  38 C :   -0.142861
  39 C :   -0.076922
  40 C :   -0.034029
  41 N :    0.285563
  42 O :   -0.199519
  43 O :   -0.193078
  44 C :   -0.054266
  45 C :    0.028240
  46 C :   -0.051226
  47 C :   -0.032697
  48 N :   -0.029550
  49 C :    0.017277
  50 C :    0.044882
  51 C :    0.044134
  52 C :   -0.034154
  53 C :    0.042005
  54 C :   -0.043666
  55 C :   -0.002060
  56 C :   -0.033350
  57 N :   -0.024229
  58 C :    0.024764
  59 C :   -0.018451
  60 C :    0.065199
  61 C :   -0.087220
  62 C :    0.074947
  63 C :   -0.136935
  64 C :   -0.016739
  65 N :   -0.052317
  66 C :   -0.019919
  67 N :   -0.051516
  68 C :   -0.025901
  69 C :   -0.056267
  70 C :    0.085914
  71 O :   -0.146500
  72 C :    0.033272
  73 C :   -0.008087
  74 C :   -0.005866
  75 C :    0.020232
  76 C :   -0.004715
  77 C :   -0.012782
  78 C :   -0.011439
  79 C :   -0.009221
  80 H :    0.041298
  81 H :    0.040194
  82 H :    0.035894
  83 H :    0.035083
  84 H :    0.034563
  85 H :    0.033368
  86 H :    0.049600
  87 H :    0.037796
  88 H :    0.040032
  89 H :    0.035646
  90 H :    0.037866
  91 H :    0.029686
  92 H :    0.039855
  93 H :    0.045746
  94 H :    0.036182
  95 H :    0.039482
  96 H :    0.041781
  97 H :    0.036629
  98 H :    0.039133
  99 H :    0.034099
 100 H :    0.042026
 101 H :    0.038955
 102 H :    0.039042
 103 H :    0.035026
 104 H :    0.033464
 105 H :    0.033076
 106 H :    0.032004

  Mayer bond orders larger than 0.100000
B(  0-C ,  1-C ) :   1.6787 B(  0-C ,  6-C ) :   1.0087 B(  0-C , 18-C ) :   1.0071
B(  1-C ,  2-C ) :   1.1296 B(  1-C ,  4-C ) :   1.1668 B(  2-C ,  3-N ) :   2.9895
B(  4-C ,  5-N ) :   2.9664 B(  6-C ,  7-C ) :   1.2099 B(  6-C , 11-C ) :   1.4461
B(  7-C ,  8-C ) :   1.4671 B(  7-C , 16-C ) :   0.9220 B(  8-C ,  9-C ) :   1.1879
B(  8-C , 80-H ) :   1.0174 B(  9-C , 10-C ) :   1.2510 B(  9-C , 15-C ) :   1.2431
B( 10-C , 11-C ) :   1.2093 B( 10-C , 12-C ) :   1.2374 B( 11-C , 81-H ) :   0.9944
B( 12-C , 13-C ) :   1.4915 B( 12-C , 82-H ) :   0.9989 B( 13-C , 14-C ) :   1.2568
B( 13-C , 83-H ) :   0.9889 B( 14-C , 15-C ) :   1.4904 B( 14-C , 84-H ) :   0.9891
B( 15-C , 85-H ) :   0.9988 B( 16-C , 17-O ) :   2.2923 B( 16-C , 18-C ) :   0.9163
B( 18-C , 19-C ) :   1.7739 B( 19-C , 20-C ) :   0.9711 B( 19-C , 86-H ) :   0.9304
B( 20-C , 21-C ) :   1.6434 B( 20-C , 26-C ) :   1.0653 B( 21-C , 22-C ) :   1.0867
B( 21-C , 87-H ) :   1.0206 B( 22-C , 23-C ) :   1.0590 B( 22-C , 25-C ) :   1.6591
B( 23-C , 24-N ) :   3.0481 B( 25-C , 26-C ) :   1.0757 B( 25-C , 88-H ) :   1.0075
B( 26-C , 27-C ) :   1.5175 B( 27-C , 28-C ) :   1.0194 B( 27-C , 31-C ) :   1.0930
B( 28-C , 29-C ) :   1.5900 B( 28-C , 34-C ) :   1.1264 B( 29-C , 30-C ) :   1.0950
B( 29-C , 89-H ) :   1.0219 B( 30-C , 31-C ) :   1.6268 B( 30-C , 32-C ) :   1.0656
B( 31-C , 90-H ) :   1.0035 B( 32-C , 33-N ) :   3.0430 B( 34-C , 35-C ) :   1.6512
B( 34-C , 91-H ) :   0.9566 B( 35-C , 36-C ) :   1.1509 B( 35-C , 92-H ) :   0.9748
B( 36-C , 37-S ) :   1.0786 B( 36-C , 40-C ) :   1.4731 B( 37-S , 38-C ) :   1.2042
B( 38-C , 39-C ) :   1.4923 B( 38-C , 44-C ) :   1.0113 B( 39-C , 40-C ) :   1.2271
B( 39-C , 41-N ) :   0.9160 B( 40-C , 93-H ) :   1.0120 B( 41-N , 42-O ) :   1.5160
B( 41-N , 43-O ) :   1.5492 B( 42-O , 43-O ) :   0.2653 B( 44-C , 45-C ) :   1.6393
B( 44-C , 50-C ) :   1.0783 B( 45-C , 46-C ) :   1.0872 B( 45-C , 94-H ) :   1.0195
B( 46-C , 47-C ) :   1.0602 B( 46-C , 49-C ) :   1.6424 B( 47-C , 48-N ) :   3.0422
B( 49-C , 50-C ) :   1.0821 B( 49-C , 95-H ) :   1.0146 B( 50-C , 51-C ) :   1.4829
B( 51-C , 52-C ) :   1.0434 B( 51-C , 55-C ) :   1.0933 B( 52-C , 53-C ) :   1.5972
B( 52-C , 58-C ) :   1.0587 B( 53-C , 54-C ) :   1.0985 B( 53-C , 96-H ) :   1.0151
B( 54-C , 55-C ) :   1.6314 B( 54-C , 56-C ) :   1.0552 B( 55-C , 97-H ) :   1.0114
B( 56-C , 57-N ) :   3.0434 B( 58-C , 59-C ) :   1.5990 B( 58-C , 98-H ) :   0.9703
B( 59-C , 60-C ) :   1.1476 B( 59-C , 99-H ) :   0.9800 B( 60-C , 61-C ) :   1.5530
B( 60-C ,100-H ) :   0.9612 B( 61-C , 62-C ) :   1.0580 B( 61-C , 70-C ) :   0.9401
B( 62-C , 63-C ) :   1.6308 B( 62-C , 68-C ) :   0.9870 B( 63-C , 64-C ) :   1.1455
B( 63-C , 66-C ) :   1.1460 B( 64-C , 65-N ) :   2.9613 B( 66-C , 67-N ) :   2.9580
B( 68-C , 69-C ) :   1.2157 B( 68-C , 75-C ) :   1.4469 B( 69-C , 70-C ) :   0.9479
B( 69-C , 72-C ) :   1.4672 B( 70-C , 71-O ) :   2.1941 B( 72-C , 73-C ) :   1.1791
B( 72-C ,101-H ) :   1.0167 B( 73-C , 74-C ) :   1.2568 B( 73-C , 79-C ) :   1.2417
B( 74-C , 75-C ) :   1.2062 B( 74-C , 76-C ) :   1.2392 B( 75-C ,102-H ) :   0.9895
B( 76-C , 77-C ) :   1.4889 B( 76-C ,103-H ) :   0.9976 B( 77-C , 78-C ) :   1.2590
B( 77-C ,104-H ) :   0.9887 B( 78-C , 79-C ) :   1.4896 B( 78-C ,105-H ) :   0.9883
B( 79-C ,106-H ) :   0.9981

-----------------------------------------------------------------------------
         ABSORPTION SPECTRUM VIA TRANSITION ELECTRIC DIPOLE MOMENTS
-----------------------------------------------------------------------------
State   Energy  Wavelength   fosc         T2         TX        TY        TZ
        (cm-1)    (nm)                  (au**2)     (au)      (au)      (au)
-----------------------------------------------------------------------------
   0   12820.6    780.0   0.242039751   6.21520  -1.13814   2.21799  -0.01901
   1   13448.8    743.6   0.027797226   0.68045   0.63381   0.52744   0.02314
   2   14979.9    667.6   0.007092196   0.15586   0.31294  -0.14305   0.19357
   3   17933.9    557.6   0.009910801   0.18193   0.22192   0.36263   0.03434
   4   22365.1    447.1   0.063003183   0.92740  -0.89956  -0.34379  -0.00296
   5   22399.5    446.4   0.043896820   0.64516   0.71952  -0.26056  -0.24406
   6   22699.4    440.5   0.062041677   0.89980   0.09693   0.88654  -0.32318
   7   23039.0    434.0   0.002340048   0.03344  -0.17070   0.00471   0.06541
   8   23999.7    416.7   0.931239023  12.77412  -1.91095   3.01906   0.08739
   9   25065.4    399.0   0.059853250   0.78612  -0.59098  -0.66073  -0.01698
  10   25185.4    397.1   0.014307987   0.18703  -0.04414   0.42606   0.05963
  11   25529.8    391.7   0.004842807   0.06245  -0.12761  -0.14684  -0.15685
  12   25692.6    389.2   0.178535976   2.28767  -0.42565   1.43805   0.19625
  13   25825.6    387.2   0.025222316   0.32152  -0.09162   0.51097  -0.22812
  14   26083.3    383.4   0.003868578   0.04883  -0.04729   0.03426  -0.21311
  15   26520.1    377.1   0.110506468   1.37179   0.40385   1.02181   0.40571
  16   26882.1    372.0   0.010700286   0.13104  -0.20774  -0.13006  -0.26640
  17   27850.1    359.1   0.185877140   2.19723   0.41392  -1.37932   0.35124
  18   27976.8    357.4   0.011665304   0.13727   0.03559  -0.32804   0.16849
  19   28102.0    355.8   0.160901751   1.88495   1.35479  -0.11414   0.19096
  20   28706.2    348.4   0.039115330   0.44859   0.12050   0.65051  -0.10441
  21   28750.7    347.8   0.325670402   3.72912  -0.89188  -1.61061   0.58274
  22   28999.0    344.8   0.101011285   1.14673  -0.63608  -0.85002   0.13999
  23   29341.9    340.8   0.050679961   0.56862   0.67867   0.29999  -0.13431
  24   29408.6    340.0   0.181267831   2.02919   1.40697   0.22141   0.02474
  25   29862.9    334.9   0.119788740   1.32057  -0.48275  -1.03507   0.12710
  26   29928.4    334.1   0.032395145   0.35635   0.27395   0.49407   0.19285
  27   30025.7    333.0   0.134304916   1.47256   0.86649   0.82582  -0.19944
  28   30133.4    331.9   0.054281247   0.59303  -0.25625   0.68065  -0.25314
  29   30380.7    329.2   0.086092982   0.93292   0.94341   0.01524   0.20656
  30   30998.0    322.6   0.003989787   0.04237  -0.18005  -0.09760   0.02076
  31   31600.2    316.5   0.047381468   0.49362   0.57164  -0.38770   0.12861
  32   31716.6    315.3   0.098812599   1.02565   0.23004  -0.98605   0.02122
  33   31813.5    314.3   0.034742325   0.35952   0.17548  -0.44972   0.35563
  34   31959.8    312.9   0.227504305   2.34348   1.33093  -0.63000   0.41858
  35   32617.3    306.6   0.115099700   1.16172   0.31003   0.90485  -0.49684
  36   32768.0    305.2   0.082026593   0.82410  -0.21254   0.85943   0.20075
  37   33171.0    301.5   0.044810962   0.44473   0.40062  -0.49997  -0.18511
  38   33327.0    300.1   0.068174770   0.67345   0.28509  -0.69921  -0.32136
  39   33382.1    299.6   0.009606667   0.09474   0.27238  -0.05551  -0.13217
  40   33417.4    299.2   0.076097361   0.74967   0.72672   0.19702  -0.42747
  41   33647.2    297.2   0.090743466   0.88786  -0.85480   0.36841   0.14647
  42   33824.1    295.6   0.173517408   1.68886  -0.86930   0.32573   0.90944
  43   33897.4    295.0   0.026109276   0.25357  -0.25727   0.14509   0.40784
  44   33954.8    294.5   0.289046500   2.80248   1.29455  -0.71120   0.78793
  45   34211.4    292.3   0.410470429   3.94990   1.78472  -0.15396   0.86080
  46   34398.8    290.7   0.194085831   1.85749  -0.29712   1.30373  -0.26362
  47   34523.4    289.7   0.012719748   0.12129   0.24196   0.13280  -0.21240
  48   34845.3    287.0   0.040628079   0.38385   0.23474   0.51307  -0.25594
  49   34970.1    286.0   1.052567734   9.90898   0.61858  -2.82473   1.24388
  50   35332.6    283.0   0.024082795   0.22439   0.39984  -0.18035   0.17886
  51   35595.0    280.9   0.041688131   0.38557   0.49024  -0.34298   0.16613
  52   35635.1    280.6   0.257773169   2.38142   1.25264  -0.51382  -0.74047
  53   35854.5    278.9   0.199715039   1.83376   1.17849  -0.56887  -0.34831
  54   36117.9    276.9   0.032719464   0.29824  -0.35779   0.21637   0.35129
  55   36875.3    271.2   0.209578214   1.87105   1.14934   0.68863  -0.27544
  56   36954.0    270.6   0.044344972   0.39506   0.55548   0.26842  -0.12020
  57   37199.6    268.8   0.013398022   0.11857  -0.20198  -0.17022   0.22091
  58   37418.1    267.3   0.046182543   0.40632   0.29024  -0.48381  -0.29667
  59   37517.1    266.5   0.016533885   0.14508   0.35984  -0.10701  -0.06438
  60   37800.2    264.5   0.030364680   0.26445   0.16259  -0.16848  -0.45785
  61   38034.2    262.9   0.094846306   0.82096   0.84479  -0.32446  -0.04492
  62   38039.0    262.9   0.000727220   0.00629  -0.07702   0.00150   0.01897
  63   38161.5    262.0   0.005305459   0.04577   0.01358   0.15377   0.14812
  64   38430.1    260.2   0.030267398   0.25929  -0.32700   0.35239   0.16787
  65   39212.8    255.0   0.023507956   0.19736  -0.30124  -0.26316  -0.19330
  66   39350.5    254.1   0.043683366   0.36546   0.37592   0.40627   0.24308
  67   39482.8    253.3   0.253841161   2.11656  -1.13352  -0.83109  -0.37548
  68   39526.1    253.0   0.120487282   1.00354   0.57319   0.81289   0.11915
  69   39696.2    251.9   0.009412867   0.07806   0.21380  -0.07771  -0.16222
  70   39963.2    250.2   0.009818467   0.08088   0.22924   0.13165  -0.10487
  71   40172.8    248.9   0.007522580   0.06165  -0.19876   0.09344  -0.11580
  72   40270.3    248.3   0.060245941   0.49251   0.63530   0.09599   0.28231

FINAL SINGLE POINT ENERGY     -3718.396700557505

DIPOLE MOMENT
-------------
                                X             Y             Z
Electronic contribution:     19.34036       4.53020       0.10493
Nuclear contribution   :    -20.36472      -7.40435       0.61501
                        -----------------------------------------
Total Dipole Moment    :     -1.02436      -2.87415       0.71994
                        -----------------------------------------
Magnitude (a.u.)       :      3.13502
Magnitude (Debye)      :      7.96859

Rotational constants in cm-1:     0.001798     0.000200     0.000187
Rotational constants in MHz :    53.914632     6.000277     5.597076

                             ****ORCA TERMINATED NORMALLY****
TOTAL RUN TIME: 0 days 0 hours 22 minutes 21 seconds 725 msec
