                         Program Version 4.2.0 -  RELEASE  -
|  1> # ORCA input file
|  2> # SCF done       -182.706623098045          0.000775032783
|  3> ! CAM-B3LYP def2-SVP def2/J RIJCOSX Grid4 TightSCF
|  4> %maxcore 5000
|  5> %tddft
|  6>     Mode sTDDFT
|  7>     Ethresh 5.0
|  8>     maxcore 5000
|  9> end
| 10>
| 11> %pal
| 12>   nprocs 6
| 13>   end
| 14> * xyz 0 1
| 15>    C       -8.45338       -10.31597        -7.23008
| 16>    C       -8.09900       -10.67075        -5.94474
| 17>    C       -7.81553       -11.98902        -5.54078
| 18>    N       -7.57651       -13.03960        -5.14035
| 19>    C       -7.92230        -9.78840        -4.86351
| 20>    N       -7.72378        -9.14814        -3.92753
| 21>    C       -8.51423       -11.22941        -8.36993
| 22>    C       -8.78978       -10.47615        -9.53759
| 23>    C       -8.89513       -11.04959       -10.77948
| 24>    C       -8.72577       -12.43629       -10.87574
| 25>    C       -8.45783       -13.17982        -9.70420
| 26>    C       -8.34688       -12.59801        -8.44609
| 27>    S       -8.29082       -14.87593       -10.04736
| 28>    C       -8.57319       -14.56425       -11.73922
| 29>    C       -8.78680       -13.26018       -12.03332
| 30>   Br       -8.56857       -15.99207       -12.95707
| 31>    C       -8.93837        -9.04874        -9.17071
| 32>    O       -9.16529        -8.12719        -9.93126
| 33>    C       -8.76100        -8.99933        -7.71117
| 34>    C       -8.91694        -7.86914        -6.93031
| 35>    C       -9.14525        -6.57715        -7.37827
| 36>    C       -9.25179        -5.51949        -6.48775
| 37>    C       -9.34333        -4.14158        -6.76724
| 38>    C       -9.33497        -3.34021        -5.65577
| 39>    C       -9.26207        -4.05421        -4.44792
| 40>    S       -9.21841        -5.77610        -4.75893
| 41>    C       -9.15903        -3.60811        -3.13859
| 42>    C       -8.92582        -2.30309        -2.64570
| 43>    C       -8.68425        -2.25875        -1.30638
| 44>    C       -8.73131        -3.52583        -0.66533
| 45>    S       -9.17653        -4.76130        -1.83723
| 46>    C       -8.50582        -3.81372         0.64685
| 47>    C       -8.66856        -5.11495         1.21642
| 48>    S       -9.71571        -5.20198         2.62488
| 49>    C       -9.72740        -6.91168         2.54570
| 50>    C       -8.94722        -7.40323         1.54433
| 51>    C       -8.30290        -6.37683         0.79731
| 52>    C       -7.14668        -6.78499        -0.08843
| 53>    C       -7.47629        -8.11514        -0.76632
| 54>    C       -7.67690        -9.18484         0.30098
| 55>    C       -8.88300        -8.85426         1.17713
| 56>    N       -6.69348        -5.82175        -1.05851
| 57>    C       -5.93364        -4.73896        -0.77004
| 58>    C       -5.62416        -4.30816         0.47417
| 59>    C       -4.87056        -3.14202         0.80397
| 60>    S       -4.19054        -3.08504         2.41693
| 61>    C       -3.48921        -1.53060         2.10885
| 62>    C       -3.77681        -1.08304         0.83882
| 63>    C       -4.56683        -1.99342         0.10385
| 64>    C       -5.03516        -1.66220        -1.28032
| 65>    C       -4.99991        -0.15205        -1.50470
| 66>    C       -3.59931         0.38751        -1.18486
| 67>    C       -3.52558         1.85530        -1.58895
| 68>    O       -3.59473         2.76706        -0.81827
| 69>    O       -3.40533         2.07353        -2.90883
| 70>    C       -3.31993         0.24329         0.31126
| 71>    N       -2.75479        -0.82567         3.03262
| 72>    C       -2.31333        -1.20097         4.25486
| 73>    S       -2.62847        -2.77174         4.91187
| 74>    C       -1.71595        -2.34459         6.33085
| 75>    N       -1.60116        -3.30453         7.32706
| 76>    O       -0.96474        -3.02112         8.32980
| 77>    O       -2.15356        -4.37796         7.12321
| 78>    C       -1.21061        -1.07041         6.28550
| 79>    C       -1.54173        -0.39107         5.10556
| 80>    C       -1.15379         0.97035         4.79217
| 81>    C       -0.29335         1.70335         5.49148
| 82>    H       -9.10249       -10.44990       -11.65194
| 83>    H       -8.14324       -13.20897        -7.58263
| 84>    H       -8.97968       -12.89228       -13.02464
| 85>    H       -8.84836        -7.99805        -5.85628
| 86>    H       -9.20713        -6.37845        -8.43766
| 87>    H       -9.38813        -3.77728        -7.77816
| 88>    H       -9.38343        -2.26600        -5.68362
| 89>    H       -8.92150        -1.44504        -3.29425
| 90>    H       -8.47048        -1.36190        -0.75208
| 91>    H       -8.37843        -2.98731         1.33395
| 92>    H      -10.32884        -7.46502         3.23956
| 93>    H       -6.30915        -6.96316         0.61069
| 94>    H       -6.65839        -8.40359        -1.42727
| 95>    H       -8.37639        -8.00921        -1.37344
| 96>    H       -6.77809        -9.24943         0.91854
| 97>    H       -7.82696       -10.15555        -0.17173
| 98>    H       -8.88328        -9.46987         2.07824
| 99>    H       -9.79813        -9.08901         0.62352
|100>    H       -6.75449        -6.11815        -2.01906
|101>    H       -5.59413        -4.19965        -1.64056
|102>    H       -5.90714        -4.90848         1.32596
|103>    H       -6.05125        -2.03373        -1.42534
|104>    H       -4.38922        -2.15214        -2.01726
|105>    H       -5.72198         0.33615        -0.84771
|106>    H       -5.27843         0.07205        -2.53747
|107>    H       -2.85918        -0.18268        -1.75949
|108>    H       -3.34643         1.25694        -3.42220
|109>    H       -3.84347         1.05461         0.82976
|110>    H       -2.24840         0.37701         0.48972
|111>    H       -2.49188         0.10689         2.73756
|112>    H       -0.63204        -0.65963         7.09158
|113>    H       -1.61826         1.41350         3.91921
|114>    H        0.20914         1.32745         6.36458
|115>    H       -0.06054         2.71328         5.20404
|116> *
|117>
|118>                          ****END OF INPUT****

CARTESIAN COORDINATES (ANGSTROEM)
---------------------------------
  C     -8.453380  -10.315970   -7.230080
  C     -8.099000  -10.670750   -5.944740
  C     -7.815530  -11.989020   -5.540780
  N     -7.576510  -13.039600   -5.140350
  C     -7.922300   -9.788400   -4.863510
  N     -7.723780   -9.148140   -3.927530
  C     -8.514230  -11.229410   -8.369930
  C     -8.789780  -10.476150   -9.537590
  C     -8.895130  -11.049590  -10.779480
  C     -8.725770  -12.436290  -10.875740
  C     -8.457830  -13.179820   -9.704200
  C     -8.346880  -12.598010   -8.446090
  S     -8.290820  -14.875930  -10.047360
  C     -8.573190  -14.564250  -11.739220
  C     -8.786800  -13.260180  -12.033320
  Br    -8.568570  -15.992070  -12.957070
  C     -8.938370   -9.048740   -9.170710
  O     -9.165290   -8.127190   -9.931260
  C     -8.761000   -8.999330   -7.711170
  C     -8.916940   -7.869140   -6.930310
  C     -9.145250   -6.577150   -7.378270
  C     -9.251790   -5.519490   -6.487750
  C     -9.343330   -4.141580   -6.767240
  C     -9.334970   -3.340210   -5.655770
  C     -9.262070   -4.054210   -4.447920
  S     -9.218410   -5.776100   -4.758930
  C     -9.159030   -3.608110   -3.138590
  C     -8.925820   -2.303090   -2.645700
  C     -8.684250   -2.258750   -1.306380
  C     -8.731310   -3.525830   -0.665330
  S     -9.176530   -4.761300   -1.837230
  C     -8.505820   -3.813720    0.646850
  C     -8.668560   -5.114950    1.216420
  S     -9.715710   -5.201980    2.624880
  C     -9.727400   -6.911680    2.545700
  C     -8.947220   -7.403230    1.544330
  C     -8.302900   -6.376830    0.797310
  C     -7.146680   -6.784990   -0.088430
  C     -7.476290   -8.115140   -0.766320
  C     -7.676900   -9.184840    0.300980
  C     -8.883000   -8.854260    1.177130
  N     -6.693480   -5.821750   -1.058510
  C     -5.933640   -4.738960   -0.770040
  C     -5.624160   -4.308160    0.474170
  C     -4.870560   -3.142020    0.803970
  S     -4.190540   -3.085040    2.416930
  C     -3.489210   -1.530600    2.108850
  C     -3.776810   -1.083040    0.838820
  C     -4.566830   -1.993420    0.103850
  C     -5.035160   -1.662200   -1.280320
  C     -4.999910   -0.152050   -1.504700
  C     -3.599310    0.387510   -1.184860
  C     -3.525580    1.855300   -1.588950
  O     -3.594730    2.767060   -0.818270
  O     -3.405330    2.073530   -2.908830
  C     -3.319930    0.243290    0.311260
  N     -2.754790   -0.825670    3.032620
  C     -2.313330   -1.200970    4.254860
  S     -2.628470   -2.771740    4.911870
  C     -1.715950   -2.344590    6.330850
  N     -1.601160   -3.304530    7.327060
  O     -0.964740   -3.021120    8.329800
  O     -2.153560   -4.377960    7.123210
  C     -1.210610   -1.070410    6.285500
  C     -1.541730   -0.391070    5.105560
  C     -1.153790    0.970350    4.792170
  C     -0.293350    1.703350    5.491480
  H     -9.102490  -10.449900  -11.651940
  H     -8.143240  -13.208970   -7.582630
  H     -8.979680  -12.892280  -13.024640
  H     -8.848360   -7.998050   -5.856280
  H     -9.207130   -6.378450   -8.437660
  H     -9.388130   -3.777280   -7.778160
  H     -9.383430   -2.266000   -5.683620
  H     -8.921500   -1.445040   -3.294250
  H     -8.470480   -1.361900   -0.752080
  H     -8.378430   -2.987310    1.333950
  H    -10.328840   -7.465020    3.239560
  H     -6.309150   -6.963160    0.610690
  H     -6.658390   -8.403590   -1.427270
  H     -8.376390   -8.009210   -1.373440
  H     -6.778090   -9.249430    0.918540
  H     -7.826960  -10.155550   -0.171730
  H     -8.883280   -9.469870    2.078240
  H     -9.798130   -9.089010    0.623520
  H     -6.754490   -6.118150   -2.019060
  H     -5.594130   -4.199650   -1.640560
  H     -5.907140   -4.908480    1.325960
  H     -6.051250   -2.033730   -1.425340
  H     -4.389220   -2.152140   -2.017260
  H     -5.721980    0.336150   -0.847710
  H     -5.278430    0.072050   -2.537470
  H     -2.859180   -0.182680   -1.759490
  H     -3.346430    1.256940   -3.422200
  H     -3.843470    1.054610    0.829760
  H     -2.248400    0.377010    0.489720
  H     -2.491880    0.106890    2.737560
  H     -0.632040   -0.659630    7.091580
  H     -1.618260    1.413500    3.919210
  H      0.209140    1.327450    6.364580
  H     -0.060540    2.713280    5.204040

 Total Charge           Charge          ....    0
 Multiplicity           Mult            ....    1
 Number of Electrons    NEL             ....  540
 Basis Dimension        Dim             .... 1150

ORBITAL ENERGIES
----------------

  NO   OCC          E(Eh)            E(eV)
   0   2.0000    -482.878022    -13139.7790
   1   2.0000     -88.973164     -2421.0829
   2   2.0000     -88.968792     -2420.9639
   3   2.0000     -88.965633     -2420.8780
   4   2.0000     -88.962862     -2420.8026
   5   2.0000     -88.962016     -2420.7795
   6   2.0000     -88.957693     -2420.6619
   7   2.0000     -62.555707     -1702.2273
   8   2.0000     -56.389644     -1534.4402
   9   2.0000     -56.386955     -1534.3670
  10   2.0000     -56.386916     -1534.3660
  11   2.0000     -19.271501      -524.4042
  12   2.0000     -19.218868      -522.9720
  13   2.0000     -19.218502      -522.9620
  14   2.0000     -19.209455      -522.7158
  15   2.0000     -19.199213      -522.4372
  16   2.0000     -14.631022      -398.1304
  17   2.0000     -14.480637      -394.0382
  18   2.0000     -14.435738      -392.8164
  19   2.0000     -14.408406      -392.0726
  20   2.0000     -14.399258      -391.8237
  21   2.0000     -10.407849      -283.2120
  22   2.0000     -10.362308      -281.9727
  23   2.0000     -10.349487      -281.6238
  24   2.0000     -10.349211      -281.6163
  25   2.0000     -10.342692      -281.4389
  26   2.0000     -10.337338      -281.2933
  27   2.0000     -10.329069      -281.0683
  28   2.0000     -10.326565      -281.0001
  29   2.0000     -10.325196      -280.9629
  30   2.0000     -10.323742      -280.9233
  31   2.0000     -10.322064      -280.8776
  32   2.0000     -10.321822      -280.8711
  33   2.0000     -10.321625      -280.8657
  34   2.0000     -10.321538      -280.8633
  35   2.0000     -10.316012      -280.7130
  36   2.0000     -10.315302      -280.6936
  37   2.0000     -10.314663      -280.6762
  38   2.0000     -10.314294      -280.6662
  39   2.0000     -10.313585      -280.6469
  40   2.0000     -10.311153      -280.5807
  41   2.0000     -10.309910      -280.5469
  42   2.0000     -10.305524      -280.4276
  43   2.0000     -10.304349      -280.3956
  44   2.0000     -10.299218      -280.2560
  45   2.0000     -10.297928      -280.2209
  46   2.0000     -10.296616      -280.1852
  47   2.0000     -10.296137      -280.1721
  48   2.0000     -10.295586      -280.1571
  49   2.0000     -10.295371      -280.1513
  50   2.0000     -10.294296      -280.1220
  51   2.0000     -10.293537      -280.1014
  52   2.0000     -10.292738      -280.0796
  53   2.0000     -10.292472      -280.0724
  54   2.0000     -10.289397      -279.9887
  55   2.0000     -10.288253      -279.9576
  56   2.0000     -10.287500      -279.9371
  57   2.0000     -10.287426      -279.9351
  58   2.0000     -10.287117      -279.9267
  59   2.0000     -10.284898      -279.8663
  60   2.0000     -10.283714      -279.8341
  61   2.0000     -10.278277      -279.6861
  62   2.0000     -10.275693      -279.6158
  63   2.0000     -10.274805      -279.5917
  64   2.0000     -10.274559      -279.5850
  65   2.0000     -10.273797      -279.5642
  66   2.0000     -10.273520      -279.5567
  67   2.0000     -10.268292      -279.4144
  68   2.0000     -10.267728      -279.3991
  69   2.0000     -10.267017      -279.3797
  70   2.0000     -10.263351      -279.2800
  71   2.0000      -8.785119      -239.0552
  72   2.0000      -8.068386      -219.5519
  73   2.0000      -8.064147      -219.4366
  74   2.0000      -8.061624      -219.3679
  75   2.0000      -8.058950      -219.2952
  76   2.0000      -8.058044      -219.2705
  77   2.0000      -8.053324      -219.1421
  78   2.0000      -6.621335      -180.1757
  79   2.0000      -6.606879      -179.7823
  80   2.0000      -6.606715      -179.7779
  81   2.0000      -6.038142      -164.3062
  82   2.0000      -6.033847      -164.1893
  83   2.0000      -6.033664      -164.1843
  84   2.0000      -6.031305      -164.1201
  85   2.0000      -6.029705      -164.0766
  86   2.0000      -6.029685      -164.0761
  87   2.0000      -6.028294      -164.0382
  88   2.0000      -6.027594      -164.0192
  89   2.0000      -6.027061      -164.0047
  90   2.0000      -6.025295      -163.9566
  91   2.0000      -6.024008      -163.9216
  92   2.0000      -6.023584      -163.9100
  93   2.0000      -6.022851      -163.8901
  94   2.0000      -6.022843      -163.8899
  95   2.0000      -6.021035      -163.8407
  96   2.0000      -6.019304      -163.7936
  97   2.0000      -6.018676      -163.7765
  98   2.0000      -6.014899      -163.6737
  99   2.0000      -2.737261       -74.4846
 100   2.0000      -2.733133       -74.3723
 101   2.0000      -2.733031       -74.3696
 102   2.0000      -2.721527       -74.0565
 103   2.0000      -2.721512       -74.0561
 104   2.0000      -1.298136       -35.3241
 105   2.0000      -1.193565       -32.4786
 106   2.0000      -1.116671       -30.3862
 107   2.0000      -1.112111       -30.2621
 108   2.0000      -1.108770       -30.1712
 109   2.0000      -1.087369       -29.5888
 110   2.0000      -1.044581       -28.4245
 111   2.0000      -1.017583       -27.6898
 112   2.0000      -1.010552       -27.4985
 113   2.0000      -1.002661       -27.2838
 114   2.0000      -0.997718       -27.1493
 115   2.0000      -0.996528       -27.1169
 116   2.0000      -0.989645       -26.9296
 117   2.0000      -0.982932       -26.7469
 118   2.0000      -0.977934       -26.6109
 119   2.0000      -0.975435       -26.5429
 120   2.0000      -0.937252       -25.5039
 121   2.0000      -0.931943       -25.3595
 122   2.0000      -0.924796       -25.1650
 123   2.0000      -0.912281       -24.8244
 124   2.0000      -0.903939       -24.5974
 125   2.0000      -0.898400       -24.4467
 126   2.0000      -0.895639       -24.3716
 127   2.0000      -0.884070       -24.0568
 128   2.0000      -0.876301       -23.8454
 129   2.0000      -0.873853       -23.7787
 130   2.0000      -0.867358       -23.6020
 131   2.0000      -0.866468       -23.5778
 132   2.0000      -0.858770       -23.3683
 133   2.0000      -0.849420       -23.1139
 134   2.0000      -0.842213       -22.9178
 135   2.0000      -0.839641       -22.8478
 136   2.0000      -0.835617       -22.7383
 137   2.0000      -0.828853       -22.5542
 138   2.0000      -0.824815       -22.4443
 139   2.0000      -0.817788       -22.2531
 140   2.0000      -0.810302       -22.0494
 141   2.0000      -0.798118       -21.7179
 142   2.0000      -0.782672       -21.2976
 143   2.0000      -0.760494       -20.6941
 144   2.0000      -0.753866       -20.5137
 145   2.0000      -0.746325       -20.3085
 146   2.0000      -0.744772       -20.2663
 147   2.0000      -0.735193       -20.0056
 148   2.0000      -0.727725       -19.8024
 149   2.0000      -0.720073       -19.5942
 150   2.0000      -0.714362       -19.4388
 151   2.0000      -0.706513       -19.2252
 152   2.0000      -0.703883       -19.1536
 153   2.0000      -0.689645       -18.7662
 154   2.0000      -0.684687       -18.6313
 155   2.0000      -0.680256       -18.5107
 156   2.0000      -0.678138       -18.4531
 157   2.0000      -0.670376       -18.2419
 158   2.0000      -0.661102       -17.9895
 159   2.0000      -0.659450       -17.9445
 160   2.0000      -0.651896       -17.7390
 161   2.0000      -0.648003       -17.6331
 162   2.0000      -0.641379       -17.4528
 163   2.0000      -0.640905       -17.4399
 164   2.0000      -0.634048       -17.2533
 165   2.0000      -0.631215       -17.1762
 166   2.0000      -0.623156       -16.9569
 167   2.0000      -0.621765       -16.9191
 168   2.0000      -0.621083       -16.9005
 169   2.0000      -0.613771       -16.7016
 170   2.0000      -0.612234       -16.6597
 171   2.0000      -0.610737       -16.6190
 172   2.0000      -0.607305       -16.5256
 173   2.0000      -0.601663       -16.3721
 174   2.0000      -0.594109       -16.1665
 175   2.0000      -0.587703       -15.9922
 176   2.0000      -0.582533       -15.8515
 177   2.0000      -0.578578       -15.7439
 178   2.0000      -0.576573       -15.6894
 179   2.0000      -0.563462       -15.3326
 180   2.0000      -0.560459       -15.2509
 181   2.0000      -0.557537       -15.1713
 182   2.0000      -0.553484       -15.0611
 183   2.0000      -0.550711       -14.9856
 184   2.0000      -0.546674       -14.8758
 185   2.0000      -0.543273       -14.7832
 186   2.0000      -0.541293       -14.7293
 187   2.0000      -0.535953       -14.5840
 188   2.0000      -0.534250       -14.5377
 189   2.0000      -0.533143       -14.5076
 190   2.0000      -0.530880       -14.4460
 191   2.0000      -0.526345       -14.3226
 192   2.0000      -0.524912       -14.2836
 193   2.0000      -0.524346       -14.2682
 194   2.0000      -0.521425       -14.1887
 195   2.0000      -0.519183       -14.1277
 196   2.0000      -0.518035       -14.0964
 197   2.0000      -0.515589       -14.0299
 198   2.0000      -0.513627       -13.9765
 199   2.0000      -0.510752       -13.8983
 200   2.0000      -0.507292       -13.8041
 201   2.0000      -0.506557       -13.7841
 202   2.0000      -0.500525       -13.6200
 203   2.0000      -0.497603       -13.5405
 204   2.0000      -0.496238       -13.5033
 205   2.0000      -0.494644       -13.4599
 206   2.0000      -0.492068       -13.3899
 207   2.0000      -0.487828       -13.2745
 208   2.0000      -0.486363       -13.2346
 209   2.0000      -0.484303       -13.1785
 210   2.0000      -0.483816       -13.1653
 211   2.0000      -0.481030       -13.0895
 212   2.0000      -0.479519       -13.0484
 213   2.0000      -0.477521       -12.9940
 214   2.0000      -0.476570       -12.9681
 215   2.0000      -0.475331       -12.9344
 216   2.0000      -0.474344       -12.9076
 217   2.0000      -0.465474       -12.6662
 218   2.0000      -0.460331       -12.5262
 219   2.0000      -0.456895       -12.4327
 220   2.0000      -0.455422       -12.3927
 221   2.0000      -0.453702       -12.3458
 222   2.0000      -0.450170       -12.2497
 223   2.0000      -0.448361       -12.2005
 224   2.0000      -0.447360       -12.1733
 225   2.0000      -0.442146       -12.0314
 226   2.0000      -0.440647       -11.9906
 227   2.0000      -0.436213       -11.8700
 228   2.0000      -0.435567       -11.8524
 229   2.0000      -0.432958       -11.7814
 230   2.0000      -0.431543       -11.7429
 231   2.0000      -0.428514       -11.6604
 232   2.0000      -0.426362       -11.6019
 233   2.0000      -0.423246       -11.5171
 234   2.0000      -0.419961       -11.4277
 235   2.0000      -0.419177       -11.4064
 236   2.0000      -0.417312       -11.3556
 237   2.0000      -0.414671       -11.2838
 238   2.0000      -0.414505       -11.2793
 239   2.0000      -0.412463       -11.2237
 240   2.0000      -0.409901       -11.1540
 241   2.0000      -0.406151       -11.0519
 242   2.0000      -0.402912       -10.9638
 243   2.0000      -0.402454       -10.9513
 244   2.0000      -0.399986       -10.8842
 245   2.0000      -0.396546       -10.7906
 246   2.0000      -0.393289       -10.7019
 247   2.0000      -0.388643       -10.5755
 248   2.0000      -0.378415       -10.2972
 249   2.0000      -0.371162       -10.0998
 250   2.0000      -0.367672       -10.0049
 251   2.0000      -0.367502       -10.0002
 252   2.0000      -0.359845        -9.7919
 253   2.0000      -0.359125        -9.7723
 254   2.0000      -0.354431        -9.6446
 255   2.0000      -0.350150        -9.5281
 256   2.0000      -0.347972        -9.4688
 257   2.0000      -0.342796        -9.3280
 258   2.0000      -0.331056        -9.0085
 259   2.0000      -0.324863        -8.8400
 260   2.0000      -0.320430        -8.7193
 261   2.0000      -0.319520        -8.6946
 262   2.0000      -0.313187        -8.5222
 263   2.0000      -0.308735        -8.4011
 264   2.0000      -0.304276        -8.2798
 265   2.0000      -0.291547        -7.9334
 266   2.0000      -0.282762        -7.6944
 267   2.0000      -0.274916        -7.4808
 268   2.0000      -0.235236        -6.4011
 269   2.0000      -0.218768        -5.9530
 270   0.0000      -0.109611        -2.9827
 271   0.0000      -0.060031        -1.6335
 272   0.0000      -0.041448        -1.1279
 273   0.0000      -0.039936        -1.0867
 274   0.0000      -0.009680        -0.2634

MULLIKEN ATOMIC CHARGES
-----------------------
   0 C :    0.329096
   1 C :   -0.370024
   2 C :   -0.193907
   3 N :    0.132184
   4 C :   -0.196509
   5 N :    0.122519
   6 C :    0.010725
   7 C :   -0.010839
   8 C :   -0.077718
   9 C :    0.115507
  10 C :   -0.092433
  11 C :   -0.023541
  12 S :    0.178030
  13 C :   -0.124200
  14 C :    0.037352
  15 Br:    0.014367
  16 C :    0.135233
  17 O :   -0.166327
  18 C :   -0.088132
  19 C :   -0.054924
  20 C :   -0.017560
  21 C :    0.006966
  22 C :    0.017321
  23 C :    0.044301
  24 C :   -0.052806
  25 S :    0.074541
  26 C :   -0.040900
  27 C :    0.009644
  28 C :    0.080667
  29 C :   -0.059705
  30 S :    0.116568
  31 C :    0.085644
  32 C :   -0.253402
  33 S :    0.129239
  34 C :   -0.112333
  35 C :   -0.092573
  36 C :    0.058258
  37 C :    0.064511
  38 C :    0.039311
  39 C :    0.025786
  40 C :    0.134675
  41 N :   -0.113468
  42 C :    0.031299
  43 C :   -0.004184
  44 C :   -0.124835
  45 S :    0.086295
  46 C :   -0.133333
  47 C :   -0.048064
  48 C :   -0.109947
  49 C :    0.152762
  50 C :    0.030850
  51 C :   -0.198205
  52 C :    0.162908
  53 O :   -0.177347
  54 O :   -0.152567
  55 C :    0.159670
  56 N :   -0.014669
  57 C :   -0.096319
  58 S :    0.143168
  59 C :   -0.013505
  60 N :    0.281573
  61 O :   -0.265981
  62 O :   -0.281823
  63 C :    0.011379
  64 C :    0.103357
  65 C :   -0.041650
  66 C :   -0.019717
  67 H :   -0.016025
  68 H :   -0.010645
  69 H :   -0.006279
  70 H :    0.017275
  71 H :    0.013718
  72 H :   -0.002962
  73 H :   -0.005859
  74 H :   -0.007098
  75 H :    0.002975
  76 H :    0.012882
  77 H :    0.020304
  78 H :    0.028859
  79 H :    0.021780
  80 H :    0.018918
  81 H :    0.003482
  82 H :    0.015618
  83 H :    0.007610
  84 H :    0.024783
  85 H :    0.134372
  86 H :   -0.004214
  87 H :   -0.013603
  88 H :    0.008019
  89 H :    0.011947
  90 H :    0.019565
  91 H :   -0.008984
  92 H :    0.011917
  93 H :    0.182639
  94 H :    0.035874
  95 H :    0.015335
  96 H :    0.140907
  97 H :    0.002999
  98 H :   -0.020747
  99 H :    0.017647
 100 H :    0.024734
Sum of atomic charges:   -0.0000000

LOEWDIN ATOMIC CHARGES
----------------------
   0 C :    0.077073
   1 C :   -0.170482
   2 C :   -0.021162
   3 N :   -0.075134
   4 C :   -0.009290
   5 N :   -0.089328
   6 C :   -0.018949
   7 C :   -0.047496
   8 C :    0.016057
   9 C :   -0.036162
  10 C :   -0.146940
  11 C :   -0.013871
  12 S :    0.426623
  13 C :   -0.275091
  14 C :   -0.071240
  15 Br:    0.129371
  16 C :    0.080450
  17 O :   -0.161441
  18 C :   -0.118186
  19 C :    0.044736
  20 C :   -0.080861
  21 C :   -0.100088
  22 C :   -0.054015
  23 C :   -0.008140
  24 C :   -0.209310
  25 S :    0.401283
  26 C :   -0.149154
  27 C :   -0.044799
  28 C :   -0.008117
  29 C :   -0.155887
  30 S :    0.438252
  31 C :   -0.004487
  32 C :   -0.193696
  33 S :    0.438646
  34 C :   -0.178462
  35 C :   -0.059109
  36 C :   -0.061675
  37 C :    0.029357
  38 C :   -0.022763
  39 C :   -0.024775
  40 C :   -0.024315
  41 N :   -0.001331
  42 C :    0.033290
  43 C :   -0.144428
  44 C :   -0.170003
  45 S :    0.409294
  46 C :   -0.153448
  47 C :   -0.101671
  48 C :   -0.081380
  49 C :   -0.027910
  50 C :   -0.016646
  51 C :   -0.067906
  52 C :    0.081661
  53 O :   -0.151346
  54 O :   -0.030344
  55 C :   -0.024287
  56 N :    0.029177
  57 C :   -0.098502
  58 S :    0.448913
  59 C :   -0.224159
  60 N :    0.274837
  61 O :   -0.231964
  62 O :   -0.247658
  63 C :    0.008650
  64 C :   -0.118275
  65 C :   -0.030596
  66 C :   -0.043195
  67 H :    0.038536
  68 H :    0.039706
  69 H :    0.037401
  70 H :    0.026928
  71 H :    0.038434
  72 H :    0.037251
  73 H :    0.034844
  74 H :    0.034205
  75 H :    0.038110
  76 H :    0.042120
  77 H :    0.025415
  78 H :    0.034022
  79 H :    0.029383
  80 H :    0.025989
  81 H :    0.022457
  82 H :    0.032833
  83 H :    0.032985
  84 H :    0.038073
  85 H :    0.073985
  86 H :    0.025277
  87 H :    0.022174
  88 H :    0.029174
  89 H :    0.026584
  90 H :    0.029742
  91 H :    0.017018
  92 H :    0.027928
  93 H :    0.094471
  94 H :    0.035438
  95 H :    0.029720
  96 H :    0.095245
  97 H :    0.043181
  98 H :    0.022829
  99 H :    0.022808
 100 H :    0.027537

  Mayer bond orders larger than 0.100000
B(  0-C ,  1-C ) :   1.5495 B(  0-C ,  6-C ) :   0.9888 B(  0-C , 18-C ) :   1.1419
B(  1-C ,  2-C ) :   1.1514 B(  1-C ,  4-C ) :   1.1605 B(  2-C ,  3-N ) :   2.9640
B(  4-C ,  5-N ) :   2.9641 B(  6-C ,  7-C ) :   1.2774 B(  6-C , 11-C ) :   1.4240
B(  7-C ,  8-C ) :   1.4369 B(  7-C , 16-C ) :   0.9291 B(  8-C ,  9-C ) :   1.2368
B(  8-C , 67-H ) :   1.0156 B(  9-C , 10-C ) :   1.3205 B(  9-C , 14-C ) :   1.1608
B( 10-C , 11-C ) :   1.3174 B( 10-C , 12-S ) :   1.0813 B( 11-C , 68-H ) :   0.9795
B( 12-S , 13-C ) :   1.0866 B( 13-C , 14-C ) :   1.6192 B( 13-C , 15-Br) :   1.0140
B( 14-C , 69-H ) :   1.0003 B( 16-C , 17-O ) :   2.1977 B( 16-C , 18-C ) :   0.9725
B( 18-C , 19-C ) :   1.4391 B( 19-C , 20-C ) :   1.3057 B( 19-C , 70-H ) :   0.9384
B( 20-C , 21-C ) :   1.3726 B( 20-C , 71-H ) :   0.9853 B( 21-C , 22-C ) :   1.2108
B( 21-C , 25-S ) :   1.0935 B( 22-C , 23-C ) :   1.5018 B( 22-C , 72-H ) :   1.0020
B( 23-C , 24-C ) :   1.2490 B( 23-C , 73-H ) :   0.9966 B( 24-C , 25-S ) :   1.0415
B( 24-C , 26-C ) :   1.4138 B( 26-C , 27-C ) :   1.1907 B( 26-C , 30-S ) :   1.1225
B( 27-C , 28-C ) :   1.5758 B( 27-C , 74-H ) :   0.9974 B( 28-C , 29-C ) :   1.1521
B( 28-C , 75-H ) :   0.9923 B( 29-C , 30-S ) :   1.0238 B( 29-C , 31-C ) :   1.6707
B( 31-C , 32-C ) :   1.0765 B( 31-C , 76-H ) :   0.9425 B( 32-C , 33-S ) :   1.1215
B( 32-C , 36-C ) :   1.5234 B( 33-S , 34-C ) :   1.1601 B( 34-C , 35-C ) :   1.5833
B( 34-C , 77-H ) :   0.9694 B( 35-C , 36-C ) :   1.2731 B( 35-C , 40-C ) :   1.0377
B( 36-C , 37-C ) :   0.9705 B( 37-C , 38-C ) :   1.0441 B( 37-C , 41-N ) :   1.0103
B( 37-C , 78-H ) :   0.9016 B( 38-C , 39-C ) :   1.0831 B( 38-C , 79-H ) :   0.9274
B( 38-C , 80-H ) :   0.9355 B( 39-C , 40-C ) :   1.0960 B( 39-C , 81-H ) :   0.9388
B( 39-C , 82-H ) :   0.9322 B( 40-C , 83-H ) :   0.9196 B( 40-C , 84-H ) :   0.9232
B( 41-N , 42-C ) :   1.2228 B( 41-N , 85-H ) :   0.9215 B( 42-C , 43-C ) :   1.6562
B( 42-C , 86-H ) :   0.9582 B( 43-C , 44-C ) :   1.1206 B( 43-C , 87-H ) :   0.9230
B( 44-C , 45-S ) :   1.0914 B( 44-C , 46-C ) :   0.1028 B( 44-C , 48-C ) :   1.5568
B( 45-S , 46-C ) :   1.1020 B( 46-C , 47-C ) :   1.5223 B( 46-C , 56-N ) :   1.1221
B( 47-C , 48-C ) :   1.2997 B( 47-C , 55-C ) :   1.0221 B( 48-C , 49-C ) :   1.0539
B( 49-C , 50-C ) :   1.0849 B( 49-C , 88-H ) :   0.9078 B( 49-C , 89-H ) :   0.8955
B( 50-C , 51-C ) :   1.0311 B( 50-C , 90-H ) :   0.9377 B( 50-C , 91-H ) :   0.9349
B( 51-C , 52-C ) :   0.9087 B( 51-C , 55-C ) :   1.0479 B( 51-C , 92-H ) :   0.9096
B( 52-C , 53-O ) :   2.1776 B( 52-C , 54-O ) :   1.2265 B( 54-O , 93-H ) :   0.9541
B( 55-C , 94-H ) :   0.8991 B( 55-C , 95-H ) :   0.9128 B( 56-N , 57-C ) :   1.2414
B( 56-N , 96-H ) :   0.8892 B( 57-C , 58-S ) :   1.1364 B( 57-C , 64-C ) :   1.3414
B( 58-S , 59-C ) :   1.0586 B( 59-C , 60-N ) :   1.0005 B( 59-C , 63-C ) :   1.4680
B( 60-N , 61-O ) :   1.5161 B( 60-N , 62-O ) :   1.4943 B( 61-O , 62-O ) :   0.2460
B( 63-C , 64-C ) :   1.2692 B( 63-C , 97-H ) :   0.9995 B( 64-C , 65-C ) :   1.0556
B( 65-C , 66-C ) :   1.9744 B( 65-C , 98-H ) :   0.9595 B( 66-C , 99-H ) :   0.9544
B( 66-C ,100-H ) :   0.9467

-----------------------------------------------------------------------------
         ABSORPTION SPECTRUM VIA TRANSITION ELECTRIC DIPOLE MOMENTS
-----------------------------------------------------------------------------
State   Energy  Wavelength   fosc         T2         TX        TY        TZ
        (cm-1)    (nm)                  (au**2)     (au)      (au)      (au)
-----------------------------------------------------------------------------
   0    8758.9   1141.7   0.348461330  13.09730  -1.01119  -1.81496  -2.96323
   1   13263.0    754.0   0.698314624  17.33349  -0.68942   2.64556   3.13993
   2   20577.1    486.0   0.091535065   1.46446  -0.24485   1.02733  -0.59084
   3   22898.6    436.7   0.179400687   2.57924  -0.27757  -0.35513  -1.54145
   4   23311.5    429.0   0.244175837   3.44832  -0.54260   1.20506  -1.30451
   5   23662.3    422.6   0.243169281   3.38320   1.06115   0.49737   1.41767
   6   24028.6    416.2   0.294859053   4.03981  -0.49944   0.47011  -1.88928
   7   25332.7    394.7   0.205619422   2.67213   0.19908   0.57243   1.51816
   8   25943.5    385.5   0.446413028   5.66479   0.23062  -2.25357   0.73010
   9   27353.8    365.6   0.000059805   0.00072   0.00296   0.00516   0.02616
  10   28321.1    353.1   0.011919061   0.13855  -0.27938   0.13772   0.20379
  11   28633.0    349.2   0.006242190   0.07177  -0.14066   0.12314   0.19189
  12   28781.7    347.4   0.056411202   0.64524  -0.24329   0.73059  -0.22868
  13   30027.4    333.0   0.005395758   0.05916   0.23581  -0.04581  -0.03813
  14   30409.6    328.8   0.013509212   0.14625  -0.29206   0.00060  -0.24688
  15   31046.8    322.1   0.351186199   3.72388  -0.67199  -1.71961  -0.56149
  16   31513.7    317.3   0.052951037   0.55316   0.45813  -0.56396  -0.15884
  17   31672.0    315.7   0.412823205   4.29106  -0.70770  -0.72190  -1.80806
  18   31860.6    313.9   0.124662969   1.28813   0.76515   0.69389   0.47032
  19   31921.7    313.3   0.092945996   0.95856  -0.46401  -0.74429  -0.43507
  20   32209.2    310.5   0.339587753   3.47094   0.08106   1.11960   1.48690
  21   33184.9    301.3   0.030879773   0.30634   0.11265   0.11069  -0.53047
  22   33274.9    300.5   0.001331372   0.01317  -0.01454  -0.04389  -0.10505
  23   33382.1    299.6   0.104041234   1.02605   0.21458   0.69091   0.70898
  24   33703.5    296.7   0.011558465   0.11290  -0.10932  -0.21374   0.23509
  25   34042.7    293.7   0.065258038   0.63108   0.03801  -0.78229   0.13288
  26   34497.5    289.9   0.054152046   0.51678   0.05836  -0.20570   0.68634
  27   34962.6    286.0   0.016906237   0.15919   0.18466   0.03034   0.35238
  28   35733.1    279.9   0.084397534   0.77756   0.39741   0.07756   0.78333
  29   35906.3    278.5   0.101668777   0.93216   0.02698  -0.59478   0.76005
  30   36643.8    272.9   0.009315253   0.08369   0.16182  -0.04534   0.23547
  31   36982.5    270.4   0.048915861   0.43544  -0.14084  -0.58683   0.26690
  32   37171.3    269.0   0.030448001   0.26967   0.19915   0.27539   0.39264
  33   37884.1    264.0   0.025176586   0.21878   0.29915   0.31548   0.17252
  34   37980.3    263.3   0.060722789   0.52634  -0.27770  -0.66456   0.08708
  35   38223.9    261.6   0.064814678   0.55823  -0.10723   0.72458  -0.14735
  36   38628.1    258.9   0.248003088   2.11363  -0.31779   0.37011  -1.36955
  37   38823.9    257.6   0.016665876   0.14132   0.09010   0.31847  -0.17826
  38   39495.9    253.2   0.081846569   0.68222  -0.09330  -0.77498   0.27004
  39   39811.7    251.2   0.065124655   0.53853   0.35219  -0.53459   0.35877

FINAL SINGLE POINT ENERGY     -7534.633123788926

DIPOLE MOMENT
-------------
                                X             Y             Z
Electronic contribution:    -35.07043    -153.65193    -139.58291
Nuclear contribution   :     33.75588     156.08155     137.53237
                        -----------------------------------------
Total Dipole Moment    :     -1.31455       2.42962      -2.05054
                        -----------------------------------------
Magnitude (a.u.)       :      3.44032
Magnitude (Debye)      :      8.74460

Rotational constants in cm-1:     0.001538     0.000258     0.000246
Rotational constants in MHz :    46.096442     7.727480     7.370274

                             ****ORCA TERMINATED NORMALLY****
TOTAL RUN TIME: 0 days 0 hours 11 minutes 25 seconds 752 msec
