                         Program Version 4.2.0 -  RELEASE  -
|  1> # ORCA input file
|  2> # SCF done       -195.232586058349          0.000624590189
|  3> ! CAM-B3LYP def2-SVP def2/J RIJCOSX Grid4 TightSCF
|  4> %maxcore 5000
|  5> %tddft
|  6>     Mode sTDDFT
|  7>     Ethresh 5.0
|  8>     maxcore 5000
|  9> end
| 10>
| 11> %pal
| 12>   nprocs 6
| 13>   end
| 14> * xyz 0 1
| 15>    C       -8.03644         0.11764        -1.94280
| 16>    O       -8.26632        -0.85001        -2.63348
| 17>    C       -8.67695         1.44663        -2.08528
| 18>    C       -8.20208         2.31688        -1.09066
| 19>    C       -8.67929         3.61932        -1.03703
| 20>    C       -9.61545         4.02683        -1.97508
| 21>    C      -10.06843         3.14849        -2.95052
| 22>    C       -9.60943         1.84052        -3.02215
| 23>   Br      -11.35093         3.75423        -4.21580
| 24>    C       -7.23259         1.60016        -0.26850
| 25>    C       -6.47914         2.15912         0.73182
| 26>    C       -6.58715         3.50358         1.14419
| 27>    N       -6.62935         4.58381         1.53106
| 28>    C       -5.47559         1.49984         1.47285
| 29>    N       -4.63257         1.05254         2.11241
| 30>    C       -7.15544         0.23290        -0.75535
| 31>    C       -6.53131        -0.78320        -0.08918
| 32>    C       -6.27183        -2.13181        -0.48742
| 33>    C       -6.07254        -3.08395         0.53540
| 34>    C       -5.80069        -4.38465         0.20956
| 35>    C       -5.67941        -4.77283        -1.14071
| 36>    C       -5.83143        -3.83536        -2.15591
| 37>    C       -6.12896        -2.53108        -1.82709
| 38>    C       -5.37184        -6.17970        -1.18751
| 39>    C       -5.30634        -6.67134         0.13047
| 40>    C       -5.57358        -5.56539         1.12431
| 41>    C       -4.36035        -5.33636         2.04553
| 42>    C       -3.08055        -5.03281         1.27590
| 43>    C       -6.82104        -5.86252         1.97701
| 44>    C       -8.06830        -6.10628         1.13590
| 45>    C       -5.02278        -7.99076         0.36838
| 46>    C       -4.78055        -8.86430        -0.70909
| 47>    C       -4.85440        -8.35497        -2.01766
| 48>    C       -5.14818        -7.03240        -2.26284
| 49>    C       -4.46384       -10.23188        -0.41906
| 50>    C       -4.06723       -11.18085        -1.30555
| 51>    C       -3.74939       -12.50839        -0.95952
| 52>    S       -3.89283       -13.10445         0.66440
| 53>    C       -3.28386       -14.68890         0.25995
| 54>    C       -3.02728       -14.76443        -1.13142
| 55>    C       -3.27723       -13.52948        -1.80589
| 56>    C       -3.05571       -13.42558        -3.19102
| 57>    C       -2.62636       -14.52314        -3.88122
| 58>    F       -2.40767       -14.43868        -5.20564
| 59>    C       -2.42834       -15.75401        -3.22773
| 60>    F       -2.04369       -16.82426        -3.94758
| 61>    C       -2.62814       -15.88314        -1.88015
| 62>    C       -3.12091       -15.59811         1.30711
| 63>    C       -2.41620       -16.78232         1.29126
| 64>    C       -2.31282       -17.63503         2.38196
| 65>    C       -1.56122       -18.79943         2.37258
| 66>    C       -1.39240       -19.72329         3.41947
| 67>    C       -0.57861       -20.78141         3.11035
| 68>    C       -0.06667       -20.73999         1.80387
| 69>    S       -0.65073       -19.31895         0.96896
| 70>    C        0.79006       -21.63796         1.17912
| 71>    C        1.35168       -22.81774         1.70207
| 72>    C        2.17008       -23.47121         0.82586
| 73>    C        2.30272       -22.84616        -0.43597
| 74>    S        1.32678       -21.38538        -0.46065
| 75>    C        3.08680       -23.30339        -1.46928
| 76>    C        3.29438       -22.74679        -2.74369
| 77>    C        4.17098       -23.28451        -3.70161
| 78>    C        4.14782       -22.46914        -4.85118
| 79>    C        4.82654       -22.54695        -6.05308
| 80>    C        4.57976       -21.55240        -7.00559
| 81>    C        5.09582       -21.34705        -8.28212
| 82>    C        4.50955       -20.17233        -8.83716
| 83>    C        3.62675       -19.64935        -7.90340
| 84>    C        3.63770       -20.47712        -6.74267
| 85>    C        2.95886       -20.39464        -5.55472
| 86>    C        3.20958       -21.39075        -4.58870
| 87>    C        2.70277       -21.57011        -3.31539
| 88>    C        4.77063       -19.60154       -10.13671
| 89>    C        5.61337       -20.09069       -11.04225
| 90>    H       -8.34538         4.31572        -0.28576
| 91>    H       -9.99759         5.03573        -1.94722
| 92>    H       -9.95909         1.15242        -3.77619
| 93>    H       -6.19530        -0.55632         0.91680
| 94>    H       -6.15739        -2.77504         1.56765
| 95>    H       -5.71401        -4.12190        -3.18985
| 96>    H       -6.22464        -1.79846        -2.60986
| 97>    H       -4.21278        -6.23004         2.65548
| 98>    H       -4.58347        -4.50584         2.71822
| 99>    H       -2.82663        -5.85552         0.61086
|100>    H       -2.25577        -4.88289         1.96847
|101>    H       -3.19492        -4.13094         0.67868
|102>    H       -6.99459        -5.01862         2.64800
|103>    H       -6.62134        -6.74235         2.59226
|104>    H       -8.29819        -5.23574         0.52545
|105>    H       -8.92030        -6.30837         1.78092
|106>    H       -7.92631        -6.95943         0.47612
|107>    H       -4.97143        -8.37404         1.37759
|108>    H       -4.68600        -9.01584        -2.85360
|109>    H       -5.20351        -6.66310        -3.27598
|110>    H       -4.53059       -10.51855         0.62404
|111>    H       -3.95934       -10.93240        -2.35102
|112>    H       -3.22301       -12.50113        -3.71827
|113>    H       -2.49794       -16.85237        -1.43215
|114>    H       -3.55977       -15.29865         2.25168
|115>    H       -1.86621       -17.06663         0.40708
|116>    H       -2.84198       -17.39394         3.29429
|117>    H       -1.87141       -19.58675         4.37302
|118>    H       -0.33999       -21.57782         3.79230
|119>    H        1.14417       -23.15426         2.70188
|120>    H        2.68749       -24.38741         1.05115
|121>    H        3.63201       -24.21795        -1.26508
|122>    H        4.76655       -24.16988        -3.57355
|123>    H        5.52727       -23.34517        -6.25400
|124>    H        5.82009       -21.97275        -8.77043
|125>    H        3.02853       -18.76480        -8.02501
|126>    H        2.25606       -19.59919        -5.35141
|127>    H        1.98153       -20.93542        -2.83622
|128>    H        4.21506       -18.69844       -10.35660
|129>    H        6.18709       -20.98482       -10.86966
|130>    H        5.75851       -19.60973       -11.99393
|131> *
|132>
|133>                          ****END OF INPUT****

CARTESIAN COORDINATES (ANGSTROEM)
---------------------------------
  C     -8.036440    0.117640   -1.942800
  O     -8.266320   -0.850010   -2.633480
  C     -8.676950    1.446630   -2.085280
  C     -8.202080    2.316880   -1.090660
  C     -8.679290    3.619320   -1.037030
  C     -9.615450    4.026830   -1.975080
  C    -10.068430    3.148490   -2.950520
  C     -9.609430    1.840520   -3.022150
  Br   -11.350930    3.754230   -4.215800
  C     -7.232590    1.600160   -0.268500
  C     -6.479140    2.159120    0.731820
  C     -6.587150    3.503580    1.144190
  N     -6.629350    4.583810    1.531060
  C     -5.475590    1.499840    1.472850
  N     -4.632570    1.052540    2.112410
  C     -7.155440    0.232900   -0.755350
  C     -6.531310   -0.783200   -0.089180
  C     -6.271830   -2.131810   -0.487420
  C     -6.072540   -3.083950    0.535400
  C     -5.800690   -4.384650    0.209560
  C     -5.679410   -4.772830   -1.140710
  C     -5.831430   -3.835360   -2.155910
  C     -6.128960   -2.531080   -1.827090
  C     -5.371840   -6.179700   -1.187510
  C     -5.306340   -6.671340    0.130470
  C     -5.573580   -5.565390    1.124310
  C     -4.360350   -5.336360    2.045530
  C     -3.080550   -5.032810    1.275900
  C     -6.821040   -5.862520    1.977010
  C     -8.068300   -6.106280    1.135900
  C     -5.022780   -7.990760    0.368380
  C     -4.780550   -8.864300   -0.709090
  C     -4.854400   -8.354970   -2.017660
  C     -5.148180   -7.032400   -2.262840
  C     -4.463840  -10.231880   -0.419060
  C     -4.067230  -11.180850   -1.305550
  C     -3.749390  -12.508390   -0.959520
  S     -3.892830  -13.104450    0.664400
  C     -3.283860  -14.688900    0.259950
  C     -3.027280  -14.764430   -1.131420
  C     -3.277230  -13.529480   -1.805890
  C     -3.055710  -13.425580   -3.191020
  C     -2.626360  -14.523140   -3.881220
  F     -2.407670  -14.438680   -5.205640
  C     -2.428340  -15.754010   -3.227730
  F     -2.043690  -16.824260   -3.947580
  C     -2.628140  -15.883140   -1.880150
  C     -3.120910  -15.598110    1.307110
  C     -2.416200  -16.782320    1.291260
  C     -2.312820  -17.635030    2.381960
  C     -1.561220  -18.799430    2.372580
  C     -1.392400  -19.723290    3.419470
  C     -0.578610  -20.781410    3.110350
  C     -0.066670  -20.739990    1.803870
  S     -0.650730  -19.318950    0.968960
  C      0.790060  -21.637960    1.179120
  C      1.351680  -22.817740    1.702070
  C      2.170080  -23.471210    0.825860
  C      2.302720  -22.846160   -0.435970
  S      1.326780  -21.385380   -0.460650
  C      3.086800  -23.303390   -1.469280
  C      3.294380  -22.746790   -2.743690
  C      4.170980  -23.284510   -3.701610
  C      4.147820  -22.469140   -4.851180
  C      4.826540  -22.546950   -6.053080
  C      4.579760  -21.552400   -7.005590
  C      5.095820  -21.347050   -8.282120
  C      4.509550  -20.172330   -8.837160
  C      3.626750  -19.649350   -7.903400
  C      3.637700  -20.477120   -6.742670
  C      2.958860  -20.394640   -5.554720
  C      3.209580  -21.390750   -4.588700
  C      2.702770  -21.570110   -3.315390
  C      4.770630  -19.601540  -10.136710
  C      5.613370  -20.090690  -11.042250
  H     -8.345380    4.315720   -0.285760
  H     -9.997590    5.035730   -1.947220
  H     -9.959090    1.152420   -3.776190
  H     -6.195300   -0.556320    0.916800
  H     -6.157390   -2.775040    1.567650
  H     -5.714010   -4.121900   -3.189850
  H     -6.224640   -1.798460   -2.609860
  H     -4.212780   -6.230040    2.655480
  H     -4.583470   -4.505840    2.718220
  H     -2.826630   -5.855520    0.610860
  H     -2.255770   -4.882890    1.968470
  H     -3.194920   -4.130940    0.678680
  H     -6.994590   -5.018620    2.648000
  H     -6.621340   -6.742350    2.592260
  H     -8.298190   -5.235740    0.525450
  H     -8.920300   -6.308370    1.780920
  H     -7.926310   -6.959430    0.476120
  H     -4.971430   -8.374040    1.377590
  H     -4.686000   -9.015840   -2.853600
  H     -5.203510   -6.663100   -3.275980
  H     -4.530590  -10.518550    0.624040
  H     -3.959340  -10.932400   -2.351020
  H     -3.223010  -12.501130   -3.718270
  H     -2.497940  -16.852370   -1.432150
  H     -3.559770  -15.298650    2.251680
  H     -1.866210  -17.066630    0.407080
  H     -2.841980  -17.393940    3.294290
  H     -1.871410  -19.586750    4.373020
  H     -0.339990  -21.577820    3.792300
  H      1.144170  -23.154260    2.701880
  H      2.687490  -24.387410    1.051150
  H      3.632010  -24.217950   -1.265080
  H      4.766550  -24.169880   -3.573550
  H      5.527270  -23.345170   -6.254000
  H      5.820090  -21.972750   -8.770430
  H      3.028530  -18.764800   -8.025010
  H      2.256060  -19.599190   -5.351410
  H      1.981530  -20.935420   -2.836220
  H      4.215060  -18.698440  -10.356600
  H      6.187090  -20.984820  -10.869660
  H      5.758510  -19.609730  -11.993930

 Total Charge           Charge          ....    0
 Multiplicity           Mult            ....    1
 Number of Electrons    NEL             ....  560
 Basis Dimension        Dim             .... 1285

ORBITAL ENERGIES
----------------

  NO   OCC          E(Eh)            E(eV)
   0   2.0000    -482.870604    -13139.5771
   1   2.0000     -88.959680     -2420.7159
   2   2.0000     -88.943126     -2420.2655
   3   2.0000     -88.940005     -2420.1806
   4   2.0000     -62.548319     -1702.0263
   5   2.0000     -56.382157     -1534.2365
   6   2.0000     -56.379635     -1534.1679
   7   2.0000     -56.379623     -1534.1675
   8   2.0000     -24.782592      -674.3686
   9   2.0000     -24.780761      -674.3188
  10   2.0000     -19.217392      -522.9318
  11   2.0000     -14.414426      -392.2365
  12   2.0000     -14.413441      -392.2097
  13   2.0000     -10.369555      -282.1699
  14   2.0000     -10.363095      -281.9941
  15   2.0000     -10.360661      -281.9279
  16   2.0000     -10.343388      -281.4579
  17   2.0000     -10.341531      -281.4074
  18   2.0000     -10.340195      -281.3710
  19   2.0000     -10.317326      -280.7487
  20   2.0000     -10.316440      -280.7246
  21   2.0000     -10.315506      -280.6992
  22   2.0000     -10.308852      -280.5181
  23   2.0000     -10.308109      -280.4979
  24   2.0000     -10.306583      -280.4564
  25   2.0000     -10.303799      -280.3806
  26   2.0000     -10.302775      -280.3528
  27   2.0000     -10.302431      -280.3434
  28   2.0000     -10.302275      -280.3391
  29   2.0000     -10.301944      -280.3301
  30   2.0000     -10.300922      -280.3024
  31   2.0000     -10.300811      -280.2993
  32   2.0000     -10.300693      -280.2961
  33   2.0000     -10.299891      -280.2743
  34   2.0000     -10.296844      -280.1914
  35   2.0000     -10.295806      -280.1631
  36   2.0000     -10.289018      -279.9784
  37   2.0000     -10.288111      -279.9537
  38   2.0000     -10.287443      -279.9356
  39   2.0000     -10.286852      -279.9195
  40   2.0000     -10.285006      -279.8692
  41   2.0000     -10.284075      -279.8439
  42   2.0000     -10.283748      -279.8350
  43   2.0000     -10.283549      -279.8296
  44   2.0000     -10.283095      -279.8172
  45   2.0000     -10.282983      -279.8142
  46   2.0000     -10.282600      -279.8038
  47   2.0000     -10.282323      -279.7962
  48   2.0000     -10.281917      -279.7852
  49   2.0000     -10.281773      -279.7813
  50   2.0000     -10.281245      -279.7669
  51   2.0000     -10.279769      -279.7267
  52   2.0000     -10.278292      -279.6865
  53   2.0000     -10.278228      -279.6848
  54   2.0000     -10.277387      -279.6619
  55   2.0000     -10.276914      -279.6490
  56   2.0000     -10.276757      -279.6448
  57   2.0000     -10.275579      -279.6127
  58   2.0000     -10.275499      -279.6105
  59   2.0000     -10.274207      -279.5754
  60   2.0000     -10.272523      -279.5296
  61   2.0000     -10.272485      -279.5285
  62   2.0000     -10.272190      -279.5205
  63   2.0000     -10.271753      -279.5086
  64   2.0000     -10.271293      -279.4961
  65   2.0000     -10.271154      -279.4923
  66   2.0000     -10.271117      -279.4913
  67   2.0000     -10.269708      -279.4530
  68   2.0000     -10.269158      -279.4380
  69   2.0000     -10.268982      -279.4332
  70   2.0000     -10.266857      -279.3754
  71   2.0000     -10.265859      -279.3482
  72   2.0000     -10.265390      -279.3355
  73   2.0000     -10.264970      -279.3240
  74   2.0000     -10.264181      -279.3026
  75   2.0000     -10.263215      -279.2763
  76   2.0000     -10.257731      -279.1270
  77   2.0000     -10.246687      -278.8265
  78   2.0000     -10.245203      -278.7862
  79   2.0000      -8.777596      -238.8505
  80   2.0000      -8.054837      -219.1832
  81   2.0000      -8.039126      -218.7557
  82   2.0000      -8.036346      -218.6801
  83   2.0000      -6.613452      -179.9612
  84   2.0000      -6.599710      -179.5872
  85   2.0000      -6.599265      -179.5751
  86   2.0000      -6.023781      -163.9154
  87   2.0000      -6.019918      -163.8103
  88   2.0000      -6.017483      -163.7440
  89   2.0000      -6.008845      -163.5090
  90   2.0000      -6.006016      -163.4320
  91   2.0000      -6.004814      -163.3993
  92   2.0000      -6.002059      -163.3243
  93   2.0000      -6.000116      -163.2715
  94   2.0000      -5.997336      -163.1958
  95   2.0000      -2.729335       -74.2690
  96   2.0000      -2.725612       -74.1677
  97   2.0000      -2.725334       -74.1601
  98   2.0000      -2.714392       -73.8624
  99   2.0000      -2.714361       -73.8615
 100   2.0000      -1.302811       -35.4513
 101   2.0000      -1.287966       -35.0473
 102   2.0000      -1.132957       -30.8293
 103   2.0000      -1.018356       -27.7109
 104   2.0000      -0.999990       -27.2111
 105   2.0000      -0.996901       -27.1271
 106   2.0000      -0.992498       -27.0073
 107   2.0000      -0.992172       -26.9984
 108   2.0000      -0.991763       -26.9873
 109   2.0000      -0.987585       -26.8736
 110   2.0000      -0.970410       -26.4062
 111   2.0000      -0.963912       -26.2294
 112   2.0000      -0.960798       -26.1446
 113   2.0000      -0.950602       -25.8672
 114   2.0000      -0.938752       -25.5447
 115   2.0000      -0.925678       -25.1890
 116   2.0000      -0.910984       -24.7891
 117   2.0000      -0.908703       -24.7271
 118   2.0000      -0.901356       -24.5272
 119   2.0000      -0.898603       -24.4522
 120   2.0000      -0.891249       -24.2521
 121   2.0000      -0.882775       -24.0215
 122   2.0000      -0.872766       -23.7492
 123   2.0000      -0.866221       -23.5711
 124   2.0000      -0.865246       -23.5445
 125   2.0000      -0.855752       -23.2862
 126   2.0000      -0.851266       -23.1641
 127   2.0000      -0.843728       -22.9590
 128   2.0000      -0.839283       -22.8381
 129   2.0000      -0.837792       -22.7975
 130   2.0000      -0.837308       -22.7843
 131   2.0000      -0.837198       -22.7813
 132   2.0000      -0.833359       -22.6769
 133   2.0000      -0.827507       -22.5176
 134   2.0000      -0.817431       -22.2434
 135   2.0000      -0.814077       -22.1522
 136   2.0000      -0.800028       -21.7699
 137   2.0000      -0.797623       -21.7044
 138   2.0000      -0.781358       -21.2618
 139   2.0000      -0.769281       -20.9332
 140   2.0000      -0.766145       -20.8479
 141   2.0000      -0.762411       -20.7463
 142   2.0000      -0.754017       -20.5178
 143   2.0000      -0.746822       -20.3220
 144   2.0000      -0.737108       -20.0577
 145   2.0000      -0.730741       -19.8845
 146   2.0000      -0.726474       -19.7684
 147   2.0000      -0.718301       -19.5460
 148   2.0000      -0.708946       -19.2914
 149   2.0000      -0.702337       -19.1116
 150   2.0000      -0.694561       -18.9000
 151   2.0000      -0.686218       -18.6729
 152   2.0000      -0.685891       -18.6640
 153   2.0000      -0.675834       -18.3904
 154   2.0000      -0.674361       -18.3503
 155   2.0000      -0.673010       -18.3135
 156   2.0000      -0.669865       -18.2279
 157   2.0000      -0.669239       -18.2109
 158   2.0000      -0.662365       -18.0239
 159   2.0000      -0.653876       -17.7929
 160   2.0000      -0.647057       -17.6073
 161   2.0000      -0.643170       -17.5015
 162   2.0000      -0.641661       -17.4605
 163   2.0000      -0.631262       -17.1775
 164   2.0000      -0.625813       -17.0292
 165   2.0000      -0.621055       -16.8998
 166   2.0000      -0.617827       -16.8119
 167   2.0000      -0.614491       -16.7212
 168   2.0000      -0.613159       -16.6849
 169   2.0000      -0.611048       -16.6275
 170   2.0000      -0.604844       -16.4587
 171   2.0000      -0.603600       -16.4248
 172   2.0000      -0.596256       -16.2250
 173   2.0000      -0.593273       -16.1438
 174   2.0000      -0.591411       -16.0931
 175   2.0000      -0.582413       -15.8483
 176   2.0000      -0.581056       -15.8113
 177   2.0000      -0.579784       -15.7767
 178   2.0000      -0.575750       -15.6669
 179   2.0000      -0.568358       -15.4658
 180   2.0000      -0.565868       -15.3980
 181   2.0000      -0.558536       -15.1985
 182   2.0000      -0.554089       -15.0775
 183   2.0000      -0.550278       -14.9738
 184   2.0000      -0.544620       -14.8199
 185   2.0000      -0.543486       -14.7890
 186   2.0000      -0.542338       -14.7578
 187   2.0000      -0.540992       -14.7211
 188   2.0000      -0.538216       -14.6456
 189   2.0000      -0.536330       -14.5943
 190   2.0000      -0.533415       -14.5150
 191   2.0000      -0.531748       -14.4696
 192   2.0000      -0.530657       -14.4399
 193   2.0000      -0.529304       -14.4031
 194   2.0000      -0.525606       -14.3025
 195   2.0000      -0.523315       -14.2401
 196   2.0000      -0.522179       -14.2092
 197   2.0000      -0.518980       -14.1222
 198   2.0000      -0.517587       -14.0843
 199   2.0000      -0.517332       -14.0773
 200   2.0000      -0.510185       -13.8828
 201   2.0000      -0.505226       -13.7479
 202   2.0000      -0.503946       -13.7131
 203   2.0000      -0.497308       -13.5324
 204   2.0000      -0.495811       -13.4917
 205   2.0000      -0.495334       -13.4787
 206   2.0000      -0.494017       -13.4429
 207   2.0000      -0.493188       -13.4203
 208   2.0000      -0.491601       -13.3771
 209   2.0000      -0.491340       -13.3700
 210   2.0000      -0.489428       -13.3180
 211   2.0000      -0.484544       -13.1851
 212   2.0000      -0.483367       -13.1531
 213   2.0000      -0.479485       -13.0475
 214   2.0000      -0.475565       -12.9408
 215   2.0000      -0.474871       -12.9219
 216   2.0000      -0.474418       -12.9096
 217   2.0000      -0.472457       -12.8562
 218   2.0000      -0.469990       -12.7891
 219   2.0000      -0.468047       -12.7362
 220   2.0000      -0.467629       -12.7248
 221   2.0000      -0.466384       -12.6910
 222   2.0000      -0.463734       -12.6188
 223   2.0000      -0.463343       -12.6082
 224   2.0000      -0.456739       -12.4285
 225   2.0000      -0.454211       -12.3597
 226   2.0000      -0.452235       -12.3059
 227   2.0000      -0.451472       -12.2852
 228   2.0000      -0.451172       -12.2770
 229   2.0000      -0.448581       -12.2065
 230   2.0000      -0.447079       -12.1656
 231   2.0000      -0.446818       -12.1585
 232   2.0000      -0.443789       -12.0761
 233   2.0000      -0.441362       -12.0101
 234   2.0000      -0.440633       -11.9902
 235   2.0000      -0.438752       -11.9391
 236   2.0000      -0.429146       -11.6777
 237   2.0000      -0.427704       -11.6384
 238   2.0000      -0.426838       -11.6148
 239   2.0000      -0.425756       -11.5854
 240   2.0000      -0.424859       -11.5610
 241   2.0000      -0.424349       -11.5471
 242   2.0000      -0.422129       -11.4867
 243   2.0000      -0.421249       -11.4628
 244   2.0000      -0.420196       -11.4341
 245   2.0000      -0.419224       -11.4077
 246   2.0000      -0.416321       -11.3287
 247   2.0000      -0.413947       -11.2641
 248   2.0000      -0.409984       -11.1562
 249   2.0000      -0.407075       -11.0771
 250   2.0000      -0.406615       -11.0646
 251   2.0000      -0.405581       -11.0364
 252   2.0000      -0.401026       -10.9125
 253   2.0000      -0.396778       -10.7969
 254   2.0000      -0.391859       -10.6630
 255   2.0000      -0.391337       -10.6488
 256   2.0000      -0.388215       -10.5639
 257   2.0000      -0.384271       -10.4565
 258   2.0000      -0.382308       -10.4031
 259   2.0000      -0.372360       -10.1324
 260   2.0000      -0.367825       -10.0090
 261   2.0000      -0.365363        -9.9420
 262   2.0000      -0.357457        -9.7269
 263   2.0000      -0.349199        -9.5022
 264   2.0000      -0.347070        -9.4442
 265   2.0000      -0.340203        -9.2574
 266   2.0000      -0.334892        -9.1129
 267   2.0000      -0.326858        -8.8942
 268   2.0000      -0.323672        -8.8076
 269   2.0000      -0.320005        -8.7078
 270   2.0000      -0.319273        -8.6879
 271   2.0000      -0.315362        -8.5814
 272   2.0000      -0.309015        -8.4087
 273   2.0000      -0.305702        -8.3186
 274   2.0000      -0.295756        -8.0479
 275   2.0000      -0.275236        -7.4896
 276   2.0000      -0.269415        -7.3311
 277   2.0000      -0.255986        -6.9657
 278   2.0000      -0.230898        -6.2831
 279   2.0000      -0.188933        -5.1411
 280   0.0000      -0.099910        -2.7187
 281   0.0000      -0.090999        -2.4762
 282   0.0000      -0.081829        -2.2267
 283   0.0000      -0.062348        -1.6966
 284   0.0000      -0.045402        -1.2355

MULLIKEN ATOMIC CHARGES
-----------------------
   0 C :    0.145173
   1 O :   -0.141452
   2 C :   -0.026872
   3 C :    0.033430
   4 C :   -0.024960
   5 C :    0.050594
   6 C :   -0.003313
   7 C :   -0.013667
   8 Br:   -0.021718
   9 C :    0.298075
  10 C :   -0.339844
  11 C :   -0.190433
  12 N :    0.153158
  13 C :   -0.204303
  14 N :    0.158613
  15 C :   -0.073637
  16 C :   -0.035457
  17 C :    0.081128
  18 C :   -0.096401
  19 C :    0.012544
  20 C :    0.126992
  21 C :   -0.063945
  22 C :    0.057006
  23 C :    0.097850
  24 C :    0.025901
  25 C :   -0.134600
  26 C :    0.064714
  27 C :    0.025316
  28 C :    0.066477
  29 C :    0.024461
  30 C :   -0.116526
  31 C :    0.139893
  32 C :   -0.016413
  33 C :   -0.035751
  34 C :   -0.035237
  35 C :    0.022660
  36 C :   -0.098146
  37 S :    0.135217
  38 C :   -0.100384
  39 C :    0.132540
  40 C :    0.121579
  41 C :   -0.120773
  42 C :    0.227901
  43 F :   -0.182751
  44 C :    0.217093
  45 F :   -0.184488
  46 C :   -0.124395
  47 C :    0.022234
  48 C :   -0.012257
  49 C :   -0.012253
  50 C :   -0.017535
  51 C :    0.027588
  52 C :    0.024137
  53 C :   -0.047209
  54 S :    0.055940
  55 C :   -0.022651
  56 C :    0.020004
  57 C :    0.035897
  58 C :   -0.029261
  59 S :    0.049791
  60 C :   -0.008787
  61 C :    0.057437
  62 C :   -0.035885
  63 C :    0.065052
  64 C :    0.001362
  65 C :    0.046541
  66 C :   -0.017372
  67 C :    0.059633
  68 C :   -0.021562
  69 C :    0.055648
  70 C :    0.004240
  71 C :    0.037929
  72 C :   -0.025852
  73 C :    0.011750
  74 C :   -0.024153
  75 H :    0.008051
  76 H :    0.004248
  77 H :    0.002199
  78 H :    0.025523
  79 H :   -0.026723
  80 H :   -0.029447
  81 H :   -0.010817
  82 H :   -0.000890
  83 H :    0.002035
  84 H :    0.021670
  85 H :    0.012739
  86 H :    0.021584
  87 H :   -0.000903
  88 H :   -0.001271
  89 H :    0.021541
  90 H :    0.010189
  91 H :    0.022938
  92 H :   -0.040750
  93 H :   -0.033328
  94 H :   -0.034094
  95 H :   -0.021666
  96 H :   -0.019994
  97 H :   -0.016601
  98 H :   -0.011570
  99 H :   -0.021941
 100 H :    0.004784
 101 H :   -0.021280
 102 H :   -0.017314
 103 H :   -0.015649
 104 H :   -0.017055
 105 H :   -0.014613
 106 H :   -0.023900
 107 H :   -0.028388
 108 H :   -0.023902
 109 H :   -0.021845
 110 H :   -0.022844
 111 H :   -0.017530
 112 H :   -0.004387
 113 H :   -0.018893
 114 H :    0.006664
 115 H :    0.020173
Sum of atomic charges:   -0.0000000

LOEWDIN ATOMIC CHARGES
----------------------
   0 C :    0.082786
   1 O :   -0.132558
   2 C :   -0.036702
   3 C :   -0.017201
   4 C :    0.008045
   5 C :   -0.013980
   6 C :   -0.097857
   7 C :   -0.000947
   8 Br:    0.113535
   9 C :    0.076393
  10 C :   -0.139443
  11 C :   -0.018710
  12 N :   -0.052740
  13 C :   -0.025187
  14 N :   -0.050423
  15 C :   -0.104451
  16 C :    0.087855
  17 C :   -0.047934
  18 C :    0.003404
  19 C :   -0.004131
  20 C :    0.012666
  21 C :   -0.024554
  22 C :    0.028022
  23 C :   -0.029619
  24 C :    0.010079
  25 C :   -0.035559
  26 C :   -0.011325
  27 C :   -0.057411
  28 C :   -0.011551
  29 C :   -0.057839
  30 C :   -0.024906
  31 C :   -0.012576
  32 C :   -0.018783
  33 C :   -0.008775
  34 C :   -0.037500
  35 C :   -0.033608
  36 C :   -0.185710
  37 S :    0.465623
  38 C :   -0.159974
  39 C :   -0.050538
  40 C :   -0.038992
  41 C :   -0.042180
  42 C :    0.060834
  43 F :   -0.060802
  44 C :    0.056359
  45 F :   -0.062778
  46 C :   -0.036757
  47 C :   -0.060061
  48 C :   -0.029549
  49 C :   -0.068018
  50 C :   -0.140687
  51 C :   -0.046363
  52 C :   -0.029708
  53 C :   -0.190834
  54 S :    0.368586
  55 C :   -0.169893
  56 C :   -0.046553
  57 C :   -0.025265
  58 C :   -0.162310
  59 S :    0.380418
  60 C :   -0.034809
  61 C :   -0.069037
  62 C :    0.018798
  63 C :   -0.064094
  64 C :    0.077745
  65 C :   -0.066137
  66 C :    0.052648
  67 C :   -0.062155
  68 C :    0.024226
  69 C :   -0.062560
  70 C :    0.078022
  71 C :   -0.064052
  72 C :    0.032909
  73 C :   -0.020953
  74 C :   -0.054844
  75 H :    0.042819
  76 H :    0.040060
  77 H :    0.043606
  78 H :    0.045464
  79 H :    0.029297
  80 H :    0.029691
  81 H :    0.031693
  82 H :    0.020496
  83 H :    0.021277
  84 H :    0.025433
  85 H :    0.025803
  86 H :    0.025413
  87 H :    0.020270
  88 H :    0.020451
  89 H :    0.025339
  90 H :    0.024660
  91 H :    0.025955
  92 H :    0.024218
  93 H :    0.024614
  94 H :    0.028260
  95 H :    0.018779
  96 H :    0.029287
  97 H :    0.037764
  98 H :    0.039344
  99 H :    0.026906
 100 H :    0.019059
 101 H :    0.030671
 102 H :    0.031736
 103 H :    0.031076
 104 H :    0.030687
 105 H :    0.032529
 106 H :    0.035268
 107 H :    0.023639
 108 H :    0.035124
 109 H :    0.025770
 110 H :    0.026061
 111 H :    0.037862
 112 H :    0.015279
 113 H :    0.029508
 114 H :    0.017257
 115 H :    0.024506

  Mayer bond orders larger than 0.100000
B(  0-C ,  1-O ) :   2.2268 B(  0-C ,  2-C ) :   0.9386 B(  0-C , 15-C ) :   0.9428
B(  2-C ,  3-C ) :   1.3319 B(  2-C ,  7-C ) :   1.3798 B(  3-C ,  4-C ) :   1.3593
B(  3-C ,  9-C ) :   0.9952 B(  4-C ,  5-C ) :   1.3850 B(  4-C , 75-H ) :   0.9837
B(  5-C ,  6-C ) :   1.3887 B(  5-C , 76-H ) :   0.9840 B(  6-C ,  7-C ) :   1.3374
B(  6-C ,  8-Br) :   0.9910 B(  7-C , 77-H ) :   1.0072 B(  9-C , 10-C ) :   1.6391
B(  9-C , 15-C ) :   1.0673 B( 10-C , 11-C ) :   1.1395 B( 10-C , 13-C ) :   1.1397
B( 11-C , 12-N ) :   2.9765 B( 13-C , 14-N ) :   2.9908 B( 15-C , 16-C ) :   1.5667
B( 16-C , 17-C ) :   1.1275 B( 16-C , 78-H ) :   0.9512 B( 17-C , 18-C ) :   1.2323
B( 17-C , 22-C ) :   1.3332 B( 18-C , 19-C ) :   1.4046 B( 18-C , 79-H ) :   1.0145
B( 19-C , 20-C ) :   1.3426 B( 19-C , 25-C ) :   0.9131 B( 20-C , 21-C ) :   1.3182
B( 20-C , 23-C ) :   1.0145 B( 21-C , 22-C ) :   1.4126 B( 21-C , 80-H ) :   0.9943
B( 22-C , 81-H ) :   0.9762 B( 23-C , 24-C ) :   1.3596 B( 23-C , 33-C ) :   1.3141
B( 24-C , 25-C ) :   0.9148 B( 24-C , 30-C ) :   1.3809 B( 25-C , 26-C ) :   1.0385
B( 25-C , 28-C ) :   1.0364 B( 26-C , 27-C ) :   1.1009 B( 26-C , 82-H ) :   0.9396
B( 26-C , 83-H ) :   0.9394 B( 27-C , 84-H ) :   0.9645 B( 27-C , 85-H ) :   0.9638
B( 27-C , 86-H ) :   0.9644 B( 28-C , 29-C ) :   1.1002 B( 28-C , 87-H ) :   0.9405
B( 28-C , 88-H ) :   0.9394 B( 29-C , 89-H ) :   0.9644 B( 29-C , 90-H ) :   0.9639
B( 29-C , 91-H ) :   0.9646 B( 30-C , 31-C ) :   1.2745 B( 30-C , 92-H ) :   1.0155
B( 31-C , 32-C ) :   1.3247 B( 31-C , 34-C ) :   1.0967 B( 32-C , 33-C ) :   1.4164
B( 32-C , 93-H ) :   0.9842 B( 33-C , 94-H ) :   0.9901 B( 34-C , 35-C ) :   1.6182
B( 34-C , 95-H ) :   0.9835 B( 35-C , 36-C ) :   1.2098 B( 35-C , 96-H ) :   0.9610
B( 36-C , 37-S ) :   1.1183 B( 36-C , 40-C ) :   1.3087 B( 37-S , 38-C ) :   1.1422
B( 38-C , 39-C ) :   1.2977 B( 38-C , 47-C ) :   1.2174 B( 39-C , 40-C ) :   1.2216
B( 39-C , 46-C ) :   1.1712 B( 40-C , 41-C ) :   1.1713 B( 41-C , 42-C ) :   1.4951
B( 41-C , 46-C ) :   0.1116 B( 41-C , 97-H ) :   0.9985 B( 42-C , 43-F ) :   1.1273
B( 42-C , 44-C ) :   1.1667 B( 44-C , 45-F ) :   1.1238 B( 44-C , 46-C ) :   1.4905
B( 46-C , 98-H ) :   0.9949 B( 47-C , 48-C ) :   1.5436 B( 47-C , 99-H ) :   0.9549
B( 48-C , 49-C ) :   1.2330 B( 48-C ,100-H ) :   0.9657 B( 49-C , 50-C ) :   1.4793
B( 49-C ,101-H ) :   0.9855 B( 50-C , 51-C ) :   1.1852 B( 50-C , 54-S ) :   1.0474
B( 51-C , 52-C ) :   1.5395 B( 51-C ,102-H ) :   0.9994 B( 52-C , 53-C ) :   1.2291
B( 52-C ,103-H ) :   0.9936 B( 53-C , 54-S ) :   1.0426 B( 53-C , 55-C ) :   1.4575
B( 55-C , 56-C ) :   1.2100 B( 55-C , 59-S ) :   1.0574 B( 56-C , 57-C ) :   1.5657
B( 56-C ,104-H ) :   0.9938 B( 57-C , 58-C ) :   1.1571 B( 57-C ,105-H ) :   0.9996
B( 58-C , 59-S ) :   1.0194 B( 58-C , 60-C ) :   1.5538 B( 60-C , 61-C ) :   1.1473
B( 60-C ,106-H ) :   0.9700 B( 61-C , 62-C ) :   1.3981 B( 61-C , 72-C ) :   1.1458
B( 62-C , 63-C ) :   1.1410 B( 62-C ,107-H ) :   1.0195 B( 63-C , 64-C ) :   1.3922
B( 63-C , 71-C ) :   1.1343 B( 64-C , 65-C ) :   1.1651 B( 64-C ,108-H ) :   1.0050
B( 65-C , 66-C ) :   1.3926 B( 65-C , 69-C ) :   1.1294 B( 66-C , 67-C ) :   1.1759
B( 66-C ,109-H ) :   1.0087 B( 67-C , 68-C ) :   1.4728 B( 67-C , 73-C ) :   1.0829
B( 68-C , 69-C ) :   1.1027 B( 68-C ,110-H ) :   1.0175 B( 69-C , 70-C ) :   1.4415
B( 70-C , 71-C ) :   1.1363 B( 70-C ,111-H ) :   1.0055 B( 71-C , 72-C ) :   1.4397
B( 72-C ,112-H ) :   0.9918 B( 73-C , 74-C ) :   1.9353 B( 73-C ,113-H ) :   0.9669
B( 74-C ,114-H ) :   0.9528 B( 74-C ,115-H ) :   0.9493

-----------------------------------------------------------------------------
         ABSORPTION SPECTRUM VIA TRANSITION ELECTRIC DIPOLE MOMENTS
-----------------------------------------------------------------------------
State   Energy  Wavelength   fosc         T2         TX        TY        TZ
        (cm-1)    (nm)                  (au**2)     (au)      (au)      (au)
-----------------------------------------------------------------------------
   0    4795.0   2085.5   0.023721715   1.62868  -0.75946   0.83058   0.60170
   1    9631.9   1038.2   1.609785772  55.02136   3.81724  -6.22472  -1.30493
   2   12628.5    791.9   0.020862290   0.54386  -0.40202   0.61776   0.02484
   3   15106.1    662.0   0.181213443   3.94925   0.40713   1.74188  -0.86566
   4   17348.0    576.4   0.160160978   3.03937  -0.56495   1.64438   0.12738
   5   19417.5    515.0   1.011056844  17.14189  -0.55669  -2.74857   3.04588
   6   20825.3    480.2   0.009455418   0.14947  -0.31386   0.20233   0.10014
   7   21134.0    473.2   0.083361944   1.29856  -0.55618   0.26096   0.95975
   8   22051.1    453.5   0.224358527   3.34956  -0.10663  -1.59296   0.89480
   9   22580.4    442.9   0.634379645   9.24895  -0.95833   1.48937   2.47231
  10   24318.6    411.2   0.014935330   0.20219   0.05266   0.23321  -0.38082
  11   26070.4    383.6   0.101859862   1.28627  -0.20363   0.47897   1.00766
  12   26376.1    379.1   0.057314740   0.71537  -0.03476   0.61229  -0.58247
  13   26697.3    374.6   0.546183485   6.73515   0.05437   1.60434  -2.03918
  14   26859.0    372.3   0.073888398   0.90565  -0.08912   0.72354   0.61172
  15   27089.9    369.1   0.100863770   1.22575   0.55132  -0.95824  -0.05975
  16   28210.9    354.5   0.027818362   0.32463  -0.14826  -0.49484  -0.24038
  17   28494.5    350.9   0.545744138   6.30528   0.88087  -0.57146  -2.28096
  18   29398.5    340.2   0.072702580   0.81414  -0.33071   0.83796  -0.05102
  19   29759.2    336.0   0.104526568   1.15633  -0.13098   0.82156  -0.68133
  20   30871.3    323.9   0.047999603   0.51187   0.60626   0.33794   0.17353
  21   31112.7    321.4   0.258996116   2.74051   0.78298  -1.05849   1.00352
  22   31273.8    319.8   0.007458700   0.07852   0.05930  -0.27205   0.03142
  23   31721.7    315.2   0.070844698   0.73524  -0.44998   0.42347   0.59450
  24   31914.3    313.3   0.046434583   0.47900  -0.09836  -0.24897   0.63823
  25   31975.7    312.7   0.018748393   0.19303  -0.02932   0.16564  -0.40587
  26   32381.0    308.8   0.062019657   0.63054  -0.02257  -0.26673   0.74759
  27   32814.1    304.7   0.013047000   0.13090  -0.11934   0.02019  -0.34095
  28   33077.4    302.3   0.055614227   0.55352   0.52739  -0.50620  -0.13834
  29   33122.7    301.9   0.048286252   0.47992   0.33668   0.27760   0.53806
  30   33521.2    298.3   0.018910682   0.18572  -0.33104   0.14168   0.23678
  31   33570.0    297.9   0.085934214   0.84273  -0.07775   0.14646  -0.90291
  32   34063.1    293.6   0.111698084   1.07953   0.16822   0.80265  -0.63796
  33   34219.0    292.2   0.002286914   0.02200   0.10298  -0.10523  -0.01798
  34   34499.3    289.9   0.051864268   0.49492  -0.35032  -0.59556   0.13228
  35   34616.0    288.9   0.625263145   5.94651  -1.50113   0.23513  -1.90731
  36   35093.4    285.0   0.022308137   0.20927  -0.02028  -0.42910   0.15726
  37   35398.6    282.5   0.102947657   0.95743  -0.08722   0.95110  -0.21267
  38   35627.1    280.7   0.031428424   0.29041   0.07068   0.30190  -0.44077
  39   35778.6    279.5   0.094901540   0.87322   0.52663  -0.77145  -0.02732
  40   36030.2    277.5   0.081246231   0.74236   0.33598  -0.79294  -0.02668
  41   36157.4    276.6   0.004831902   0.04399  -0.19452   0.07725   0.01376
  42   36269.1    275.7   0.006732061   0.06111  -0.15920  -0.18564  -0.03606
  43   36484.6    274.1   0.015330713   0.13833   0.22804  -0.25222  -0.15073
  44   36705.0    272.4   0.031279279   0.28055  -0.24333  -0.24734   0.40020
  45   36903.6    271.0   0.002085721   0.01861   0.12330  -0.05497  -0.01952
  46   37177.3    269.0   0.139506754   1.23536  -0.04156   0.28412   1.07374
  47   37451.6    267.0   0.012895329   0.11335   0.18297  -0.08297   0.27017
  48   38389.1    260.5   0.087676239   0.75188  -0.21534   0.82441  -0.16083
  49   38610.5    259.0   0.016335475   0.13928   0.09854  -0.09054  -0.34839
  50   38701.0    258.4   0.026389790   0.22449  -0.20102  -0.22610  -0.36463
  51   38913.3    257.0   0.132201565   1.11844  -0.51154  -0.49158  -0.78429
  52   39001.2    256.4   0.035691704   0.30128  -0.08706  -0.02321   0.54144
  53   39337.3    254.2   0.012817212   0.10727   0.07773  -0.27941  -0.15217
  54   39754.6    251.5   0.001298711   0.01075   0.03222  -0.02253  -0.09597
  55   39897.6    250.6   0.034673416   0.28611  -0.23129   0.07110   0.47703
  56   39969.7    250.2   0.003200057   0.02636   0.02604   0.12021  -0.10596
  57   39999.5    250.0   0.039720017   0.32691   0.01233  -0.06501  -0.56792
  58   40027.1    249.8   0.029810942   0.24519  -0.01116  -0.30084   0.39314
  59   40298.3    248.1   0.041234506   0.33686   0.22950  -0.11604  -0.52031

FINAL SINGLE POINT ENERGY     -6688.416316412442

DIPOLE MOMENT
-------------
                                X             Y             Z
Electronic contribution:   -103.25031     166.42823     -40.21488
Nuclear contribution   :    103.90009    -170.02677      39.97019
                        -----------------------------------------
Total Dipole Moment    :      0.64978      -3.59853      -0.24470
                        -----------------------------------------
Magnitude (a.u.)       :      3.66491
Magnitude (Debye)      :      9.31545

Rotational constants in cm-1:     0.001304     0.000137     0.000128
Rotational constants in MHz :    39.086684     4.102309     3.843153

                             ****ORCA TERMINATED NORMALLY****
TOTAL RUN TIME: 0 days 0 hours 16 minutes 39 seconds 308 msec
