                         Program Version 4.2.0 -  RELEASE  -
|  1> # ORCA input file
|  2> # SCF done       -165.986388554357          0.000818384378
|  3> ! CAM-B3LYP def2-SVP def2/J RIJCOSX Grid4 TightSCF
|  4> %maxcore 5000
|  5> %tddft
|  6>     Mode sTDDFT
|  7>     Ethresh 5.0
|  8>     maxcore 5000
|  9> end
| 10>
| 11> %pal
| 12>   nprocs 6
| 13>   end
| 14> * xyz 0 1
| 15>    C       14.17859        -5.30020        -2.23570
| 16>    C       13.68060        -6.54288        -2.26105
| 17>    C       14.40873        -7.78123        -2.24732
| 18>    C       13.63355        -8.88548        -2.27182
| 19>    C       12.23312        -8.61842        -2.30403
| 20>    S       11.94474        -6.89027        -2.31415
| 21>    C       11.21138        -9.53232        -2.32101
| 22>    C       11.29454       -10.94911        -2.28890
| 23>    C       10.09346       -11.57438        -2.30066
| 24>    C        8.96841       -10.69548        -2.33496
| 25>    S        9.52918        -9.02869        -2.36881
| 26>    C        7.67366       -11.10809        -2.41486
| 27>    N        6.53843       -10.33944        -2.41157
| 28>    C        6.33660        -9.12786        -1.83734
| 29>    S        7.27549        -8.58187        -0.48864
| 30>    C        6.27937        -7.16130        -0.38784
| 31>    N        6.59350        -6.22999         0.59689
| 32>    O        5.90568        -5.22448         0.67516
| 33>    O        7.54419        -6.49214         1.32050
| 34>    C        5.28279        -7.12336        -1.32710
| 35>    C        5.28424        -8.24811        -2.17151
| 36>    C        4.37569        -8.50120        -3.24295
| 37>    C        3.41391        -7.64741        -3.68189
| 38>    C        2.49440        -7.89937        -4.72396
| 39>    C        2.21062        -9.07082        -5.37609
| 40>    C        1.25762        -9.20081        -6.42254
| 41>    C        1.08600       -10.46396        -6.89084
| 42>    C        1.88772       -11.43357        -6.24175
| 43>    S        2.89092       -10.65754        -5.02962
| 44>    C        1.91706       -12.78990        -6.45956
| 45>    C        1.18632       -13.52712        -7.42638
| 46>    C        1.40123       -14.86364        -7.38433
| 47>    C        2.32105       -15.29021        -6.37803
| 48>    S        2.90639       -13.87602        -5.49912
| 49>    C        2.60682       -16.58157        -6.07045
| 50>    C        3.47826       -17.08129        -5.04416
| 51>    C        4.70418       -16.65317        -4.71034
| 52>    C        5.49301       -15.63288        -5.46290
| 53>    C        5.43973       -17.27250        -3.54064
| 54>    N        4.55769       -17.78355        -2.52687
| 55>    C        4.43075       -19.06738        -2.20623
| 56>    C        3.50689       -19.53270        -1.30686
| 57>    C        3.31156       -20.85497        -0.89259
| 58>    C        3.98127       -22.03754        -1.14436
| 59>    C        3.55044       -23.30636        -0.58683
| 60>    C        2.35586       -23.59213         0.02883
| 61>    C        2.01575       -24.86081         0.54100
| 62>    N        1.67230       -25.86146         0.98850
| 63>    C        1.27203       -22.70907         0.21232
| 64>    N        0.32731       -22.07832         0.38895
| 65>    C        4.59384       -24.29371        -0.85046
| 66>    C        5.60018       -23.67666        -1.62774
| 67>    C        5.23860       -22.26463        -1.86799
| 68>    O        5.90104       -21.49102        -2.54225
| 69>    C        6.72233       -24.34187        -2.05583
| 70>    C        6.86218       -25.68511        -1.69118
| 71>    C        5.85427       -26.29302        -0.90815
| 72>    C        4.71609       -25.61948        -0.48059
| 73>    S        6.22808       -27.95582        -0.56394
| 74>    C        7.71285       -27.81156        -1.46632
| 75>    C        7.92056       -26.58430        -1.99814
| 76>   Br        8.85104       -29.29561        -1.62051
| 77>    H       15.24107        -5.13470        -2.20205
| 78>    H       13.54128        -4.43503        -2.24408
| 79>    H       15.48394        -7.78305        -2.21699
| 80>    H       14.01009        -9.89300        -2.26526
| 81>    H       12.24078       -11.45791        -2.25114
| 82>    H        9.96078       -12.64154        -2.27579
| 83>    H        7.48867       -12.16649        -2.54090
| 84>    H        5.73467       -10.73247        -2.88703
| 85>    H        4.58969        -6.30521        -1.38640
| 86>    H        4.49598        -9.44100        -3.76117
| 87>    H        3.33857        -6.67060        -3.22579
| 88>    H        1.90350        -7.05065        -5.04573
| 89>    H        0.72462        -8.34183        -6.79108
| 90>    H        0.39694       -10.73078        -7.67175
| 91>    H        0.52481       -13.04169        -8.12129
| 92>    H        0.93177       -15.57775        -8.03777
| 93>    H        2.03511       -17.33367        -6.60113
| 94>    H        3.08204       -17.94372        -4.51715
| 95>    H        5.09510       -15.49700        -6.46416
| 96>    H        6.53180       -15.95223        -5.53651
| 97>    H        5.47222       -14.66805        -4.95509
| 98>    H        6.09158       -16.50950        -3.09712
| 99>    H        6.07475       -18.09437        -3.88720
|100>    H        3.91052       -17.11784        -2.12340
|101>    H        5.12244       -19.75231        -2.67875
|102>    H        2.82899       -18.80741        -0.87134
|103>    H        2.47112       -20.95958        -0.21742
|104>    H        7.47025       -23.84202        -2.65131
|105>    H        3.97955       -26.12967         0.11663
|106>    H        8.78352       -26.32143        -2.58227
|107> *
|108>
|109>                          ****END OF INPUT****

CARTESIAN COORDINATES (ANGSTROEM)
---------------------------------
  C     14.178590   -5.300200   -2.235700
  C     13.680600   -6.542880   -2.261050
  C     14.408730   -7.781230   -2.247320
  C     13.633550   -8.885480   -2.271820
  C     12.233120   -8.618420   -2.304030
  S     11.944740   -6.890270   -2.314150
  C     11.211380   -9.532320   -2.321010
  C     11.294540  -10.949110   -2.288900
  C     10.093460  -11.574380   -2.300660
  C      8.968410  -10.695480   -2.334960
  S      9.529180   -9.028690   -2.368810
  C      7.673660  -11.108090   -2.414860
  N      6.538430  -10.339440   -2.411570
  C      6.336600   -9.127860   -1.837340
  S      7.275490   -8.581870   -0.488640
  C      6.279370   -7.161300   -0.387840
  N      6.593500   -6.229990    0.596890
  O      5.905680   -5.224480    0.675160
  O      7.544190   -6.492140    1.320500
  C      5.282790   -7.123360   -1.327100
  C      5.284240   -8.248110   -2.171510
  C      4.375690   -8.501200   -3.242950
  C      3.413910   -7.647410   -3.681890
  C      2.494400   -7.899370   -4.723960
  C      2.210620   -9.070820   -5.376090
  C      1.257620   -9.200810   -6.422540
  C      1.086000  -10.463960   -6.890840
  C      1.887720  -11.433570   -6.241750
  S      2.890920  -10.657540   -5.029620
  C      1.917060  -12.789900   -6.459560
  C      1.186320  -13.527120   -7.426380
  C      1.401230  -14.863640   -7.384330
  C      2.321050  -15.290210   -6.378030
  S      2.906390  -13.876020   -5.499120
  C      2.606820  -16.581570   -6.070450
  C      3.478260  -17.081290   -5.044160
  C      4.704180  -16.653170   -4.710340
  C      5.493010  -15.632880   -5.462900
  C      5.439730  -17.272500   -3.540640
  N      4.557690  -17.783550   -2.526870
  C      4.430750  -19.067380   -2.206230
  C      3.506890  -19.532700   -1.306860
  C      3.311560  -20.854970   -0.892590
  C      3.981270  -22.037540   -1.144360
  C      3.550440  -23.306360   -0.586830
  C      2.355860  -23.592130    0.028830
  C      2.015750  -24.860810    0.541000
  N      1.672300  -25.861460    0.988500
  C      1.272030  -22.709070    0.212320
  N      0.327310  -22.078320    0.388950
  C      4.593840  -24.293710   -0.850460
  C      5.600180  -23.676660   -1.627740
  C      5.238600  -22.264630   -1.867990
  O      5.901040  -21.491020   -2.542250
  C      6.722330  -24.341870   -2.055830
  C      6.862180  -25.685110   -1.691180
  C      5.854270  -26.293020   -0.908150
  C      4.716090  -25.619480   -0.480590
  S      6.228080  -27.955820   -0.563940
  C      7.712850  -27.811560   -1.466320
  C      7.920560  -26.584300   -1.998140
  Br     8.851040  -29.295610   -1.620510
  H     15.241070   -5.134700   -2.202050
  H     13.541280   -4.435030   -2.244080
  H     15.483940   -7.783050   -2.216990
  H     14.010090   -9.893000   -2.265260
  H     12.240780  -11.457910   -2.251140
  H      9.960780  -12.641540   -2.275790
  H      7.488670  -12.166490   -2.540900
  H      5.734670  -10.732470   -2.887030
  H      4.589690   -6.305210   -1.386400
  H      4.495980   -9.441000   -3.761170
  H      3.338570   -6.670600   -3.225790
  H      1.903500   -7.050650   -5.045730
  H      0.724620   -8.341830   -6.791080
  H      0.396940  -10.730780   -7.671750
  H      0.524810  -13.041690   -8.121290
  H      0.931770  -15.577750   -8.037770
  H      2.035110  -17.333670   -6.601130
  H      3.082040  -17.943720   -4.517150
  H      5.095100  -15.497000   -6.464160
  H      6.531800  -15.952230   -5.536510
  H      5.472220  -14.668050   -4.955090
  H      6.091580  -16.509500   -3.097120
  H      6.074750  -18.094370   -3.887200
  H      3.910520  -17.117840   -2.123400
  H      5.122440  -19.752310   -2.678750
  H      2.828990  -18.807410   -0.871340
  H      2.471120  -20.959580   -0.217420
  H      7.470250  -23.842020   -2.651310
  H      3.979550  -26.129670    0.116630
  H      8.783520  -26.321430   -2.582270

 Total Charge           Charge          ....    0
 Multiplicity           Mult            ....    1
 Number of Electrons    NEL             ....  502
 Basis Dimension        Dim             .... 1060

ORBITAL ENERGIES
----------------

  NO   OCC          E(Eh)            E(eV)
   0   2.0000    -482.879292    -13139.8136
   1   2.0000     -88.973911     -2421.1032
   2   2.0000     -88.966886     -2420.9121
   3   2.0000     -88.955850     -2420.6117
   4   2.0000     -88.952676     -2420.5254
   5   2.0000     -88.947345     -2420.3803
   6   2.0000     -88.937394     -2420.1095
   7   2.0000     -62.557014     -1702.2629
   8   2.0000     -56.390950     -1534.4758
   9   2.0000     -56.388259     -1534.4025
  10   2.0000     -56.388219     -1534.4015
  11   2.0000     -19.222799      -523.0789
  12   2.0000     -19.222301      -523.0654
  13   2.0000     -19.207435      -522.6609
  14   2.0000     -14.634306      -398.2197
  15   2.0000     -14.481365      -394.0580
  16   2.0000     -14.474098      -393.8602
  17   2.0000     -14.400723      -391.8636
  18   2.0000     -14.398753      -391.8100
  19   2.0000     -10.358790      -281.8770
  20   2.0000     -10.357341      -281.8376
  21   2.0000     -10.350723      -281.6575
  22   2.0000     -10.339593      -281.3546
  23   2.0000     -10.335234      -281.2360
  24   2.0000     -10.330811      -281.1157
  25   2.0000     -10.328447      -281.0513
  26   2.0000     -10.325969      -280.9839
  27   2.0000     -10.322374      -280.8861
  28   2.0000     -10.318284      -280.7748
  29   2.0000     -10.317495      -280.7533
  30   2.0000     -10.316629      -280.7297
  31   2.0000     -10.315193      -280.6907
  32   2.0000     -10.312591      -280.6199
  33   2.0000     -10.312010      -280.6041
  34   2.0000     -10.310390      -280.5600
  35   2.0000     -10.307948      -280.4935
  36   2.0000     -10.306305      -280.4488
  37   2.0000     -10.305960      -280.4394
  38   2.0000     -10.304971      -280.4125
  39   2.0000     -10.303253      -280.3658
  40   2.0000     -10.297479      -280.2087
  41   2.0000     -10.297478      -280.2086
  42   2.0000     -10.296959      -280.1945
  43   2.0000     -10.295286      -280.1490
  44   2.0000     -10.295070      -280.1431
  45   2.0000     -10.294007      -280.1142
  46   2.0000     -10.291862      -280.0558
  47   2.0000     -10.291649      -280.0500
  48   2.0000     -10.291065      -280.0341
  49   2.0000     -10.290721      -280.0247
  50   2.0000     -10.289852      -280.0011
  51   2.0000     -10.289823      -280.0003
  52   2.0000     -10.289760      -279.9986
  53   2.0000     -10.289201      -279.9834
  54   2.0000     -10.288503      -279.9644
  55   2.0000     -10.288386      -279.9612
  56   2.0000     -10.287402      -279.9345
  57   2.0000     -10.285421      -279.8805
  58   2.0000     -10.285359      -279.8788
  59   2.0000     -10.283601      -279.8310
  60   2.0000     -10.280299      -279.7412
  61   2.0000     -10.279996      -279.7329
  62   2.0000     -10.278412      -279.6898
  63   2.0000     -10.275337      -279.6061
  64   2.0000     -10.272343      -279.5247
  65   2.0000     -10.269960      -279.4598
  66   2.0000      -8.786447      -239.0914
  67   2.0000      -8.068999      -219.5686
  68   2.0000      -8.062892      -219.4024
  69   2.0000      -8.051397      -219.0897
  70   2.0000      -8.048568      -219.0127
  71   2.0000      -8.043290      -218.8691
  72   2.0000      -8.034227      -218.6224
  73   2.0000      -6.622688      -180.2125
  74   2.0000      -6.608192      -179.8180
  75   2.0000      -6.608043      -179.8140
  76   2.0000      -6.038579      -164.3181
  77   2.0000      -6.034119      -164.1967
  78   2.0000      -6.032594      -164.1552
  79   2.0000      -6.030591      -164.1007
  80   2.0000      -6.028319      -164.0389
  81   2.0000      -6.024092      -163.9239
  82   2.0000      -6.021153      -163.8439
  83   2.0000      -6.018406      -163.7692
  84   2.0000      -6.017212      -163.7367
  85   2.0000      -6.014399      -163.6601
  86   2.0000      -6.013146      -163.6260
  87   2.0000      -6.012388      -163.6054
  88   2.0000      -6.009336      -163.5224
  89   2.0000      -6.008993      -163.5130
  90   2.0000      -6.004070      -163.3791
  91   2.0000      -6.003970      -163.3763
  92   2.0000      -6.000140      -163.2721
  93   2.0000      -5.994676      -163.1234
  94   2.0000      -2.738588       -74.5208
  95   2.0000      -2.734496       -74.4094
  96   2.0000      -2.734365       -74.4058
  97   2.0000      -2.722850       -74.0925
  98   2.0000      -2.722841       -74.0923
  99   2.0000      -1.301899       -35.4265
 100   2.0000      -1.120592       -30.4929
 101   2.0000      -1.120296       -30.4848
 102   2.0000      -1.083869       -29.4936
 103   2.0000      -1.071386       -29.1539
 104   2.0000      -1.011731       -27.5306
 105   2.0000      -1.001210       -27.2443
 106   2.0000      -1.000297       -27.2195
 107   2.0000      -0.994966       -27.0744
 108   2.0000      -0.990437       -26.9512
 109   2.0000      -0.979163       -26.6444
 110   2.0000      -0.979126       -26.6434
 111   2.0000      -0.976441       -26.5703
 112   2.0000      -0.968757       -26.3612
 113   2.0000      -0.934855       -25.4387
 114   2.0000      -0.930303       -25.3148
 115   2.0000      -0.919002       -25.0073
 116   2.0000      -0.902492       -24.5581
 117   2.0000      -0.897008       -24.4088
 118   2.0000      -0.894470       -24.3398
 119   2.0000      -0.884823       -24.0773
 120   2.0000      -0.877161       -23.8688
 121   2.0000      -0.875156       -23.8142
 122   2.0000      -0.867693       -23.6111
 123   2.0000      -0.860883       -23.4258
 124   2.0000      -0.853160       -23.2157
 125   2.0000      -0.849388       -23.1130
 126   2.0000      -0.845850       -23.0167
 127   2.0000      -0.833736       -22.6871
 128   2.0000      -0.830454       -22.5978
 129   2.0000      -0.825499       -22.4630
 130   2.0000      -0.821434       -22.3523
 131   2.0000      -0.818874       -22.2827
 132   2.0000      -0.807036       -21.9606
 133   2.0000      -0.795888       -21.6572
 134   2.0000      -0.788864       -21.4661
 135   2.0000      -0.775608       -21.1054
 136   2.0000      -0.758144       -20.6302
 137   2.0000      -0.753030       -20.4910
 138   2.0000      -0.746825       -20.3221
 139   2.0000      -0.735583       -20.0162
 140   2.0000      -0.721904       -19.6440
 141   2.0000      -0.712935       -19.4000
 142   2.0000      -0.705185       -19.1891
 143   2.0000      -0.691299       -18.8112
 144   2.0000      -0.687431       -18.7059
 145   2.0000      -0.682618       -18.5750
 146   2.0000      -0.677123       -18.4255
 147   2.0000      -0.670200       -18.2371
 148   2.0000      -0.662319       -18.0226
 149   2.0000      -0.655346       -17.8329
 150   2.0000      -0.648836       -17.6557
 151   2.0000      -0.646866       -17.6021
 152   2.0000      -0.637460       -17.3462
 153   2.0000      -0.628195       -17.0940
 154   2.0000      -0.627336       -17.0707
 155   2.0000      -0.621978       -16.9249
 156   2.0000      -0.621435       -16.9101
 157   2.0000      -0.620434       -16.8829
 158   2.0000      -0.618475       -16.8296
 159   2.0000      -0.615507       -16.7488
 160   2.0000      -0.612089       -16.6558
 161   2.0000      -0.606908       -16.5148
 162   2.0000      -0.603184       -16.4135
 163   2.0000      -0.598159       -16.2767
 164   2.0000      -0.592421       -16.1206
 165   2.0000      -0.586388       -15.9564
 166   2.0000      -0.582722       -15.8567
 167   2.0000      -0.578582       -15.7440
 168   2.0000      -0.575481       -15.6596
 169   2.0000      -0.566485       -15.4149
 170   2.0000      -0.562748       -15.3132
 171   2.0000      -0.560661       -15.2564
 172   2.0000      -0.550253       -14.9731
 173   2.0000      -0.547959       -14.9107
 174   2.0000      -0.541670       -14.7396
 175   2.0000      -0.538512       -14.6537
 176   2.0000      -0.537389       -14.6231
 177   2.0000      -0.529803       -14.4167
 178   2.0000      -0.528486       -14.3808
 179   2.0000      -0.527577       -14.3561
 180   2.0000      -0.521505       -14.1909
 181   2.0000      -0.517575       -14.0839
 182   2.0000      -0.516352       -14.0506
 183   2.0000      -0.515398       -14.0247
 184   2.0000      -0.510359       -13.8876
 185   2.0000      -0.509639       -13.8680
 186   2.0000      -0.507190       -13.8013
 187   2.0000      -0.503621       -13.7042
 188   2.0000      -0.501685       -13.6515
 189   2.0000      -0.498876       -13.5751
 190   2.0000      -0.497558       -13.5392
 191   2.0000      -0.495723       -13.4893
 192   2.0000      -0.493264       -13.4224
 193   2.0000      -0.492441       -13.4000
 194   2.0000      -0.491212       -13.3666
 195   2.0000      -0.484926       -13.1955
 196   2.0000      -0.484460       -13.1828
 197   2.0000      -0.481250       -13.0955
 198   2.0000      -0.479981       -13.0609
 199   2.0000      -0.476273       -12.9601
 200   2.0000      -0.470044       -12.7906
 201   2.0000      -0.468719       -12.7545
 202   2.0000      -0.465134       -12.6569
 203   2.0000      -0.463096       -12.6015
 204   2.0000      -0.461427       -12.5561
 205   2.0000      -0.454897       -12.3784
 206   2.0000      -0.453450       -12.3390
 207   2.0000      -0.450312       -12.2536
 208   2.0000      -0.445900       -12.1336
 209   2.0000      -0.443502       -12.0683
 210   2.0000      -0.440013       -11.9733
 211   2.0000      -0.437082       -11.8936
 212   2.0000      -0.434636       -11.8270
 213   2.0000      -0.433965       -11.8088
 214   2.0000      -0.433140       -11.7863
 215   2.0000      -0.432164       -11.7598
 216   2.0000      -0.430186       -11.7060
 217   2.0000      -0.428416       -11.6578
 218   2.0000      -0.426851       -11.6152
 219   2.0000      -0.424640       -11.5551
 220   2.0000      -0.415205       -11.2983
 221   2.0000      -0.412785       -11.2324
 222   2.0000      -0.408209       -11.1079
 223   2.0000      -0.405281       -11.0282
 224   2.0000      -0.404126       -10.9968
 225   2.0000      -0.400734       -10.9045
 226   2.0000      -0.392100       -10.6696
 227   2.0000      -0.387229       -10.5370
 228   2.0000      -0.382138       -10.3985
 229   2.0000      -0.381092       -10.3700
 230   2.0000      -0.372130       -10.1262
 231   2.0000      -0.371599       -10.1117
 232   2.0000      -0.368877       -10.0376
 233   2.0000      -0.364567        -9.9204
 234   2.0000      -0.359019        -9.7694
 235   2.0000      -0.351392        -9.5618
 236   2.0000      -0.346782        -9.4364
 237   2.0000      -0.341202        -9.2846
 238   2.0000      -0.339964        -9.2509
 239   2.0000      -0.335475        -9.1287
 240   2.0000      -0.332258        -9.0412
 241   2.0000      -0.330527        -8.9941
 242   2.0000      -0.325657        -8.8616
 243   2.0000      -0.312864        -8.5135
 244   2.0000      -0.306524        -8.3409
 245   2.0000      -0.298849        -8.1321
 246   2.0000      -0.285320        -7.7640
 247   2.0000      -0.275664        -7.5012
 248   2.0000      -0.263021        -7.1572
 249   2.0000      -0.231090        -6.2883
 250   2.0000      -0.213403        -5.8070
 251   0.0000      -0.080995        -2.2040
 252   0.0000      -0.068260        -1.8574
 253   0.0000      -0.062261        -1.6942
 254   0.0000      -0.044902        -1.2219
 255   0.0000      -0.033621        -0.9149

MULLIKEN ATOMIC CHARGES
-----------------------
   0 C :   -0.026932
   1 C :   -0.064600
   2 C :    0.051163
   3 C :    0.030767
   4 C :   -0.063698
   5 S :    0.084633
   6 C :   -0.061249
   7 C :    0.033542
   8 C :    0.028321
   9 C :   -0.053418
  10 S :    0.092575
  11 C :   -0.002095
  12 N :   -0.027104
  13 C :   -0.130347
  14 S :    0.201019
  15 C :   -0.026519
  16 N :    0.280010
  17 O :   -0.262707
  18 O :   -0.272563
  19 C :    0.002345
  20 C :    0.128929
  21 C :   -0.033022
  22 C :    0.008419
  23 C :   -0.003223
  24 C :   -0.021690
  25 C :    0.042225
  26 C :    0.022545
  27 C :   -0.033549
  28 S :    0.027698
  29 C :   -0.059837
  30 C :    0.033904
  31 C :    0.038089
  32 C :   -0.024385
  33 S :    0.057706
  34 C :   -0.040762
  35 C :   -0.009058
  36 C :   -0.247174
  37 C :    0.095593
  38 C :    0.217577
  39 N :   -0.119054
  40 C :    0.088126
  41 C :   -0.067351
  42 C :    0.023328
  43 C :   -0.107059
  44 C :    0.314529
  45 C :   -0.376991
  46 C :   -0.185263
  47 N :    0.137512
  48 C :   -0.200888
  49 N :    0.145687
  50 C :    0.008068
  51 C :    0.004202
  52 C :    0.155392
  53 O :   -0.199094
  54 C :   -0.085737
  55 C :    0.120780
  56 C :   -0.092455
  57 C :   -0.024470
  58 S :    0.181481
  59 C :   -0.123330
  60 C :    0.035162
  61 Br:    0.014906
  62 H :    0.021057
  63 H :    0.024802
  64 H :   -0.009400
  65 H :   -0.012999
  66 H :   -0.015685
  67 H :   -0.016821
  68 H :    0.001555
  69 H :    0.151496
  70 H :    0.005691
  71 H :   -0.033060
  72 H :   -0.016922
  73 H :   -0.012557
  74 H :   -0.010144
  75 H :   -0.012497
  76 H :   -0.010772
  77 H :   -0.008580
  78 H :    0.000861
  79 H :    0.002181
  80 H :    0.036880
  81 H :    0.018416
  82 H :    0.029010
  83 H :    0.017829
  84 H :    0.055165
  85 H :    0.130201
  86 H :    0.046762
  87 H :   -0.021115
  88 H :    0.012117
  89 H :   -0.018795
  90 H :   -0.007645
  91 H :   -0.007637
Sum of atomic charges:   -0.0000000

LOEWDIN ATOMIC CHARGES
----------------------
   0 C :   -0.072286
   1 C :   -0.139743
   2 C :   -0.028225
   3 C :   -0.027424
   4 C :   -0.174919
   5 S :    0.354248
   6 C :   -0.185259
   7 C :   -0.036900
   8 C :   -0.035375
   9 C :   -0.189327
  10 S :    0.370447
  11 C :   -0.036199
  12 N :    0.038231
  13 C :   -0.120921
  14 S :    0.480186
  15 C :   -0.216423
  16 N :    0.274257
  17 O :   -0.228461
  18 O :   -0.239499
  19 C :   -0.001143
  20 C :   -0.103982
  21 C :   -0.030319
  22 C :   -0.039715
  23 C :   -0.052755
  24 C :   -0.147105
  25 C :   -0.024433
  26 C :   -0.042044
  27 C :   -0.175117
  28 S :    0.360173
  29 C :   -0.180460
  30 C :   -0.030403
  31 C :   -0.031078
  32 C :   -0.142222
  33 S :    0.365559
  34 C :   -0.065133
  35 C :   -0.058972
  36 C :   -0.048727
  37 C :   -0.057576
  38 C :    0.046726
  39 N :    0.054837
  40 C :    0.107340
  41 C :   -0.141102
  42 C :    0.077535
  43 C :   -0.139713
  44 C :    0.081170
  45 C :   -0.160354
  46 C :   -0.018264
  47 N :   -0.069003
  48 C :   -0.025700
  49 N :   -0.065873
  50 C :   -0.020071
  51 C :   -0.048106
  52 C :    0.087318
  53 O :   -0.177789
  54 C :    0.015136
  55 C :   -0.036480
  56 C :   -0.146187
  57 C :   -0.011864
  58 S :    0.428087
  59 C :   -0.274693
  60 C :   -0.071979
  61 Br:    0.129753
  62 H :    0.029156
  63 H :    0.027703
  64 H :    0.034013
  65 H :    0.031817
  66 H :    0.031352
  67 H :    0.030383
  68 H :    0.028910
  69 H :    0.096844
  70 H :    0.042039
  71 H :    0.000965
  72 H :    0.029733
  73 H :    0.036106
  74 H :    0.034865
  75 H :    0.032098
  76 H :    0.033174
  77 H :    0.034508
  78 H :    0.036172
  79 H :    0.030422
  80 H :    0.035856
  81 H :    0.031767
  82 H :    0.025627
  83 H :    0.028588
  84 H :    0.047716
  85 H :    0.087429
  86 H :    0.030817
  87 H :    0.027462
  88 H :    0.048385
  89 H :    0.037101
  90 H :    0.040390
  91 H :    0.036919

  Mayer bond orders larger than 0.100000
B(  0-C ,  1-C ) :   1.8694 B(  0-C , 62-H ) :   0.9508 B(  0-C , 63-H ) :   0.9416
B(  1-C ,  2-C ) :   1.0767 B(  1-C ,  5-S ) :   1.0066 B(  2-C ,  3-C ) :   1.6685
B(  2-C , 64-H ) :   0.9931 B(  3-C ,  4-C ) :   1.1450 B(  3-C , 65-H ) :   0.9925
B(  4-C ,  5-S ) :   1.0462 B(  4-C ,  6-C ) :   1.5788 B(  6-C ,  7-C ) :   1.1547
B(  6-C , 10-S ) :   1.0261 B(  7-C ,  8-C ) :   1.6465 B(  7-C , 66-H ) :   0.9922
B(  8-C ,  9-C ) :   1.1195 B(  8-C , 67-H ) :   0.9965 B(  9-C , 10-S ) :   1.0288
B(  9-C , 11-C ) :   1.6371 B( 11-C , 12-N ) :   1.1235 B( 11-C , 68-H ) :   0.9589
B( 12-N , 13-C ) :   1.2165 B( 12-N , 69-H ) :   0.9125 B( 13-C , 14-S ) :   1.1410
B( 13-C , 20-C ) :   1.3111 B( 14-S , 15-C ) :   1.0754 B( 15-C , 16-N ) :   0.9861
B( 15-C , 19-C ) :   1.4697 B( 16-N , 17-O ) :   1.5196 B( 16-N , 18-O ) :   1.5039
B( 17-O , 18-O ) :   0.2515 B( 19-C , 20-C ) :   1.2460 B( 19-C , 70-H ) :   0.9985
B( 20-C , 21-C ) :   1.1255 B( 21-C , 22-C ) :   1.6621 B( 21-C , 71-H ) :   0.9385
B( 22-C , 23-C ) :   1.1862 B( 22-C , 72-H ) :   0.9674 B( 23-C , 24-C ) :   1.5950
B( 23-C , 73-H ) :   0.9597 B( 24-C , 25-C ) :   1.1413 B( 24-C , 28-S ) :   1.0209
B( 25-C , 26-C ) :   1.6044 B( 25-C , 74-H ) :   0.9983 B( 26-C , 27-C ) :   1.1701
B( 26-C , 75-H ) :   0.9930 B( 27-C , 28-S ) :   1.0335 B( 27-C , 29-C ) :   1.5516
B( 29-C , 30-C ) :   1.1621 B( 29-C , 33-S ) :   1.0322 B( 30-C , 31-C ) :   1.6327
B( 30-C , 76-H ) :   0.9929 B( 31-C , 32-C ) :   1.1060 B( 31-C , 77-H ) :   0.9971
B( 32-C , 33-S ) :   1.0236 B( 32-C , 34-C ) :   1.6990 B( 34-C , 35-C ) :   1.0730
B( 34-C , 78-H ) :   0.9492 B( 35-C , 36-C ) :   1.8361 B( 35-C , 79-H ) :   0.9428
B( 36-C , 37-C ) :   1.0923 B( 36-C , 38-C ) :   1.0044 B( 37-C , 80-H ) :   0.9502
B( 37-C , 81-H ) :   0.9488 B( 37-C , 82-H ) :   0.9334 B( 38-C , 39-N ) :   1.0063
B( 38-C , 83-H ) :   0.9408 B( 38-C , 84-H ) :   0.9217 B( 39-N , 40-C ) :   1.3456
B( 39-N , 85-H ) :   0.9330 B( 40-C , 41-C ) :   1.4261 B( 40-C , 86-H ) :   0.9145
B( 41-C , 42-C ) :   1.3939 B( 41-C , 87-H ) :   0.9543 B( 42-C , 43-C ) :   1.4307
B( 42-C , 88-H ) :   0.9328 B( 43-C , 44-C ) :   1.1201 B( 43-C , 52-C ) :   0.9846
B( 44-C , 45-C ) :   1.5889 B( 44-C , 50-C ) :   0.9850 B( 45-C , 46-C ) :   1.1517
B( 45-C , 48-C ) :   1.1440 B( 46-C , 47-N ) :   2.9649 B( 48-C , 49-N ) :   2.9815
B( 50-C , 51-C ) :   1.2829 B( 50-C , 57-C ) :   1.4183 B( 51-C , 52-C ) :   0.9622
B( 51-C , 54-C ) :   1.4247 B( 52-C , 53-O ) :   2.0849 B( 53-O , 86-H ) :   0.1367
B( 54-C , 55-C ) :   1.2374 B( 54-C , 89-H ) :   1.0174 B( 55-C , 56-C ) :   1.3168
B( 55-C , 60-C ) :   1.1599 B( 56-C , 57-C ) :   1.3212 B( 56-C , 58-S ) :   1.0835
B( 57-C , 90-H ) :   0.9797 B( 58-S , 59-C ) :   1.0860 B( 59-C , 60-C ) :   1.6216
B( 59-C , 61-Br) :   1.0139 B( 60-C , 91-H ) :   0.9996

-----------------------------------------------------------------------------
         ABSORPTION SPECTRUM VIA TRANSITION ELECTRIC DIPOLE MOMENTS
-----------------------------------------------------------------------------
State   Energy  Wavelength   fosc         T2         TX        TY        TZ
        (cm-1)    (nm)                  (au**2)     (au)      (au)      (au)
-----------------------------------------------------------------------------
   0   15070.7    663.5   1.068593381  23.34289  -3.01742  -3.47485  -1.47089
   1   18887.5    529.4   0.414500221   7.22479  -2.36169   0.70171   1.07463
   2   20124.1    496.9   0.487744970   7.97905  -0.92757   2.62223   0.49249
   3   22653.4    441.4   0.068754870   0.99918  -0.02593   0.73842  -0.67324
   4   23381.7    427.7   0.075173247   1.05843   0.22943   0.93564  -0.36108
   5   24733.5    404.3   0.621718062   8.27530   1.28403   2.46786  -0.73227
   6   24913.9    401.4   0.235288154   3.10909  -1.45738  -0.32984  -0.93613
   7   26258.7    380.8   0.018415852   0.23088  -0.38765  -0.21179  -0.18909
   8   26966.4    370.8   0.040650311   0.49627  -0.34156   0.54919  -0.27927
   9   27548.6    363.0   0.281842482   3.36808   0.36402  -1.69136   0.61226
  10   28311.4    353.2   0.077599571   0.90235  -0.26852   0.83426  -0.36640
  11   28824.4    346.9   0.064227887   0.73357   0.62895  -0.24804   0.52580
  12   29166.7    342.9   0.305107072   3.44382  -0.35555   1.74792  -0.51202
  13   29635.6    337.4   0.293346167   3.25869   1.10133  -1.24809   0.69858
  14   30578.9    327.0   0.651996319   7.01938   1.70499  -1.99518  -0.36283
  15   31154.1    321.0   0.304504227   3.21776   0.68256   1.39487   0.89789
  16   31868.4    313.8   0.105795921   1.09291  -0.87576   0.56751   0.06230
  17   32130.9    311.2   0.085203439   0.87299  -0.40153   0.77795   0.32642
  18   32326.9    309.3   0.189083261   1.92559  -0.39561   1.32984  -0.02495
  19   32438.4    308.3   0.028839491   0.29269   0.16901   0.51381   0.01088
  20   33029.0    302.8   0.183537798   1.82939  -0.82023  -0.29638  -1.03381
  21   33864.4    295.3   0.012473030   0.12126  -0.02247   0.27871   0.20754
  22   34019.8    293.9   0.015260662   0.14768  -0.11146   0.36180  -0.06600
  23   34250.9    292.0   0.005146927   0.04947  -0.00807  -0.20065  -0.09563
  24   34403.1    290.7   0.003405089   0.03258   0.06301   0.11292   0.12594
  25   34836.4    287.1   0.051860738   0.49010  -0.11733  -0.05960  -0.68759
  26   34954.8    286.1   0.228085585   2.14816  -1.21267   0.18948   0.80106
  27   34968.3    286.0   0.123679732   1.16439  -1.06826  -0.02044   0.15101
  28   35451.1    282.1   0.175746790   1.63205   1.00906  -0.46255   0.63237
  29   35618.0    280.8   0.009244398   0.08544  -0.10967  -0.01393  -0.27060
  30   36386.9    274.8   0.004626437   0.04186   0.16960  -0.07529   0.08616
  31   36731.7    272.2   0.010103231   0.09055  -0.08959  -0.03722   0.28485
  32   36968.8    270.5   0.038191146   0.34010  -0.44342  -0.23585  -0.29640
  33   37160.9    269.1   0.006359537   0.05634  -0.08079   0.13551  -0.17734
  34   37457.2    267.0   0.040375147   0.35486   0.18805   0.38001   0.41843
  35   38545.5    259.4   0.041242217   0.35224  -0.43727  -0.25097  -0.31314
  36   38953.1    256.7   0.006924178   0.05852   0.01767   0.01461   0.24082
  37   39076.5    255.9   0.017574433   0.14806  -0.34015  -0.16942   0.06046
  38   39741.8    251.6   0.242137560   2.00581  -0.04587  -1.35087   0.42290

FINAL SINGLE POINT ENERGY     -7267.681877502022

DIPOLE MOMENT
-------------
                                X             Y             Z
Electronic contribution:     30.27432    -176.43260      36.17891
Nuclear contribution   :    -28.19027     177.42727     -40.19345
                        -----------------------------------------
Total Dipole Moment    :      2.08405       0.99467      -4.01454
                        -----------------------------------------
Magnitude (a.u.)       :      4.63132
Magnitude (Debye)      :     11.77188

Rotational constants in cm-1:     0.001060     0.000258     0.000226
Rotational constants in MHz :    31.764336     7.730346     6.766829

                             ****ORCA TERMINATED NORMALLY****
TOTAL RUN TIME: 0 days 0 hours 7 minutes 16 seconds 79 msec
