                         Program Version 4.2.0 -  RELEASE  -
|  1> # ORCA input file
|  2> # SCF done       -188.133988723825          0.000351411878
|  3> ! CAM-B3LYP def2-SVP def2/J RIJCOSX Grid4 TightSCF
|  4> %maxcore 5000
|  5> %tddft
|  6>     Mode sTDDFT
|  7>     Ethresh 5.0
|  8>     maxcore 5000
|  9> end
| 10>
| 11> %pal
| 12>   nprocs 6
| 13>   end
| 14> * xyz 0 1
| 15>    C        6.99502        -1.33037        -4.59946
| 16>    C        5.72649        -1.64277        -4.40334
| 17>    C        4.79172        -2.24121        -5.42984
| 18>    C        5.37231        -3.42727        -6.14427
| 19>    C        4.97146        -4.55441        -5.58365
| 20>    C        4.08334        -4.29641        -4.40313
| 21>    C        3.63892        -2.83846        -4.59550
| 22>    C        3.53775        -1.95920        -3.33987
| 23>    C        3.15264        -2.65137        -2.01917
| 24>    C        4.41688        -2.61250        -1.18926
| 25>    C        4.44736        -2.98934         0.23750
| 26>    C        4.75221        -4.23638         0.73010
| 27>    C        4.91761        -5.49440         0.07345
| 28>    S        4.18709        -5.79776        -1.45870
| 29>    C        4.57405        -7.48156        -1.44785
| 30>    C        4.56052        -8.24889        -2.68211
| 31>    C        5.76252        -8.67524        -3.18277
| 32>    C        7.06631        -8.56643        -2.53248
| 33>    C        7.75914        -7.44440        -2.38112
| 34>    C        9.02400        -7.32595        -1.56836
| 35>    C       10.11020        -8.25009        -2.03363
| 36>    C       11.04513        -7.60110        -2.70313
| 37>    C       10.75670        -6.13583        -2.81291
| 38>    C        9.57340        -5.90868        -1.84829
| 39>    C        8.38250        -5.08643        -2.37916
| 40>    C        8.71359        -4.12417        -3.52700
| 41>    C        8.46006        -4.95704        -4.74933
| 42>    C        7.75917        -6.04250        -4.47062
| 43>    C        7.43024        -6.12312        -3.00235
| 44>    S        5.60758        -9.47420        -4.71530
| 45>    C        3.87346        -9.25695        -4.69174
| 46>    C        3.02740        -9.72725        -5.67910
| 47>    C        3.55314       -10.46604        -6.87306
| 48>    C        3.54203       -11.97465        -6.61958
| 49>    C        1.65963        -9.54608        -5.45946
| 50>    C        0.56182        -9.95947        -6.27478
| 51>    C       -0.63582        -9.67225        -5.72923
| 52>    S       -0.52351        -8.87948        -4.19566
| 53>    C        1.22142        -8.92286        -4.26953
| 54>    C        2.06952        -8.44128        -3.28270
| 55>    C        1.48411        -7.84073        -2.03940
| 56>    C        0.96657        -6.42278        -2.28402
| 57>    C        3.44044        -8.58890        -3.51895
| 58>    C        5.21749        -7.81371        -0.26267
| 59>    C        5.56011        -9.10651         0.22813
| 60>    C        4.96584       -10.35488        -0.35940
| 61>    F        4.86690       -11.33052         0.56404
| 62>    F        3.71863       -10.17181        -0.82297
| 63>    F        5.66450       -10.90570        -1.37066
| 64>    C        6.33472        -9.21926         1.34978
| 65>    C        6.77088        -8.07422         2.04377
| 66>    C        6.31914        -6.83492         1.69916
| 67>    C        5.48497        -6.67431         0.57220
| 68>    S        4.81593        -4.26467         2.48576
| 69>    C        4.45981        -2.56868         2.56781
| 70>    C        4.40366        -1.88204         3.76685
| 71>    C        4.60159        -2.58303         5.07718
| 72>    C        3.26227        -3.05775         5.64343
| 73>    C        4.10876        -0.52125         3.68577
| 74>    C        3.99435         0.43945         4.73518
| 75>    C        3.69167         1.67286         4.28531
| 76>    S        3.51561         1.75716         2.56759
| 77>    C        3.86948         0.04990         2.41669
| 78>    C        3.91014        -0.64236         1.21412
| 79>    C        3.50978         0.11420        -0.01883
| 80>    C        1.98580         0.25325        -0.09036
| 81>    C        4.25310        -2.00592         1.27965
| 82>    C        5.41802        -2.03186        -1.84665
| 83>    C        4.96165        -1.39700        -3.13035
| 84>    H        7.48581        -1.50901        -5.54036
| 85>    H        7.59190        -0.87204        -3.82791
| 86>    H        4.45979        -1.45728        -6.11780
| 87>    H        6.03966        -3.32324        -6.98075
| 88>    H        5.24857        -5.55213        -5.87352
| 89>    H        4.68629        -4.38651        -3.49756
| 90>    H        3.25152        -4.99824        -4.34183
| 91>    H        2.69967        -2.82538        -5.15386
| 92>    H        2.83629        -1.14885        -3.55380
| 93>    H        2.81421        -3.67532        -2.17408
| 94>    H        2.34291        -2.12441        -1.51416
| 95>    H        7.45620        -9.49301        -2.13052
| 96>    H        8.77937        -7.48456        -0.51218
| 97>    H       10.06993        -9.30811        -1.84526
| 98>    H       11.91598        -8.03547        -3.16363
| 99>    H       10.48992        -5.90814        -3.84657
|100>    H       11.62364        -5.52857        -2.54744
|101>    H        9.95575        -5.45881        -0.92903
|102>    H        7.90968        -4.56646        -1.54239
|103>    H        9.72910        -3.73195        -3.47417
|104>    H        8.02528        -3.27428        -3.52549
|105>    H        8.79864        -4.65185        -5.72456
|106>    H        7.43245        -6.80131        -5.15896
|107>    H        6.37519        -5.86918        -2.86504
|108>    H        4.57748       -10.14300        -7.07260
|109>    H        2.94599       -10.23600        -7.75029
|110>    H        4.16484       -12.21454        -5.76106
|111>    H        3.92597       -12.50721        -7.48635
|112>    H        2.53045       -12.31932        -6.41679
|113>    H        0.67544       -10.45393        -7.22243
|114>    H       -1.61047        -9.87550        -6.12869
|115>    H        2.22647        -7.84155        -1.24205
|116>    H        0.64857        -8.46738        -1.71671
|117>    H        1.75626        -5.79059        -2.68307
|118>    H        0.60768        -5.98707        -1.35484
|119>    H        0.14727        -6.43663        -2.99841
|120>    H        6.59868       -10.19521         1.72703
|121>    H        7.42957        -8.19752         2.88878
|122>    H        6.61495        -5.97272         2.27372
|123>    H        5.08365        -1.91140         5.78899
|124>    H        5.25391        -3.44683         4.92783
|125>    H        2.59396        -2.21345         5.79774
|126>    H        3.41155        -3.56366         6.59409
|127>    H        2.78783        -3.75119         4.95304
|128>    H        4.13485         0.20755         5.77527
|129>    H        3.55060         2.56924         4.85747
|130>    H        3.87450        -0.37678        -0.91191
|131>    H        3.94945         1.11439         0.02739
|132>    H        1.69746         0.73780        -1.02009
|133>    H        1.61549         0.85212         0.73762
|134>    H        1.50683        -0.72251        -0.04043
|135>    H        6.41553        -1.88543        -1.46905
|136>    H        4.94746        -0.31034        -2.95757
|137> *
|138>
|139>                          ****END OF INPUT****

CARTESIAN COORDINATES (ANGSTROEM)
---------------------------------
  C      6.995020   -1.330370   -4.599460
  C      5.726490   -1.642770   -4.403340
  C      4.791720   -2.241210   -5.429840
  C      5.372310   -3.427270   -6.144270
  C      4.971460   -4.554410   -5.583650
  C      4.083340   -4.296410   -4.403130
  C      3.638920   -2.838460   -4.595500
  C      3.537750   -1.959200   -3.339870
  C      3.152640   -2.651370   -2.019170
  C      4.416880   -2.612500   -1.189260
  C      4.447360   -2.989340    0.237500
  C      4.752210   -4.236380    0.730100
  C      4.917610   -5.494400    0.073450
  S      4.187090   -5.797760   -1.458700
  C      4.574050   -7.481560   -1.447850
  C      4.560520   -8.248890   -2.682110
  C      5.762520   -8.675240   -3.182770
  C      7.066310   -8.566430   -2.532480
  C      7.759140   -7.444400   -2.381120
  C      9.024000   -7.325950   -1.568360
  C     10.110200   -8.250090   -2.033630
  C     11.045130   -7.601100   -2.703130
  C     10.756700   -6.135830   -2.812910
  C      9.573400   -5.908680   -1.848290
  C      8.382500   -5.086430   -2.379160
  C      8.713590   -4.124170   -3.527000
  C      8.460060   -4.957040   -4.749330
  C      7.759170   -6.042500   -4.470620
  C      7.430240   -6.123120   -3.002350
  S      5.607580   -9.474200   -4.715300
  C      3.873460   -9.256950   -4.691740
  C      3.027400   -9.727250   -5.679100
  C      3.553140  -10.466040   -6.873060
  C      3.542030  -11.974650   -6.619580
  C      1.659630   -9.546080   -5.459460
  C      0.561820   -9.959470   -6.274780
  C     -0.635820   -9.672250   -5.729230
  S     -0.523510   -8.879480   -4.195660
  C      1.221420   -8.922860   -4.269530
  C      2.069520   -8.441280   -3.282700
  C      1.484110   -7.840730   -2.039400
  C      0.966570   -6.422780   -2.284020
  C      3.440440   -8.588900   -3.518950
  C      5.217490   -7.813710   -0.262670
  C      5.560110   -9.106510    0.228130
  C      4.965840  -10.354880   -0.359400
  F      4.866900  -11.330520    0.564040
  F      3.718630  -10.171810   -0.822970
  F      5.664500  -10.905700   -1.370660
  C      6.334720   -9.219260    1.349780
  C      6.770880   -8.074220    2.043770
  C      6.319140   -6.834920    1.699160
  C      5.484970   -6.674310    0.572200
  S      4.815930   -4.264670    2.485760
  C      4.459810   -2.568680    2.567810
  C      4.403660   -1.882040    3.766850
  C      4.601590   -2.583030    5.077180
  C      3.262270   -3.057750    5.643430
  C      4.108760   -0.521250    3.685770
  C      3.994350    0.439450    4.735180
  C      3.691670    1.672860    4.285310
  S      3.515610    1.757160    2.567590
  C      3.869480    0.049900    2.416690
  C      3.910140   -0.642360    1.214120
  C      3.509780    0.114200   -0.018830
  C      1.985800    0.253250   -0.090360
  C      4.253100   -2.005920    1.279650
  C      5.418020   -2.031860   -1.846650
  C      4.961650   -1.397000   -3.130350
  H      7.485810   -1.509010   -5.540360
  H      7.591900   -0.872040   -3.827910
  H      4.459790   -1.457280   -6.117800
  H      6.039660   -3.323240   -6.980750
  H      5.248570   -5.552130   -5.873520
  H      4.686290   -4.386510   -3.497560
  H      3.251520   -4.998240   -4.341830
  H      2.699670   -2.825380   -5.153860
  H      2.836290   -1.148850   -3.553800
  H      2.814210   -3.675320   -2.174080
  H      2.342910   -2.124410   -1.514160
  H      7.456200   -9.493010   -2.130520
  H      8.779370   -7.484560   -0.512180
  H     10.069930   -9.308110   -1.845260
  H     11.915980   -8.035470   -3.163630
  H     10.489920   -5.908140   -3.846570
  H     11.623640   -5.528570   -2.547440
  H      9.955750   -5.458810   -0.929030
  H      7.909680   -4.566460   -1.542390
  H      9.729100   -3.731950   -3.474170
  H      8.025280   -3.274280   -3.525490
  H      8.798640   -4.651850   -5.724560
  H      7.432450   -6.801310   -5.158960
  H      6.375190   -5.869180   -2.865040
  H      4.577480  -10.143000   -7.072600
  H      2.945990  -10.236000   -7.750290
  H      4.164840  -12.214540   -5.761060
  H      3.925970  -12.507210   -7.486350
  H      2.530450  -12.319320   -6.416790
  H      0.675440  -10.453930   -7.222430
  H     -1.610470   -9.875500   -6.128690
  H      2.226470   -7.841550   -1.242050
  H      0.648570   -8.467380   -1.716710
  H      1.756260   -5.790590   -2.683070
  H      0.607680   -5.987070   -1.354840
  H      0.147270   -6.436630   -2.998410
  H      6.598680  -10.195210    1.727030
  H      7.429570   -8.197520    2.888780
  H      6.614950   -5.972720    2.273720
  H      5.083650   -1.911400    5.788990
  H      5.253910   -3.446830    4.927830
  H      2.593960   -2.213450    5.797740
  H      3.411550   -3.563660    6.594090
  H      2.787830   -3.751190    4.953040
  H      4.134850    0.207550    5.775270
  H      3.550600    2.569240    4.857470
  H      3.874500   -0.376780   -0.911910
  H      3.949450    1.114390    0.027390
  H      1.697460    0.737800   -1.020090
  H      1.615490    0.852120    0.737620
  H      1.506830   -0.722510   -0.040430
  H      6.415530   -1.885430   -1.469050
  H      4.947460   -0.310340   -2.957570

 Total Charge           Charge          ....    0
 Multiplicity           Mult            ....    1
 Number of Electrons    NEL             ....  526
 Basis Dimension        Dim             .... 1251

ORBITAL ENERGIES
----------------

  NO   OCC          E(Eh)            E(eV)
   0   2.0000     -88.964849     -2420.8566
   1   2.0000     -88.941124     -2420.2110
   2   2.0000     -88.940731     -2420.2003
   3   2.0000     -88.936237     -2420.0780
   4   2.0000     -88.935133     -2420.0480
   5   2.0000     -24.786297      -674.4694
   6   2.0000     -24.784564      -674.4223
   7   2.0000     -24.783653      -674.3975
   8   2.0000     -10.505028      -285.8563
   9   2.0000     -10.306918      -280.4655
  10   2.0000     -10.305604      -280.4297
  11   2.0000     -10.300277      -280.2848
  12   2.0000     -10.293795      -280.1084
  13   2.0000     -10.290559      -280.0203
  14   2.0000     -10.290014      -280.0055
  15   2.0000     -10.287742      -279.9437
  16   2.0000     -10.285751      -279.8895
  17   2.0000     -10.284739      -279.8620
  18   2.0000     -10.283992      -279.8417
  19   2.0000     -10.283407      -279.8257
  20   2.0000     -10.282542      -279.8022
  21   2.0000     -10.281862      -279.7837
  22   2.0000     -10.281647      -279.7778
  23   2.0000     -10.280314      -279.7416
  24   2.0000     -10.278463      -279.6912
  25   2.0000     -10.278021      -279.6792
  26   2.0000     -10.276221      -279.6302
  27   2.0000     -10.274298      -279.5779
  28   2.0000     -10.273583      -279.5584
  29   2.0000     -10.272699      -279.5343
  30   2.0000     -10.272566      -279.5307
  31   2.0000     -10.270273      -279.4683
  32   2.0000     -10.269355      -279.4433
  33   2.0000     -10.268506      -279.4203
  34   2.0000     -10.267851      -279.4024
  35   2.0000     -10.267698      -279.3983
  36   2.0000     -10.267535      -279.3938
  37   2.0000     -10.264357      -279.3073
  38   2.0000     -10.264079      -279.2998
  39   2.0000     -10.262833      -279.2659
  40   2.0000     -10.262393      -279.2539
  41   2.0000     -10.262320      -279.2519
  42   2.0000     -10.261064      -279.2177
  43   2.0000     -10.260898      -279.2132
  44   2.0000     -10.260081      -279.1910
  45   2.0000     -10.259602      -279.1780
  46   2.0000     -10.259436      -279.1734
  47   2.0000     -10.257105      -279.1100
  48   2.0000     -10.255159      -279.0571
  49   2.0000     -10.254665      -279.0436
  50   2.0000     -10.253579      -279.0141
  51   2.0000     -10.253323      -279.0071
  52   2.0000     -10.251293      -278.9519
  53   2.0000     -10.250766      -278.9375
  54   2.0000     -10.250227      -278.9229
  55   2.0000     -10.249936      -278.9149
  56   2.0000     -10.249028      -278.8902
  57   2.0000     -10.248319      -278.8709
  58   2.0000     -10.247790      -278.8565
  59   2.0000     -10.245938      -278.8062
  60   2.0000     -10.245750      -278.8010
  61   2.0000     -10.245416      -278.7919
  62   2.0000     -10.245187      -278.7857
  63   2.0000     -10.244900      -278.7779
  64   2.0000     -10.244309      -278.7618
  65   2.0000     -10.244132      -278.7570
  66   2.0000     -10.243803      -278.7480
  67   2.0000     -10.243436      -278.7381
  68   2.0000     -10.243204      -278.7317
  69   2.0000      -8.057841      -219.2650
  70   2.0000      -8.036650      -218.6884
  71   2.0000      -8.036397      -218.6815
  72   2.0000      -8.031786      -218.5560
  73   2.0000      -8.030937      -218.5329
  74   2.0000      -6.026904      -164.0004
  75   2.0000      -6.022462      -163.8795
  76   2.0000      -6.021073      -163.8417
  77   2.0000      -6.006255      -163.4385
  78   2.0000      -6.006035      -163.4325
  79   2.0000      -6.002126      -163.3262
  80   2.0000      -6.001729      -163.3153
  81   2.0000      -6.001297      -163.3036
  82   2.0000      -6.000565      -163.2837
  83   2.0000      -5.998026      -163.2146
  84   2.0000      -5.997981      -163.2133
  85   2.0000      -5.997207      -163.1923
  86   2.0000      -5.996248      -163.1662
  87   2.0000      -5.993365      -163.0878
  88   2.0000      -5.992529      -163.0650
  89   2.0000      -1.375157       -37.4199
  90   2.0000      -1.277243       -34.7555
  91   2.0000      -1.274319       -34.6760
  92   2.0000      -1.004234       -27.3266
  93   2.0000      -0.992330       -27.0027
  94   2.0000      -0.985024       -26.8039
  95   2.0000      -0.969414       -26.3791
  96   2.0000      -0.964134       -26.2354
  97   2.0000      -0.961207       -26.1558
  98   2.0000      -0.956815       -26.0363
  99   2.0000      -0.935911       -25.4674
 100   2.0000      -0.922195       -25.0942
 101   2.0000      -0.909642       -24.7526
 102   2.0000      -0.905612       -24.6430
 103   2.0000      -0.901177       -24.5223
 104   2.0000      -0.900565       -24.5056
 105   2.0000      -0.895756       -24.3748
 106   2.0000      -0.878283       -23.8993
 107   2.0000      -0.866562       -23.5804
 108   2.0000      -0.864930       -23.5359
 109   2.0000      -0.847364       -23.0580
 110   2.0000      -0.842679       -22.9304
 111   2.0000      -0.838622       -22.8201
 112   2.0000      -0.837969       -22.8023
 113   2.0000      -0.830059       -22.5871
 114   2.0000      -0.817821       -22.2541
 115   2.0000      -0.815720       -22.1969
 116   2.0000      -0.812177       -22.1005
 117   2.0000      -0.810950       -22.0671
 118   2.0000      -0.810261       -22.0483
 119   2.0000      -0.798616       -21.7315
 120   2.0000      -0.783093       -21.3090
 121   2.0000      -0.779333       -21.2067
 122   2.0000      -0.771246       -20.9867
 123   2.0000      -0.770573       -20.9683
 124   2.0000      -0.768722       -20.9180
 125   2.0000      -0.766984       -20.8707
 126   2.0000      -0.762782       -20.7563
 127   2.0000      -0.753602       -20.5066
 128   2.0000      -0.745399       -20.2833
 129   2.0000      -0.743256       -20.2250
 130   2.0000      -0.725006       -19.7284
 131   2.0000      -0.718566       -19.5532
 132   2.0000      -0.710380       -19.3304
 133   2.0000      -0.702361       -19.1122
 134   2.0000      -0.694331       -18.8937
 135   2.0000      -0.685467       -18.6525
 136   2.0000      -0.683039       -18.5864
 137   2.0000      -0.680647       -18.5214
 138   2.0000      -0.674761       -18.3612
 139   2.0000      -0.668243       -18.1838
 140   2.0000      -0.659745       -17.9526
 141   2.0000      -0.658085       -17.9074
 142   2.0000      -0.656650       -17.8683
 143   2.0000      -0.651413       -17.7259
 144   2.0000      -0.645785       -17.5727
 145   2.0000      -0.641825       -17.4650
 146   2.0000      -0.633020       -17.2253
 147   2.0000      -0.625161       -17.0115
 148   2.0000      -0.623161       -16.9571
 149   2.0000      -0.621407       -16.9093
 150   2.0000      -0.617436       -16.8013
 151   2.0000      -0.612172       -16.6581
 152   2.0000      -0.604495       -16.4491
 153   2.0000      -0.601801       -16.3758
 154   2.0000      -0.598046       -16.2737
 155   2.0000      -0.594732       -16.1835
 156   2.0000      -0.591859       -16.1053
 157   2.0000      -0.587950       -15.9989
 158   2.0000      -0.582209       -15.8427
 159   2.0000      -0.580081       -15.7848
 160   2.0000      -0.574149       -15.6234
 161   2.0000      -0.571891       -15.5620
 162   2.0000      -0.563198       -15.3254
 163   2.0000      -0.558871       -15.2077
 164   2.0000      -0.557858       -15.1801
 165   2.0000      -0.552731       -15.0406
 166   2.0000      -0.551205       -14.9990
 167   2.0000      -0.545394       -14.8409
 168   2.0000      -0.542335       -14.7577
 169   2.0000      -0.538378       -14.6500
 170   2.0000      -0.537022       -14.6131
 171   2.0000      -0.533499       -14.5172
 172   2.0000      -0.529712       -14.4142
 173   2.0000      -0.526903       -14.3377
 174   2.0000      -0.523338       -14.2407
 175   2.0000      -0.523010       -14.2318
 176   2.0000      -0.519318       -14.1314
 177   2.0000      -0.517087       -14.0706
 178   2.0000      -0.514596       -14.0029
 179   2.0000      -0.511680       -13.9235
 180   2.0000      -0.509367       -13.8606
 181   2.0000      -0.506560       -13.7842
 182   2.0000      -0.505442       -13.7538
 183   2.0000      -0.503520       -13.7015
 184   2.0000      -0.499845       -13.6015
 185   2.0000      -0.498012       -13.5516
 186   2.0000      -0.493255       -13.4222
 187   2.0000      -0.490599       -13.3499
 188   2.0000      -0.486553       -13.2398
 189   2.0000      -0.485699       -13.2165
 190   2.0000      -0.483503       -13.1568
 191   2.0000      -0.482009       -13.1161
 192   2.0000      -0.479274       -13.0417
 193   2.0000      -0.477873       -13.0036
 194   2.0000      -0.472128       -12.8473
 195   2.0000      -0.471230       -12.8228
 196   2.0000      -0.470510       -12.8032
 197   2.0000      -0.468408       -12.7460
 198   2.0000      -0.465855       -12.6765
 199   2.0000      -0.463924       -12.6240
 200   2.0000      -0.460583       -12.5331
 201   2.0000      -0.458202       -12.4683
 202   2.0000      -0.455751       -12.4016
 203   2.0000      -0.454648       -12.3716
 204   2.0000      -0.450999       -12.2723
 205   2.0000      -0.450636       -12.2624
 206   2.0000      -0.448678       -12.2091
 207   2.0000      -0.447531       -12.1779
 208   2.0000      -0.445896       -12.1334
 209   2.0000      -0.443565       -12.0700
 210   2.0000      -0.441501       -12.0138
 211   2.0000      -0.440447       -11.9852
 212   2.0000      -0.439859       -11.9692
 213   2.0000      -0.437546       -11.9062
 214   2.0000      -0.435663       -11.8550
 215   2.0000      -0.432931       -11.7806
 216   2.0000      -0.432585       -11.7712
 217   2.0000      -0.427778       -11.6404
 218   2.0000      -0.426180       -11.5969
 219   2.0000      -0.424087       -11.5400
 220   2.0000      -0.423465       -11.5231
 221   2.0000      -0.422788       -11.5046
 222   2.0000      -0.420661       -11.4468
 223   2.0000      -0.420069       -11.4307
 224   2.0000      -0.417245       -11.3538
 225   2.0000      -0.413332       -11.2473
 226   2.0000      -0.411134       -11.1875
 227   2.0000      -0.410369       -11.1667
 228   2.0000      -0.409421       -11.1409
 229   2.0000      -0.408352       -11.1118
 230   2.0000      -0.407225       -11.0812
 231   2.0000      -0.404406       -11.0045
 232   2.0000      -0.403367       -10.9762
 233   2.0000      -0.398733       -10.8501
 234   2.0000      -0.395184       -10.7535
 235   2.0000      -0.393742       -10.7143
 236   2.0000      -0.386465       -10.5163
 237   2.0000      -0.383805       -10.4439
 238   2.0000      -0.380880       -10.3643
 239   2.0000      -0.379977       -10.3397
 240   2.0000      -0.377426       -10.2703
 241   2.0000      -0.376501       -10.2451
 242   2.0000      -0.376072       -10.2334
 243   2.0000      -0.373840       -10.1727
 244   2.0000      -0.369586       -10.0569
 245   2.0000      -0.358571        -9.7572
 246   2.0000      -0.352056        -9.5799
 247   2.0000      -0.345654        -9.4057
 248   2.0000      -0.341535        -9.2936
 249   2.0000      -0.324067        -8.8183
 250   2.0000      -0.314886        -8.5685
 251   2.0000      -0.309933        -8.4337
 252   2.0000      -0.308152        -8.3852
 253   2.0000      -0.307152        -8.3580
 254   2.0000      -0.303688        -8.2638
 255   2.0000      -0.299295        -8.1442
 256   2.0000      -0.293428        -7.9846
 257   2.0000      -0.288588        -7.8529
 258   2.0000      -0.281102        -7.6492
 259   2.0000      -0.273386        -7.4392
 260   2.0000      -0.258658        -7.0385
 261   2.0000      -0.245003        -6.6669
 262   2.0000      -0.230020        -6.2592
 263   0.0000      -0.053775        -1.4633
 264   0.0000      -0.003528        -0.0960
 265   0.0000      -0.002680        -0.0729
 266   0.0000       0.033360         0.9078
 267   0.0000       0.037028         1.0076

MULLIKEN ATOMIC CHARGES
-----------------------
   0 C :   -0.004683
   1 C :   -0.085265
   2 C :    0.034039
   3 C :    0.011464
   4 C :   -0.046435
   5 C :    0.115464
   6 C :   -0.059639
   7 C :   -0.045639
   8 C :    0.242252
   9 C :   -0.291796
  10 C :    0.088464
  11 C :   -0.100066
  12 C :   -0.096839
  13 S :    0.129928
  14 C :   -0.254986
  15 C :    0.080616
  16 C :   -0.150844
  17 C :   -0.065802
  18 C :   -0.029970
  19 C :    0.045548
  20 C :    0.006008
  21 C :   -0.072946
  22 C :    0.163310
  23 C :   -0.046556
  24 C :   -0.064980
  25 C :    0.154324
  26 C :   -0.061622
  27 C :    0.006518
  28 C :    0.072156
  29 S :    0.108912
  30 C :   -0.134734
  31 C :   -0.101954
  32 C :    0.038991
  33 C :    0.037163
  34 C :    0.081157
  35 C :    0.002958
  36 C :   -0.052354
  37 S :    0.084710
  38 C :   -0.140563
  39 C :   -0.129980
  40 C :    0.030748
  41 C :    0.023065
  42 C :    0.125268
  43 C :    0.179519
  44 C :   -0.134518
  45 C :    0.531331
  46 F :   -0.166858
  47 F :   -0.156124
  48 F :   -0.158581
  49 C :   -0.014022
  50 C :    0.023010
  51 C :   -0.013573
  52 C :    0.055896
  53 S :    0.077830
  54 C :   -0.121649
  55 C :   -0.098341
  56 C :    0.032348
  57 C :    0.039319
  58 C :    0.085859
  59 C :   -0.003585
  60 C :   -0.047067
  61 S :    0.083050
  62 C :   -0.147432
  63 C :   -0.121219
  64 C :    0.057800
  65 C :    0.026772
  66 C :    0.121827
  67 C :    0.037509
  68 C :    0.031321
  69 H :   -0.003248
  70 H :    0.000958
  71 H :    0.010264
  72 H :   -0.022651
  73 H :   -0.012597
  74 H :    0.040380
  75 H :    0.017587
  76 H :   -0.011505
  77 H :   -0.015691
  78 H :    0.007204
  79 H :   -0.007222
  80 H :   -0.003829
  81 H :    0.012849
  82 H :   -0.017115
  83 H :   -0.017311
  84 H :    0.014816
  85 H :   -0.000408
  86 H :   -0.014815
  87 H :   -0.016228
  88 H :   -0.003921
  89 H :    0.006790
  90 H :   -0.023002
  91 H :   -0.016677
  92 H :    0.007927
  93 H :    0.006883
  94 H :    0.005305
  95 H :    0.015975
  96 H :    0.013265
  97 H :    0.011088
  98 H :   -0.021212
  99 H :    0.021272
 100 H :    0.020804
 101 H :    0.011052
 102 H :    0.016955
 103 H :    0.014538
 104 H :    0.014057
 105 H :   -0.004581
 106 H :   -0.010778
 107 H :   -0.009063
 108 H :    0.006942
 109 H :    0.009371
 110 H :    0.011468
 111 H :    0.015191
 112 H :    0.014852
 113 H :   -0.019886
 114 H :    0.023922
 115 H :   -0.010132
 116 H :    0.007613
 117 H :    0.012345
 118 H :    0.013767
 119 H :    0.021680
 120 H :   -0.016373
 121 H :    0.025289
Sum of atomic charges:   -0.0000000

LOEWDIN ATOMIC CHARGES
----------------------
   0 C :   -0.070863
   1 C :   -0.006288
   2 C :   -0.022348
   3 C :   -0.027058
   4 C :   -0.011260
   5 C :   -0.040643
   6 C :   -0.009306
   7 C :   -0.012922
   8 C :   -0.022694
   9 C :   -0.045177
  10 C :   -0.053725
  11 C :   -0.166849
  12 C :   -0.203830
  13 S :    0.569986
  14 C :   -0.177035
  15 C :   -0.098908
  16 C :   -0.139951
  17 C :   -0.085372
  18 C :    0.019673
  19 C :   -0.021265
  20 C :   -0.026259
  21 C :   -0.024377
  22 C :   -0.031166
  23 C :   -0.008398
  24 C :   -0.010240
  25 C :   -0.032427
  26 C :   -0.026369
  27 C :   -0.016280
  28 C :   -0.026809
  29 S :    0.405271
  30 C :   -0.153615
  31 C :   -0.038013
  32 C :   -0.032320
  33 C :   -0.048217
  34 C :   -0.049571
  35 C :   -0.065346
  36 C :   -0.164986
  37 S :    0.394524
  38 C :   -0.153057
  39 C :   -0.035658
  40 C :   -0.038263
  41 C :   -0.058905
  42 C :   -0.043238
  43 C :   -0.036313
  44 C :   -0.079432
  45 C :    0.176796
  46 F :   -0.064562
  47 F :   -0.050840
  48 F :   -0.058629
  49 C :    0.000510
  50 C :   -0.035782
  51 C :   -0.008849
  52 C :   -0.051249
  53 S :    0.414793
  54 C :   -0.154499
  55 C :   -0.041101
  56 C :   -0.033490
  57 C :   -0.048447
  58 C :   -0.047798
  59 C :   -0.066422
  60 C :   -0.162490
  61 S :    0.396475
  62 C :   -0.152333
  63 C :   -0.032705
  64 C :   -0.037443
  65 C :   -0.051343
  66 C :   -0.039490
  67 C :   -0.004980
  68 C :   -0.026429
  69 H :    0.018896
  70 H :    0.018177
  71 H :    0.029385
  72 H :    0.015944
  73 H :    0.019772
  74 H :    0.013834
  75 H :    0.021754
  76 H :    0.022098
  77 H :    0.022515
  78 H :    0.016731
  79 H :    0.026844
  80 H :    0.023336
  81 H :    0.032143
  82 H :    0.017608
  83 H :    0.017871
  84 H :    0.031161
  85 H :    0.021222
  86 H :    0.022384
  87 H :    0.018471
  88 H :    0.018881
  89 H :    0.030952
  90 H :    0.016149
  91 H :    0.013873
  92 H :    0.020464
  93 H :    0.020435
  94 H :    0.027137
  95 H :    0.025331
  96 H :    0.022835
  97 H :    0.023446
  98 H :    0.027386
  99 H :    0.022851
 100 H :    0.025364
 101 H :    0.025837
 102 H :    0.008799
 103 H :    0.024632
 104 H :    0.016112
 105 H :    0.033820
 106 H :    0.030927
 107 H :    0.018308
 108 H :    0.027549
 109 H :    0.019711
 110 H :    0.023800
 111 H :    0.023606
 112 H :    0.024539
 113 H :    0.027947
 114 H :    0.023904
 115 H :    0.029279
 116 H :    0.022473
 117 H :    0.023004
 118 H :    0.016367
 119 H :    0.021437
 120 H :    0.021718
 121 H :    0.036583

  Mayer bond orders larger than 0.100000
B(  0-C ,  1-C ) :   2.0409 B(  0-C , 69-H ) :   0.9280 B(  0-C , 70-H ) :   0.9305
B(  1-C ,  2-C ) :   0.9675 B(  1-C , 68-C ) :   0.9987 B(  2-C ,  3-C ) :   0.9994
B(  2-C ,  6-C ) :   1.0485 B(  2-C , 71-H ) :   0.9052 B(  3-C ,  4-C ) :   1.8819
B(  3-C , 72-H ) :   0.9975 B(  4-C ,  5-C ) :   1.0280 B(  4-C , 73-H ) :   0.9837
B(  5-C ,  6-C ) :   1.0540 B(  5-C , 74-H ) :   0.8953 B(  5-C , 75-H ) :   0.9306
B(  6-C ,  7-C ) :   1.0386 B(  6-C , 76-H ) :   0.9130 B(  7-C ,  8-C ) :   1.0570
B(  7-C , 68-C ) :   1.0635 B(  7-C , 77-H ) :   0.8870 B(  8-C ,  9-C ) :   1.0242
B(  8-C , 78-H ) :   0.9066 B(  8-C , 79-H ) :   0.8944 B(  9-C , 10-C ) :   0.9147
B(  9-C , 67-C ) :   1.9010 B( 10-C , 11-C ) :   1.6135 B( 10-C , 66-C ) :   1.1841
B( 11-C , 12-C ) :   1.1114 B( 11-C , 53-S ) :   1.0556 B( 12-C , 13-S ) :   1.1785
B( 12-C , 14-C ) :   0.1284 B( 12-C , 52-C ) :   1.3520 B( 13-S , 14-C ) :   1.1979
B( 14-C , 15-C ) :   0.9474 B( 14-C , 43-C ) :   1.4226 B( 15-C , 16-C ) :   1.6710
B( 15-C , 42-C ) :   1.1368 B( 16-C , 17-C ) :   0.9792 B( 16-C , 29-S ) :   1.0789
B( 17-C , 18-C ) :   1.9093 B( 17-C , 80-H ) :   0.9346 B( 18-C , 19-C ) :   0.9919
B( 18-C , 28-C ) :   1.0271 B( 19-C , 20-C ) :   1.0030 B( 19-C , 23-C ) :   1.0564
B( 19-C , 81-H ) :   0.8902 B( 20-C , 21-C ) :   1.8853 B( 20-C , 82-H ) :   0.9968
B( 21-C , 22-C ) :   1.0147 B( 21-C , 83-H ) :   0.9928 B( 22-C , 23-C ) :   1.0647
B( 22-C , 84-H ) :   0.8998 B( 22-C , 85-H ) :   0.9315 B( 23-C , 24-C ) :   1.0278
B( 23-C , 86-H ) :   0.9020 B( 24-C , 25-C ) :   1.0843 B( 24-C , 28-C ) :   1.0375
B( 24-C , 87-H ) :   0.9026 B( 25-C , 26-C ) :   1.0256 B( 25-C , 88-H ) :   0.9248
B( 25-C , 89-H ) :   0.8927 B( 26-C , 27-C ) :   1.8639 B( 26-C , 90-H ) :   0.9859
B( 27-C , 28-C ) :   0.9963 B( 27-C , 91-H ) :   0.9875 B( 28-C , 92-H ) :   0.8546
B( 29-S , 30-C ) :   1.0381 B( 30-C , 31-C ) :   1.4488 B( 30-C , 42-C ) :   1.2788
B( 31-C , 32-C ) :   1.0753 B( 31-C , 34-C ) :   1.3457 B( 32-C , 33-C ) :   1.1053
B( 32-C , 93-H ) :   0.9208 B( 32-C , 94-H ) :   0.9167 B( 33-C , 95-H ) :   0.9650
B( 33-C , 96-H ) :   0.9679 B( 33-C , 97-H ) :   0.9694 B( 34-C , 35-C ) :   1.1705
B( 34-C , 38-C ) :   1.2996 B( 35-C , 36-C ) :   1.6492 B( 35-C , 98-H ) :   0.9881
B( 36-C , 37-S ) :   1.1093 B( 36-C , 99-H ) :   0.9679 B( 37-S , 38-C ) :   1.0544
B( 38-C , 39-C ) :   1.4187 B( 39-C , 40-C ) :   1.0710 B( 39-C , 42-C ) :   1.3676
B( 40-C , 41-C ) :   1.1038 B( 40-C ,100-H ) :   0.9172 B( 40-C ,101-H ) :   0.9130
B( 41-C ,102-H ) :   0.9591 B( 41-C ,103-H ) :   0.9639 B( 41-C ,104-H ) :   0.9582
B( 43-C , 44-C ) :   1.1829 B( 43-C , 52-C ) :   1.2164 B( 44-C , 45-C ) :   0.9640
B( 44-C , 49-C ) :   1.5739 B( 45-C , 46-F ) :   1.1545 B( 45-C , 47-F ) :   1.1420
B( 45-C , 48-F ) :   1.1471 B( 49-C , 50-C ) :   1.1893 B( 49-C ,105-H ) :   0.9907
B( 50-C , 51-C ) :   1.5573 B( 50-C ,106-H ) :   0.9864 B( 51-C , 52-C ) :   1.1841
B( 51-C ,107-H ) :   0.9733 B( 53-S , 54-C ) :   1.0436 B( 54-C , 55-C ) :   1.4463
B( 54-C , 66-C ) :   1.2715 B( 55-C , 56-C ) :   1.0738 B( 55-C , 58-C ) :   1.3470
B( 56-C , 57-C ) :   1.1091 B( 56-C ,108-H ) :   0.9173 B( 56-C ,109-H ) :   0.9178
B( 57-C ,110-H ) :   0.9686 B( 57-C ,111-H ) :   0.9674 B( 57-C ,112-H ) :   0.9653
B( 58-C , 59-C ) :   1.1680 B( 58-C , 62-C ) :   1.2910 B( 59-C , 60-C ) :   1.6473
B( 59-C ,113-H ) :   0.9912 B( 60-C , 61-S ) :   1.1104 B( 60-C ,114-H ) :   0.9675
B( 61-S , 62-C ) :   1.0534 B( 62-C , 63-C ) :   1.4319 B( 63-C , 64-C ) :   1.0610
B( 63-C , 66-C ) :   1.3364 B( 64-C , 65-C ) :   1.1056 B( 64-C ,115-H ) :   0.9097
B( 64-C ,116-H ) :   0.9097 B( 65-C ,117-H ) :   0.9681 B( 65-C ,118-H ) :   0.9600
B( 65-C ,119-H ) :   0.9571 B( 67-C , 68-C ) :   0.9722 B( 67-C ,120-H ) :   0.9921
B( 68-C ,121-H ) :   0.8665

-----------------------------------------------------------------------------
         ABSORPTION SPECTRUM VIA TRANSITION ELECTRIC DIPOLE MOMENTS
-----------------------------------------------------------------------------
State   Energy  Wavelength   fosc         T2         TX        TY        TZ
        (cm-1)    (nm)                  (au**2)     (au)      (au)      (au)
-----------------------------------------------------------------------------
   0   21449.3    466.2   0.529743930   8.13072   0.00877   2.44915   1.46024
   1   25486.1    392.4   0.185835759   2.40050   0.31410  -1.51547   0.07204
   2   27835.8    359.2   0.206491242   2.44215  -0.01324   1.19655   1.00511
   3   30454.5    328.4   0.016412608   0.17742  -0.07243   0.41138  -0.05424
   4   32088.4    311.6   0.306986066   3.14953   0.87688  -1.39661  -0.65582
   5   32743.4    305.4   0.140250991   1.41013   0.80025   0.75825  -0.44135
   6   33399.5    299.4   0.059574028   0.58721   0.50032  -0.57588   0.07242
   7   33697.3    296.8   0.009404490   0.09188   0.26197  -0.05658   0.14159
   8   35143.2    284.6   0.020857252   0.19539   0.14366  -0.36771  -0.19883
   9   35473.5    281.9   0.066052367   0.61300   0.10142  -0.68814   0.35940
  10   35747.4    279.7   0.163021635   1.50133   1.12799  -0.40622  -0.25289
  11   36444.1    274.4   0.101549756   0.91733   0.22041  -0.92889  -0.07697
  12   37511.5    266.6   0.023438681   0.20570  -0.13493   0.26144  -0.34518
  13   38251.1    261.4   0.027687299   0.23829  -0.20201   0.40729  -0.17775
  14   38668.0    258.6   0.046953769   0.39976  -0.19768   0.41371  -0.43535
  15   38998.0    256.4   0.053580393   0.45231   0.06915   0.28135   0.60694
  16   39414.5    253.7   0.018761160   0.15670   0.03383  -0.36279   0.15472
  17   39787.4    251.3   0.057472089   0.47554   0.30650  -0.55630   0.26855
  18   40228.7    248.6   0.150515829   1.23175   1.10100   0.03544  -0.13522

FINAL SINGLE POINT ENERGY     -4642.866107121743

DIPOLE MOMENT
-------------
                                X             Y             Z
Electronic contribution:    -10.64180     -47.54958      23.52492
Nuclear contribution   :     10.80107      48.73351     -23.19937
                        -----------------------------------------
Total Dipole Moment    :      0.15928       1.18393       0.32555
                        -----------------------------------------
Magnitude (a.u.)       :      1.23816
Magnitude (Debye)      :      3.14715

Rotational constants in cm-1:     0.001425     0.000728     0.000715
Rotational constants in MHz :    42.710022    21.831261    21.423964

                             ****ORCA TERMINATED NORMALLY****
TOTAL RUN TIME: 0 days 0 hours 14 minutes 23 seconds 566 msec
