                         Program Version 4.2.0 -  RELEASE  -
|  1> # ORCA input file
|  2> # SCF done       -157.926879963047          0.001091858057
|  3> ! CAM-B3LYP def2-SVP def2/J RIJCOSX Grid4 TightSCF
|  4> %maxcore 5000
|  5> %tddft
|  6>     Mode sTDDFT
|  7>     Ethresh 5.0
|  8>     maxcore 5000
|  9> end
| 10>
| 11> %pal
| 12>   nprocs 6
| 13>   end
| 14> * xyz 0 1
| 15>    C        5.35090         1.54849        -3.68452
| 16>    C        4.38832         0.84962        -3.08412
| 17>    C        4.60932        -0.26321        -2.21181
| 18>    S        6.19975        -0.87177        -1.90603
| 19>    C        5.65792        -2.17251        -0.91457
| 20>    C        6.63552        -3.02649        -0.27436
| 21>    C        6.51781        -3.31700         1.08902
| 22>    N        5.57055        -2.75649         1.89293
| 23>    C        7.49206        -4.10864         1.76342
| 24>    C        8.65553        -4.45614         1.17088
| 25>    C        8.88457        -4.07196        -0.17069
| 26>    C       10.04566        -4.28066        -0.87106
| 27>    S        9.91560        -3.74637        -2.47785
| 28>    C        8.24844        -3.28012        -2.26692
| 29>    C        7.54493        -2.94235        -3.50812
| 30>    C        7.78690        -1.76078        -4.18656
| 31>    N        8.74426        -0.87120        -3.75192
| 32>    C        7.05625        -1.44297        -5.36785
| 33>    C        6.15859        -2.30193        -5.90907
| 34>    C        5.99436        -3.58565        -5.33122
| 35>    C        5.25162        -4.63962        -5.80648
| 36>    S        5.44136        -6.04375        -4.85366
| 37>    C        6.50965        -5.23707        -3.74848
| 38>    C        7.08709        -5.98218        -2.62539
| 39>    C        8.36378        -6.51110        -2.73467
| 40>    N        9.07336        -6.40856        -3.90819
| 41>    C        8.94260        -7.23010        -1.65320
| 42>    C        8.25955        -7.46351        -0.50437
| 43>    C        6.93058        -6.99414        -0.38162
| 44>    C        6.06068        -7.18516         0.66823
| 45>    S        4.52900        -6.49999         0.37440
| 46>    C        5.01647        -5.88918        -1.17674
| 47>    C        4.13016        -5.12210        -1.98063
| 48>    C        2.78588        -5.13430        -1.91030
| 49>    C        1.94700        -4.26842        -2.69449
| 50>    C        2.38308        -3.29884        -3.63123
| 51>    C        1.37013        -2.56095        -4.15904
| 52>    C        1.49749        -1.45308        -5.13147
| 53>    F        1.28190        -0.23471        -4.58257
| 54>    F        2.72794        -1.39731        -5.66558
| 55>    F        0.63744        -1.53625        -6.16115
| 56>    S       -0.18271        -3.02033        -3.53280
| 57>    C        0.56922        -4.24039        -2.55052
| 58>    O       -0.11603        -5.07339        -1.77287
| 59>    C       -1.48932        -4.81330        -1.57445
| 60>    C        6.33941        -6.24016        -1.44958
| 61>    C        6.71148        -3.92163        -4.12826
| 62>    C        7.84655        -3.43622        -0.94779
| 63>    C        4.25759        -2.11057        -0.78398
| 64>    C        3.40564        -2.97036        -0.07128
| 65>    C        2.05645        -2.70090        -0.02412
| 66>    N        1.20645        -3.54969         0.73746
| 67>    O        1.71758        -4.43495         1.40163
| 68>    O        0.00462        -3.33885         0.69566
| 69>    C        1.48506        -1.60546        -0.71665
| 70>    C        2.27516        -0.79148        -1.46245
| 71>    C        3.67207        -1.01792        -1.52005
| 72>    H        5.12760         2.36938        -4.34117
| 73>    H        6.39125         1.31592        -3.52993
| 74>    H        3.35228         1.10577        -3.25486
| 75>    H        5.42846        -3.14217         2.80864
| 76>    H        4.83546        -2.19240         1.50930
| 77>    H        7.29761        -4.36831         2.79370
| 78>    H        9.42001        -5.00513         1.69787
| 79>    H       10.95489        -4.72072        -0.51425
| 80>    H        9.03871        -0.96211        -2.79248
| 81>    H        8.65839         0.07657        -4.07992
| 82>    H        7.22752        -0.47639        -5.81841
| 83>    H        5.58498        -2.04097        -6.78402
| 84>    H        4.62935        -4.66229        -6.67829
| 85>    H        8.76082        -5.71199        -4.56558
| 86>    H       10.07087        -6.52652        -3.85140
| 87>    H        9.95043        -7.59967        -1.77837
| 88>    H        8.70272        -8.01473         0.31079
| 89>    H        6.24615        -7.70816         1.58510
| 90>    H        4.60849        -4.47019        -2.69349
| 91>    H        2.27703        -5.79106        -1.21890
| 92>    H        3.40921        -3.14691        -3.91279
| 93>    H       -2.01507        -4.73962        -2.53217
| 94>    H       -1.87212        -5.65429        -0.99989
| 95>    H       -1.62352        -3.88997        -1.00330
| 96>    H        3.78219        -3.83317         0.45542
| 97>    H        0.42242        -1.44190        -0.63367
| 98>    H        1.85009         0.03876        -2.00250
| 99> *
|100>
|101>                          ****END OF INPUT****

CARTESIAN COORDINATES (ANGSTROEM)
---------------------------------
  C      5.350900    1.548490   -3.684520
  C      4.388320    0.849620   -3.084120
  C      4.609320   -0.263210   -2.211810
  S      6.199750   -0.871770   -1.906030
  C      5.657920   -2.172510   -0.914570
  C      6.635520   -3.026490   -0.274360
  C      6.517810   -3.317000    1.089020
  N      5.570550   -2.756490    1.892930
  C      7.492060   -4.108640    1.763420
  C      8.655530   -4.456140    1.170880
  C      8.884570   -4.071960   -0.170690
  C     10.045660   -4.280660   -0.871060
  S      9.915600   -3.746370   -2.477850
  C      8.248440   -3.280120   -2.266920
  C      7.544930   -2.942350   -3.508120
  C      7.786900   -1.760780   -4.186560
  N      8.744260   -0.871200   -3.751920
  C      7.056250   -1.442970   -5.367850
  C      6.158590   -2.301930   -5.909070
  C      5.994360   -3.585650   -5.331220
  C      5.251620   -4.639620   -5.806480
  S      5.441360   -6.043750   -4.853660
  C      6.509650   -5.237070   -3.748480
  C      7.087090   -5.982180   -2.625390
  C      8.363780   -6.511100   -2.734670
  N      9.073360   -6.408560   -3.908190
  C      8.942600   -7.230100   -1.653200
  C      8.259550   -7.463510   -0.504370
  C      6.930580   -6.994140   -0.381620
  C      6.060680   -7.185160    0.668230
  S      4.529000   -6.499990    0.374400
  C      5.016470   -5.889180   -1.176740
  C      4.130160   -5.122100   -1.980630
  C      2.785880   -5.134300   -1.910300
  C      1.947000   -4.268420   -2.694490
  C      2.383080   -3.298840   -3.631230
  C      1.370130   -2.560950   -4.159040
  C      1.497490   -1.453080   -5.131470
  F      1.281900   -0.234710   -4.582570
  F      2.727940   -1.397310   -5.665580
  F      0.637440   -1.536250   -6.161150
  S     -0.182710   -3.020330   -3.532800
  C      0.569220   -4.240390   -2.550520
  O     -0.116030   -5.073390   -1.772870
  C     -1.489320   -4.813300   -1.574450
  C      6.339410   -6.240160   -1.449580
  C      6.711480   -3.921630   -4.128260
  C      7.846550   -3.436220   -0.947790
  C      4.257590   -2.110570   -0.783980
  C      3.405640   -2.970360   -0.071280
  C      2.056450   -2.700900   -0.024120
  N      1.206450   -3.549690    0.737460
  O      1.717580   -4.434950    1.401630
  O      0.004620   -3.338850    0.695660
  C      1.485060   -1.605460   -0.716650
  C      2.275160   -0.791480   -1.462450
  C      3.672070   -1.017920   -1.520050
  H      5.127600    2.369380   -4.341170
  H      6.391250    1.315920   -3.529930
  H      3.352280    1.105770   -3.254860
  H      5.428460   -3.142170    2.808640
  H      4.835460   -2.192400    1.509300
  H      7.297610   -4.368310    2.793700
  H      9.420010   -5.005130    1.697870
  H     10.954890   -4.720720   -0.514250
  H      9.038710   -0.962110   -2.792480
  H      8.658390    0.076570   -4.079920
  H      7.227520   -0.476390   -5.818410
  H      5.584980   -2.040970   -6.784020
  H      4.629350   -4.662290   -6.678290
  H      8.760820   -5.711990   -4.565580
  H     10.070870   -6.526520   -3.851400
  H      9.950430   -7.599670   -1.778370
  H      8.702720   -8.014730    0.310790
  H      6.246150   -7.708160    1.585100
  H      4.608490   -4.470190   -2.693490
  H      2.277030   -5.791060   -1.218900
  H      3.409210   -3.146910   -3.912790
  H     -2.015070   -4.739620   -2.532170
  H     -1.872120   -5.654290   -0.999890
  H     -1.623520   -3.889970   -1.003300
  H      3.782190   -3.833170    0.455420
  H      0.422420   -1.441900   -0.633670
  H      1.850090    0.038760   -2.002500

 Total Charge           Charge          ....    0
 Multiplicity           Mult            ....    1
 Number of Electrons    NEL             ....  438
 Basis Dimension        Dim             ....  953

ORBITAL ENERGIES
----------------

  NO   OCC          E(Eh)            E(eV)
   0   2.0000     -88.958664     -2420.6883
   1   2.0000     -88.955199     -2420.5940
   2   2.0000     -88.949013     -2420.4257
   3   2.0000     -88.947235     -2420.3773
   4   2.0000     -88.943938     -2420.2876
   5   2.0000     -24.790433      -674.5820
   6   2.0000     -24.785615      -674.4509
   7   2.0000     -24.785106      -674.4370
   8   2.0000     -19.257931      -524.0350
   9   2.0000     -19.225376      -523.1491
  10   2.0000     -19.224367      -523.1216
  11   2.0000     -14.629319      -398.0840
  12   2.0000     -14.414291      -392.2328
  13   2.0000     -14.411723      -392.1629
  14   2.0000     -14.402901      -391.9229
  15   2.0000     -10.509686      -285.9831
  16   2.0000     -10.350889      -281.6620
  17   2.0000     -10.319250      -280.8011
  18   2.0000     -10.315337      -280.6946
  19   2.0000     -10.306451      -280.4528
  20   2.0000     -10.304563      -280.4014
  21   2.0000     -10.302087      -280.3340
  22   2.0000     -10.299652      -280.2678
  23   2.0000     -10.291824      -280.0548
  24   2.0000     -10.286523      -279.9105
  25   2.0000     -10.283783      -279.8360
  26   2.0000     -10.283421      -279.8261
  27   2.0000     -10.283127      -279.8181
  28   2.0000     -10.280814      -279.7552
  29   2.0000     -10.277810      -279.6734
  30   2.0000     -10.275482      -279.6101
  31   2.0000     -10.275144      -279.6009
  32   2.0000     -10.274758      -279.5904
  33   2.0000     -10.274514      -279.5837
  34   2.0000     -10.274451      -279.5820
  35   2.0000     -10.273372      -279.5527
  36   2.0000     -10.273292      -279.5505
  37   2.0000     -10.272334      -279.5244
  38   2.0000     -10.270425      -279.4725
  39   2.0000     -10.268702      -279.4256
  40   2.0000     -10.267934      -279.4047
  41   2.0000     -10.266797      -279.3737
  42   2.0000     -10.266564      -279.3674
  43   2.0000     -10.265497      -279.3384
  44   2.0000     -10.264859      -279.3210
  45   2.0000     -10.264485      -279.3108
  46   2.0000     -10.264482      -279.3108
  47   2.0000     -10.264390      -279.3083
  48   2.0000     -10.262031      -279.2441
  49   2.0000     -10.260817      -279.2110
  50   2.0000     -10.259804      -279.1835
  51   2.0000     -10.259417      -279.1729
  52   2.0000     -10.258231      -279.1407
  53   2.0000     -10.257684      -279.1258
  54   2.0000     -10.254525      -279.0398
  55   2.0000     -10.253151      -279.0024
  56   2.0000     -10.251879      -278.9678
  57   2.0000      -8.054096      -219.1631
  58   2.0000      -8.049308      -219.0328
  59   2.0000      -8.043510      -218.8750
  60   2.0000      -8.041916      -218.8317
  61   2.0000      -8.038272      -218.7325
  62   2.0000      -6.023464      -163.9068
  63   2.0000      -6.019549      -163.8003
  64   2.0000      -6.018097      -163.7607
  65   2.0000      -6.015832      -163.6991
  66   2.0000      -6.013935      -163.6475
  67   2.0000      -6.012630      -163.6120
  68   2.0000      -6.012521      -163.6090
  69   2.0000      -6.010859      -163.5638
  70   2.0000      -6.008252      -163.4928
  71   2.0000      -6.007270      -163.4661
  72   2.0000      -6.006558      -163.4468
  73   2.0000      -6.006544      -163.4464
  74   2.0000      -6.005103      -163.4072
  75   2.0000      -6.003039      -163.3510
  76   2.0000      -6.001368      -163.3055
  77   2.0000      -1.376150       -37.4469
  78   2.0000      -1.301180       -35.4069
  79   2.0000      -1.280318       -34.8392
  80   2.0000      -1.275051       -34.6959
  81   2.0000      -1.167023       -31.7563
  82   2.0000      -1.119312       -30.4580
  83   2.0000      -1.015406       -27.6306
  84   2.0000      -1.008963       -27.4553
  85   2.0000      -1.000932       -27.2367
  86   2.0000      -0.986629       -26.8476
  87   2.0000      -0.976084       -26.5606
  88   2.0000      -0.973292       -26.4846
  89   2.0000      -0.970968       -26.4214
  90   2.0000      -0.966927       -26.3114
  91   2.0000      -0.943223       -25.6664
  92   2.0000      -0.904975       -24.6256
  93   2.0000      -0.900655       -24.5081
  94   2.0000      -0.898015       -24.4362
  95   2.0000      -0.888650       -24.1814
  96   2.0000      -0.880636       -23.9633
  97   2.0000      -0.870533       -23.6884
  98   2.0000      -0.865725       -23.5576
  99   2.0000      -0.851497       -23.1704
 100   2.0000      -0.842657       -22.9299
 101   2.0000      -0.837845       -22.7989
 102   2.0000      -0.832769       -22.6608
 103   2.0000      -0.820636       -22.3306
 104   2.0000      -0.804872       -21.9017
 105   2.0000      -0.803798       -21.8725
 106   2.0000      -0.801776       -21.8174
 107   2.0000      -0.796466       -21.6729
 108   2.0000      -0.792848       -21.5745
 109   2.0000      -0.782781       -21.3006
 110   2.0000      -0.771371       -20.9901
 111   2.0000      -0.756012       -20.5721
 112   2.0000      -0.747016       -20.3273
 113   2.0000      -0.737766       -20.0756
 114   2.0000      -0.716096       -19.4860
 115   2.0000      -0.702828       -19.1249
 116   2.0000      -0.698450       -19.0058
 117   2.0000      -0.696088       -18.9415
 118   2.0000      -0.693484       -18.8707
 119   2.0000      -0.677905       -18.4467
 120   2.0000      -0.669749       -18.2248
 121   2.0000      -0.666465       -18.1354
 122   2.0000      -0.665040       -18.0967
 123   2.0000      -0.661041       -17.9878
 124   2.0000      -0.659281       -17.9400
 125   2.0000      -0.658415       -17.9164
 126   2.0000      -0.643690       -17.5157
 127   2.0000      -0.639082       -17.3903
 128   2.0000      -0.633688       -17.2435
 129   2.0000      -0.629208       -17.1216
 130   2.0000      -0.626952       -17.0602
 131   2.0000      -0.616816       -16.7844
 132   2.0000      -0.614437       -16.7197
 133   2.0000      -0.608168       -16.5491
 134   2.0000      -0.602817       -16.4035
 135   2.0000      -0.598885       -16.2965
 136   2.0000      -0.597838       -16.2680
 137   2.0000      -0.591265       -16.0891
 138   2.0000      -0.588139       -16.0041
 139   2.0000      -0.581844       -15.8328
 140   2.0000      -0.578607       -15.7447
 141   2.0000      -0.575080       -15.6487
 142   2.0000      -0.572196       -15.5703
 143   2.0000      -0.560422       -15.2499
 144   2.0000      -0.557753       -15.1772
 145   2.0000      -0.551652       -15.0112
 146   2.0000      -0.548777       -14.9330
 147   2.0000      -0.544164       -14.8075
 148   2.0000      -0.543579       -14.7915
 149   2.0000      -0.538914       -14.6646
 150   2.0000      -0.536922       -14.6104
 151   2.0000      -0.532720       -14.4961
 152   2.0000      -0.530602       -14.4384
 153   2.0000      -0.523466       -14.2442
 154   2.0000      -0.522715       -14.2238
 155   2.0000      -0.520959       -14.1760
 156   2.0000      -0.516657       -14.0589
 157   2.0000      -0.511628       -13.9221
 158   2.0000      -0.504569       -13.7300
 159   2.0000      -0.504133       -13.7182
 160   2.0000      -0.501324       -13.6417
 161   2.0000      -0.499948       -13.6043
 162   2.0000      -0.495486       -13.4829
 163   2.0000      -0.494148       -13.4465
 164   2.0000      -0.491526       -13.3751
 165   2.0000      -0.489861       -13.3298
 166   2.0000      -0.489092       -13.3089
 167   2.0000      -0.486181       -13.2297
 168   2.0000      -0.479548       -13.0492
 169   2.0000      -0.478644       -13.0246
 170   2.0000      -0.474891       -12.9224
 171   2.0000      -0.473102       -12.8738
 172   2.0000      -0.467912       -12.7325
 173   2.0000      -0.467460       -12.7202
 174   2.0000      -0.462540       -12.5863
 175   2.0000      -0.458939       -12.4884
 176   2.0000      -0.456212       -12.4142
 177   2.0000      -0.452539       -12.3142
 178   2.0000      -0.449823       -12.2403
 179   2.0000      -0.447715       -12.1830
 180   2.0000      -0.444201       -12.0873
 181   2.0000      -0.442901       -12.0519
 182   2.0000      -0.436934       -11.8896
 183   2.0000      -0.431619       -11.7449
 184   2.0000      -0.427394       -11.6300
 185   2.0000      -0.425592       -11.5809
 186   2.0000      -0.421969       -11.4823
 187   2.0000      -0.418209       -11.3800
 188   2.0000      -0.415595       -11.3089
 189   2.0000      -0.412019       -11.2116
 190   2.0000      -0.407614       -11.0917
 191   2.0000      -0.406426       -11.0594
 192   2.0000      -0.404470       -11.0062
 193   2.0000      -0.399935       -10.8828
 194   2.0000      -0.396242       -10.7823
 195   2.0000      -0.395678       -10.7669
 196   2.0000      -0.391538       -10.6543
 197   2.0000      -0.386260       -10.5107
 198   2.0000      -0.377608       -10.2752
 199   2.0000      -0.372389       -10.1332
 200   2.0000      -0.369293       -10.0490
 201   2.0000      -0.364244        -9.9116
 202   2.0000      -0.357727        -9.7343
 203   2.0000      -0.351132        -9.5548
 204   2.0000      -0.348225        -9.4757
 205   2.0000      -0.346140        -9.4190
 206   2.0000      -0.336205        -9.1486
 207   2.0000      -0.329271        -8.9599
 208   2.0000      -0.319390        -8.6910
 209   2.0000      -0.310815        -8.4577
 210   2.0000      -0.298577        -8.1247
 211   2.0000      -0.286081        -7.7847
 212   2.0000      -0.279810        -7.6140
 213   2.0000      -0.270957        -7.3731
 214   2.0000      -0.264191        -7.1890
 215   2.0000      -0.256245        -6.9728
 216   2.0000      -0.232178        -6.3179
 217   2.0000      -0.223619        -6.0850
 218   2.0000      -0.207218        -5.6387
 219   0.0000      -0.053400        -1.4531
 220   0.0000      -0.024786        -0.6745
 221   0.0000      -0.018879        -0.5137
 222   0.0000      -0.013763        -0.3745
 223   0.0000      -0.003274        -0.0891

MULLIKEN ATOMIC CHARGES
-----------------------
   0 C :   -0.031856
   1 C :    0.014920
   2 C :   -0.130566
   3 S :    0.161203
   4 C :   -0.244568
   5 C :    0.086884
   6 C :   -0.027964
   7 N :   -0.039869
   8 C :    0.001792
   9 C :    0.009614
  10 C :    0.055337
  11 C :   -0.117555
  12 S :    0.130873
  13 C :   -0.433506
  14 C :   -0.019894
  15 C :   -0.020849
  16 N :   -0.048592
  17 C :    0.006052
  18 C :    0.005666
  19 C :    0.080135
  20 C :   -0.140419
  21 S :    0.192983
  22 C :   -0.490129
  23 C :    0.053046
  24 C :   -0.029543
  25 N :   -0.034634
  26 C :    0.021743
  27 C :   -0.012022
  28 C :    0.104280
  29 C :   -0.143651
  30 S :    0.143676
  31 C :   -0.203355
  32 C :    0.003590
  33 C :   -0.014041
  34 C :    0.072851
  35 C :    0.037440
  36 C :   -0.254070
  37 C :    0.539876
  38 F :   -0.172121
  39 F :   -0.158663
  40 F :   -0.163958
  41 S :    0.099834
  42 C :   -0.022540
  43 O :   -0.270846
  44 C :    0.167870
  45 C :    0.187389
  46 C :    0.238275
  47 C :    0.275983
  48 C :    0.107264
  49 C :   -0.076130
  50 C :    0.145547
  51 N :    0.257779
  52 O :   -0.247916
  53 O :   -0.261687
  54 C :   -0.029149
  55 C :   -0.010319
  56 C :    0.107964
  57 H :    0.021062
  58 H :   -0.012404
  59 H :   -0.009519
  60 H :    0.114939
  61 H :    0.120747
  62 H :   -0.043517
  63 H :   -0.033069
  64 H :    0.000074
  65 H :    0.117133
  66 H :    0.107939
  67 H :   -0.044979
  68 H :   -0.026811
  69 H :    0.010177
  70 H :    0.121362
  71 H :    0.101429
  72 H :   -0.054638
  73 H :   -0.040000
  74 H :   -0.000524
  75 H :    0.017955
  76 H :   -0.013066
  77 H :    0.005500
  78 H :    0.027799
  79 H :    0.048301
  80 H :    0.049185
  81 H :   -0.006004
  82 H :   -0.011613
  83 H :   -0.026911
Sum of atomic charges:   -0.0000000

LOEWDIN ATOMIC CHARGES
----------------------
   0 C :   -0.068466
   1 C :   -0.030410
   2 C :   -0.198421
   3 S :    0.551281
   4 C :   -0.153923
   5 C :   -0.119193
   6 C :    0.050705
   7 N :    0.007681
   8 C :   -0.046828
   9 C :    0.007171
  10 C :   -0.064265
  11 C :   -0.193249
  12 S :    0.474696
  13 C :   -0.209866
  14 C :   -0.134754
  15 C :    0.015070
  16 N :   -0.022407
  17 C :   -0.049512
  18 C :    0.005733
  19 C :   -0.072394
  20 C :   -0.198220
  21 S :    0.490771
  22 C :   -0.206678
  23 C :   -0.102476
  24 C :    0.028987
  25 N :   -0.015968
  26 C :   -0.044467
  27 C :   -0.006990
  28 C :   -0.062101
  29 C :   -0.202762
  30 S :    0.483361
  31 C :   -0.197787
  32 C :   -0.042853
  33 C :   -0.036798
  34 C :   -0.108383
  35 C :   -0.003400
  36 C :   -0.269281
  37 C :    0.152839
  38 F :   -0.076772
  39 F :   -0.058179
  40 F :   -0.067395
  41 S :    0.423089
  42 C :   -0.089474
  43 O :   -0.078569
  44 C :    0.071139
  45 C :   -0.027390
  46 C :   -0.044548
  47 C :   -0.027156
  48 C :   -0.080810
  49 C :    0.021177
  50 C :   -0.056974
  51 N :    0.293623
  52 O :   -0.218478
  53 O :   -0.221896
  54 C :   -0.029012
  55 C :   -0.012582
  56 C :   -0.039374
  57 H :    0.024947
  58 H :    0.004181
  59 H :    0.033329
  60 H :    0.075688
  61 H :    0.069524
  62 H :    0.023383
  63 H :    0.029264
  64 H :    0.018039
  65 H :    0.060318
  66 H :    0.066272
  67 H :    0.024244
  68 H :    0.031710
  69 H :    0.021862
  70 H :    0.067820
  71 H :    0.062272
  72 H :    0.020927
  73 H :    0.025979
  74 H :    0.017274
  75 H :    0.030251
  76 H :    0.021477
  77 H :    0.036495
  78 H :    0.010175
  79 H :    0.034555
  80 H :    0.019112
  81 H :    0.025190
  82 H :    0.031265
  83 H :    0.027581

  Mayer bond orders larger than 0.100000
B(  0-C ,  1-C ) :   1.9099 B(  0-C , 57-H ) :   0.9477 B(  0-C , 58-H ) :   0.9481
B(  1-C ,  2-C ) :   1.1362 B(  1-C , 59-H ) :   0.9573 B(  2-C ,  3-S ) :   1.1318
B(  2-C ,  4-C ) :   0.1074 B(  2-C , 56-C ) :   1.3848 B(  3-S ,  4-C ) :   1.2384
B(  4-C ,  5-C ) :   1.0334 B(  4-C , 48-C ) :   1.3486 B(  5-C ,  6-C ) :   1.4197
B(  5-C , 47-C ) :   1.1775 B(  6-C ,  7-N ) :   1.2973 B(  6-C ,  8-C ) :   1.1446
B(  7-N , 60-H ) :   0.9405 B(  7-N , 61-H ) :   0.9422 B(  8-C ,  9-C ) :   1.5747
B(  8-C , 62-H ) :   0.9852 B(  9-C , 10-C ) :   1.1336 B(  9-C , 63-H ) :   1.0011
B( 10-C , 11-C ) :   1.4423 B( 10-C , 47-C ) :   1.1739 B( 11-C , 12-S ) :   1.1951
B( 11-C , 13-C ) :   0.1148 B( 11-C , 64-H ) :   0.9672 B( 12-S , 13-C ) :   1.1674
B( 13-C , 14-C ) :   0.9666 B( 13-C , 47-C ) :   1.4235 B( 14-C , 15-C ) :   1.4667
B( 14-C , 46-C ) :   1.2239 B( 15-C , 16-N ) :   1.2746 B( 15-C , 17-C ) :   1.1432
B( 16-N , 65-H ) :   0.9377 B( 16-N , 66-H ) :   0.9494 B( 17-C , 18-C ) :   1.5699
B( 17-C , 67-H ) :   0.9884 B( 18-C , 19-C ) :   1.1253 B( 18-C , 68-H ) :   1.0000
B( 19-C , 20-C ) :   1.4237 B( 19-C , 46-C ) :   1.1743 B( 20-C , 21-S ) :   1.2109
B( 20-C , 22-C ) :   0.1209 B( 20-C , 69-H ) :   0.9688 B( 21-S , 22-C ) :   1.1943
B( 22-C , 23-C ) :   0.9229 B( 22-C , 46-C ) :   1.4304 B( 23-C , 24-C ) :   1.4960
B( 23-C , 45-C ) :   1.2540 B( 24-C , 25-N ) :   1.2719 B( 24-C , 26-C ) :   1.1595
B( 25-N , 70-H ) :   0.9421 B( 25-N , 71-H ) :   0.9447 B( 26-C , 27-C ) :   1.5536
B( 26-C , 72-H ) :   0.9870 B( 27-C , 28-C ) :   1.1270 B( 27-C , 73-H ) :   1.0015
B( 28-C , 29-C ) :   1.4107 B( 28-C , 45-C ) :   1.1926 B( 29-C , 30-S ) :   1.1946
B( 29-C , 31-C ) :   0.1149 B( 29-C , 74-H ) :   0.9695 B( 30-S , 31-C ) :   1.1437
B( 31-C , 32-C ) :   1.1497 B( 31-C , 45-C ) :   1.3753 B( 32-C , 33-C ) :   1.6543
B( 32-C , 75-H ) :   0.9432 B( 33-C , 34-C ) :   1.0835 B( 33-C , 76-H ) :   0.9944
B( 34-C , 35-C ) :   1.2413 B( 34-C , 42-C ) :   1.4274 B( 35-C , 36-C ) :   1.5926
B( 35-C , 77-H ) :   0.9947 B( 36-C , 37-C ) :   0.9770 B( 36-C , 41-S ) :   1.0636
B( 37-C , 38-F ) :   1.1464 B( 37-C , 39-F ) :   1.1581 B( 37-C , 40-F ) :   1.1741
B( 41-S , 42-C ) :   1.1152 B( 42-C , 43-O ) :   1.2065 B( 43-O , 44-C ) :   0.9285
B( 44-C , 78-H ) :   0.9606 B( 44-C , 79-H ) :   0.9822 B( 44-C , 80-H ) :   0.9644
B( 48-C , 49-C ) :   1.1497 B( 48-C , 56-C ) :   1.1968 B( 49-C , 50-C ) :   1.4845
B( 49-C , 81-H ) :   0.9698 B( 50-C , 51-N ) :   0.9117 B( 50-C , 54-C ) :   1.2040
B( 51-N , 52-O ) :   1.5478 B( 51-N , 53-O ) :   1.5267 B( 52-O , 53-O ) :   0.2467
B( 54-C , 55-C ) :   1.5245 B( 54-C , 82-H ) :   0.9881 B( 55-C , 56-C ) :   1.1751
B( 55-C , 83-H ) :   0.9884

-----------------------------------------------------------------------------
         ABSORPTION SPECTRUM VIA TRANSITION ELECTRIC DIPOLE MOMENTS
-----------------------------------------------------------------------------
State   Energy  Wavelength   fosc         T2         TX        TY        TZ
        (cm-1)    (nm)                  (au**2)     (au)      (au)      (au)
-----------------------------------------------------------------------------
   0   14929.3    669.8   0.024700536   0.54468   0.42822   0.29540   0.52350
   1   18099.2    552.5   0.119767874   2.17850   1.14832  -0.90321   0.20994
   2   21202.6    471.6   0.035545278   0.55191   0.11408  -0.02104   0.73379
   3   21682.3    461.2   0.175205972   2.66023  -1.39099   0.64814  -0.55253
   4   23049.2    433.9   0.092569081   1.32216   0.91762  -0.58570   0.37028
   5   24121.9    414.6   0.033183910   0.45289  -0.61979   0.25608  -0.05628
   6   25227.2    396.4   0.028649905   0.37388  -0.52436  -0.24262   0.20015
   7   26039.0    384.0   0.019932042   0.25200   0.23813   0.40520  -0.17639
   8   26359.1    379.4   0.008624566   0.10772  -0.06366  -0.31556   0.06394
   9   26678.7    374.8   0.071172102   0.87826   0.67513  -0.27938  -0.58686
  10   26840.5    372.6   0.203806684   2.49979  -0.93756   0.98255  -0.80954
  11   27610.3    362.2   0.018625232   0.22208  -0.21402  -0.25474   0.33374
  12   28731.7    348.0   0.041409887   0.47448  -0.01781   0.25157  -0.64100
  13   29047.3    344.3   0.105217209   1.19249   0.05483  -0.37971   1.02240
  14   29120.7    343.4   0.172175532   1.94646  -0.52213   1.21037  -0.45700
  15   30248.9    330.6   0.033253553   0.36191  -0.42405  -0.09730  -0.41548
  16   30370.0    329.3   0.024495356   0.26553  -0.36127  -0.33911   0.14149
  17   30961.2    323.0   0.030975958   0.32937   0.01495  -0.48410   0.30788
  18   31856.0    313.9   0.090529865   0.93557   0.56323   0.50502  -0.60274
  19   32168.0    310.9   0.015231119   0.15588   0.32707  -0.02337   0.21990
  20   32457.1    308.1   0.172252140   1.74715  -1.20897   0.44582  -0.29459
  21   32796.0    304.9   0.059770828   0.59999  -0.65241  -0.03799  -0.41582
  22   33493.4    298.6   0.017328188   0.17032   0.33120   0.10235  -0.22395
  23   33536.7    298.2   0.029422602   0.28883   0.51739   0.13167   0.06162
  24   34148.3    292.8   0.031542768   0.30409  -0.29008  -0.41594   0.21666
  25   34410.3    290.6   0.023685780   0.22661  -0.07190  -0.19213   0.42956
  26   35141.8    284.6   0.017878169   0.16748  -0.16063  -0.36741   0.08178
  27   35242.6    283.7   0.023725886   0.22163  -0.46554  -0.04802   0.05099
  28   35822.3    279.2   0.019700184   0.18105   0.11336   0.16622  -0.37492
  29   36273.2    275.7   0.039469811   0.35822  -0.08229  -0.13104  -0.57817
  30   36327.5    275.3   0.043394623   0.39326  -0.01455  -0.45579  -0.43046
  31   37091.4    269.6   0.063606557   0.56455  -0.37245  -0.20830   0.61842
  32   37341.5    267.8   0.132456556   1.16777  -0.88265  -0.56228   0.26933
  33   37719.3    265.1   0.018629870   0.16260   0.32886   0.13463   0.19059
  34   37754.2    264.9   0.086904691   0.75780  -0.35824  -0.23727   0.75708
  35   37826.4    264.4   0.150910993   1.31341  -0.31049  -1.03416   0.38408
  36   38170.6    262.0   0.027056363   0.23335  -0.38435   0.27577   0.09786
  37   38388.4    260.5   0.021245285   0.18220   0.13905   0.27350  -0.29675
  38   38504.9    259.7   0.069870743   0.59739  -0.66409   0.08413   0.38638
  39   38630.1    258.9   0.003315797   0.02826   0.09195   0.04800  -0.13228
  40   39042.5    256.1   0.004083933   0.03444   0.11253  -0.12489   0.07859
  41   39346.1    254.2   0.058431154   0.48890   0.13142   0.25713  -0.63680
  42   39563.1    252.8   0.068896721   0.57330   0.54272   0.48191  -0.21570
  43   39754.6    251.5   0.064926361   0.53766  -0.46386  -0.38681  -0.41578
  44   39791.4    251.3   0.025847079   0.21384  -0.09709  -0.30787   0.33111
  45   39892.0    250.7   0.074083999   0.61138  -0.33142   0.47256   0.52748
  46   40018.1    249.9   0.108535472   0.89288   0.92805   0.17565   0.02738

FINAL SINGLE POINT ENERGY     -4348.261312896820

DIPOLE MOMENT
-------------
                                X             Y             Z
Electronic contribution:    -18.13176       3.26156     -15.73060
Nuclear contribution   :     19.96502      -2.89811      16.05619
                        -----------------------------------------
Total Dipole Moment    :      1.83326       0.36345       0.32558
                        -----------------------------------------
Magnitude (a.u.)       :      1.89709
Magnitude (Debye)      :      4.82201

Rotational constants in cm-1:     0.002277     0.001505     0.001281
Rotational constants in MHz :    68.254489    45.126355    38.410505

                             ****ORCA TERMINATED NORMALLY****
TOTAL RUN TIME: 0 days 0 hours 13 minutes 54 seconds 640 msec
