                         Program Version 4.2.0 -  RELEASE  -
|  1> # ORCA input file
|  2> # SCF done       -156.597767809352          0.000786829138
|  3> ! CAM-B3LYP def2-SVP def2/J RIJCOSX Grid4 TightSCF
|  4> %maxcore 5000
|  5> %tddft
|  6>     Mode sTDDFT
|  7>     Ethresh 5.0
|  8>     maxcore 5000
|  9> end
| 10>
| 11> %pal
| 12>   nprocs 6
| 13>   end
| 14> * xyz 0 1
| 15>    C        4.93924        -4.43849        -9.08058
| 16>    C        4.81863        -3.33554        -9.81318
| 17>    C        4.94676        -1.96886        -9.37143
| 18>    C        4.57776        -0.87811       -10.14486
| 19>    C        4.78394         0.32637        -9.43735
| 20>    S        4.49623         1.97769        -9.99379
| 21>    C        2.76641         2.14321        -9.71329
| 22>    C        1.78049         1.20781       -10.08476
| 23>    C        0.52465         1.64500        -9.80595
| 24>    S        0.49856         3.20369        -9.08498
| 25>    C        2.24028         3.28725        -9.13078
| 26>    C        3.01154         4.29264        -8.51344
| 27>    C        2.57346         5.39514        -7.86046
| 28>    C        3.45469         6.20590        -7.09776
| 29>    S        3.03843         7.83780        -6.67274
| 30>    C        4.53245         8.08392        -5.79625
| 31>    C        4.86376         9.32756        -5.19648
| 32>    S        6.47395         9.58502        -4.57591
| 33>    C        6.09819        11.22071        -4.13215
| 34>    C        7.07047        12.06851        -3.52776
| 35>    C        8.31193        11.66570        -3.19151
| 36>    C        9.35080        12.47530        -2.60239
| 37>    C       10.50278        11.83437        -2.10261
| 38>    C       11.51166        12.56344        -1.54027
| 39>    C       11.43876        13.96539        -1.45823
| 40>    C       12.50123        14.71292        -0.88254
| 41>    C       12.44480        16.06293        -0.81457
| 42>    C       11.32036        16.77835        -1.31553
| 43>    C       11.28155        18.18019        -1.24172
| 44>    C       10.20581        18.88236        -1.72044
| 45>    C        9.13281        18.19487        -2.28783
| 46>    C        9.14942        16.82393        -2.37027
| 47>    C       10.23596        16.07493        -1.89215
| 48>    C       10.29618        14.63287        -1.96511
| 49>    C        9.27451        13.85924        -2.52363
| 50>    C        4.78812        11.53194        -4.45469
| 51>    C        4.08568        10.46664        -5.03938
| 52>    C        2.64928        10.58113        -5.43836
| 53>    C        1.98307        11.81141        -4.80069
| 54>    C        0.67060        11.96642        -5.39143
| 55>    N       -0.35939        12.03837        -5.87865
| 56>    C        2.87567        13.04561        -5.00494
| 57>    C        2.17854        14.32123        -4.54482
| 58>    F        1.67490        14.20423        -3.30626
| 59>    F        3.02937        15.36135        -4.50854
| 60>    F        1.17313        14.69091        -5.34308
| 61>    C        4.16744        12.87197        -4.20050
| 62>    C        5.30163         6.92916        -5.83275
| 63>    C        6.54568         6.74324        -5.20902
| 64>    N        7.55497         6.51687        -4.71155
| 65>    C        4.69205         5.86589        -6.56098
| 66>    C        5.25589         4.58807        -6.62625
| 67>    N        5.71019         3.53138        -6.64034
| 68>    C        5.32294         0.00622        -8.20987
| 69>    N        5.75346         0.74894        -7.16298
| 70>    C        6.27837         0.12928        -6.09906
| 71>    N        6.42674        -1.16093        -5.99048
| 72>    C        6.02558        -1.95159        -6.99649
| 73>    C        5.44259        -1.45088        -8.13555
| 74>    H        4.81773        -5.41360        -9.51984
| 75>    H        5.14915        -4.41625        -8.02687
| 76>    H        4.57616        -3.43191       -10.86549
| 77>    H        4.18819        -0.93003       -11.14607
| 78>    H        2.00167         0.25731       -10.53391
| 79>    H       -0.40343         1.14242        -9.99439
| 80>    H        4.07643         4.10420        -8.55855
| 81>    H        1.53350         5.68729        -7.90265
| 82>    H        6.75008        13.08178        -3.33403
| 83>    H        8.57140        10.62704        -3.36156
| 84>    H       10.57349        10.75821        -2.16372
| 85>    H       12.39081        12.06891        -1.15255
| 86>    H       13.35711        14.17375        -0.50253
| 87>    H       13.25508        16.62961        -0.37853
| 88>    H       12.12029        18.69824        -0.79880
| 89>    H       10.18406        19.96031        -1.66099
| 90>    H        8.28363        18.74572        -2.66507
| 91>    H        8.30206        16.32698        -2.81576
| 92>    H        8.40334        14.34856        -2.92628
| 93>    H        2.09775         9.68727        -5.13536
| 94>    H        2.57369        10.65361        -6.52959
| 95>    H        1.85215        11.64624        -3.72364
| 96>    H        3.09981        13.16920        -6.07018
| 97>    H        3.94279        12.97535        -3.13244
| 98>    H        4.86970        13.66488        -4.46712
| 99>    H        5.70077         1.77490        -7.17573
|100>    H        6.60803         0.75068        -5.27927
|101>    H        6.21117        -3.00416        -6.84030
|102> *
|103>
|104>                          ****END OF INPUT****

CARTESIAN COORDINATES (ANGSTROEM)
---------------------------------
  C      4.939240   -4.438490   -9.080580
  C      4.818630   -3.335540   -9.813180
  C      4.946760   -1.968860   -9.371430
  C      4.577760   -0.878110  -10.144860
  C      4.783940    0.326370   -9.437350
  S      4.496230    1.977690   -9.993790
  C      2.766410    2.143210   -9.713290
  C      1.780490    1.207810  -10.084760
  C      0.524650    1.645000   -9.805950
  S      0.498560    3.203690   -9.084980
  C      2.240280    3.287250   -9.130780
  C      3.011540    4.292640   -8.513440
  C      2.573460    5.395140   -7.860460
  C      3.454690    6.205900   -7.097760
  S      3.038430    7.837800   -6.672740
  C      4.532450    8.083920   -5.796250
  C      4.863760    9.327560   -5.196480
  S      6.473950    9.585020   -4.575910
  C      6.098190   11.220710   -4.132150
  C      7.070470   12.068510   -3.527760
  C      8.311930   11.665700   -3.191510
  C      9.350800   12.475300   -2.602390
  C     10.502780   11.834370   -2.102610
  C     11.511660   12.563440   -1.540270
  C     11.438760   13.965390   -1.458230
  C     12.501230   14.712920   -0.882540
  C     12.444800   16.062930   -0.814570
  C     11.320360   16.778350   -1.315530
  C     11.281550   18.180190   -1.241720
  C     10.205810   18.882360   -1.720440
  C      9.132810   18.194870   -2.287830
  C      9.149420   16.823930   -2.370270
  C     10.235960   16.074930   -1.892150
  C     10.296180   14.632870   -1.965110
  C      9.274510   13.859240   -2.523630
  C      4.788120   11.531940   -4.454690
  C      4.085680   10.466640   -5.039380
  C      2.649280   10.581130   -5.438360
  C      1.983070   11.811410   -4.800690
  C      0.670600   11.966420   -5.391430
  N     -0.359390   12.038370   -5.878650
  C      2.875670   13.045610   -5.004940
  C      2.178540   14.321230   -4.544820
  F      1.674900   14.204230   -3.306260
  F      3.029370   15.361350   -4.508540
  F      1.173130   14.690910   -5.343080
  C      4.167440   12.871970   -4.200500
  C      5.301630    6.929160   -5.832750
  C      6.545680    6.743240   -5.209020
  N      7.554970    6.516870   -4.711550
  C      4.692050    5.865890   -6.560980
  C      5.255890    4.588070   -6.626250
  N      5.710190    3.531380   -6.640340
  C      5.322940    0.006220   -8.209870
  N      5.753460    0.748940   -7.162980
  C      6.278370    0.129280   -6.099060
  N      6.426740   -1.160930   -5.990480
  C      6.025580   -1.951590   -6.996490
  C      5.442590   -1.450880   -8.135550
  H      4.817730   -5.413600   -9.519840
  H      5.149150   -4.416250   -8.026870
  H      4.576160   -3.431910  -10.865490
  H      4.188190   -0.930030  -11.146070
  H      2.001670    0.257310  -10.533910
  H     -0.403430    1.142420   -9.994390
  H      4.076430    4.104200   -8.558550
  H      1.533500    5.687290   -7.902650
  H      6.750080   13.081780   -3.334030
  H      8.571400   10.627040   -3.361560
  H     10.573490   10.758210   -2.163720
  H     12.390810   12.068910   -1.152550
  H     13.357110   14.173750   -0.502530
  H     13.255080   16.629610   -0.378530
  H     12.120290   18.698240   -0.798800
  H     10.184060   19.960310   -1.660990
  H      8.283630   18.745720   -2.665070
  H      8.302060   16.326980   -2.815760
  H      8.403340   14.348560   -2.926280
  H      2.097750    9.687270   -5.135360
  H      2.573690   10.653610   -6.529590
  H      1.852150   11.646240   -3.723640
  H      3.099810   13.169200   -6.070180
  H      3.942790   12.975350   -3.132440
  H      4.869700   13.664880   -4.467120
  H      5.700770    1.774900   -7.175730
  H      6.608030    0.750680   -5.279270
  H      6.211170   -3.004160   -6.840300

 Total Charge           Charge          ....    0
 Multiplicity           Mult            ....    1
 Number of Electrons    NEL             ....  436
 Basis Dimension        Dim             ....  982

ORBITAL ENERGIES
----------------

  NO   OCC          E(Eh)            E(eV)
   0   2.0000     -88.997550     -2421.7465
   1   2.0000     -88.971578     -2421.0397
   2   2.0000     -88.962602     -2420.7955
   3   2.0000     -88.931246     -2419.9422
   4   2.0000     -24.813798      -675.2178
   5   2.0000     -24.809876      -675.1111
   6   2.0000     -24.808855      -675.0833
   7   2.0000     -14.474974      -393.8841
   8   2.0000     -14.437645      -392.8683
   9   2.0000     -14.420990      -392.4151
  10   2.0000     -14.413208      -392.2033
  11   2.0000     -14.394172      -391.6853
  12   2.0000     -10.526043      -286.4282
  13   2.0000     -10.353381      -281.7298
  14   2.0000     -10.348935      -281.6088
  15   2.0000     -10.346318      -281.5376
  16   2.0000     -10.344499      -281.4881
  17   2.0000     -10.344386      -281.4851
  18   2.0000     -10.337384      -281.2945
  19   2.0000     -10.334646      -281.2200
  20   2.0000     -10.330120      -281.0969
  21   2.0000     -10.328198      -281.0445
  22   2.0000     -10.320483      -280.8346
  23   2.0000     -10.319054      -280.7957
  24   2.0000     -10.315633      -280.7026
  25   2.0000     -10.312103      -280.6066
  26   2.0000     -10.308961      -280.5211
  27   2.0000     -10.308584      -280.5108
  28   2.0000     -10.307596      -280.4839
  29   2.0000     -10.307570      -280.4832
  30   2.0000     -10.306855      -280.4638
  31   2.0000     -10.306204      -280.4461
  32   2.0000     -10.305739      -280.4334
  33   2.0000     -10.304492      -280.3995
  34   2.0000     -10.299033      -280.2509
  35   2.0000     -10.297865      -280.2191
  36   2.0000     -10.292719      -280.0791
  37   2.0000     -10.291149      -280.0364
  38   2.0000     -10.285044      -279.8703
  39   2.0000     -10.284100      -279.8446
  40   2.0000     -10.281606      -279.7767
  41   2.0000     -10.281106      -279.7631
  42   2.0000     -10.280030      -279.7338
  43   2.0000     -10.278114      -279.6817
  44   2.0000     -10.277838      -279.6742
  45   2.0000     -10.275454      -279.6093
  46   2.0000     -10.274451      -279.5820
  47   2.0000     -10.273682      -279.5611
  48   2.0000     -10.272875      -279.5391
  49   2.0000     -10.272620      -279.5322
  50   2.0000     -10.271717      -279.5076
  51   2.0000     -10.271434      -279.4999
  52   2.0000     -10.270692      -279.4797
  53   2.0000     -10.264201      -279.3031
  54   2.0000     -10.264151      -279.3017
  55   2.0000     -10.256511      -279.0939
  56   2.0000     -10.252526      -278.9854
  57   2.0000     -10.243874      -278.7500
  58   2.0000     -10.235724      -278.5282
  59   2.0000      -8.092424      -220.2061
  60   2.0000      -8.066459      -219.4995
  61   2.0000      -8.058604      -219.2858
  62   2.0000      -8.024965      -218.3704
  63   2.0000      -6.061863      -164.9517
  64   2.0000      -6.057465      -164.8320
  65   2.0000      -6.054487      -164.7510
  66   2.0000      -6.035773      -164.2417
  67   2.0000      -6.031632      -164.1291
  68   2.0000      -6.028463      -164.0428
  69   2.0000      -6.027888      -164.0272
  70   2.0000      -6.023726      -163.9139
  71   2.0000      -6.020704      -163.8317
  72   2.0000      -5.995512      -163.1462
  73   2.0000      -5.991274      -163.0309
  74   2.0000      -5.984993      -162.8599
  75   2.0000      -1.401796       -38.1448
  76   2.0000      -1.304808       -35.5056
  77   2.0000      -1.301819       -35.4243
  78   2.0000      -1.096807       -29.8456
  79   2.0000      -1.042251       -28.3611
  80   2.0000      -1.021367       -27.7928
  81   2.0000      -1.012412       -27.5491
  82   2.0000      -1.001514       -27.2526
  83   2.0000      -1.000268       -27.2187
  84   2.0000      -0.995185       -27.0804
  85   2.0000      -0.991454       -26.9788
  86   2.0000      -0.980567       -26.6826
  87   2.0000      -0.966752       -26.3067
  88   2.0000      -0.953990       -25.9594
  89   2.0000      -0.949690       -25.8424
  90   2.0000      -0.932622       -25.3779
  91   2.0000      -0.917796       -24.9745
  92   2.0000      -0.907819       -24.7030
  93   2.0000      -0.894595       -24.3432
  94   2.0000      -0.889485       -24.2041
  95   2.0000      -0.885931       -24.1074
  96   2.0000      -0.882492       -24.0138
  97   2.0000      -0.868696       -23.6384
  98   2.0000      -0.864862       -23.5341
  99   2.0000      -0.849726       -23.1222
 100   2.0000      -0.847946       -23.0738
 101   2.0000      -0.830303       -22.5937
 102   2.0000      -0.826457       -22.4891
 103   2.0000      -0.815974       -22.2038
 104   2.0000      -0.813610       -22.1394
 105   2.0000      -0.803362       -21.8606
 106   2.0000      -0.800705       -21.7883
 107   2.0000      -0.786149       -21.3922
 108   2.0000      -0.767623       -20.8881
 109   2.0000      -0.763757       -20.7829
 110   2.0000      -0.755933       -20.5700
 111   2.0000      -0.741889       -20.1878
 112   2.0000      -0.739339       -20.1184
 113   2.0000      -0.735777       -20.0215
 114   2.0000      -0.722555       -19.6617
 115   2.0000      -0.719039       -19.5660
 116   2.0000      -0.706414       -19.2225
 117   2.0000      -0.703137       -19.1333
 118   2.0000      -0.698284       -19.0013
 119   2.0000      -0.688321       -18.7302
 120   2.0000      -0.685194       -18.6451
 121   2.0000      -0.681804       -18.5528
 122   2.0000      -0.674696       -18.3594
 123   2.0000      -0.672909       -18.3108
 124   2.0000      -0.668531       -18.1916
 125   2.0000      -0.659019       -17.9328
 126   2.0000      -0.645373       -17.5615
 127   2.0000      -0.638395       -17.3716
 128   2.0000      -0.633329       -17.2338
 129   2.0000      -0.628652       -17.1065
 130   2.0000      -0.622879       -16.9494
 131   2.0000      -0.617909       -16.8142
 132   2.0000      -0.615758       -16.7556
 133   2.0000      -0.613859       -16.7039
 134   2.0000      -0.596992       -16.2450
 135   2.0000      -0.591221       -16.0880
 136   2.0000      -0.586217       -15.9518
 137   2.0000      -0.584642       -15.9089
 138   2.0000      -0.581363       -15.8197
 139   2.0000      -0.571861       -15.5611
 140   2.0000      -0.568897       -15.4805
 141   2.0000      -0.563951       -15.3459
 142   2.0000      -0.561695       -15.2845
 143   2.0000      -0.560304       -15.2466
 144   2.0000      -0.554903       -15.0997
 145   2.0000      -0.553985       -15.0747
 146   2.0000      -0.550432       -14.9780
 147   2.0000      -0.547948       -14.9104
 148   2.0000      -0.541801       -14.7432
 149   2.0000      -0.532163       -14.4809
 150   2.0000      -0.531348       -14.4587
 151   2.0000      -0.529472       -14.4077
 152   2.0000      -0.525441       -14.2980
 153   2.0000      -0.520402       -14.1609
 154   2.0000      -0.519725       -14.1424
 155   2.0000      -0.514544       -14.0015
 156   2.0000      -0.512552       -13.9472
 157   2.0000      -0.511453       -13.9173
 158   2.0000      -0.510412       -13.8890
 159   2.0000      -0.510010       -13.8781
 160   2.0000      -0.508330       -13.8324
 161   2.0000      -0.505012       -13.7421
 162   2.0000      -0.500798       -13.6274
 163   2.0000      -0.497978       -13.5507
 164   2.0000      -0.496668       -13.5150
 165   2.0000      -0.494742       -13.4626
 166   2.0000      -0.490790       -13.3551
 167   2.0000      -0.487734       -13.2719
 168   2.0000      -0.485838       -13.2203
 169   2.0000      -0.483473       -13.1560
 170   2.0000      -0.479430       -13.0459
 171   2.0000      -0.477188       -12.9849
 172   2.0000      -0.475231       -12.9317
 173   2.0000      -0.470139       -12.7931
 174   2.0000      -0.466731       -12.7004
 175   2.0000      -0.464849       -12.6492
 176   2.0000      -0.462033       -12.5725
 177   2.0000      -0.461118       -12.5476
 178   2.0000      -0.455746       -12.4015
 179   2.0000      -0.454975       -12.3805
 180   2.0000      -0.454386       -12.3645
 181   2.0000      -0.452004       -12.2997
 182   2.0000      -0.451341       -12.2816
 183   2.0000      -0.448233       -12.1970
 184   2.0000      -0.446643       -12.1538
 185   2.0000      -0.443655       -12.0725
 186   2.0000      -0.441575       -12.0159
 187   2.0000      -0.439505       -11.9595
 188   2.0000      -0.438380       -11.9289
 189   2.0000      -0.436974       -11.8907
 190   2.0000      -0.430458       -11.7134
 191   2.0000      -0.421204       -11.4616
 192   2.0000      -0.419737       -11.4216
 193   2.0000      -0.413288       -11.2461
 194   2.0000      -0.412953       -11.2370
 195   2.0000      -0.411457       -11.1963
 196   2.0000      -0.407523       -11.0893
 197   2.0000      -0.405057       -11.0222
 198   2.0000      -0.402277       -10.9465
 199   2.0000      -0.401312       -10.9202
 200   2.0000      -0.399852       -10.8805
 201   2.0000      -0.394148       -10.7253
 202   2.0000      -0.386369       -10.5136
 203   2.0000      -0.364202        -9.9104
 204   2.0000      -0.355822        -9.6824
 205   2.0000      -0.351800        -9.5730
 206   2.0000      -0.348018        -9.4701
 207   2.0000      -0.339418        -9.2360
 208   2.0000      -0.333713        -9.0808
 209   2.0000      -0.332873        -9.0579
 210   2.0000      -0.330369        -8.9898
 211   2.0000      -0.304321        -8.2810
 212   2.0000      -0.293866        -7.9965
 213   2.0000      -0.290995        -7.9184
 214   2.0000      -0.286586        -7.7984
 215   2.0000      -0.271256        -7.3813
 216   2.0000      -0.248821        -6.7708
 217   2.0000      -0.235020        -6.3952
 218   0.0000      -0.079593        -2.1658
 219   0.0000      -0.058258        -1.5853
 220   0.0000      -0.024037        -0.6541
 221   0.0000      -0.013879        -0.3777
 222   0.0000      -0.007093        -0.1930

MULLIKEN ATOMIC CHARGES
-----------------------
   0 C :   -0.050511
   1 C :    0.010574
   2 C :    0.052668
   3 C :   -0.064628
   4 C :   -0.158770
   5 S :    0.045409
   6 C :   -0.001623
   7 C :    0.057392
   8 C :   -0.052595
   9 S :    0.121668
  10 C :   -0.122081
  11 C :   -0.005658
  12 C :    0.008348
  13 C :   -0.053388
  14 S :    0.137662
  15 C :   -0.080947
  16 C :   -0.135299
  17 S :    0.130455
  18 C :   -0.060663
  19 C :   -0.007392
  20 C :   -0.005714
  21 C :    0.129608
  22 C :   -0.021425
  23 C :   -0.013003
  24 C :    0.043857
  25 C :   -0.005318
  26 C :   -0.004268
  27 C :    0.055220
  28 C :   -0.025206
  29 C :    0.031213
  30 C :    0.030832
  31 C :   -0.045302
  32 C :    0.100797
  33 C :    0.143753
  34 C :   -0.103098
  35 C :   -0.109414
  36 C :   -0.041368
  37 C :    0.140197
  38 C :   -0.081977
  39 C :   -0.263752
  40 N :    0.161356
  41 C :   -0.192629
  42 C :    0.516143
  43 F :   -0.165251
  44 F :   -0.166363
  45 F :   -0.140929
  46 C :    0.201707
  47 C :    0.022846
  48 C :   -0.322373
  49 N :    0.226144
  50 C :   -0.053280
  51 C :   -0.199490
  52 N :    0.143621
  53 C :    0.047232
  54 N :    0.038814
  55 C :    0.105836
  56 N :   -0.131749
  57 C :   -0.002604
  58 C :    0.016711
  59 H :    0.009594
  60 H :   -0.003126
  61 H :   -0.030510
  62 H :   -0.033155
  63 H :   -0.006613
  64 H :    0.037351
  65 H :    0.029900
  66 H :   -0.003259
  67 H :   -0.013216
  68 H :   -0.001255
  69 H :   -0.018788
  70 H :   -0.027127
  71 H :   -0.028857
  72 H :   -0.027164
  73 H :   -0.028033
  74 H :   -0.013312
  75 H :   -0.017220
  76 H :   -0.038589
  77 H :   -0.051140
  78 H :    0.046753
  79 H :    0.042334
  80 H :    0.054643
  81 H :    0.044576
  82 H :    0.033250
  83 H :    0.039143
  84 H :    0.137653
  85 H :    0.033279
  86 H :    0.000887
Sum of atomic charges:   -0.0000000

LOEWDIN ATOMIC CHARGES
----------------------
   0 C :   -0.083061
   1 C :   -0.016143
   2 C :   -0.085459
   3 C :   -0.018398
   4 C :   -0.278572
   5 S :    0.331407
   6 C :   -0.166135
   7 C :   -0.065829
   8 C :   -0.155073
   9 S :    0.430018
  10 C :   -0.213273
  11 C :    0.006885
  12 C :   -0.085284
  13 C :   -0.119815
  14 S :    0.487556
  15 C :   -0.146367
  16 C :   -0.198265
  17 S :    0.480717
  18 C :   -0.153225
  19 C :   -0.051303
  20 C :    0.001133
  21 C :   -0.032496
  22 C :   -0.015111
  23 C :   -0.011805
  24 C :   -0.012863
  25 C :   -0.018477
  26 C :   -0.011319
  27 C :   -0.017651
  28 C :   -0.014150
  29 C :   -0.023629
  30 C :   -0.022131
  31 C :   -0.017273
  32 C :   -0.009454
  33 C :   -0.006470
  34 C :   -0.002107
  35 C :   -0.070980
  36 C :   -0.054843
  37 C :   -0.020445
  38 C :   -0.039744
  39 C :   -0.047056
  40 N :   -0.047481
  41 C :   -0.048243
  42 C :    0.161947
  43 F :   -0.060447
  44 F :   -0.061469
  45 F :   -0.042015
  46 C :   -0.017417
  47 C :   -0.097275
  48 C :   -0.055633
  49 N :   -0.036054
  50 C :   -0.109265
  51 C :    0.028860
  52 N :   -0.060240
  53 C :    0.015112
  54 N :    0.122924
  55 C :    0.077576
  56 N :   -0.119005
  57 C :    0.059868
  58 C :   -0.052213
  59 H :    0.019483
  60 H :    0.013007
  61 H :    0.026157
  62 H :    0.018957
  63 H :    0.035688
  64 H :    0.028446
  65 H :    0.031081
  66 H :    0.028352
  67 H :    0.029324
  68 H :    0.026005
  69 H :    0.030024
  70 H :    0.029588
  71 H :    0.028950
  72 H :    0.029083
  73 H :    0.027440
  74 H :    0.029215
  75 H :    0.028524
  76 H :    0.023428
  77 H :    0.020862
  78 H :    0.034003
  79 H :    0.039906
  80 H :    0.058051
  81 H :    0.047799
  82 H :    0.040254
  83 H :    0.039289
  84 H :    0.069337
  85 H :    0.029713
  86 H :    0.024998

  Mayer bond orders larger than 0.100000
B(  0-C ,  1-C ) :   1.9241 B(  0-C , 59-H ) :   0.9463 B(  0-C , 60-H ) :   0.9556
B(  1-C ,  2-C ) :   1.1142 B(  1-C , 61-H ) :   0.9585 B(  2-C ,  3-C ) :   1.4663
B(  2-C , 58-C ) :   1.1450 B(  3-C ,  4-C ) :   1.2158 B(  3-C , 62-H ) :   1.0046
B(  4-C ,  5-S ) :   0.9677 B(  4-C , 53-C ) :   1.4808 B(  5-S ,  6-C ) :   1.0083
B(  6-C ,  7-C ) :   1.2669 B(  6-C , 10-C ) :   1.4782 B(  7-C ,  8-C ) :   1.5705
B(  7-C , 63-H ) :   0.9955 B(  8-C ,  9-S ) :   1.1716 B(  8-C , 64-H ) :   0.9687
B(  9-S , 10-C ) :   1.1021 B( 10-C , 11-C ) :   1.2099 B( 11-C , 12-C ) :   1.6369
B( 11-C , 65-H ) :   0.9431 B( 12-C , 13-C ) :   1.1553 B( 12-C , 66-H ) :   0.9548
B( 13-C , 14-S ) :   1.1098 B( 13-C , 50-C ) :   1.4752 B( 14-S , 15-C ) :   1.1156
B( 15-C , 16-C ) :   1.1863 B( 15-C , 47-C ) :   1.4712 B( 16-C , 17-S ) :   1.1248
B( 16-C , 18-C ) :   0.1047 B( 16-C , 36-C ) :   1.4840 B( 17-S , 18-C ) :   1.1165
B( 18-C , 19-C ) :   1.1539 B( 18-C , 35-C ) :   1.4944 B( 19-C , 20-C ) :   1.6773
B( 19-C , 67-H ) :   0.9609 B( 20-C , 21-C ) :   1.0673 B( 20-C , 68-H ) :   0.9808
B( 21-C , 22-C ) :   1.2517 B( 21-C , 34-C ) :   1.3958 B( 22-C , 23-C ) :   1.4527
B( 22-C , 69-H ) :   0.9996 B( 23-C , 24-C ) :   1.2686 B( 23-C , 70-H ) :   0.9960
B( 24-C , 25-C ) :   1.1557 B( 24-C , 33-C ) :   1.2836 B( 25-C , 26-C ) :   1.5643
B( 25-C , 71-H ) :   0.9965 B( 26-C , 27-C ) :   1.1445 B( 26-C , 72-H ) :   0.9959
B( 27-C , 28-C ) :   1.2817 B( 27-C , 32-C ) :   1.3053 B( 28-C , 29-C ) :   1.4527
B( 28-C , 73-H ) :   0.9964 B( 29-C , 30-C ) :   1.3010 B( 29-C , 74-H ) :   0.9907
B( 30-C , 31-C ) :   1.4645 B( 30-C , 75-H ) :   0.9836 B( 31-C , 32-C ) :   1.3073
B( 31-C , 76-H ) :   0.9859 B( 32-C , 33-C ) :   1.0883 B( 33-C , 34-C ) :   1.3132
B( 34-C , 77-H ) :   0.9829 B( 35-C , 36-C ) :   1.3268 B( 35-C , 46-C ) :   1.0336
B( 36-C , 37-C ) :   1.0586 B( 37-C , 38-C ) :   1.0791 B( 37-C , 78-H ) :   0.9040
B( 37-C , 79-H ) :   0.8919 B( 38-C , 39-C ) :   1.0759 B( 38-C , 41-C ) :   1.0136
B( 38-C , 80-H ) :   0.8672 B( 39-C , 40-N ) :   3.1260 B( 41-C , 42-C ) :   0.9846
B( 41-C , 46-C ) :   1.0382 B( 41-C , 81-H ) :   0.8946 B( 42-C , 43-F ) :   1.1488
B( 42-C , 44-F ) :   1.1379 B( 42-C , 45-F ) :   1.1705 B( 46-C , 82-H ) :   0.9008
B( 46-C , 83-H ) :   0.9065 B( 47-C , 48-C ) :   1.1456 B( 47-C , 50-C ) :   1.2895
B( 48-C , 49-N ) :   2.9918 B( 50-C , 51-C ) :   1.1773 B( 51-C , 52-N ) :   2.8765
B( 52-N , 84-H ) :   0.1463 B( 53-C , 54-N ) :   1.2405 B( 53-C , 58-C ) :   1.1374
B( 54-N , 55-C ) :   1.2975 B( 54-N , 84-H ) :   0.8453 B( 55-C , 56-N ) :   1.6204
B( 55-C , 85-H ) :   0.9700 B( 56-N , 57-C ) :   1.4408 B( 57-C , 58-C ) :   1.4116
B( 57-C , 86-H ) :   0.9860

-----------------------------------------------------------------------------
         ABSORPTION SPECTRUM VIA TRANSITION ELECTRIC DIPOLE MOMENTS
-----------------------------------------------------------------------------
State   Energy  Wavelength   fosc         T2         TX        TY        TZ
        (cm-1)    (nm)                  (au**2)     (au)      (au)      (au)
-----------------------------------------------------------------------------
   0   20221.9    494.5   0.036852508   0.59996   0.17409   0.72357   0.21470
   1   21155.7    472.7   1.838998234  28.61733  -2.31903  -4.17444  -2.41111
   2   25220.3    396.5   0.030901411   0.40337  -0.12084   0.62166  -0.04804
   3   25915.7    385.9   0.061520762   0.78151  -0.79218  -0.37028   0.12982
   4   26855.8    372.4   0.001395029   0.01710  -0.08711  -0.08882   0.04030
   5   27927.5    358.1   0.034626500   0.40818  -0.56204   0.30380   0.00057
   6   30264.4    330.4   0.015580105   0.16948  -0.31603   0.26300  -0.02083
   7   30951.6    323.1   0.013112270   0.13947  -0.34152   0.01231  -0.15059
   8   31291.3    319.6   0.011014399   0.11588  -0.15570   0.30150   0.02721
   9   32848.5    304.4   0.352225913   3.53005   1.42848   1.04704   0.62706
  10   33663.4    297.1   0.026436828   0.25854  -0.42130  -0.28223  -0.03731
  11   34104.3    293.2   0.052829503   0.50997  -0.38682  -0.46348  -0.38149
  12   36469.0    274.2   0.070513089   0.63653   0.73516  -0.12331   0.28436
  13   36940.6    270.7   0.003020509   0.02692   0.05371  -0.13792   0.07079
  14   37214.6    268.7   0.003242021   0.02868   0.10311  -0.10881   0.07879
  15   37483.4    266.8   0.011775482   0.10342  -0.27953  -0.14751  -0.05937
  16   37942.7    263.6   0.003257825   0.02827  -0.11230  -0.12104  -0.03170
  17   38268.3    261.3   0.020684586   0.17794  -0.37258  -0.13951  -0.14024
  18   38444.3    260.1   0.009531276   0.08162   0.22739   0.16535   0.05069
  19   39117.1    255.6   0.106757523   0.89848  -0.92350   0.20466  -0.06118
  20   39738.7    251.6   0.061681714   0.51100  -0.65900  -0.02276  -0.27603

FINAL SINGLE POINT ENERGY     -3970.430906542992

DIPOLE MOMENT
-------------
                                X             Y             Z
Electronic contribution:    -32.45285      14.61858      -6.91718
Nuclear contribution   :     32.52778     -12.49625       7.44377
                        -----------------------------------------
Total Dipole Moment    :      0.07493       2.12233       0.52659
                        -----------------------------------------
Magnitude (a.u.)       :      2.18797
Magnitude (Debye)      :      5.56137

Rotational constants in cm-1:     0.001988     0.000412     0.000348
Rotational constants in MHz :    59.589627    12.365090    10.444470

                             ****ORCA TERMINATED NORMALLY****
TOTAL RUN TIME: 0 days 0 hours 13 minutes 57 seconds 235 msec
