                         Program Version 4.2.0 -  RELEASE  -
|  1> # ORCA input file
|  2> # SCF done       -156.378570898980          0.000535138328
|  3> ! CAM-B3LYP def2-SVP def2/J RIJCOSX Grid4 TightSCF
|  4> %maxcore 5000
|  5> %tddft
|  6>     Mode sTDDFT
|  7>     Ethresh 5.0
|  8>     maxcore 5000
|  9> end
| 10>
| 11> %pal
| 12>   nprocs 6
| 13>   end
| 14> * xyz 0 1
| 15>    N        2.01150        -0.28117         2.75222
| 16>    C        2.95122        -0.24840         2.09235
| 17>    C        4.11241        -0.20302         1.31412
| 18>    C        4.93593         0.86583         1.16111
| 19>    C        6.03279         0.49175         0.27630
| 20>    C        7.01720         1.40367        -0.21441
| 21>    S        7.60339         2.65322         0.88340
| 22>    C        8.63974         3.21706        -0.34642
| 23>    C        8.51432         2.52128        -1.51617
| 24>    C        7.58823         1.46974        -1.48326
| 25>    C        7.19199         0.66926        -2.68622
| 26>    C        5.71609         0.26315        -2.67919
| 27>    O        4.78390         0.94308        -2.37186
| 28>    O        5.58912        -0.99960        -3.11703
| 29>    C        6.83014        -1.51095        -3.59496
| 30>    C        7.91010        -0.67234        -2.88868
| 31>    C        9.24908        -0.62559        -3.61538
| 32>    C        9.11491        -0.34245        -5.10528
| 33>    C        8.18268        -1.32200        -5.80719
| 34>    C        8.60852        -2.78830        -5.86726
| 35>    C        7.27531        -3.50676        -5.98845
| 36>    O        7.07309        -4.62924        -6.34425
| 37>    O        6.28080        -2.67327        -5.62734
| 38>    C        6.80539        -1.44273        -5.13853
| 39>    C        9.53222         3.38846        -2.22186
| 40>    C        9.66992         4.17106        -0.87810
| 41>    C        5.89056        -0.83399        -0.02803
| 42>    C        4.68204        -1.32705         0.55030
| 43>    C        4.12975        -2.55815         0.31586
| 44>    C        2.80417        -3.01682         0.61335
| 45>    C        2.59386        -4.20195        -0.03400
| 46>    C        1.39721        -5.00410        -0.12844
| 47>    C        0.93162        -5.53634        -1.32327
| 48>    C        1.35139        -5.12329        -2.69017
| 49>    C        0.18766        -4.40599        -3.40766
| 50>    O       -0.59251        -3.65202        -2.91278
| 51>    O        0.15892        -4.76845        -4.69400
| 52>    C        1.27699        -5.58434        -5.02710
| 53>    C        1.68922        -6.23262        -3.69481
| 54>    C        3.12114        -6.75237        -3.69246
| 55>    C        4.12760        -5.69406        -4.12652
| 56>    C        3.81537        -5.12045        -5.50157
| 57>    C        4.04660        -6.05110        -6.68818
| 58>    C        3.04607        -5.54695        -7.71112
| 59>    O        3.00464        -5.79454        -8.87859
| 60>    O        2.15075        -4.73802        -7.10914
| 61>    C        2.34987        -4.69303        -5.70256
| 62>    S       -0.47836        -6.55339        -1.14046
| 63>    C       -0.43229        -6.27185         0.55089
| 64>    C        0.57179        -5.43845         0.93060
| 65>    C        0.20321        -5.53867         2.39141
| 66>    C       -0.94636        -6.49681         1.94396
| 67>    C        3.82875        -4.59335        -0.68477
| 68>    C        4.76165        -3.62424        -0.48193
| 69>    C        6.06545        -3.68657        -0.96712
| 70>    N        7.12082        -3.77964        -1.41910
| 71>    H        4.80365         1.84621         1.58030
| 72>    H        7.33959         1.30798        -3.56582
| 73>    H        6.88417        -2.56337        -3.29785
| 74>    H        8.08933        -1.11808        -1.90531
| 75>    H        9.75052        -1.58340        -3.46862
| 76>    H        9.87126         0.14075        -3.15069
| 77>    H       10.09873        -0.38944        -5.57419
| 78>    H        8.72841         0.66763        -5.25773
| 79>    H        8.02370        -0.97332        -6.83418
| 80>    H        9.08903        -3.11961        -4.94514
| 81>    H        9.25815        -3.03253        -6.70458
| 82>    H        6.11201        -0.65338        -5.44378
| 83>    H        9.13686         3.97791        -3.04627
| 84>    H       10.43715         2.87273        -2.53728
| 85>    H        9.35472         5.21184        -0.91832
| 86>    H       10.64797         4.10594        -0.40499
| 87>    H        6.55404        -1.43500        -0.61164
| 88>    H        2.08105        -2.46232         1.17819
| 89>    H        2.16872        -4.39875        -2.60890
| 90>    H        0.92997        -6.31855        -5.76042
| 91>    H        1.00832        -7.07125        -3.50312
| 92>    H        3.17529        -7.60790        -4.36854
| 93>    H        3.36545        -7.11950        -2.69386
| 94>    H        5.12958        -6.12485        -4.15237
| 95>    H        4.14720        -4.87243        -3.40817
| 96>    H        4.44042        -4.23444        -5.64844
| 97>    H        3.81824        -7.09386        -6.46188
| 98>    H        5.06261        -5.99518        -7.07417
| 99>    H        2.17431        -3.65957        -5.38598
|100>    H       -0.13296        -4.60596         2.83780
|101>    H        0.95782        -6.00116         3.02411
|102>    H       -1.95251        -6.12595         2.12913
|103>    H       -0.86008        -7.51852         2.30983
|104>    H        3.98088        -5.53090        -1.18545
|105> *
|106>
|107>                          ****END OF INPUT****

CARTESIAN COORDINATES (ANGSTROEM)
---------------------------------
  N      2.011500   -0.281170    2.752220
  C      2.951220   -0.248400    2.092350
  C      4.112410   -0.203020    1.314120
  C      4.935930    0.865830    1.161110
  C      6.032790    0.491750    0.276300
  C      7.017200    1.403670   -0.214410
  S      7.603390    2.653220    0.883400
  C      8.639740    3.217060   -0.346420
  C      8.514320    2.521280   -1.516170
  C      7.588230    1.469740   -1.483260
  C      7.191990    0.669260   -2.686220
  C      5.716090    0.263150   -2.679190
  O      4.783900    0.943080   -2.371860
  O      5.589120   -0.999600   -3.117030
  C      6.830140   -1.510950   -3.594960
  C      7.910100   -0.672340   -2.888680
  C      9.249080   -0.625590   -3.615380
  C      9.114910   -0.342450   -5.105280
  C      8.182680   -1.322000   -5.807190
  C      8.608520   -2.788300   -5.867260
  C      7.275310   -3.506760   -5.988450
  O      7.073090   -4.629240   -6.344250
  O      6.280800   -2.673270   -5.627340
  C      6.805390   -1.442730   -5.138530
  C      9.532220    3.388460   -2.221860
  C      9.669920    4.171060   -0.878100
  C      5.890560   -0.833990   -0.028030
  C      4.682040   -1.327050    0.550300
  C      4.129750   -2.558150    0.315860
  C      2.804170   -3.016820    0.613350
  C      2.593860   -4.201950   -0.034000
  C      1.397210   -5.004100   -0.128440
  C      0.931620   -5.536340   -1.323270
  C      1.351390   -5.123290   -2.690170
  C      0.187660   -4.405990   -3.407660
  O     -0.592510   -3.652020   -2.912780
  O      0.158920   -4.768450   -4.694000
  C      1.276990   -5.584340   -5.027100
  C      1.689220   -6.232620   -3.694810
  C      3.121140   -6.752370   -3.692460
  C      4.127600   -5.694060   -4.126520
  C      3.815370   -5.120450   -5.501570
  C      4.046600   -6.051100   -6.688180
  C      3.046070   -5.546950   -7.711120
  O      3.004640   -5.794540   -8.878590
  O      2.150750   -4.738020   -7.109140
  C      2.349870   -4.693030   -5.702560
  S     -0.478360   -6.553390   -1.140460
  C     -0.432290   -6.271850    0.550890
  C      0.571790   -5.438450    0.930600
  C      0.203210   -5.538670    2.391410
  C     -0.946360   -6.496810    1.943960
  C      3.828750   -4.593350   -0.684770
  C      4.761650   -3.624240   -0.481930
  C      6.065450   -3.686570   -0.967120
  N      7.120820   -3.779640   -1.419100
  H      4.803650    1.846210    1.580300
  H      7.339590    1.307980   -3.565820
  H      6.884170   -2.563370   -3.297850
  H      8.089330   -1.118080   -1.905310
  H      9.750520   -1.583400   -3.468620
  H      9.871260    0.140750   -3.150690
  H     10.098730   -0.389440   -5.574190
  H      8.728410    0.667630   -5.257730
  H      8.023700   -0.973320   -6.834180
  H      9.089030   -3.119610   -4.945140
  H      9.258150   -3.032530   -6.704580
  H      6.112010   -0.653380   -5.443780
  H      9.136860    3.977910   -3.046270
  H     10.437150    2.872730   -2.537280
  H      9.354720    5.211840   -0.918320
  H     10.647970    4.105940   -0.404990
  H      6.554040   -1.435000   -0.611640
  H      2.081050   -2.462320    1.178190
  H      2.168720   -4.398750   -2.608900
  H      0.929970   -6.318550   -5.760420
  H      1.008320   -7.071250   -3.503120
  H      3.175290   -7.607900   -4.368540
  H      3.365450   -7.119500   -2.693860
  H      5.129580   -6.124850   -4.152370
  H      4.147200   -4.872430   -3.408170
  H      4.440420   -4.234440   -5.648440
  H      3.818240   -7.093860   -6.461880
  H      5.062610   -5.995180   -7.074170
  H      2.174310   -3.659570   -5.385980
  H     -0.132960   -4.605960    2.837800
  H      0.957820   -6.001160    3.024110
  H     -1.952510   -6.125950    2.129130
  H     -0.860080   -7.518520    2.309830
  H      3.980880   -5.530900   -1.185450

 Total Charge           Charge          ....    0
 Multiplicity           Mult            ....    1
 Number of Electrons    NEL             ....  408
 Basis Dimension        Dim             ....  962

ORBITAL ENERGIES
----------------

  NO   OCC          E(Eh)            E(eV)
   0   2.0000     -88.972660     -2421.0692
   1   2.0000     -88.957190     -2420.6482
   2   2.0000     -19.274414      -524.4835
   3   2.0000     -19.269994      -524.3632
   4   2.0000     -19.254049      -523.9293
   5   2.0000     -19.242147      -523.6055
   6   2.0000     -19.215090      -522.8692
   7   2.0000     -19.206300      -522.6300
   8   2.0000     -19.191302      -522.2219
   9   2.0000     -19.179742      -521.9073
  10   2.0000     -14.421198      -392.4207
  11   2.0000     -14.406009      -392.0074
  12   2.0000     -10.411570      -283.3132
  13   2.0000     -10.405331      -283.1435
  14   2.0000     -10.389327      -282.7080
  15   2.0000     -10.377807      -282.3945
  16   2.0000     -10.350567      -281.6533
  17   2.0000     -10.343868      -281.4710
  18   2.0000     -10.332894      -281.1723
  19   2.0000     -10.326776      -281.0058
  20   2.0000     -10.326362      -280.9946
  21   2.0000     -10.323032      -280.9040
  22   2.0000     -10.321631      -280.8659
  23   2.0000     -10.315730      -280.7053
  24   2.0000     -10.315459      -280.6979
  25   2.0000     -10.315074      -280.6874
  26   2.0000     -10.310235      -280.5558
  27   2.0000     -10.309796      -280.5438
  28   2.0000     -10.309720      -280.5418
  29   2.0000     -10.307636      -280.4850
  30   2.0000     -10.307612      -280.4844
  31   2.0000     -10.305476      -280.4263
  32   2.0000     -10.303136      -280.3626
  33   2.0000     -10.302942      -280.3573
  34   2.0000     -10.301681      -280.3230
  35   2.0000     -10.299862      -280.2735
  36   2.0000     -10.299853      -280.2733
  37   2.0000     -10.299487      -280.2633
  38   2.0000     -10.299299      -280.2582
  39   2.0000     -10.298459      -280.2353
  40   2.0000     -10.298070      -280.2247
  41   2.0000     -10.293899      -280.1112
  42   2.0000     -10.291477      -280.0453
  43   2.0000     -10.290553      -280.0202
  44   2.0000     -10.285393      -279.8798
  45   2.0000     -10.284004      -279.8420
  46   2.0000     -10.282483      -279.8006
  47   2.0000     -10.282011      -279.7877
  48   2.0000     -10.280957      -279.7591
  49   2.0000     -10.278844      -279.7016
  50   2.0000     -10.278362      -279.6885
  51   2.0000     -10.277791      -279.6729
  52   2.0000     -10.272350      -279.5249
  53   2.0000     -10.270581      -279.4767
  54   2.0000     -10.264676      -279.3160
  55   2.0000     -10.263224      -279.2765
  56   2.0000      -8.067217      -219.5201
  57   2.0000      -8.051627      -219.0959
  58   2.0000      -6.036549      -164.2628
  59   2.0000      -6.032380      -164.1494
  60   2.0000      -6.029470      -164.0702
  61   2.0000      -6.020962      -163.8387
  62   2.0000      -6.016790      -163.7252
  63   2.0000      -6.013936      -163.6475
  64   2.0000      -1.212543       -32.9950
  65   2.0000      -1.202844       -32.7311
  66   2.0000      -1.192589       -32.4520
  67   2.0000      -1.176561       -32.0158
  68   2.0000      -1.122172       -30.5359
  69   2.0000      -1.113715       -30.3057
  70   2.0000      -1.100914       -29.9574
  71   2.0000      -1.087399       -29.5896
  72   2.0000      -1.020708       -27.7749
  73   2.0000      -1.013714       -27.5846
  74   2.0000      -1.003535       -27.3076
  75   2.0000      -0.999093       -27.1867
  76   2.0000      -0.986710       -26.8497
  77   2.0000      -0.979677       -26.6584
  78   2.0000      -0.960355       -26.1326
  79   2.0000      -0.944764       -25.7083
  80   2.0000      -0.935832       -25.4653
  81   2.0000      -0.920829       -25.0570
  82   2.0000      -0.915650       -24.9161
  83   2.0000      -0.885853       -24.1053
  84   2.0000      -0.878675       -23.9099
  85   2.0000      -0.875489       -23.8233
  86   2.0000      -0.862754       -23.4767
  87   2.0000      -0.857670       -23.3384
  88   2.0000      -0.849730       -23.1223
  89   2.0000      -0.846548       -23.0357
  90   2.0000      -0.834672       -22.7126
  91   2.0000      -0.832680       -22.6584
  92   2.0000      -0.825272       -22.4568
  93   2.0000      -0.803557       -21.8659
  94   2.0000      -0.794670       -21.6241
  95   2.0000      -0.787853       -21.4386
  96   2.0000      -0.757302       -20.6072
  97   2.0000      -0.750231       -20.4148
  98   2.0000      -0.742321       -20.1996
  99   2.0000      -0.737457       -20.0672
 100   2.0000      -0.728591       -19.8260
 101   2.0000      -0.726893       -19.7798
 102   2.0000      -0.721166       -19.6239
 103   2.0000      -0.718925       -19.5630
 104   2.0000      -0.705101       -19.1868
 105   2.0000      -0.696799       -18.9609
 106   2.0000      -0.686244       -18.6736
 107   2.0000      -0.676871       -18.4186
 108   2.0000      -0.671133       -18.2625
 109   2.0000      -0.670743       -18.2518
 110   2.0000      -0.655021       -17.8240
 111   2.0000      -0.651457       -17.7270
 112   2.0000      -0.643125       -17.5003
 113   2.0000      -0.642918       -17.4947
 114   2.0000      -0.633245       -17.2315
 115   2.0000      -0.627882       -17.0856
 116   2.0000      -0.624394       -16.9906
 117   2.0000      -0.619805       -16.8658
 118   2.0000      -0.609031       -16.5726
 119   2.0000      -0.603746       -16.4288
 120   2.0000      -0.600149       -16.3309
 121   2.0000      -0.589603       -16.0439
 122   2.0000      -0.584901       -15.9160
 123   2.0000      -0.581946       -15.8356
 124   2.0000      -0.574455       -15.6317
 125   2.0000      -0.573442       -15.6042
 126   2.0000      -0.564735       -15.3672
 127   2.0000      -0.560193       -15.2436
 128   2.0000      -0.559441       -15.2232
 129   2.0000      -0.555403       -15.1133
 130   2.0000      -0.554320       -15.0838
 131   2.0000      -0.550979       -14.9929
 132   2.0000      -0.546951       -14.8833
 133   2.0000      -0.542181       -14.7535
 134   2.0000      -0.538881       -14.6637
 135   2.0000      -0.537050       -14.6139
 136   2.0000      -0.533907       -14.5284
 137   2.0000      -0.532353       -14.4861
 138   2.0000      -0.527878       -14.3643
 139   2.0000      -0.525959       -14.3121
 140   2.0000      -0.523334       -14.2406
 141   2.0000      -0.522033       -14.2052
 142   2.0000      -0.519872       -14.1464
 143   2.0000      -0.513740       -13.9796
 144   2.0000      -0.513337       -13.9686
 145   2.0000      -0.508456       -13.8358
 146   2.0000      -0.502383       -13.6705
 147   2.0000      -0.502231       -13.6664
 148   2.0000      -0.495798       -13.4914
 149   2.0000      -0.493100       -13.4179
 150   2.0000      -0.490056       -13.3351
 151   2.0000      -0.485619       -13.2144
 152   2.0000      -0.482495       -13.1294
 153   2.0000      -0.479356       -13.0440
 154   2.0000      -0.477557       -12.9950
 155   2.0000      -0.473437       -12.8829
 156   2.0000      -0.471403       -12.8275
 157   2.0000      -0.470251       -12.7962
 158   2.0000      -0.464553       -12.6411
 159   2.0000      -0.461719       -12.5640
 160   2.0000      -0.459955       -12.5160
 161   2.0000      -0.457067       -12.4374
 162   2.0000      -0.455633       -12.3984
 163   2.0000      -0.453769       -12.3477
 164   2.0000      -0.452393       -12.3102
 165   2.0000      -0.449204       -12.2235
 166   2.0000      -0.447119       -12.1667
 167   2.0000      -0.445943       -12.1347
 168   2.0000      -0.445282       -12.1167
 169   2.0000      -0.442334       -12.0365
 170   2.0000      -0.440773       -11.9940
 171   2.0000      -0.440697       -11.9920
 172   2.0000      -0.435911       -11.8617
 173   2.0000      -0.434736       -11.8298
 174   2.0000      -0.433613       -11.7992
 175   2.0000      -0.431676       -11.7465
 176   2.0000      -0.425716       -11.5843
 177   2.0000      -0.423500       -11.5240
 178   2.0000      -0.421594       -11.4722
 179   2.0000      -0.420306       -11.4371
 180   2.0000      -0.417195       -11.3525
 181   2.0000      -0.413830       -11.2609
 182   2.0000      -0.410799       -11.1784
 183   2.0000      -0.409144       -11.1334
 184   2.0000      -0.402173       -10.9437
 185   2.0000      -0.399509       -10.8712
 186   2.0000      -0.397477       -10.8159
 187   2.0000      -0.390804       -10.6343
 188   2.0000      -0.388983       -10.5848
 189   2.0000      -0.383204       -10.4275
 190   2.0000      -0.374452       -10.1893
 191   2.0000      -0.367467        -9.9993
 192   2.0000      -0.358190        -9.7468
 193   2.0000      -0.354940        -9.6584
 194   2.0000      -0.347726        -9.4621
 195   2.0000      -0.343626        -9.3506
 196   2.0000      -0.339157        -9.2289
 197   2.0000      -0.327165        -8.9026
 198   2.0000      -0.326196        -8.8762
 199   2.0000      -0.324033        -8.8174
 200   2.0000      -0.318909        -8.6780
 201   2.0000      -0.297787        -8.1032
 202   2.0000      -0.283212        -7.7066
 203   2.0000      -0.270971        -7.3735
 204   0.0000      -0.116213        -3.1623
 205   0.0000      -0.010654        -0.2899
 206   0.0000      -0.002446        -0.0665
 207   0.0000       0.008986         0.2445
 208   0.0000       0.036296         0.9877

MULLIKEN ATOMIC CHARGES
-----------------------
   0 N :    0.141039
   1 C :   -0.186895
   2 C :   -0.078465
   3 C :    0.015675
   4 C :    0.074105
   5 C :   -0.169109
   6 S :    0.152074
   7 C :   -0.155376
   8 C :   -0.165559
   9 C :    0.070231
  10 C :   -0.059064
  11 C :    0.167059
  12 O :   -0.146515
  13 O :   -0.268854
  14 C :    0.151259
  15 C :   -0.045605
  16 C :    0.085683
  17 C :    0.098090
  18 C :   -0.135769
  19 C :    0.053146
  20 C :    0.155921
  21 O :   -0.168637
  22 O :   -0.276247
  23 C :    0.156789
  24 C :    0.143969
  25 C :    0.091464
  26 C :   -0.082210
  27 C :    0.097417
  28 C :    0.112502
  29 C :   -0.075340
  30 C :    0.028666
  31 C :    0.119373
  32 C :   -0.178283
  33 C :   -0.139153
  34 C :    0.197736
  35 O :   -0.142364
  36 O :   -0.248584
  37 C :    0.159648
  38 C :   -0.048476
  39 C :    0.096436
  40 C :    0.070921
  41 C :   -0.136459
  42 C :    0.034366
  43 C :    0.130478
  44 O :   -0.166918
  45 O :   -0.268200
  46 C :    0.158473
  47 S :    0.146756
  48 C :   -0.168228
  49 C :   -0.132333
  50 C :    0.153341
  51 C :    0.089955
  52 C :   -0.015679
  53 C :   -0.116554
  54 C :   -0.116476
  55 N :    0.085001
  56 H :    0.001240
  57 H :    0.023658
  58 H :    0.025236
  59 H :    0.040140
  60 H :    0.015027
  61 H :    0.006580
  62 H :    0.012521
  63 H :    0.003421
  64 H :    0.023142
  65 H :    0.054605
  66 H :    0.048245
  67 H :    0.021727
  68 H :    0.017479
  69 H :    0.014215
  70 H :    0.030273
  71 H :    0.027773
  72 H :   -0.038612
  73 H :    0.004473
  74 H :    0.054155
  75 H :    0.018441
  76 H :    0.013517
  77 H :    0.005574
  78 H :    0.007875
  79 H :    0.016995
  80 H :    0.000955
  81 H :    0.030520
  82 H :    0.029995
  83 H :    0.056564
  84 H :    0.018487
  85 H :    0.022432
  86 H :    0.012800
  87 H :    0.026378
  88 H :    0.021811
  89 H :   -0.013861
Sum of atomic charges:   -0.0000000

LOEWDIN ATOMIC CHARGES
----------------------
   0 N :   -0.059462
   1 C :   -0.030122
   2 C :   -0.075396
   3 C :    0.061019
   4 C :   -0.024808
   5 C :   -0.162175
   6 S :    0.443214
   7 C :   -0.198372
   8 C :   -0.075468
   9 C :   -0.040880
  10 C :   -0.052465
  11 C :    0.076746
  12 O :   -0.143720
  13 O :   -0.068092
  14 C :    0.062946
  15 C :   -0.026731
  16 C :   -0.025582
  17 C :   -0.027422
  18 C :   -0.038597
  19 C :   -0.052528
  20 C :    0.088093
  21 O :   -0.148221
  22 O :   -0.072331
  23 C :    0.067116
  24 C :   -0.002486
  25 C :   -0.004479
  26 C :   -0.038050
  27 C :    0.050288
  28 C :    0.035799
  29 C :   -0.010312
  30 C :   -0.009718
  31 C :   -0.065518
  32 C :   -0.156428
  33 C :   -0.077975
  34 C :    0.069103
  35 O :   -0.140526
  36 O :   -0.063458
  37 C :    0.068557
  38 C :   -0.032793
  39 C :   -0.027638
  40 C :   -0.029986
  41 C :   -0.040090
  42 C :   -0.057696
  43 C :    0.076834
  44 O :   -0.155289
  45 O :   -0.080068
  46 C :    0.065960
  47 S :    0.440520
  48 C :   -0.200079
  49 C :   -0.062820
  50 C :    0.002311
  51 C :   -0.005674
  52 C :    0.052327
  53 C :   -0.092275
  54 C :   -0.006890
  55 N :   -0.092142
  56 H :    0.035410
  57 H :    0.047353
  58 H :    0.025833
  59 H :    0.036356
  60 H :    0.029075
  61 H :    0.032054
  62 H :    0.032933
  63 H :    0.023334
  64 H :    0.035893
  65 H :    0.047018
  66 H :    0.047814
  67 H :    0.030034
  68 H :    0.029128
  69 H :    0.025576
  70 H :    0.032856
  71 H :    0.032015
  72 H :    0.022267
  73 H :    0.038892
  74 H :    0.048193
  75 H :    0.030356
  76 H :    0.026810
  77 H :    0.026104
  78 H :    0.025158
  79 H :    0.035110
  80 H :    0.019276
  81 H :    0.032271
  82 H :    0.036142
  83 H :    0.048174
  84 H :    0.028941
  85 H :    0.031990
  86 H :    0.027716
  87 H :    0.031167
  88 H :    0.028677
  89 H :    0.034005

  Mayer bond orders larger than 0.100000
B(  0-N ,  1-C ) :   2.9822 B(  1-C ,  2-C ) :   1.0808 B(  2-C ,  3-C ) :   1.6802
B(  2-C , 27-C ) :   1.1099 B(  3-C ,  4-C ) :   1.0531 B(  3-C , 56-H ) :   1.0129
B(  4-C ,  5-C ) :   1.0352 B(  4-C , 26-C ) :   1.6066 B(  5-C ,  6-S ) :   1.1169
B(  5-C ,  9-C ) :   1.5496 B(  6-S ,  7-C ) :   1.1037 B(  7-C ,  8-C ) :   1.6031
B(  7-C , 25-C ) :   1.1228 B(  8-C ,  9-C ) :   1.2643 B(  8-C , 24-C ) :   1.0980
B(  9-C , 10-C ) :   1.0270 B( 10-C , 11-C ) :   0.8853 B( 10-C , 15-C ) :   0.9890
B( 10-C , 57-H ) :   0.8678 B( 11-C , 12-O ) :   2.2535 B( 11-C , 13-O ) :   1.1165
B( 13-O , 14-C ) :   0.9464 B( 14-C , 15-C ) :   1.0159 B( 14-C , 23-C ) :   0.9648
B( 14-C , 58-H ) :   0.8955 B( 15-C , 16-C ) :   1.0720 B( 15-C , 59-H ) :   0.8918
B( 16-C , 17-C ) :   1.0783 B( 16-C , 60-H ) :   0.9347 B( 16-C , 61-H ) :   0.9217
B( 17-C , 18-C ) :   1.0599 B( 17-C , 62-H ) :   0.9259 B( 17-C , 63-H ) :   0.9353
B( 18-C , 19-C ) :   1.0201 B( 18-C , 23-C ) :   1.0140 B( 18-C , 64-H ) :   0.9176
B( 19-C , 20-C ) :   0.9736 B( 19-C , 65-H ) :   0.9235 B( 19-C , 66-H ) :   0.9295
B( 20-C , 21-O ) :   2.1686 B( 20-C , 22-O ) :   1.0935 B( 22-O , 23-C ) :   0.9512
B( 23-C , 67-H ) :   0.9236 B( 24-C , 25-C ) :   1.1822 B( 24-C , 68-H ) :   0.8923
B( 24-C , 69-H ) :   0.8943 B( 25-C , 70-H ) :   0.8994 B( 25-C , 71-H ) :   0.8988
B( 26-C , 27-C ) :   1.1341 B( 26-C , 72-H ) :   0.9793 B( 27-C , 28-C ) :   1.4403
B( 28-C , 29-C ) :   1.0885 B( 28-C , 53-C ) :   1.0987 B( 29-C , 30-C ) :   1.6191
B( 29-C , 73-H ) :   1.0150 B( 30-C , 31-C ) :   0.9321 B( 30-C , 52-C ) :   1.0909
B( 31-C , 32-C ) :   1.5577 B( 31-C , 49-C ) :   1.2361 B( 32-C , 33-C ) :   1.0509
B( 32-C , 47-S ) :   1.1416 B( 33-C , 34-C ) :   0.8753 B( 33-C , 38-C ) :   0.9672
B( 33-C , 74-H ) :   0.8792 B( 34-C , 35-O ) :   2.2615 B( 34-C , 36-O ) :   1.1507
B( 36-O , 37-C ) :   0.9512 B( 37-C , 38-C ) :   1.0090 B( 37-C , 46-C ) :   0.9596
B( 37-C , 75-H ) :   0.9209 B( 38-C , 39-C ) :   1.0624 B( 38-C , 76-H ) :   0.9111
B( 39-C , 40-C ) :   1.0643 B( 39-C , 77-H ) :   0.9321 B( 39-C , 78-H ) :   0.9232
B( 40-C , 41-C ) :   1.0639 B( 40-C , 79-H ) :   0.9247 B( 40-C , 80-H ) :   0.9336
B( 41-C , 42-C ) :   1.0325 B( 41-C , 46-C ) :   1.0253 B( 41-C , 81-H ) :   0.8974
B( 42-C , 43-C ) :   0.9688 B( 42-C , 82-H ) :   0.9256 B( 42-C , 83-H ) :   0.9155
B( 43-C , 44-O ) :   2.2294 B( 43-C , 45-O ) :   1.1150 B( 45-O , 46-C ) :   0.9679
B( 46-C , 84-H ) :   0.9196 B( 47-S , 48-C ) :   1.0875 B( 48-C , 49-C ) :   1.6350
B( 48-C , 51-C ) :   1.1271 B( 49-C , 50-C ) :   1.1096 B( 50-C , 51-C ) :   1.1800
B( 50-C , 85-H ) :   0.8893 B( 50-C , 86-H ) :   0.8945 B( 51-C , 87-H ) :   0.8986
B( 51-C , 88-H ) :   0.9018 B( 52-C , 53-C ) :   1.6216 B( 52-C , 89-H ) :   1.0191
B( 53-C , 54-C ) :   1.1095 B( 54-C , 55-N ) :   2.8605

-----------------------------------------------------------------------------
         ABSORPTION SPECTRUM VIA TRANSITION ELECTRIC DIPOLE MOMENTS
-----------------------------------------------------------------------------
State   Energy  Wavelength   fosc         T2         TX        TY        TZ
        (cm-1)    (nm)                  (au**2)     (au)      (au)      (au)
-----------------------------------------------------------------------------
   0   15747.9    635.0   0.310724288   6.49574   1.17916   2.22873   0.37162
   1   18406.4    543.3   0.007241867   0.12953   0.07311   0.19032  -0.29658
   2   20858.0    479.4   0.004602717   0.07265   0.05226  -0.26410  -0.01298
   3   24974.6    400.4   0.404898611   5.33732  -1.46502  -1.78471   0.07640
   4   27430.4    364.6   0.055648755   0.66788  -0.52877  -0.50911  -0.35929
   5   27922.6    358.1   0.008828807   0.10409   0.01965  -0.00157   0.32203
   6   30412.9    328.8   0.021614818   0.23397  -0.06617  -0.47514  -0.06192
   7   31956.7    312.9   0.005524654   0.05691  -0.00693  -0.16566   0.17153
   8   33528.2    298.3   0.006083746   0.05974  -0.00363   0.17687   0.16864
   9   34662.9    288.5   0.168217210   1.59765  -0.18389  -1.18177  -0.40898
  10   35287.6    283.4   0.005770689   0.05384  -0.06957  -0.18643  -0.11934
  11   36802.6    271.7   0.231021367   2.06657   0.15478   1.33278   0.51605
  12   38617.5    258.9   0.006667406   0.05684  -0.02072  -0.22894  -0.06320
  13   38956.6    256.7   0.000454243   0.00384  -0.00630  -0.05895  -0.01801
  14   39725.2    251.7   0.015462340   0.12814   0.29829   0.18049   0.08115

FINAL SINGLE POINT ENERGY     -3201.511644537042

DIPOLE MOMENT
-------------
                                X             Y             Z
Electronic contribution:    -25.71943       5.93322      18.34874
Nuclear contribution   :     30.17396      -4.99392     -17.04395
                        -----------------------------------------
Total Dipole Moment    :      4.45453       0.93930       1.30479
                        -----------------------------------------
Magnitude (a.u.)       :      4.73577
Magnitude (Debye)      :     12.03738

Rotational constants in cm-1:     0.002047     0.001188     0.000827
Rotational constants in MHz :    61.352817    35.606657    24.801225

                             ****ORCA TERMINATED NORMALLY****
TOTAL RUN TIME: 0 days 0 hours 11 minutes 1 seconds 762 msec
