                         Program Version 4.2.0 -  RELEASE  -
|  1> # ORCA input file
|  2> # SCF done       -128.342050232213          0.000468817874
|  3> ! CAM-B3LYP def2-SVP def2/J RIJCOSX Grid4 TightSCF
|  4> %maxcore 5000
|  5> %tddft
|  6>     Mode sTDDFT
|  7>     Ethresh 5.0
|  8>     maxcore 5000
|  9> end
| 10>
| 11> %pal
| 12>   nprocs 6
| 13>   end
| 14> * xyz 0 1
| 15>    C        1.32044         5.63569        -1.33024
| 16>    C        1.94037         4.28250        -0.97098
| 17>    C        2.71588         4.36132         0.29985
| 18>    S        4.37258         4.89094         0.32349
| 19>    C        4.48932         4.79779         2.04206
| 20>    C        3.31224         4.37804         2.59099
| 21>    C        2.68039         4.10348         3.86079
| 22>    C        3.28556         4.16697         5.17284
| 23>    C        4.67439         4.17720         5.33461
| 24>    C        5.25062         4.19301         6.58487
| 25>    F        6.59833         4.18484         6.66250
| 26>    C        4.49643         4.17742         7.75951
| 27>    C        5.05439         4.06083         9.08660
| 28>    S        6.44509         4.95600         9.62915
| 29>    C        6.33312         4.36570        11.26103
| 30>    C        7.24989         4.86051        12.32714
| 31>    C        6.67334         6.09482        13.02732
| 32>    C        5.27370         3.50656        11.35106
| 33>    N        4.66863         2.74192        12.31716
| 34>    C        3.63320         2.05268        11.73918
| 35>    C        3.52566         2.34808        10.40709
| 36>    C        2.60303         1.78938         9.43008
| 37>    C        1.23069         1.70403         9.65282
| 38>    C        0.38223         1.27613         8.65570
| 39>    F       -0.94010         1.23899         8.93987
| 40>    C        0.82531         0.91197         7.37620
| 41>    C       -0.05582         0.54194         6.30440
| 42>    S       -1.72882         0.13491         6.59616
| 43>    C       -2.06944        -0.19008         4.92964
| 44>    C       -3.40636        -0.68346         4.49241
| 45>    C       -3.47777        -2.21245         4.54301
| 46>    C       -0.93385         0.01566         4.19622
| 47>    N       -0.57831        -0.04157         2.87368
| 48>    C        0.74240         0.31915         2.77289
| 49>    C        1.25977         0.61896         3.99544
| 50>    C        0.21334         0.43244         4.94793
| 51>    C        2.21205         0.92971         7.18460
| 52>    C        3.05618         1.35393         8.18216
| 53>    F        4.38504         1.31631         7.93804
| 54>    C        4.55757         3.30871        10.12852
| 55>    C        3.10835         4.21644         7.60328
| 56>    C        2.53603         4.20906         6.35365
| 57>    F        1.18230         4.25279         6.30151
| 58>    C        1.38856         3.74066         3.56567
| 59>    N        1.15983         3.75757         2.21902
| 60>    C        2.31110         4.14625         1.58422
| 61>    H        0.75174         5.55947        -2.25381
| 62>    H        2.10186         6.37991        -1.46300
| 63>    H        0.65650         5.97292        -0.53717
| 64>    H        2.59987         3.96466        -1.78097
| 65>    H        1.14967         3.53484        -0.86234
| 66>    H        5.41420         5.08274         2.49900
| 67>    H        5.31574         4.13556         4.47119
| 68>    H        8.21336         5.11712        11.88403
| 69>    H        7.41302         4.06660        13.06119
| 70>    H        6.53100         6.89844        12.30866
| 71>    H        7.34957         6.43942        13.80572
| 72>    H        5.71086         5.86373        13.47838
| 73>    H        4.98235         2.62983        13.26467
| 74>    H        3.04556         1.36517        12.31787
| 75>    H        0.81524         2.00566        10.60161
| 76>    H       -3.60393        -0.34136         3.47247
| 77>    H       -4.17577        -0.26811         5.14583
| 78>    H       -2.71822        -2.65195         3.89983
| 79>    H       -4.45537        -2.55694         4.21481
| 80>    H       -3.30927        -2.55971         5.55939
| 81>    H       -1.16300        -0.34856         2.11731
| 82>    H        1.22825         0.33963         1.81526
| 83>    H        2.26067         0.95344         4.17649
| 84>    H        2.63382         0.60166         6.25126
| 85>    H        2.46895         4.25818         8.47021
| 86>    H        0.60431         3.44866         4.23537
| 87>    H        0.28982         3.51801         1.77876
| 88> *
| 89>
| 90>                          ****END OF INPUT****

CARTESIAN COORDINATES (ANGSTROEM)
---------------------------------
  C      1.320440    5.635690   -1.330240
  C      1.940370    4.282500   -0.970980
  C      2.715880    4.361320    0.299850
  S      4.372580    4.890940    0.323490
  C      4.489320    4.797790    2.042060
  C      3.312240    4.378040    2.590990
  C      2.680390    4.103480    3.860790
  C      3.285560    4.166970    5.172840
  C      4.674390    4.177200    5.334610
  C      5.250620    4.193010    6.584870
  F      6.598330    4.184840    6.662500
  C      4.496430    4.177420    7.759510
  C      5.054390    4.060830    9.086600
  S      6.445090    4.956000    9.629150
  C      6.333120    4.365700   11.261030
  C      7.249890    4.860510   12.327140
  C      6.673340    6.094820   13.027320
  C      5.273700    3.506560   11.351060
  N      4.668630    2.741920   12.317160
  C      3.633200    2.052680   11.739180
  C      3.525660    2.348080   10.407090
  C      2.603030    1.789380    9.430080
  C      1.230690    1.704030    9.652820
  C      0.382230    1.276130    8.655700
  F     -0.940100    1.238990    8.939870
  C      0.825310    0.911970    7.376200
  C     -0.055820    0.541940    6.304400
  S     -1.728820    0.134910    6.596160
  C     -2.069440   -0.190080    4.929640
  C     -3.406360   -0.683460    4.492410
  C     -3.477770   -2.212450    4.543010
  C     -0.933850    0.015660    4.196220
  N     -0.578310   -0.041570    2.873680
  C      0.742400    0.319150    2.772890
  C      1.259770    0.618960    3.995440
  C      0.213340    0.432440    4.947930
  C      2.212050    0.929710    7.184600
  C      3.056180    1.353930    8.182160
  F      4.385040    1.316310    7.938040
  C      4.557570    3.308710   10.128520
  C      3.108350    4.216440    7.603280
  C      2.536030    4.209060    6.353650
  F      1.182300    4.252790    6.301510
  C      1.388560    3.740660    3.565670
  N      1.159830    3.757570    2.219020
  C      2.311100    4.146250    1.584220
  H      0.751740    5.559470   -2.253810
  H      2.101860    6.379910   -1.463000
  H      0.656500    5.972920   -0.537170
  H      2.599870    3.964660   -1.780970
  H      1.149670    3.534840   -0.862340
  H      5.414200    5.082740    2.499000
  H      5.315740    4.135560    4.471190
  H      8.213360    5.117120   11.884030
  H      7.413020    4.066600   13.061190
  H      6.531000    6.898440   12.308660
  H      7.349570    6.439420   13.805720
  H      5.710860    5.863730   13.478380
  H      4.982350    2.629830   13.264670
  H      3.045560    1.365170   12.317870
  H      0.815240    2.005660   10.601610
  H     -3.603930   -0.341360    3.472470
  H     -4.175770   -0.268110    5.145830
  H     -2.718220   -2.651950    3.899830
  H     -4.455370   -2.556940    4.214810
  H     -3.309270   -2.559710    5.559390
  H     -1.163000   -0.348560    2.117310
  H      1.228250    0.339630    1.815260
  H      2.260670    0.953440    4.176490
  H      2.633820    0.601660    6.251260
  H      2.468950    4.258180    8.470210
  H      0.604310    3.448660    4.235370
  H      0.289820    3.518010    1.778760

 Total Charge           Charge          ....    0
 Multiplicity           Mult            ....    1
 Number of Electrons    NEL             ....  348
 Basis Dimension        Dim             ....  791

ORBITAL ENERGIES
----------------

  NO   OCC          E(Eh)            E(eV)
   0   2.0000     -88.937282     -2420.1065
   1   2.0000     -88.934721     -2420.0368
   2   2.0000     -88.933258     -2419.9970
   3   2.0000     -24.768101      -673.9743
   4   2.0000     -24.760514      -673.7678
   5   2.0000     -24.759308      -673.7350
   6   2.0000     -24.757831      -673.6948
   7   2.0000     -14.447326      -393.1317
   8   2.0000     -14.444657      -393.0591
   9   2.0000     -14.442127      -392.9903
  10   2.0000     -10.339418      -281.3499
  11   2.0000     -10.335612      -281.2463
  12   2.0000     -10.332737      -281.1681
  13   2.0000     -10.329888      -281.0906
  14   2.0000     -10.300395      -280.2880
  15   2.0000     -10.299547      -280.2649
  16   2.0000     -10.293525      -280.1011
  17   2.0000     -10.289459      -279.9904
  18   2.0000     -10.286123      -279.8996
  19   2.0000     -10.285231      -279.8754
  20   2.0000     -10.283004      -279.8148
  21   2.0000     -10.282659      -279.8054
  22   2.0000     -10.278945      -279.7043
  23   2.0000     -10.276328      -279.6331
  24   2.0000     -10.275800      -279.6187
  25   2.0000     -10.275381      -279.6073
  26   2.0000     -10.275272      -279.6044
  27   2.0000     -10.274583      -279.5856
  28   2.0000     -10.273926      -279.5677
  29   2.0000     -10.273897      -279.5669
  30   2.0000     -10.271828      -279.5106
  31   2.0000     -10.270283      -279.4686
  32   2.0000     -10.269935      -279.4591
  33   2.0000     -10.267766      -279.4001
  34   2.0000     -10.263448      -279.2826
  35   2.0000     -10.259754      -279.1821
  36   2.0000     -10.258898      -279.1588
  37   2.0000     -10.258175      -279.1391
  38   2.0000     -10.257923      -279.1323
  39   2.0000     -10.256167      -279.0845
  40   2.0000     -10.256145      -279.0839
  41   2.0000     -10.254019      -279.0260
  42   2.0000     -10.252856      -278.9944
  43   2.0000     -10.252762      -278.9918
  44   2.0000     -10.251699      -278.9629
  45   2.0000     -10.249188      -278.8946
  46   2.0000      -8.031853      -218.5578
  47   2.0000      -8.030069      -218.5093
  48   2.0000      -8.028180      -218.4579
  49   2.0000      -6.001271      -163.3029
  50   2.0000      -5.999492      -163.2545
  51   2.0000      -5.997508      -163.2005
  52   2.0000      -5.996850      -163.1826
  53   2.0000      -5.995088      -163.1346
  54   2.0000      -5.994150      -163.1091
  55   2.0000      -5.993310      -163.0863
  56   2.0000      -5.992377      -163.0609
  57   2.0000      -5.990430      -163.0079
  58   2.0000      -1.280881       -34.8545
  59   2.0000      -1.271813       -34.6078
  60   2.0000      -1.271402       -34.5966
  61   2.0000      -1.270677       -34.5769
  62   2.0000      -1.065577       -28.9958
  63   2.0000      -1.062538       -28.9131
  64   2.0000      -1.061306       -28.8796
  65   2.0000      -0.962804       -26.1992
  66   2.0000      -0.957552       -26.0563
  67   2.0000      -0.949324       -25.8324
  68   2.0000      -0.944532       -25.7020
  69   2.0000      -0.939204       -25.5570
  70   2.0000      -0.894381       -24.3373
  71   2.0000      -0.885747       -24.1024
  72   2.0000      -0.877333       -23.8735
  73   2.0000      -0.864168       -23.5152
  74   2.0000      -0.855417       -23.2771
  75   2.0000      -0.845177       -22.9984
  76   2.0000      -0.832438       -22.6518
  77   2.0000      -0.827279       -22.5114
  78   2.0000      -0.819843       -22.3091
  79   2.0000      -0.813631       -22.1400
  80   2.0000      -0.800687       -21.7878
  81   2.0000      -0.798643       -21.7322
  82   2.0000      -0.795176       -21.6378
  83   2.0000      -0.774043       -21.0628
  84   2.0000      -0.768783       -20.9196
  85   2.0000      -0.759882       -20.6774
  86   2.0000      -0.726539       -19.7701
  87   2.0000      -0.717297       -19.5186
  88   2.0000      -0.709367       -19.3029
  89   2.0000      -0.705526       -19.1983
  90   2.0000      -0.698941       -19.0191
  91   2.0000      -0.683139       -18.5892
  92   2.0000      -0.681537       -18.5456
  93   2.0000      -0.674561       -18.3557
  94   2.0000      -0.671491       -18.2722
  95   2.0000      -0.670068       -18.2335
  96   2.0000      -0.663181       -18.0461
  97   2.0000      -0.651734       -17.7346
  98   2.0000      -0.648789       -17.6544
  99   2.0000      -0.633299       -17.2329
 100   2.0000      -0.626660       -17.0523
 101   2.0000      -0.625833       -17.0298
 102   2.0000      -0.603010       -16.4087
 103   2.0000      -0.598042       -16.2735
 104   2.0000      -0.592152       -16.1133
 105   2.0000      -0.590287       -16.0625
 106   2.0000      -0.587656       -15.9909
 107   2.0000      -0.578634       -15.7454
 108   2.0000      -0.567714       -15.4483
 109   2.0000      -0.555469       -15.1151
 110   2.0000      -0.552827       -15.0432
 111   2.0000      -0.547289       -14.8925
 112   2.0000      -0.538502       -14.6534
 113   2.0000      -0.537208       -14.6182
 114   2.0000      -0.535520       -14.5722
 115   2.0000      -0.531767       -14.4701
 116   2.0000      -0.524980       -14.2854
 117   2.0000      -0.523245       -14.2382
 118   2.0000      -0.522912       -14.2292
 119   2.0000      -0.518804       -14.1174
 120   2.0000      -0.516639       -14.0585
 121   2.0000      -0.515610       -14.0304
 122   2.0000      -0.511517       -13.9191
 123   2.0000      -0.508863       -13.8469
 124   2.0000      -0.507772       -13.8172
 125   2.0000      -0.506180       -13.7739
 126   2.0000      -0.502857       -13.6834
 127   2.0000      -0.500773       -13.6267
 128   2.0000      -0.497826       -13.5465
 129   2.0000      -0.495231       -13.4759
 130   2.0000      -0.490876       -13.3574
 131   2.0000      -0.489662       -13.3244
 132   2.0000      -0.487818       -13.2742
 133   2.0000      -0.484817       -13.1925
 134   2.0000      -0.479684       -13.0529
 135   2.0000      -0.472507       -12.8576
 136   2.0000      -0.467973       -12.7342
 137   2.0000      -0.458263       -12.4700
 138   2.0000      -0.453997       -12.3539
 139   2.0000      -0.453068       -12.3286
 140   2.0000      -0.451502       -12.2860
 141   2.0000      -0.447125       -12.1669
 142   2.0000      -0.445597       -12.1253
 143   2.0000      -0.445113       -12.1122
 144   2.0000      -0.439007       -11.9460
 145   2.0000      -0.436838       -11.8870
 146   2.0000      -0.428436       -11.6583
 147   2.0000      -0.421336       -11.4651
 148   2.0000      -0.420370       -11.4389
 149   2.0000      -0.419992       -11.4286
 150   2.0000      -0.417925       -11.3723
 151   2.0000      -0.413370       -11.2484
 152   2.0000      -0.412771       -11.2321
 153   2.0000      -0.408293       -11.1102
 154   2.0000      -0.405590       -11.0367
 155   2.0000      -0.404967       -11.0197
 156   2.0000      -0.403387       -10.9767
 157   2.0000      -0.398923       -10.8552
 158   2.0000      -0.388314       -10.5666
 159   2.0000      -0.387003       -10.5309
 160   2.0000      -0.385010       -10.4767
 161   2.0000      -0.356686        -9.7059
 162   2.0000      -0.355197        -9.6654
 163   2.0000      -0.333835        -9.0841
 164   2.0000      -0.315151        -8.5757
 165   2.0000      -0.308289        -8.3890
 166   2.0000      -0.292627        -7.9628
 167   2.0000      -0.283416        -7.7121
 168   2.0000      -0.281694        -7.6653
 169   2.0000      -0.278206        -7.5704
 170   2.0000      -0.274715        -7.4754
 171   2.0000      -0.243476        -6.6253
 172   2.0000      -0.227697        -6.1959
 173   2.0000      -0.214064        -5.8250
 174   0.0000      -0.014680        -0.3995
 175   0.0000      -0.002138        -0.0582
 176   0.0000       0.021479         0.5845
 177   0.0000       0.036632         0.9968
 178   0.0000       0.050065         1.3623

MULLIKEN ATOMIC CHARGES
-----------------------
   0 C :    0.031818
   1 C :    0.084637
   2 C :   -0.354925
   3 S :    0.093442
   4 C :   -0.211562
   5 C :    0.105104
   6 C :    0.018839
   7 C :    0.075201
   8 C :   -0.126936
   9 C :    0.262800
  10 F :   -0.192930
  11 C :   -0.025603
  12 C :   -0.189984
  13 S :    0.139866
  14 C :   -0.351843
  15 C :    0.088095
  16 C :    0.031410
  17 C :    0.129658
  18 N :   -0.061290
  19 C :    0.023714
  20 C :    0.025718
  21 C :   -0.064242
  22 C :   -0.074462
  23 C :    0.210946
  24 F :   -0.201897
  25 C :    0.099050
  26 C :   -0.171472
  27 S :    0.134128
  28 C :   -0.340920
  29 C :    0.090768
  30 C :    0.033835
  31 C :    0.117265
  32 N :   -0.067600
  33 C :    0.062780
  34 C :   -0.065437
  35 C :    0.103262
  36 C :   -0.140520
  37 C :    0.313836
  38 F :   -0.187955
  39 C :    0.128484
  40 C :   -0.062620
  41 C :    0.205362
  42 F :   -0.204883
  43 C :    0.045195
  44 N :   -0.054737
  45 C :    0.131871
  46 H :    0.012072
  47 H :    0.013462
  48 H :    0.010837
  49 H :    0.004094
  50 H :   -0.006450
  51 H :    0.019970
  52 H :   -0.037778
  53 H :    0.003146
  54 H :   -0.000273
  55 H :    0.013515
  56 H :    0.013562
  57 H :    0.006397
  58 H :    0.118710
  59 H :   -0.009325
  60 H :   -0.027551
  61 H :   -0.003399
  62 H :    0.004354
  63 H :    0.007529
  64 H :    0.013047
  65 H :    0.013891
  66 H :    0.116666
  67 H :   -0.002338
  68 H :   -0.006551
  69 H :   -0.029251
  70 H :   -0.011550
  71 H :    0.011776
  72 H :    0.116172
Sum of atomic charges:   -0.0000000

LOEWDIN ATOMIC CHARGES
----------------------
   0 C :   -0.052604
   1 C :   -0.044477
   2 C :   -0.224355
   3 S :    0.423900
   4 C :   -0.221549
   5 C :   -0.059240
   6 C :   -0.096064
   7 C :   -0.034230
   8 C :   -0.049392
   9 C :    0.080999
  10 F :   -0.075039
  11 C :   -0.070147
  12 C :   -0.192821
  13 S :    0.445734
  14 C :   -0.219970
  15 C :   -0.044075
  16 C :   -0.052638
  17 C :   -0.026334
  18 N :    0.044241
  19 C :    0.032749
  20 C :   -0.084593
  21 C :   -0.049607
  22 C :   -0.040365
  23 C :    0.071706
  24 F :   -0.076769
  25 C :   -0.052225
  26 C :   -0.198611
  27 S :    0.450165
  28 C :   -0.221337
  29 C :   -0.043925
  30 C :   -0.051419
  31 C :   -0.031860
  32 N :    0.038740
  33 C :    0.020577
  34 C :   -0.092391
  35 C :   -0.062382
  36 C :   -0.036955
  37 C :    0.085060
  38 F :   -0.063036
  39 C :   -0.055335
  40 C :   -0.029679
  41 C :    0.075306
  42 F :   -0.072961
  43 C :    0.053325
  44 N :    0.049254
  45 C :   -0.027331
  46 H :    0.020739
  47 H :    0.024449
  48 H :    0.022717
  49 H :    0.029636
  50 H :    0.023448
  51 H :    0.017405
  52 H :    0.035542
  53 H :    0.030218
  54 H :    0.025301
  55 H :    0.024990
  56 H :    0.021292
  57 H :    0.020758
  58 H :    0.084765
  59 H :    0.022647
  60 H :    0.035934
  61 H :    0.024269
  62 H :    0.030605
  63 H :    0.021243
  64 H :    0.021498
  65 H :    0.025299
  66 H :    0.082918
  67 H :    0.021751
  68 H :    0.026640
  69 H :    0.038658
  70 H :    0.040830
  71 H :    0.025403
  72 H :    0.083005

  Mayer bond orders larger than 0.100000
B(  0-C ,  1-C ) :   1.1083 B(  0-C , 46-H ) :   0.9687 B(  0-C , 47-H ) :   0.9669
B(  0-C , 48-H ) :   0.9711 B(  1-C ,  2-C ) :   1.0666 B(  1-C , 49-H ) :   0.9124
B(  1-C , 50-H ) :   0.9384 B(  2-C ,  3-S ) :   1.1337 B(  2-C ,  4-C ) :   0.1140
B(  2-C , 45-C ) :   1.5114 B(  3-S ,  4-C ) :   1.1486 B(  4-C ,  5-C ) :   1.4820
B(  4-C , 51-H ) :   0.9665 B(  5-C ,  6-C ) :   1.1052 B(  5-C , 45-C ) :   1.2234
B(  6-C ,  7-C ) :   1.0438 B(  6-C , 43-C ) :   1.5614 B(  7-C ,  8-C ) :   1.2906
B(  7-C , 41-C ) :   1.3152 B(  8-C ,  9-C ) :   1.3528 B(  8-C , 52-H ) :   0.9996
B(  9-C , 10-F ) :   1.1366 B(  9-C , 11-C ) :   1.3322 B( 11-C , 12-C ) :   0.9964
B( 11-C , 40-C ) :   1.3298 B( 12-C , 13-S ) :   1.1326 B( 12-C , 14-C ) :   0.1215
B( 12-C , 39-C ) :   1.4711 B( 13-S , 14-C ) :   1.1315 B( 14-C , 15-C ) :   1.0680
B( 14-C , 17-C ) :   1.5060 B( 15-C , 16-C ) :   1.1082 B( 15-C , 53-H ) :   0.9092
B( 15-C , 54-H ) :   0.9389 B( 16-C , 55-H ) :   0.9660 B( 16-C , 56-H ) :   0.9686
B( 16-C , 57-H ) :   0.9717 B( 17-C , 18-N ) :   1.1412 B( 17-C , 39-C ) :   1.2203
B( 18-N , 19-C ) :   1.1679 B( 18-N , 58-H ) :   0.9430 B( 19-C , 20-C ) :   1.5678
B( 19-C , 59-H ) :   0.9887 B( 20-C , 21-C ) :   0.9530 B( 20-C , 39-C ) :   1.1600
B( 21-C , 22-C ) :   1.3297 B( 21-C , 37-C ) :   1.3363 B( 22-C , 23-C ) :   1.3727
B( 22-C , 60-H ) :   0.9986 B( 23-C , 24-F ) :   1.0817 B( 23-C , 25-C ) :   1.2917
B( 25-C , 26-C ) :   1.0937 B( 25-C , 36-C ) :   1.2775 B( 26-C , 27-S ) :   1.1281
B( 26-C , 28-C ) :   0.1227 B( 26-C , 35-C ) :   1.4118 B( 27-S , 28-C ) :   1.1195
B( 28-C , 29-C ) :   1.0662 B( 28-C , 31-C ) :   1.5040 B( 29-C , 30-C ) :   1.1075
B( 29-C , 61-H ) :   0.9385 B( 29-C , 62-H ) :   0.9092 B( 30-C , 63-H ) :   0.9715
B( 30-C , 64-H ) :   0.9689 B( 30-C , 65-H ) :   0.9664 B( 31-C , 32-N ) :   1.1502
B( 31-C , 35-C ) :   1.2334 B( 32-N , 33-C ) :   1.1557 B( 32-N , 66-H ) :   0.9435
B( 33-C , 34-C ) :   1.5788 B( 33-C , 67-H ) :   0.9861 B( 34-C , 35-C ) :   1.1667
B( 34-C , 68-H ) :   0.9984 B( 36-C , 37-C ) :   1.3657 B( 36-C , 69-H ) :   1.0092
B( 37-C , 38-F ) :   1.1077 B( 40-C , 41-C ) :   1.3759 B( 40-C , 70-H ) :   0.9887
B( 41-C , 42-F ) :   1.0655 B( 43-C , 44-N ) :   1.1715 B( 43-C , 71-H ) :   0.9641
B( 44-N , 45-C ) :   1.1412 B( 44-N , 72-H ) :   0.9415

-----------------------------------------------------------------------------
         ABSORPTION SPECTRUM VIA TRANSITION ELECTRIC DIPOLE MOMENTS
-----------------------------------------------------------------------------
State   Energy  Wavelength   fosc         T2         TX        TY        TZ
        (cm-1)    (nm)                  (au**2)     (au)      (au)      (au)
-----------------------------------------------------------------------------
   0   27204.7    367.6   0.327901612   3.96803   1.22623   0.71679   1.39664
   1   28868.8    346.4   0.341644569   3.89602  -0.46219   0.37344  -1.88227
   2   29873.1    334.7   0.783676827   8.63639   1.56555   0.61671   2.40938
   3   32855.3    304.4   0.581426107   5.82593   1.13287   0.14189   2.12659
   4   33876.4    295.2   0.014686874   0.14273   0.23163   0.15780   0.25332
   5   35193.1    284.1   0.006131885   0.05736  -0.23514  -0.04350  -0.01332
   6   35644.2    280.6   0.008175917   0.07551  -0.05921  -0.18830   0.19118
   7   36095.8    277.0   0.070230615   0.64054  -0.69160  -0.39278  -0.08919
   8   37420.9    267.2   0.066105733   0.58157   0.39304   0.05871   0.65088
   9   38134.9    262.2   0.003242109   0.02799  -0.14254  -0.05972   0.06407

FINAL SINGLE POINT ENERGY     -3143.526795599645

DIPOLE MOMENT
-------------
                                X             Y             Z
Electronic contribution:     14.52928       0.54620      19.94975
Nuclear contribution   :    -15.88397      -1.39651     -20.30467
                        -----------------------------------------
Total Dipole Moment    :     -1.35469      -0.85031      -0.35492
                        -----------------------------------------
Magnitude (a.u.)       :      1.63834
Magnitude (Debye)      :      4.16434

Rotational constants in cm-1:     0.002582     0.001522     0.001016
Rotational constants in MHz :    77.411781    45.615835    30.451037

                             ****ORCA TERMINATED NORMALLY****
TOTAL RUN TIME: 0 days 0 hours 4 minutes 51 seconds 24 msec
