                         Program Version 4.2.0 -  RELEASE  -
|  1> # ORCA input file
|  2> # SCF done       -157.068496158291          0.000764824295
|  3> ! CAM-B3LYP def2-SVP def2/J RIJCOSX Grid4 TightSCF
|  4> %maxcore 5000
|  5> %tddft
|  6>     Mode sTDDFT
|  7>     Ethresh 5.0
|  8>     maxcore 5000
|  9> end
| 10>
| 11> %pal
| 12>   nprocs 6
| 13>   end
| 14> * xyz 0 1
| 15>    C       -0.27561         6.69623        -8.70182
| 16>    C       -0.34737         8.02696        -8.71293
| 17>    C       -1.29371         8.78196        -7.93574
| 18>    C       -1.42436        10.11694        -8.03870
| 19>    C       -2.32046        10.99387        -7.33966
| 20>    C       -2.18678        12.42222        -7.35220
| 21>    C       -1.15118        13.21904        -8.06462
| 22>    C       -3.19191        12.89911        -6.57118
| 23>    O       -3.94638        11.90134        -6.07653
| 24>    C       -3.43470        10.73409        -6.53836
| 25>    C       -4.06939         9.51152        -6.18222
| 26>    C       -5.07345         9.39204        -5.28447
| 27>    C       -5.65812         8.14968        -4.87186
| 28>    C       -5.14324         6.94212        -5.17784
| 29>    C       -5.60874         5.64496        -4.78377
| 30>    C       -6.89157         5.18232        -4.34557
| 31>    C       -8.11404         5.99002        -4.08930
| 32>    C       -6.77354         3.83015        -4.24227
| 33>    O       -5.53487         3.41040        -4.56506
| 34>    C       -4.81916         4.50722        -4.88350
| 35>    C       -3.43936         4.39358        -5.28428
| 36>    S       -2.98815         3.29631        -6.55081
| 37>    C       -1.32233         3.81419        -6.48026
| 38>    C       -0.43954         3.21102        -7.43395
| 39>    C        0.89972         3.06113        -7.37612
| 40>    C        1.64414         2.43962        -8.42330
| 41>    C        2.95923         2.15708        -8.33306
| 42>    C        3.75159         1.55240        -9.36417
| 43>    C        4.87326         0.69058        -9.14680
| 44>    C        5.42432         0.27043        -7.83061
| 45>    C        5.29680         0.31813       -10.38467
| 46>    O        4.55591         0.88803       -11.35360
| 47>    C        3.61082         1.64860       -10.74811
| 48>    C        2.75059         2.47173       -11.52948
| 49>    C        2.69091         2.43629       -12.87985
| 50>    C        1.88332         3.27502       -13.71253
| 51>    C        1.08988         4.28152       -13.29473
| 52>    C        0.30023         5.11805       -14.15511
| 53>    C        0.15723         5.07436       -15.52118
| 54>    O       -0.67029         6.03666       -15.95079
| 55>    C       -1.07700         6.72143       -14.86260
| 56>    C       -0.52440         6.21588       -13.72858
| 57>    C       -0.71777         6.69242       -12.33272
| 58>    C       -1.15450         4.78222        -5.50973
| 59>    C       -2.35446         5.11125        -4.83541
| 60>    C       -2.39221         6.05264        -3.66986
| 61>    C       -1.18203         6.98372        -3.65229
| 62>    C        0.11618         6.20478        -3.87022
| 63>    C        0.35781         5.21587        -2.76635
| 64>    O       -0.29179         5.06581        -1.77322
| 65>    C        1.63910         4.33743        -2.94619
| 66>    F        2.63174         4.99151        -3.57575
| 67>    F        2.12131         3.94229        -1.76911
| 68>    F        1.38878         3.23406        -3.66658
| 69>    C        0.10965         5.55224        -5.26206
| 70>    H        0.44751         6.15592        -9.28704
| 71>    H       -0.95232         6.09628        -8.11610
| 72>    H        0.32693         8.59904        -9.33795
| 73>    H       -1.89648         8.20722        -7.24863
| 74>    H       -0.76031        10.62848        -8.72640
| 75>    H       -1.21079        13.05070        -9.13967
| 76>    H       -0.15320        12.93636        -7.73127
| 77>    H       -1.29751        14.27831        -7.87011
| 78>    H       -3.46750        13.89965        -6.30068
| 79>    H       -3.70227         8.63880        -6.69449
| 80>    H       -5.45683        10.28862        -4.81708
| 81>    H       -6.52353         8.21882        -4.23013
| 82>    H       -4.24693         6.89744        -5.78332
| 83>    H       -7.99595         6.58816        -3.18594
| 84>    H       -8.97171         5.33485        -3.95830
| 85>    H       -8.30467         6.66328        -4.92348
| 86>    H       -7.48307         3.07837        -3.95796
| 87>    H       -0.95116         2.78490        -8.28994
| 88>    H        1.46484         3.37997        -6.51393
| 89>    H        1.09547         2.16297        -9.31311
| 90>    H        3.47305         2.34869        -7.39896
| 91>    H        5.76849         1.13747        -7.26759
| 92>    H        6.26041        -0.40929        -7.97169
| 93>    H        4.65757        -0.23028        -7.24080
| 94>    H        6.09344        -0.32841       -10.69701
| 95>    H        2.14857         3.16696       -10.96568
| 96>    H        3.30486         1.70677       -13.39105
| 97>    H        1.93833         3.07134       -14.77335
| 98>    H        1.02139         4.51239       -12.24145
| 99>    H        0.57751         4.42718       -16.26468
|100>    H       -1.75249         7.53863       -15.02186
|101>    H       -1.40186         7.53651       -12.31268
|102>    H        0.23273         7.00392       -11.90166
|103>    H       -1.12714         5.89923       -11.70858
|104>    H       -2.40482         5.45765        -2.75243
|105>    H       -3.30695         6.64502        -3.67968
|106>    H       -1.14600         7.50780        -2.69658
|107>    H       -1.27397         7.72752        -4.44621
|108>    H        0.97217         6.89306        -3.83291
|109>    H        0.98345         4.92321        -5.40181
|110>    H        0.17992         6.35385        -6.00558
|111> *
|112>
|113>                          ****END OF INPUT****

CARTESIAN COORDINATES (ANGSTROEM)
---------------------------------
  C     -0.275610    6.696230   -8.701820
  C     -0.347370    8.026960   -8.712930
  C     -1.293710    8.781960   -7.935740
  C     -1.424360   10.116940   -8.038700
  C     -2.320460   10.993870   -7.339660
  C     -2.186780   12.422220   -7.352200
  C     -1.151180   13.219040   -8.064620
  C     -3.191910   12.899110   -6.571180
  O     -3.946380   11.901340   -6.076530
  C     -3.434700   10.734090   -6.538360
  C     -4.069390    9.511520   -6.182220
  C     -5.073450    9.392040   -5.284470
  C     -5.658120    8.149680   -4.871860
  C     -5.143240    6.942120   -5.177840
  C     -5.608740    5.644960   -4.783770
  C     -6.891570    5.182320   -4.345570
  C     -8.114040    5.990020   -4.089300
  C     -6.773540    3.830150   -4.242270
  O     -5.534870    3.410400   -4.565060
  C     -4.819160    4.507220   -4.883500
  C     -3.439360    4.393580   -5.284280
  S     -2.988150    3.296310   -6.550810
  C     -1.322330    3.814190   -6.480260
  C     -0.439540    3.211020   -7.433950
  C      0.899720    3.061130   -7.376120
  C      1.644140    2.439620   -8.423300
  C      2.959230    2.157080   -8.333060
  C      3.751590    1.552400   -9.364170
  C      4.873260    0.690580   -9.146800
  C      5.424320    0.270430   -7.830610
  C      5.296800    0.318130  -10.384670
  O      4.555910    0.888030  -11.353600
  C      3.610820    1.648600  -10.748110
  C      2.750590    2.471730  -11.529480
  C      2.690910    2.436290  -12.879850
  C      1.883320    3.275020  -13.712530
  C      1.089880    4.281520  -13.294730
  C      0.300230    5.118050  -14.155110
  C      0.157230    5.074360  -15.521180
  O     -0.670290    6.036660  -15.950790
  C     -1.077000    6.721430  -14.862600
  C     -0.524400    6.215880  -13.728580
  C     -0.717770    6.692420  -12.332720
  C     -1.154500    4.782220   -5.509730
  C     -2.354460    5.111250   -4.835410
  C     -2.392210    6.052640   -3.669860
  C     -1.182030    6.983720   -3.652290
  C      0.116180    6.204780   -3.870220
  C      0.357810    5.215870   -2.766350
  O     -0.291790    5.065810   -1.773220
  C      1.639100    4.337430   -2.946190
  F      2.631740    4.991510   -3.575750
  F      2.121310    3.942290   -1.769110
  F      1.388780    3.234060   -3.666580
  C      0.109650    5.552240   -5.262060
  H      0.447510    6.155920   -9.287040
  H     -0.952320    6.096280   -8.116100
  H      0.326930    8.599040   -9.337950
  H     -1.896480    8.207220   -7.248630
  H     -0.760310   10.628480   -8.726400
  H     -1.210790   13.050700   -9.139670
  H     -0.153200   12.936360   -7.731270
  H     -1.297510   14.278310   -7.870110
  H     -3.467500   13.899650   -6.300680
  H     -3.702270    8.638800   -6.694490
  H     -5.456830   10.288620   -4.817080
  H     -6.523530    8.218820   -4.230130
  H     -4.246930    6.897440   -5.783320
  H     -7.995950    6.588160   -3.185940
  H     -8.971710    5.334850   -3.958300
  H     -8.304670    6.663280   -4.923480
  H     -7.483070    3.078370   -3.957960
  H     -0.951160    2.784900   -8.289940
  H      1.464840    3.379970   -6.513930
  H      1.095470    2.162970   -9.313110
  H      3.473050    2.348690   -7.398960
  H      5.768490    1.137470   -7.267590
  H      6.260410   -0.409290   -7.971690
  H      4.657570   -0.230280   -7.240800
  H      6.093440   -0.328410  -10.697010
  H      2.148570    3.166960  -10.965680
  H      3.304860    1.706770  -13.391050
  H      1.938330    3.071340  -14.773350
  H      1.021390    4.512390  -12.241450
  H      0.577510    4.427180  -16.264680
  H     -1.752490    7.538630  -15.021860
  H     -1.401860    7.536510  -12.312680
  H      0.232730    7.003920  -11.901660
  H     -1.127140    5.899230  -11.708580
  H     -2.404820    5.457650   -2.752430
  H     -3.306950    6.645020   -3.679680
  H     -1.146000    7.507800   -2.696580
  H     -1.273970    7.727520   -4.446210
  H      0.972170    6.893060   -3.832910
  H      0.983450    4.923210   -5.401810
  H      0.179920    6.353850   -6.005580

 Total Charge           Charge          ....    0
 Multiplicity           Mult            ....    1
 Number of Electrons    NEL             ....  400
 Basis Dimension        Dim             ....  979

ORBITAL ENERGIES
----------------

  NO   OCC          E(Eh)            E(eV)
   0   2.0000     -88.944881     -2420.3133
   1   2.0000     -24.811341      -675.1509
   2   2.0000     -24.810406      -675.1255
   3   2.0000     -24.803261      -674.9310
   4   2.0000     -19.279284      -524.6160
   5   2.0000     -19.276513      -524.5406
   6   2.0000     -19.273636      -524.4623
   7   2.0000     -19.272839      -524.4406
   8   2.0000     -19.244060      -523.6575
   9   2.0000     -10.517837      -286.2049
  10   2.0000     -10.386551      -282.6324
  11   2.0000     -10.322290      -280.8838
  12   2.0000     -10.320202      -280.8270
  13   2.0000     -10.315436      -280.6973
  14   2.0000     -10.308694      -280.5138
  15   2.0000     -10.307166      -280.4723
  16   2.0000     -10.306254      -280.4474
  17   2.0000     -10.305834      -280.4360
  18   2.0000     -10.299741      -280.2702
  19   2.0000     -10.295095      -280.1438
  20   2.0000     -10.293719      -280.1063
  21   2.0000     -10.292523      -280.0738
  22   2.0000     -10.280608      -279.7496
  23   2.0000     -10.276611      -279.6408
  24   2.0000     -10.274687      -279.5884
  25   2.0000     -10.274039      -279.5708
  26   2.0000     -10.273740      -279.5627
  27   2.0000     -10.272213      -279.5211
  28   2.0000     -10.271541      -279.5028
  29   2.0000     -10.270975      -279.4874
  30   2.0000     -10.269627      -279.4508
  31   2.0000     -10.269576      -279.4494
  32   2.0000     -10.269522      -279.4479
  33   2.0000     -10.268467      -279.4192
  34   2.0000     -10.267537      -279.3939
  35   2.0000     -10.267328      -279.3882
  36   2.0000     -10.266895      -279.3764
  37   2.0000     -10.266872      -279.3758
  38   2.0000     -10.266288      -279.3599
  39   2.0000     -10.266265      -279.3593
  40   2.0000     -10.266089      -279.3545
  41   2.0000     -10.265786      -279.3463
  42   2.0000     -10.265739      -279.3449
  43   2.0000     -10.265258      -279.3319
  44   2.0000     -10.264705      -279.3168
  45   2.0000     -10.263405      -279.2815
  46   2.0000     -10.262589      -279.2592
  47   2.0000     -10.262282      -279.2509
  48   2.0000     -10.261966      -279.2423
  49   2.0000     -10.260740      -279.2089
  50   2.0000     -10.259948      -279.1874
  51   2.0000     -10.259701      -279.1807
  52   2.0000     -10.258530      -279.1488
  53   2.0000     -10.258332      -279.1434
  54   2.0000     -10.258002      -279.1344
  55   2.0000      -8.040698      -218.7985
  56   2.0000      -6.009816      -163.5354
  57   2.0000      -6.005875      -163.4282
  58   2.0000      -6.002885      -163.3468
  59   2.0000      -1.397821       -38.0366
  60   2.0000      -1.301484       -35.4152
  61   2.0000      -1.299072       -35.3495
  62   2.0000      -1.197781       -32.5933
  63   2.0000      -1.194666       -32.5085
  64   2.0000      -1.191087       -32.4111
  65   2.0000      -1.190647       -32.3991
  66   2.0000      -1.162303       -31.6279
  67   2.0000      -0.983854       -26.7720
  68   2.0000      -0.928876       -25.2760
  69   2.0000      -0.922361       -25.0987
  70   2.0000      -0.919502       -25.0209
  71   2.0000      -0.917928       -24.9781
  72   2.0000      -0.912555       -24.8319
  73   2.0000      -0.898385       -24.4463
  74   2.0000      -0.896161       -24.3858
  75   2.0000      -0.891686       -24.2640
  76   2.0000      -0.885397       -24.0929
  77   2.0000      -0.873230       -23.7618
  78   2.0000      -0.860220       -23.4078
  79   2.0000      -0.856484       -23.3061
  80   2.0000      -0.851774       -23.1779
  81   2.0000      -0.836593       -22.7648
  82   2.0000      -0.830336       -22.5946
  83   2.0000      -0.823952       -22.4209
  84   2.0000      -0.819345       -22.2955
  85   2.0000      -0.811494       -22.0819
  86   2.0000      -0.798791       -21.7362
  87   2.0000      -0.792018       -21.5519
  88   2.0000      -0.786833       -21.4108
  89   2.0000      -0.777969       -21.1696
  90   2.0000      -0.774407       -21.0727
  91   2.0000      -0.769904       -20.9502
  92   2.0000      -0.766973       -20.8704
  93   2.0000      -0.739390       -20.1198
  94   2.0000      -0.729605       -19.8536
  95   2.0000      -0.726696       -19.7744
  96   2.0000      -0.719722       -19.5846
  97   2.0000      -0.710841       -19.3430
  98   2.0000      -0.706949       -19.2371
  99   2.0000      -0.688008       -18.7217
 100   2.0000      -0.680912       -18.5286
 101   2.0000      -0.675849       -18.3908
 102   2.0000      -0.672590       -18.3021
 103   2.0000      -0.667417       -18.1613
 104   2.0000      -0.663786       -18.0625
 105   2.0000      -0.648161       -17.6373
 106   2.0000      -0.644369       -17.5342
 107   2.0000      -0.641812       -17.4646
 108   2.0000      -0.638883       -17.3849
 109   2.0000      -0.635910       -17.3040
 110   2.0000      -0.631048       -17.1717
 111   2.0000      -0.626196       -17.0397
 112   2.0000      -0.620702       -16.8901
 113   2.0000      -0.609364       -16.5816
 114   2.0000      -0.602773       -16.4023
 115   2.0000      -0.597516       -16.2592
 116   2.0000      -0.594550       -16.1785
 117   2.0000      -0.591714       -16.1014
 118   2.0000      -0.579864       -15.7789
 119   2.0000      -0.572059       -15.5665
 120   2.0000      -0.565713       -15.3938
 121   2.0000      -0.561218       -15.2715
 122   2.0000      -0.558768       -15.2048
 123   2.0000      -0.556379       -15.1398
 124   2.0000      -0.552060       -15.0223
 125   2.0000      -0.548419       -14.9232
 126   2.0000      -0.546215       -14.8633
 127   2.0000      -0.543996       -14.8029
 128   2.0000      -0.543362       -14.7856
 129   2.0000      -0.540323       -14.7029
 130   2.0000      -0.536128       -14.5888
 131   2.0000      -0.535060       -14.5597
 132   2.0000      -0.534581       -14.5467
 133   2.0000      -0.532005       -14.4766
 134   2.0000      -0.529996       -14.4219
 135   2.0000      -0.526058       -14.3148
 136   2.0000      -0.520511       -14.1638
 137   2.0000      -0.516704       -14.0602
 138   2.0000      -0.514865       -14.0102
 139   2.0000      -0.512202       -13.9377
 140   2.0000      -0.509038       -13.8516
 141   2.0000      -0.502595       -13.6763
 142   2.0000      -0.501184       -13.6379
 143   2.0000      -0.497343       -13.5334
 144   2.0000      -0.495350       -13.4792
 145   2.0000      -0.493423       -13.4267
 146   2.0000      -0.491708       -13.3801
 147   2.0000      -0.490699       -13.3526
 148   2.0000      -0.489062       -13.3080
 149   2.0000      -0.488585       -13.2951
 150   2.0000      -0.487564       -13.2673
 151   2.0000      -0.486655       -13.2426
 152   2.0000      -0.484940       -13.1959
 153   2.0000      -0.482596       -13.1321
 154   2.0000      -0.481237       -13.0951
 155   2.0000      -0.478184       -13.0121
 156   2.0000      -0.475977       -12.9520
 157   2.0000      -0.470850       -12.8125
 158   2.0000      -0.468918       -12.7599
 159   2.0000      -0.467114       -12.7108
 160   2.0000      -0.460647       -12.5348
 161   2.0000      -0.456884       -12.4324
 162   2.0000      -0.455700       -12.4002
 163   2.0000      -0.453256       -12.3337
 164   2.0000      -0.451492       -12.2857
 165   2.0000      -0.450686       -12.2638
 166   2.0000      -0.447970       -12.1899
 167   2.0000      -0.442986       -12.0543
 168   2.0000      -0.438769       -11.9395
 169   2.0000      -0.434260       -11.8168
 170   2.0000      -0.430867       -11.7245
 171   2.0000      -0.428248       -11.6532
 172   2.0000      -0.425432       -11.5766
 173   2.0000      -0.421792       -11.4775
 174   2.0000      -0.421004       -11.4561
 175   2.0000      -0.417321       -11.3559
 176   2.0000      -0.413498       -11.2519
 177   2.0000      -0.412826       -11.2336
 178   2.0000      -0.412081       -11.2133
 179   2.0000      -0.408429       -11.1139
 180   2.0000      -0.406477       -11.0608
 181   2.0000      -0.405898       -11.0451
 182   2.0000      -0.400807       -10.9065
 183   2.0000      -0.399391       -10.8680
 184   2.0000      -0.390538       -10.6271
 185   2.0000      -0.370690       -10.0870
 186   2.0000      -0.365809        -9.9542
 187   2.0000      -0.355761        -9.6808
 188   2.0000      -0.352994        -9.6055
 189   2.0000      -0.347831        -9.4650
 190   2.0000      -0.320245        -8.7143
 191   2.0000      -0.313738        -8.5372
 192   2.0000      -0.307518        -8.3680
 193   2.0000      -0.302473        -8.2307
 194   2.0000      -0.292101        -7.9485
 195   2.0000      -0.285595        -7.7714
 196   2.0000      -0.277420        -7.5490
 197   2.0000      -0.254806        -6.9336
 198   2.0000      -0.231754        -6.3063
 199   2.0000      -0.222329        -6.0499
 200   0.0000      -0.046607        -1.2682
 201   0.0000      -0.037331        -1.0158
 202   0.0000      -0.015154        -0.4124
 203   0.0000      -0.006852        -0.1864
 204   0.0000       0.011611         0.3159

MULLIKEN ATOMIC CHARGES
-----------------------
   0 C :   -0.030128
   1 C :   -0.002091
   2 C :   -0.009864
   3 C :   -0.025649
   4 C :    0.076964
   5 C :   -0.118054
   6 C :    0.120182
   7 C :    0.072291
   8 O :   -0.196451
   9 C :    0.100374
  10 C :   -0.039183
  11 C :    0.015723
  12 C :   -0.007080
  13 C :   -0.042902
  14 C :    0.074855
  15 C :   -0.129177
  16 C :    0.122221
  17 C :    0.069321
  18 O :   -0.180140
  19 C :    0.074929
  20 C :   -0.197710
  21 S :    0.144862
  22 C :   -0.115850
  23 C :    0.021585
  24 C :    0.005657
  25 C :   -0.002928
  26 C :   -0.039314
  27 C :    0.057470
  28 C :   -0.107725
  29 C :    0.119923
  30 C :    0.068541
  31 O :   -0.198091
  32 C :    0.103272
  33 C :   -0.030205
  34 C :    0.014210
  35 C :    0.007468
  36 C :    0.012599
  37 C :    0.057642
  38 C :    0.057849
  39 O :   -0.182626
  40 C :    0.057623
  41 C :   -0.122366
  42 C :    0.123721
  43 C :   -0.107196
  44 C :   -0.048284
  45 C :    0.123450
  46 C :    0.086861
  47 C :   -0.140934
  48 C :   -0.003903
  49 O :   -0.129179
  50 C :    0.504514
  51 F :   -0.166836
  52 F :   -0.139759
  53 F :   -0.158248
  54 C :    0.158644
  55 H :    0.020610
  56 H :    0.033144
  57 H :   -0.012100
  58 H :   -0.022287
  59 H :   -0.026947
  60 H :    0.029380
  61 H :    0.025849
  62 H :    0.009409
  63 H :   -0.007325
  64 H :   -0.006629
  65 H :   -0.007922
  66 H :   -0.026307
  67 H :    0.001917
  68 H :    0.033055
  69 H :    0.005386
  70 H :    0.028445
  71 H :   -0.007384
  72 H :   -0.010657
  73 H :   -0.011539
  74 H :   -0.003587
  75 H :   -0.013372
  76 H :    0.025811
  77 H :    0.008564
  78 H :    0.029343
  79 H :   -0.006666
  80 H :   -0.012521
  81 H :   -0.010164
  82 H :   -0.025613
  83 H :   -0.030426
  84 H :   -0.000717
  85 H :   -0.007791
  86 H :    0.008256
  87 H :    0.022367
  88 H :    0.028246
  89 H :    0.041579
  90 H :    0.017925
  91 H :    0.009108
  92 H :    0.010295
  93 H :    0.041517
  94 H :    0.011961
  95 H :    0.026907
Sum of atomic charges:   -0.0000000

LOEWDIN ATOMIC CHARGES
----------------------
   0 C :   -0.052986
   1 C :   -0.025468
   2 C :   -0.036164
   3 C :   -0.018147
   4 C :   -0.074580
   5 C :   -0.068684
   6 C :   -0.046366
   7 C :    0.020988
   8 O :    0.011881
   9 C :    0.037604
  10 C :   -0.044075
  11 C :   -0.017160
  12 C :   -0.044462
  13 C :   -0.009289
  14 C :   -0.069898
  15 C :   -0.065302
  16 C :   -0.045467
  17 C :    0.020428
  18 O :    0.019100
  19 C :    0.007943
  20 C :   -0.200912
  21 S :    0.443040
  22 C :   -0.170018
  23 C :   -0.053871
  24 C :   -0.018847
  25 C :   -0.030294
  26 C :   -0.018029
  27 C :   -0.072666
  28 C :   -0.069156
  29 C :   -0.045321
  30 C :    0.022517
  31 O :    0.010263
  32 C :    0.035523
  33 C :   -0.040843
  34 C :   -0.024359
  35 C :   -0.034863
  36 C :   -0.011263
  37 C :   -0.081099
  38 C :    0.035349
  39 O :    0.020425
  40 C :    0.010616
  41 C :   -0.070513
  42 C :   -0.045568
  43 C :   -0.071726
  44 C :   -0.051265
  45 C :   -0.029873
  46 C :   -0.015221
  47 C :   -0.063435
  48 C :    0.053263
  49 O :   -0.078714
  50 C :    0.137988
  51 F :   -0.063097
  52 F :   -0.039506
  53 F :   -0.052740
  54 C :   -0.015616
  55 H :    0.021787
  56 H :    0.023794
  57 H :    0.025748
  58 H :    0.020472
  59 H :    0.028020
  60 H :    0.034924
  61 H :    0.034828
  62 H :    0.034150
  63 H :    0.018900
  64 H :    0.029907
  65 H :    0.029588
  66 H :    0.025576
  67 H :    0.028104
  68 H :    0.034387
  69 H :    0.032753
  70 H :    0.035727
  71 H :    0.019764
  72 H :    0.026840
  73 H :    0.024235
  74 H :    0.027922
  75 H :    0.028049
  76 H :    0.034289
  77 H :    0.033310
  78 H :    0.036781
  79 H :    0.018883
  80 H :    0.029980
  81 H :    0.029004
  82 H :    0.024818
  83 H :    0.023381
  84 H :    0.017466
  85 H :    0.017617
  86 H :    0.034508
  87 H :    0.031886
  88 H :    0.034424
  89 H :    0.038724
  90 H :    0.036509
  91 H :    0.030943
  92 H :    0.027629
  93 H :    0.050329
  94 H :    0.021757
  95 H :    0.042224

  Mayer bond orders larger than 0.100000
B(  0-C ,  1-C ) :   1.8773 B(  0-C , 55-H ) :   0.9515 B(  0-C , 56-H ) :   0.9521
B(  1-C ,  2-C ) :   1.0999 B(  1-C , 57-H ) :   0.9769 B(  2-C ,  3-C ) :   1.7197
B(  2-C , 58-H ) :   0.9718 B(  3-C ,  4-C ) :   1.0928 B(  3-C , 59-H ) :   0.9627
B(  4-C ,  5-C ) :   1.2233 B(  4-C ,  9-C ) :   1.3814 B(  5-C ,  6-C ) :   1.0952
B(  5-C ,  7-C ) :   1.5693 B(  6-C , 60-H ) :   0.9431 B(  6-C , 61-H ) :   0.9452
B(  6-C , 62-H ) :   0.9502 B(  7-C ,  8-O ) :   1.1211 B(  7-C , 63-H ) :   1.0082
B(  8-O ,  9-C ) :   1.1699 B(  9-C , 10-C ) :   1.1527 B( 10-C , 11-C ) :   1.6895
B( 10-C , 64-H ) :   0.9479 B( 11-C , 12-C ) :   1.0930 B( 11-C , 65-H ) :   0.9829
B( 12-C , 13-C ) :   1.7051 B( 12-C , 66-H ) :   0.9812 B( 13-C , 14-C ) :   1.1087
B( 13-C , 67-H ) :   0.9389 B( 14-C , 15-C ) :   1.2120 B( 14-C , 19-C ) :   1.4717
B( 15-C , 16-C ) :   1.0988 B( 15-C , 17-C ) :   1.5660 B( 16-C , 68-H ) :   0.9431
B( 16-C , 69-H ) :   0.9445 B( 16-C , 70-H ) :   0.9450 B( 17-C , 18-O ) :   1.1224
B( 17-C , 71-H ) :   1.0115 B( 18-O , 19-C ) :   1.1865 B( 19-C , 20-C ) :   1.0109
B( 20-C , 21-S ) :   1.1295 B( 20-C , 22-C ) :   0.1177 B( 20-C , 44-C ) :   1.5712
B( 21-S , 22-C ) :   1.1176 B( 22-C , 23-C ) :   1.0665 B( 22-C , 43-C ) :   1.5393
B( 23-C , 24-C ) :   1.6950 B( 23-C , 72-H ) :   0.9518 B( 24-C , 25-C ) :   1.1240
B( 24-C , 73-H ) :   0.9801 B( 25-C , 26-C ) :   1.6861 B( 25-C , 74-H ) :   0.9881
B( 26-C , 27-C ) :   1.0702 B( 26-C , 75-H ) :   0.9629 B( 27-C , 28-C ) :   1.2312
B( 27-C , 32-C ) :   1.3963 B( 28-C , 29-C ) :   1.0980 B( 28-C , 30-C ) :   1.5628
B( 29-C , 76-H ) :   0.9439 B( 29-C , 77-H ) :   0.9503 B( 29-C , 78-H ) :   0.9466
B( 30-C , 31-O ) :   1.1224 B( 30-C , 79-H ) :   1.0088 B( 31-O , 32-C ) :   1.1630
B( 32-C , 33-C ) :   1.1635 B( 33-C , 34-C ) :   1.6908 B( 33-C , 80-H ) :   0.9472
B( 34-C , 35-C ) :   1.1056 B( 34-C , 81-H ) :   0.9801 B( 35-C , 36-C ) :   1.7360
B( 35-C , 82-H ) :   0.9773 B( 36-C , 37-C ) :   1.0905 B( 36-C , 83-H ) :   0.9592
B( 37-C , 38-C ) :   1.4857 B( 37-C , 41-C ) :   1.2302 B( 38-C , 39-O ) :   1.1749
B( 38-C , 84-H ) :   1.0027 B( 39-O , 40-C ) :   1.1345 B( 40-C , 41-C ) :   1.5818
B( 40-C , 85-H ) :   1.0073 B( 41-C , 42-C ) :   1.0882 B( 42-C , 86-H ) :   0.9479
B( 42-C , 87-H ) :   0.9472 B( 42-C , 88-H ) :   0.9457 B( 43-C , 44-C ) :   1.2781
B( 43-C , 54-C ) :   1.0289 B( 44-C , 45-C ) :   1.0581 B( 45-C , 46-C ) :   1.0808
B( 45-C , 89-H ) :   0.9054 B( 45-C , 90-H ) :   0.8972 B( 46-C , 47-C ) :   1.0540
B( 46-C , 91-H ) :   0.9240 B( 46-C , 92-H ) :   0.9438 B( 47-C , 48-C ) :   0.9123
B( 47-C , 54-C ) :   1.0561 B( 47-C , 93-H ) :   0.8874 B( 48-C , 49-O ) :   2.2182
B( 48-C , 50-C ) :   0.8703 B( 50-C , 51-F ) :   1.1153 B( 50-C , 52-F ) :   1.1916
B( 50-C , 53-F ) :   1.1331 B( 54-C , 94-H ) :   0.9125 B( 54-C , 95-H ) :   0.8888

-----------------------------------------------------------------------------
         ABSORPTION SPECTRUM VIA TRANSITION ELECTRIC DIPOLE MOMENTS
-----------------------------------------------------------------------------
State   Energy  Wavelength   fosc         T2         TX        TY        TZ
        (cm-1)    (nm)                  (au**2)     (au)      (au)      (au)
-----------------------------------------------------------------------------
   0   22384.5    446.7   0.291950787   4.29376   0.54988  -1.26379  -1.54733
   1   24694.3    405.0   0.920192997  12.26754   0.85361   1.78431  -2.89052
   2   26683.3    374.8   0.011608835   0.14323   0.24834  -0.21654  -0.18618
   3   28629.6    349.3   0.475896526   5.47234  -2.29183   0.21148   0.41851
   4   29319.0    341.1   0.084168968   0.94510  -0.08523  -0.37006   0.89493
   5   30388.8    329.1   0.119704394   1.29680  -0.99543   0.53117   0.15423
   6   31740.5    315.1   0.547076613   5.67428   2.15716  -0.98757  -0.21362
   7   32839.8    304.5   0.622952626   6.24496  -2.16761   1.24354   0.00120
   8   33295.4    300.3   0.068779016   0.68006  -0.44054   0.55211  -0.42562
   9   34158.4    292.8   0.019551344   0.18843  -0.27680   0.09646   0.32017
  10   35400.0    282.5   0.097291303   0.90479   0.60897  -0.59019   0.43084
  11   35920.8    278.4   0.021528661   0.19731  -0.30992   0.19469   0.25171
  12   36931.5    270.8   0.141653113   1.26271  -0.33908   1.03773   0.26620
  13   36985.5    270.4   0.027783177   0.24730   0.40733   0.26062  -0.11602
  14   37672.9    265.4   0.004861404   0.04248   0.13045  -0.05470   0.14991
  15   37954.5    263.5   0.083079581   0.72062  -0.48151  -0.58636   0.38073
  16   38876.3    257.2   0.287537313   2.43492  -0.62842   1.41697  -0.17947
  17   39162.5    255.3   0.246383403   2.07118  -0.21466   1.39483   0.28202
  18   39534.6    252.9   0.297268248   2.47541  -0.90625   1.16937   0.53544

FINAL SINGLE POINT ENERGY     -2848.132026979915

DIPOLE MOMENT
-------------
                                X             Y             Z
Electronic contribution:      9.23063     -27.04243      30.85186
Nuclear contribution   :     -9.20766      28.21261     -30.92025
                        -----------------------------------------
Total Dipole Moment    :      0.02297       1.17018      -0.06839
                        -----------------------------------------
Magnitude (a.u.)       :      1.17240
Magnitude (Debye)      :      2.98000

Rotational constants in cm-1:     0.001454     0.000946     0.000739
Rotational constants in MHz :    43.596680    28.346468    22.149237

                             ****ORCA TERMINATED NORMALLY****
TOTAL RUN TIME: 0 days 0 hours 13 minutes 58 seconds 718 msec
