                         Program Version 4.2.0 -  RELEASE  -
|  1> # ORCA input file
|  2> # SCF done       -161.584392183960          0.000998802363
|  3> ! CAM-B3LYP def2-SVP def2/J RIJCOSX Grid4 TightSCF
|  4> %maxcore 5000
|  5> %tddft
|  6>     Mode sTDDFT
|  7>     Ethresh 5.0
|  8>     maxcore 5000
|  9> end
| 10>
| 11> %pal
| 12>   nprocs 6
| 13>   end
| 14> * xyz 0 1
| 15>    N       -1.17732       -11.56834        -6.24902
| 16>    C       -0.31576       -10.84884        -6.00777
| 17>    C        0.72230        -9.97353        -5.68518
| 18>    S        1.87902        -9.49086        -6.87055
| 19>    C        2.69338        -8.53842        -5.67975
| 20>    C        3.91774        -7.78079        -6.04828
| 21>    F        3.66728        -6.68531        -6.78167
| 22>    F        4.60966        -7.37288        -4.97531
| 23>    F        4.77986        -8.52328        -6.77600
| 24>    C        2.10501        -8.57943        -4.45207
| 25>    C        0.95528        -9.41030        -4.43382
| 26>    C        0.10781        -9.67370        -3.30630
| 27>    C        0.27127        -9.09013        -2.10202
| 28>    C       -0.58090        -9.28932        -0.96284
| 29>    S       -2.13237       -10.05571        -1.35454
| 30>    C       -2.51897       -10.88356         0.14780
| 31>    C       -3.18736       -12.06582         0.21047
| 32>    S       -3.45995       -12.56136         1.83410
| 33>    C       -2.64164       -11.17333         2.43647
| 34>    C       -2.20481       -10.36920         1.43142
| 35>    S       -1.36985        -8.84249         1.67570
| 36>    C       -0.24857        -8.83896         0.28740
| 37>    C        1.03870        -8.29079         0.56822
| 38>    C        1.43619        -7.65372         1.69109
| 39>    C        2.75798        -7.11699         1.74536
| 40>    N        3.32474        -6.50248         2.83490
| 41>    C        4.59265        -6.09322         2.55758
| 42>    C        4.87014        -6.44444         1.25258
| 43>    C        3.71240        -7.08449         0.74928
| 44>    S        4.02438        -7.52845        -0.93325
| 45>    O        4.05202        -8.96055        -1.11531
| 46>    O        3.16554        -6.82581        -1.85506
| 47>    C        5.70929        -6.85779        -0.88870
| 48>    C        6.48307        -7.04417        -2.06734
| 49>    C        7.82192        -6.97297        -2.16005
| 50>    C        8.53295        -7.24119        -3.39606
| 51>    C        9.59406        -6.47058        -3.81695
| 52>    C       10.18817        -5.33746        -3.06083
| 53>    F        9.28740        -4.37999        -2.76412
| 54>    F       10.70117        -5.72555        -1.87362
| 55>    F       11.18154        -4.73601        -3.72233
| 56>    S       10.16510        -6.85463        -5.39437
| 57>    C        8.97792        -8.11483        -5.50703
| 58>    C        8.89700        -8.92227        -6.64182
| 59>    N        8.81385        -9.59654        -7.56789
| 60>    C        8.18998        -8.23400        -4.37131
| 61>    C        7.19742        -9.26710        -4.24157
| 62>    C        6.85760        -9.84916        -3.06987
| 63>    C        5.80198       -10.77067        -2.87933
| 64>    S        5.47622       -11.40561        -1.28349
| 65>    C        4.03598       -12.18600        -1.74977
| 66>    C        3.78544       -11.99418        -3.08820
| 67>    C        2.86293       -12.28610        -4.13148
| 68>    N        3.26654       -11.75966        -5.25548
| 69>    N        4.42443       -11.10513        -5.02754
| 70>    C        4.79755       -11.20857        -3.72778
| 71>    C        5.96622        -6.34155         0.32753
| 72>    H        2.48633        -8.04040        -3.60152
| 73>    H       -0.69377       -10.38002        -3.47794
| 74>    H        1.08041        -8.38749        -1.98327
| 75>    H       -3.54836       -12.65711        -0.60592
| 76>    H       -2.54729       -11.01437         3.49099
| 77>    H        1.78282        -8.40421        -0.20397
| 78>    H        0.78377        -7.51748         2.54098
| 79>    H        2.85721        -6.37320         3.71840
| 80>    H        5.19477        -5.59387         3.28982
| 81>    H        5.89960        -7.31999        -2.93396
| 82>    H        8.41497        -6.66122        -1.31138
| 83>    H        6.76068        -9.60780        -5.16929
| 84>    H        7.39631        -9.57967        -2.17178
| 85>    H        3.46173       -12.73314        -1.02993
| 86>    H        1.95035       -12.84537        -4.08869
| 87>    H        4.92065       -10.70183        -5.80449
| 88>    H        6.89690        -5.87171         0.60327
| 89> *
| 90>
| 91>                          ****END OF INPUT****

CARTESIAN COORDINATES (ANGSTROEM)
---------------------------------
  N     -1.177320  -11.568340   -6.249020
  C     -0.315760  -10.848840   -6.007770
  C      0.722300   -9.973530   -5.685180
  S      1.879020   -9.490860   -6.870550
  C      2.693380   -8.538420   -5.679750
  C      3.917740   -7.780790   -6.048280
  F      3.667280   -6.685310   -6.781670
  F      4.609660   -7.372880   -4.975310
  F      4.779860   -8.523280   -6.776000
  C      2.105010   -8.579430   -4.452070
  C      0.955280   -9.410300   -4.433820
  C      0.107810   -9.673700   -3.306300
  C      0.271270   -9.090130   -2.102020
  C     -0.580900   -9.289320   -0.962840
  S     -2.132370  -10.055710   -1.354540
  C     -2.518970  -10.883560    0.147800
  C     -3.187360  -12.065820    0.210470
  S     -3.459950  -12.561360    1.834100
  C     -2.641640  -11.173330    2.436470
  C     -2.204810  -10.369200    1.431420
  S     -1.369850   -8.842490    1.675700
  C     -0.248570   -8.838960    0.287400
  C      1.038700   -8.290790    0.568220
  C      1.436190   -7.653720    1.691090
  C      2.757980   -7.116990    1.745360
  N      3.324740   -6.502480    2.834900
  C      4.592650   -6.093220    2.557580
  C      4.870140   -6.444440    1.252580
  C      3.712400   -7.084490    0.749280
  S      4.024380   -7.528450   -0.933250
  O      4.052020   -8.960550   -1.115310
  O      3.165540   -6.825810   -1.855060
  C      5.709290   -6.857790   -0.888700
  C      6.483070   -7.044170   -2.067340
  C      7.821920   -6.972970   -2.160050
  C      8.532950   -7.241190   -3.396060
  C      9.594060   -6.470580   -3.816950
  C     10.188170   -5.337460   -3.060830
  F      9.287400   -4.379990   -2.764120
  F     10.701170   -5.725550   -1.873620
  F     11.181540   -4.736010   -3.722330
  S     10.165100   -6.854630   -5.394370
  C      8.977920   -8.114830   -5.507030
  C      8.897000   -8.922270   -6.641820
  N      8.813850   -9.596540   -7.567890
  C      8.189980   -8.234000   -4.371310
  C      7.197420   -9.267100   -4.241570
  C      6.857600   -9.849160   -3.069870
  C      5.801980  -10.770670   -2.879330
  S      5.476220  -11.405610   -1.283490
  C      4.035980  -12.186000   -1.749770
  C      3.785440  -11.994180   -3.088200
  C      2.862930  -12.286100   -4.131480
  N      3.266540  -11.759660   -5.255480
  N      4.424430  -11.105130   -5.027540
  C      4.797550  -11.208570   -3.727780
  C      5.966220   -6.341550    0.327530
  H      2.486330   -8.040400   -3.601520
  H     -0.693770  -10.380020   -3.477940
  H      1.080410   -8.387490   -1.983270
  H     -3.548360  -12.657110   -0.605920
  H     -2.547290  -11.014370    3.490990
  H      1.782820   -8.404210   -0.203970
  H      0.783770   -7.517480    2.540980
  H      2.857210   -6.373200    3.718400
  H      5.194770   -5.593870    3.289820
  H      5.899600   -7.319990   -2.933960
  H      8.414970   -6.661220   -1.311380
  H      6.760680   -9.607800   -5.169290
  H      7.396310   -9.579670   -2.171780
  H      3.461730  -12.733140   -1.029930
  H      1.950350  -12.845370   -4.088690
  H      4.920650  -10.701830   -5.804490
  H      6.896900   -5.871710    0.603270

 Total Charge           Charge          ....    0
 Multiplicity           Mult            ....    1
 Number of Electrons    NEL             ....  456
 Basis Dimension        Dim             ....  911

ORBITAL ENERGIES
----------------

  NO   OCC          E(Eh)            E(eV)
   0   2.0000     -89.156312     -2426.0666
   1   2.0000     -88.987253     -2421.4663
   2   2.0000     -88.978592     -2421.2306
   3   2.0000     -88.965370     -2420.8708
   4   2.0000     -88.956797     -2420.6375
   5   2.0000     -88.947445     -2420.3830
   6   2.0000     -88.944996     -2420.3164
   7   2.0000     -24.812609      -675.1854
   8   2.0000     -24.810651      -675.1321
   9   2.0000     -24.810293      -675.1224
  10   2.0000     -24.805846      -675.0014
  11   2.0000     -24.803986      -674.9508
  12   2.0000     -24.800573      -674.8579
  13   2.0000     -19.211025      -522.7586
  14   2.0000     -19.206041      -522.6229
  15   2.0000     -14.496350      -394.4657
  16   2.0000     -14.472324      -393.8120
  17   2.0000     -14.429578      -392.6488
  18   2.0000     -14.408681      -392.0801
  19   2.0000     -14.407043      -392.0356
  20   2.0000     -10.532368      -286.6003
  21   2.0000     -10.530247      -286.5426
  22   2.0000     -10.342246      -281.4268
  23   2.0000     -10.332716      -281.1675
  24   2.0000     -10.331399      -281.1317
  25   2.0000     -10.329983      -281.0931
  26   2.0000     -10.328288      -281.0470
  27   2.0000     -10.322543      -280.8907
  28   2.0000     -10.321170      -280.8533
  29   2.0000     -10.318729      -280.7869
  30   2.0000     -10.317063      -280.7415
  31   2.0000     -10.316390      -280.7232
  32   2.0000     -10.312471      -280.6166
  33   2.0000     -10.312038      -280.6048
  34   2.0000     -10.310641      -280.5668
  35   2.0000     -10.309923      -280.5473
  36   2.0000     -10.308796      -280.5166
  37   2.0000     -10.308729      -280.5148
  38   2.0000     -10.306963      -280.4667
  39   2.0000     -10.303440      -280.3709
  40   2.0000     -10.303353      -280.3685
  41   2.0000     -10.303259      -280.3659
  42   2.0000     -10.300343      -280.2866
  43   2.0000     -10.299118      -280.2532
  44   2.0000     -10.298631      -280.2400
  45   2.0000     -10.297066      -280.1974
  46   2.0000     -10.296645      -280.1860
  47   2.0000     -10.295973      -280.1677
  48   2.0000     -10.292051      -280.0609
  49   2.0000     -10.290498      -280.0187
  50   2.0000     -10.290467      -280.0178
  51   2.0000     -10.290279      -280.0127
  52   2.0000     -10.289647      -279.9955
  53   2.0000     -10.288015      -279.9511
  54   2.0000     -10.287359      -279.9333
  55   2.0000     -10.274611      -279.5864
  56   2.0000     -10.270423      -279.4724
  57   2.0000      -8.220748      -223.6979
  58   2.0000      -8.082167      -219.9269
  59   2.0000      -8.073502      -219.6912
  60   2.0000      -8.061385      -219.3614
  61   2.0000      -8.051332      -219.0879
  62   2.0000      -8.042625      -218.8509
  63   2.0000      -8.040296      -218.7876
  64   2.0000      -6.189745      -168.4315
  65   2.0000      -6.189690      -168.4300
  66   2.0000      -6.188803      -168.4059
  67   2.0000      -6.051606      -164.6726
  68   2.0000      -6.047302      -164.5554
  69   2.0000      -6.044157      -164.4699
  70   2.0000      -6.042933      -164.4366
  71   2.0000      -6.038630      -164.3195
  72   2.0000      -6.035474      -164.2336
  73   2.0000      -6.030732      -164.1046
  74   2.0000      -6.026395      -163.9865
  75   2.0000      -6.023534      -163.9087
  76   2.0000      -6.020624      -163.8295
  77   2.0000      -6.016154      -163.7079
  78   2.0000      -6.014006      -163.6494
  79   2.0000      -6.012929      -163.6201
  80   2.0000      -6.010675      -163.5588
  81   2.0000      -6.008856      -163.5093
  82   2.0000      -6.006778      -163.4527
  83   2.0000      -6.002495      -163.3362
  84   2.0000      -5.999916      -163.2660
  85   2.0000      -1.397830       -38.0369
  86   2.0000      -1.397280       -38.0219
  87   2.0000      -1.303119       -35.4597
  88   2.0000      -1.300956       -35.4008
  89   2.0000      -1.295621       -35.2556
  90   2.0000      -1.294496       -35.2250
  91   2.0000      -1.212792       -33.0018
  92   2.0000      -1.132683       -30.8219
  93   2.0000      -1.109801       -30.1992
  94   2.0000      -1.087394       -29.5895
  95   2.0000      -1.019767       -27.7493
  96   2.0000      -1.011960       -27.5368
  97   2.0000      -1.004095       -27.3228
  98   2.0000      -0.987724       -26.8773
  99   2.0000      -0.983808       -26.7708
 100   2.0000      -0.976535       -26.5729
 101   2.0000      -0.975424       -26.5426
 102   2.0000      -0.964031       -26.2326
 103   2.0000      -0.925136       -25.1742
 104   2.0000      -0.922469       -25.1016
 105   2.0000      -0.914352       -24.8808
 106   2.0000      -0.905674       -24.6446
 107   2.0000      -0.903557       -24.5870
 108   2.0000      -0.888172       -24.1684
 109   2.0000      -0.884326       -24.0637
 110   2.0000      -0.875803       -23.8318
 111   2.0000      -0.865462       -23.5504
 112   2.0000      -0.863183       -23.4884
 113   2.0000      -0.841837       -22.9076
 114   2.0000      -0.840312       -22.8661
 115   2.0000      -0.835132       -22.7251
 116   2.0000      -0.817923       -22.2568
 117   2.0000      -0.805401       -21.9161
 118   2.0000      -0.803501       -21.8644
 119   2.0000      -0.794859       -21.6292
 120   2.0000      -0.788906       -21.4672
 121   2.0000      -0.787776       -21.4365
 122   2.0000      -0.770876       -20.9766
 123   2.0000      -0.761711       -20.7272
 124   2.0000      -0.732650       -19.9364
 125   2.0000      -0.731439       -19.9035
 126   2.0000      -0.725265       -19.7355
 127   2.0000      -0.719823       -19.5874
 128   2.0000      -0.701853       -19.0984
 129   2.0000      -0.693689       -18.8762
 130   2.0000      -0.689876       -18.7725
 131   2.0000      -0.689002       -18.7487
 132   2.0000      -0.683386       -18.5959
 133   2.0000      -0.680209       -18.5094
 134   2.0000      -0.679507       -18.4903
 135   2.0000      -0.678570       -18.4648
 136   2.0000      -0.675887       -18.3918
 137   2.0000      -0.668519       -18.1913
 138   2.0000      -0.657421       -17.8893
 139   2.0000      -0.656753       -17.8712
 140   2.0000      -0.646309       -17.5870
 141   2.0000      -0.641998       -17.4696
 142   2.0000      -0.636682       -17.3250
 143   2.0000      -0.632493       -17.2110
 144   2.0000      -0.627992       -17.0885
 145   2.0000      -0.617254       -16.7963
 146   2.0000      -0.601469       -16.3668
 147   2.0000      -0.596774       -16.2391
 148   2.0000      -0.589042       -16.0286
 149   2.0000      -0.584031       -15.8923
 150   2.0000      -0.581975       -15.8363
 151   2.0000      -0.574721       -15.6390
 152   2.0000      -0.572078       -15.5670
 153   2.0000      -0.563315       -15.3286
 154   2.0000      -0.560335       -15.2475
 155   2.0000      -0.558488       -15.1972
 156   2.0000      -0.558051       -15.1853
 157   2.0000      -0.556678       -15.1480
 158   2.0000      -0.555435       -15.1142
 159   2.0000      -0.554713       -15.0945
 160   2.0000      -0.548668       -14.9300
 161   2.0000      -0.545360       -14.8400
 162   2.0000      -0.542383       -14.7590
 163   2.0000      -0.537484       -14.6257
 164   2.0000      -0.533554       -14.5187
 165   2.0000      -0.528766       -14.3885
 166   2.0000      -0.527356       -14.3501
 167   2.0000      -0.525496       -14.2995
 168   2.0000      -0.523057       -14.2331
 169   2.0000      -0.517110       -14.0713
 170   2.0000      -0.515884       -14.0379
 171   2.0000      -0.513441       -13.9714
 172   2.0000      -0.509474       -13.8635
 173   2.0000      -0.506783       -13.7903
 174   2.0000      -0.504252       -13.7214
 175   2.0000      -0.501609       -13.6495
 176   2.0000      -0.500070       -13.6076
 177   2.0000      -0.497481       -13.5371
 178   2.0000      -0.493527       -13.4295
 179   2.0000      -0.492796       -13.4097
 180   2.0000      -0.492504       -13.4017
 181   2.0000      -0.490537       -13.3482
 182   2.0000      -0.490117       -13.3368
 183   2.0000      -0.488491       -13.2925
 184   2.0000      -0.480606       -13.0780
 185   2.0000      -0.477507       -12.9936
 186   2.0000      -0.471726       -12.8363
 187   2.0000      -0.469613       -12.7788
 188   2.0000      -0.466959       -12.7066
 189   2.0000      -0.461266       -12.5517
 190   2.0000      -0.458417       -12.4742
 191   2.0000      -0.449630       -12.2350
 192   2.0000      -0.447393       -12.1742
 193   2.0000      -0.444258       -12.0889
 194   2.0000      -0.442249       -12.0342
 195   2.0000      -0.437585       -11.9073
 196   2.0000      -0.436443       -11.8762
 197   2.0000      -0.435777       -11.8581
 198   2.0000      -0.434397       -11.8206
 199   2.0000      -0.432904       -11.7799
 200   2.0000      -0.430001       -11.7009
 201   2.0000      -0.427878       -11.6432
 202   2.0000      -0.420733       -11.4487
 203   2.0000      -0.414749       -11.2859
 204   2.0000      -0.413333       -11.2474
 205   2.0000      -0.409233       -11.1358
 206   2.0000      -0.407169       -11.0796
 207   2.0000      -0.404781       -11.0147
 208   2.0000      -0.403366       -10.9761
 209   2.0000      -0.396556       -10.7908
 210   2.0000      -0.387628       -10.5479
 211   2.0000      -0.382831       -10.4174
 212   2.0000      -0.375300       -10.2124
 213   2.0000      -0.374532       -10.1915
 214   2.0000      -0.365336        -9.9413
 215   2.0000      -0.361504        -9.8370
 216   2.0000      -0.358685        -9.7603
 217   2.0000      -0.347202        -9.4478
 218   2.0000      -0.335701        -9.1349
 219   2.0000      -0.324607        -8.8330
 220   2.0000      -0.316017        -8.5993
 221   2.0000      -0.312353        -8.4995
 222   2.0000      -0.300160        -8.1678
 223   2.0000      -0.292663        -7.9638
 224   2.0000      -0.290967        -7.9176
 225   2.0000      -0.280235        -7.6256
 226   2.0000      -0.249997        -6.8028
 227   2.0000      -0.242201        -6.5906
 228   0.0000      -0.070429        -1.9165
 229   0.0000      -0.058726        -1.5980
 230   0.0000      -0.047315        -1.2875
 231   0.0000      -0.023191        -0.6311
 232   0.0000      -0.012892        -0.3508

MULLIKEN ATOMIC CHARGES
-----------------------
   0 N :    0.136226
   1 C :   -0.189415
   2 C :   -0.292540
   3 S :    0.253519
   4 C :   -0.231895
   5 C :    0.558119
   6 F :   -0.149459
   7 F :   -0.143514
   8 F :   -0.171442
   9 C :   -0.001472
  10 C :    0.217828
  11 C :   -0.020155
  12 C :   -0.030473
  13 C :   -0.012129
  14 S :    0.111593
  15 C :   -0.008678
  16 C :   -0.119122
  17 S :    0.125896
  18 C :   -0.126071
  19 C :    0.004751
  20 S :    0.071980
  21 C :   -0.040410
  22 C :   -0.022995
  23 C :    0.013864
  24 C :    0.014970
  25 N :   -0.033410
  26 C :   -0.004070
  27 C :    0.061944
  28 C :   -0.091482
  29 S :    0.824383
  30 O :   -0.453869
  31 O :   -0.451028
  32 C :   -0.096004
  33 C :    0.097567
  34 C :   -0.035715
  35 C :    0.040500
  36 C :   -0.250654
  37 C :    0.530974
  38 F :   -0.161280
  39 F :   -0.167358
  40 F :   -0.150841
  41 S :    0.248931
  42 C :   -0.303402
  43 C :   -0.188453
  44 N :    0.130396
  45 C :    0.188105
  46 C :   -0.095652
  47 C :    0.109220
  48 C :   -0.227792
  49 S :    0.166985
  50 C :   -0.112430
  51 C :    0.031200
  52 C :    0.023457
  53 N :   -0.074578
  54 N :   -0.060911
  55 C :    0.168624
  56 C :    0.044281
  57 H :   -0.006028
  58 H :    0.016105
  59 H :    0.009226
  60 H :    0.032159
  61 H :    0.025622
  62 H :   -0.004202
  63 H :   -0.022163
  64 H :    0.134598
  65 H :    0.005372
  66 H :    0.017860
  67 H :    0.011427
  68 H :   -0.025624
  69 H :   -0.015181
  70 H :    0.024710
  71 H :   -0.000622
  72 H :    0.141797
  73 H :   -0.001676
Sum of atomic charges:   -0.0000000

LOEWDIN ATOMIC CHARGES
----------------------
   0 N :   -0.050118
   1 C :   -0.053226
   2 C :   -0.212048
   3 S :    0.518077
   4 C :   -0.234678
   5 C :    0.156201
   6 F :   -0.054943
   7 F :   -0.046294
   8 F :   -0.067397
   9 C :   -0.010839
  10 C :   -0.023290
  11 C :   -0.014807
  12 C :   -0.028443
  13 C :   -0.149242
  14 S :    0.378260
  15 C :   -0.216967
  16 C :   -0.198727
  17 S :    0.450082
  18 C :   -0.204645
  19 C :   -0.213436
  20 S :    0.341254
  21 C :   -0.177146
  22 C :   -0.009966
  23 C :   -0.055394
  24 C :    0.010937
  25 N :    0.103433
  26 C :    0.005417
  27 C :   -0.084819
  28 C :   -0.235107
  29 S :    1.187177
  30 O :   -0.505887
  31 O :   -0.496609
  32 C :   -0.162665
  33 C :   -0.020783
  34 C :   -0.013076
  35 C :   -0.034194
  36 C :   -0.233591
  37 C :    0.153998
  38 F :   -0.062999
  39 F :   -0.068423
  40 F :   -0.052065
  41 S :    0.505888
  42 C :   -0.227108
  43 C :   -0.055151
  44 N :   -0.049507
  45 C :   -0.003553
  46 C :   -0.076501
  47 C :   -0.002507
  48 C :   -0.229440
  49 S :    0.501920
  50 C :   -0.170365
  51 C :   -0.100573
  52 C :   -0.030363
  53 N :   -0.061690
  54 N :    0.084959
  55 C :   -0.008313
  56 C :    0.013195
  57 H :    0.031686
  58 H :    0.026944
  59 H :    0.031819
  60 H :    0.028450
  61 H :    0.025454
  62 H :    0.024488
  63 H :    0.021806
  64 H :    0.098188
  65 H :    0.027443
  66 H :    0.033113
  67 H :    0.029281
  68 H :    0.022783
  69 H :    0.029768
  70 H :    0.027141
  71 H :    0.023866
  72 H :    0.073691
  73 H :    0.040176

  Mayer bond orders larger than 0.100000
B(  0-N ,  1-C ) :   2.9899 B(  1-C ,  2-C ) :   1.2209 B(  2-C ,  3-S ) :   1.1530
B(  2-C ,  4-C ) :   0.1161 B(  2-C , 10-C ) :   1.4485 B(  3-S ,  4-C ) :   1.1279
B(  4-C ,  5-C ) :   0.9467 B(  4-C ,  9-C ) :   1.5861 B(  5-C ,  6-F ) :   1.1962
B(  5-C ,  7-F ) :   1.1415 B(  5-C ,  8-F ) :   1.1234 B(  9-C , 10-C ) :   1.2018
B(  9-C , 57-H ) :   0.9729 B( 10-C , 11-C ) :   1.1145 B( 11-C , 12-C ) :   1.6925
B( 11-C , 58-H ) :   0.9525 B( 12-C , 13-C ) :   1.1575 B( 12-C , 59-H ) :   0.9559
B( 13-C , 14-S ) :   1.0344 B( 13-C , 21-C ) :   1.6006 B( 14-S , 15-C ) :   0.9834
B( 15-C , 16-C ) :   1.5954 B( 15-C , 19-C ) :   1.2630 B( 16-C , 17-S ) :   1.1785
B( 16-C , 60-H ) :   0.9704 B( 17-S , 18-C ) :   1.1745 B( 18-C , 19-C ) :   1.5932
B( 18-C , 61-H ) :   0.9717 B( 19-C , 20-S ) :   0.9859 B( 20-S , 21-C ) :   0.9984
B( 21-C , 22-C ) :   1.1781 B( 22-C , 23-C ) :   1.6671 B( 22-C , 62-H ) :   0.9574
B( 23-C , 24-C ) :   1.1165 B( 23-C , 63-H ) :   0.9615 B( 24-C , 25-N ) :   1.2331
B( 24-C , 28-C ) :   1.4844 B( 25-N , 26-C ) :   1.2145 B( 25-N , 64-H ) :   0.9308
B( 26-C , 27-C ) :   1.4429 B( 26-C , 65-H ) :   0.9873 B( 27-C , 28-C ) :   1.3357
B( 27-C , 56-C ) :   1.0447 B( 28-C , 29-S ) :   0.8241 B( 29-S , 30-O ) :   1.6347
B( 29-S , 31-O ) :   1.6314 B( 29-S , 32-C ) :   0.8211 B( 32-C , 33-C ) :   1.1087
B( 32-C , 56-C ) :   1.7061 B( 33-C , 34-C ) :   1.7847 B( 33-C , 66-H ) :   0.9274
B( 34-C , 35-C ) :   1.0675 B( 34-C , 67-H ) :   0.9398 B( 35-C , 36-C ) :   1.5451
B( 35-C , 45-C ) :   1.2137 B( 36-C , 37-C ) :   0.9583 B( 36-C , 41-S ) :   1.1293
B( 36-C , 42-C ) :   0.1139 B( 37-C , 38-F ) :   1.1647 B( 37-C , 39-F ) :   1.1428
B( 37-C , 40-F ) :   1.1757 B( 41-S , 42-C ) :   1.1239 B( 42-C , 43-C ) :   1.2171
B( 42-C , 45-C ) :   1.4723 B( 43-C , 44-N ) :   2.9954 B( 45-C , 46-C ) :   1.1305
B( 46-C , 47-C ) :   1.6787 B( 46-C , 68-H ) :   0.9445 B( 47-C , 48-C ) :   1.1909
B( 47-C , 69-H ) :   0.9350 B( 48-C , 49-S ) :   1.1180 B( 48-C , 50-C ) :   0.1040
B( 48-C , 55-C ) :   1.3662 B( 49-S , 50-C ) :   1.2501 B( 50-C , 51-C ) :   1.3876
B( 50-C , 70-H ) :   0.9753 B( 51-C , 52-C ) :   1.1133 B( 51-C , 55-C ) :   1.2612
B( 52-C , 53-N ) :   1.7326 B( 52-C , 71-H ) :   1.0025 B( 53-N , 54-N ) :   1.1208
B( 54-N , 55-C ) :   1.1594 B( 54-N , 72-H ) :   0.9375 B( 56-C , 73-H ) :   0.9946

-----------------------------------------------------------------------------
         ABSORPTION SPECTRUM VIA TRANSITION ELECTRIC DIPOLE MOMENTS
-----------------------------------------------------------------------------
State   Energy  Wavelength   fosc         T2         TX        TY        TZ
        (cm-1)    (nm)                  (au**2)     (au)      (au)      (au)
-----------------------------------------------------------------------------
   0   20760.2    481.7   0.027008179   0.42829  -0.64356   0.09896  -0.06581
   1   22416.7    446.1   0.346969086   5.09560  -1.32590  -0.86362  -1.60989
   2   23474.4    426.0   0.047694057   0.66888   0.26822   0.47864   0.60649
   3   25231.1    396.3   0.510352806   6.65900   1.86377   1.67236  -0.62336
   4   26529.9    376.9   0.340050549   4.21972  -0.72858   0.18484   1.91173
   5   28319.3    353.1   0.205893745   2.39352  -1.42239  -0.57889   0.18763
   6   30458.2    328.3   0.174605132   1.88725   0.24232  -0.28721  -1.32138
   7   30801.7    324.7   0.006120305   0.06541  -0.18814  -0.09994  -0.14153
   8   30908.6    323.5   0.047250716   0.50327  -0.20335  -0.38379   0.56092
   9   31578.6    316.7   0.578753393   6.03360  -0.89870   0.56871   2.21416
  10   32645.8    306.3   0.057619179   0.58105  -0.73426  -0.19310  -0.06800
  11   32862.5    304.3   0.272634963   2.73122  -1.32588  -0.92285   0.34872
  12   33205.8    301.2   0.021672349   0.21487  -0.38969  -0.25003   0.02209
  13   33928.8    294.7   0.287903276   2.79353   1.06947   0.01843  -1.28430
  14   34340.7    291.2   0.036817291   0.35295   0.46146   0.31218  -0.20629
  15   35134.3    284.6   0.039479411   0.36993   0.59247   0.07578  -0.11473
  16   35969.5    278.0   0.033866776   0.30997   0.13876   0.19797  -0.50152
  17   36546.1    273.6   0.018315877   0.16499   0.34207   0.04746  -0.21383
  18   36691.8    272.5   0.059943445   0.53783   0.52041   0.18292  -0.48327
  19   37034.5    270.0   0.142075039   1.26295   0.75082   0.29036  -0.78417
  20   37775.5    264.7   0.061398149   0.53508  -0.57455  -0.44888   0.05898
  21   37874.6    264.0   0.009052148   0.07868   0.22839  -0.13497   0.09112
  22   37921.1    263.7   0.083478468   0.72472   0.07870  -0.38105   0.75718
  23   38261.5    261.4   0.089075108   0.76643   0.01379  -0.43820  -0.75777
  24   38648.4    258.7   0.035047093   0.29854   0.13608   0.05621  -0.52617
  25   39915.9    250.5   0.150359186   1.24011   0.75304   0.21101  -0.79279
  26   40121.8    249.2   0.153267023   1.25760  -0.76823  -0.13626   0.80552

FINAL SINGLE POINT ENERGY     -5226.809873262659

DIPOLE MOMENT
-------------
                                X             Y             Z
Electronic contribution:     29.34408      19.27578     -27.82611
Nuclear contribution   :    -29.28328     -18.26597      32.88398
                        -----------------------------------------
Total Dipole Moment    :      0.06080       1.00981       5.05788
                        -----------------------------------------
Magnitude (a.u.)       :      5.15805
Magnitude (Debye)      :     13.11073

Rotational constants in cm-1:     0.002034     0.000846     0.000685
Rotational constants in MHz :    60.974026    25.362580    20.521068

                             ****ORCA TERMINATED NORMALLY****
TOTAL RUN TIME: 0 days 0 hours 12 minutes 51 seconds 102 msec
