                         Program Version 4.2.0 -  RELEASE  -
|  1> # ORCA input file
|  2> # SCF done       -110.949762676590          0.000532409561
|  3> ! CAM-B3LYP def2-SVP def2/J RIJCOSX Grid4 TightSCF
|  4> %maxcore 5000
|  5> %tddft
|  6>     Mode sTDDFT
|  7>     Ethresh 5.0
|  8>     maxcore 5000
|  9> end
| 10>
| 11> %pal
| 12>   nprocs 6
| 13>   end
| 14> * xyz 0 1
| 15>    C       -3.42776         5.09142         1.16956
| 16>    C       -2.57783         4.18892         1.64378
| 17>    C       -1.13093         4.34400         1.73353
| 18>    C       -0.38352         3.46579         2.52653
| 19>    N        0.92555         3.53945         2.67652
| 20>    C        1.58531         4.48745         2.04308
| 21>    C        0.96160         5.42295         1.20975
| 22>    C        1.70499         6.44838         0.51061
| 23>    C        3.04164         6.76744         0.48292
| 24>    C        3.18336         7.85927        -0.40588
| 25>    C        4.46716         8.49597        -0.77462
| 26>    C        4.75653         8.51668        -2.25617
| 27>    O        5.24891         8.89576         0.05163
| 28>    C        1.90222         8.15022        -0.84578
| 29>    C        1.36262         9.19976        -1.65928
| 30>    C        1.88261        10.37151        -2.14667
| 31>    C        0.83171        11.03011        -2.83964
| 32>    C        0.92746        12.31451        -3.53538
| 33>    C        2.30262        12.93467        -3.54603
| 34>    O       -0.01944        12.85181        -4.07013
| 35>    C       -0.27690        10.18919        -2.71381
| 36>    C       -1.63473        10.23913        -3.15480
| 37>    C       -2.39901        11.18254        -3.80112
| 38>    C       -3.69568        10.63291        -3.91991
| 39>    C       -4.88174        11.25077        -4.52288
| 40>    C       -4.67155        12.64247        -5.05851
| 41>    O       -5.95248        10.68400        -4.58071
| 42>    C       -3.63196         9.36626        -3.33009
| 43>    C       -4.64199         8.37010        -3.17620
| 44>    C       -4.39456         7.17355        -2.60816
| 45>    C       -5.34342         6.10306        -2.41466
| 46>    C       -4.90722         4.87442        -1.90421
| 47>    C       -5.81544         3.85014        -1.71819
| 48>    C       -7.14315         4.08047        -2.05048
| 49>    N       -7.57639         5.23531        -2.53043
| 50>    C       -6.71112         6.21162        -2.70592
| 51>    O       -2.39009         9.14333        -2.87241
| 52>    O        0.05869         9.09673        -2.00661
| 53>    O        1.02186         7.29631        -0.28887
| 54>    C       -0.42282         5.33599         1.06171
| 55>    H       -4.48821         4.90777         1.14629
| 56>    H       -3.10953         6.05178         0.80009
| 57>    H       -2.95574         3.25062         2.03020
| 58>    H       -0.87000         2.66746         3.07250
| 59>    H        2.65449         4.50250         2.19908
| 60>    H        3.83942         6.28629         1.00905
| 61>    H        5.45552         9.31480        -2.49239
| 62>    H        3.84942         8.60506        -2.84481
| 63>    H        5.23363         7.56827        -2.50381
| 64>    H        2.88064        10.72595        -1.99923
| 65>    H        3.01444        12.25846        -4.01305
| 66>    H        2.62855        13.13140        -2.52749
| 67>    H        2.27153        13.86829        -4.10109
| 68>    H       -2.04811        12.13549        -4.13573
| 69>    H       -4.34362        13.30034        -4.25678
| 70>    H       -5.60046        13.01609        -5.48084
| 71>    H       -3.89936        12.63116        -5.82428
| 72>    H       -5.61171         8.64643        -3.55890
| 73>    H       -3.38713         6.96761        -2.26558
| 74>    H       -3.86325         4.73207        -1.65948
| 75>    H       -5.50225         2.89468        -1.32595
| 76>    H       -7.89556         3.31283        -1.92834
| 77>    H       -7.12650         7.13115        -3.09412
| 78>    H       -0.92841         6.03759         0.41617
| 79> *
| 80>
| 81>                          ****END OF INPUT****

CARTESIAN COORDINATES (ANGSTROEM)
---------------------------------
  C     -3.427760    5.091420    1.169560
  C     -2.577830    4.188920    1.643780
  C     -1.130930    4.344000    1.733530
  C     -0.383520    3.465790    2.526530
  N      0.925550    3.539450    2.676520
  C      1.585310    4.487450    2.043080
  C      0.961600    5.422950    1.209750
  C      1.704990    6.448380    0.510610
  C      3.041640    6.767440    0.482920
  C      3.183360    7.859270   -0.405880
  C      4.467160    8.495970   -0.774620
  C      4.756530    8.516680   -2.256170
  O      5.248910    8.895760    0.051630
  C      1.902220    8.150220   -0.845780
  C      1.362620    9.199760   -1.659280
  C      1.882610   10.371510   -2.146670
  C      0.831710   11.030110   -2.839640
  C      0.927460   12.314510   -3.535380
  C      2.302620   12.934670   -3.546030
  O     -0.019440   12.851810   -4.070130
  C     -0.276900   10.189190   -2.713810
  C     -1.634730   10.239130   -3.154800
  C     -2.399010   11.182540   -3.801120
  C     -3.695680   10.632910   -3.919910
  C     -4.881740   11.250770   -4.522880
  C     -4.671550   12.642470   -5.058510
  O     -5.952480   10.684000   -4.580710
  C     -3.631960    9.366260   -3.330090
  C     -4.641990    8.370100   -3.176200
  C     -4.394560    7.173550   -2.608160
  C     -5.343420    6.103060   -2.414660
  C     -4.907220    4.874420   -1.904210
  C     -5.815440    3.850140   -1.718190
  C     -7.143150    4.080470   -2.050480
  N     -7.576390    5.235310   -2.530430
  C     -6.711120    6.211620   -2.705920
  O     -2.390090    9.143330   -2.872410
  O      0.058690    9.096730   -2.006610
  O      1.021860    7.296310   -0.288870
  C     -0.422820    5.335990    1.061710
  H     -4.488210    4.907770    1.146290
  H     -3.109530    6.051780    0.800090
  H     -2.955740    3.250620    2.030200
  H     -0.870000    2.667460    3.072500
  H      2.654490    4.502500    2.199080
  H      3.839420    6.286290    1.009050
  H      5.455520    9.314800   -2.492390
  H      3.849420    8.605060   -2.844810
  H      5.233630    7.568270   -2.503810
  H      2.880640   10.725950   -1.999230
  H      3.014440   12.258460   -4.013050
  H      2.628550   13.131400   -2.527490
  H      2.271530   13.868290   -4.101090
  H     -2.048110   12.135490   -4.135730
  H     -4.343620   13.300340   -4.256780
  H     -5.600460   13.016090   -5.480840
  H     -3.899360   12.631160   -5.824280
  H     -5.611710    8.646430   -3.558900
  H     -3.387130    6.967610   -2.265580
  H     -3.863250    4.732070   -1.659480
  H     -5.502250    2.894680   -1.325950
  H     -7.895560    3.312830   -1.928340
  H     -7.126500    7.131150   -3.094120
  H     -0.928410    6.037590    0.416170

 Total Charge           Charge          ....    0
 Multiplicity           Mult            ....    1
 Number of Electrons    NEL             ....  278
 Basis Dimension        Dim             ....  680

ORBITAL ENERGIES
----------------

  NO   OCC          E(Eh)            E(eV)
   0   2.0000     -19.311160      -525.4834
   1   2.0000     -19.306994      -525.3700
   2   2.0000     -19.301351      -525.2165
   3   2.0000     -19.212936      -522.8106
   4   2.0000     -19.211062      -522.7596
   5   2.0000     -19.199539      -522.4460
   6   2.0000     -14.404414      -391.9640
   7   2.0000     -14.397328      -391.7712
   8   2.0000     -10.369513      -282.1688
   9   2.0000     -10.368489      -282.1409
  10   2.0000     -10.364108      -282.0217
  11   2.0000     -10.356727      -281.8209
  12   2.0000     -10.355317      -281.7825
  13   2.0000     -10.353801      -281.7412
  14   2.0000     -10.347756      -281.5768
  15   2.0000     -10.343671      -281.4656
  16   2.0000     -10.343417      -281.4587
  17   2.0000     -10.308892      -280.5192
  18   2.0000     -10.303691      -280.3777
  19   2.0000     -10.300749      -280.2976
  20   2.0000     -10.299863      -280.2735
  21   2.0000     -10.298001      -280.2229
  22   2.0000     -10.295391      -280.1518
  23   2.0000     -10.291676      -280.0507
  24   2.0000     -10.291069      -280.0342
  25   2.0000     -10.290032      -280.0060
  26   2.0000     -10.288458      -279.9632
  27   2.0000     -10.287220      -279.9295
  28   2.0000     -10.286406      -279.9073
  29   2.0000     -10.285757      -279.8897
  30   2.0000     -10.284863      -279.8654
  31   2.0000     -10.282368      -279.7975
  32   2.0000     -10.281702      -279.7793
  33   2.0000     -10.279292      -279.7138
  34   2.0000     -10.277009      -279.6516
  35   2.0000     -10.276903      -279.6487
  36   2.0000     -10.275426      -279.6086
  37   2.0000     -10.274797      -279.5914
  38   2.0000     -10.272883      -279.5394
  39   2.0000     -10.263276      -279.2779
  40   2.0000      -1.241085       -33.7716
  41   2.0000      -1.226364       -33.3711
  42   2.0000      -1.216823       -33.1114
  43   2.0000      -1.131119       -30.7793
  44   2.0000      -1.128718       -30.7140
  45   2.0000      -1.116847       -30.3909
  46   2.0000      -1.039704       -28.2918
  47   2.0000      -1.032383       -28.0926
  48   2.0000      -0.936138       -25.4736
  49   2.0000      -0.928417       -25.2635
  50   2.0000      -0.924016       -25.1438
  51   2.0000      -0.918201       -24.9855
  52   2.0000      -0.913295       -24.8520
  53   2.0000      -0.910847       -24.7854
  54   2.0000      -0.900416       -24.5016
  55   2.0000      -0.880088       -23.9484
  56   2.0000      -0.860597       -23.4180
  57   2.0000      -0.842964       -22.9382
  58   2.0000      -0.838968       -22.8295
  59   2.0000      -0.833012       -22.6674
  60   2.0000      -0.829728       -22.5781
  61   2.0000      -0.824112       -22.4252
  62   2.0000      -0.797940       -21.7131
  63   2.0000      -0.752105       -20.4658
  64   2.0000      -0.750059       -20.4102
  65   2.0000      -0.739934       -20.1346
  66   2.0000      -0.732399       -19.9296
  67   2.0000      -0.722132       -19.6502
  68   2.0000      -0.716501       -19.4970
  69   2.0000      -0.707280       -19.2461
  70   2.0000      -0.694576       -18.9004
  71   2.0000      -0.684260       -18.6197
  72   2.0000      -0.682391       -18.5688
  73   2.0000      -0.668591       -18.1933
  74   2.0000      -0.656601       -17.8670
  75   2.0000      -0.647142       -17.6096
  76   2.0000      -0.628354       -17.0984
  77   2.0000      -0.610952       -16.6248
  78   2.0000      -0.605714       -16.4823
  79   2.0000      -0.603190       -16.4136
  80   2.0000      -0.594039       -16.1646
  81   2.0000      -0.591813       -16.1040
  82   2.0000      -0.588206       -16.0059
  83   2.0000      -0.579609       -15.7720
  84   2.0000      -0.573888       -15.6163
  85   2.0000      -0.573014       -15.5925
  86   2.0000      -0.561490       -15.2789
  87   2.0000      -0.554707       -15.0943
  88   2.0000      -0.549524       -14.9533
  89   2.0000      -0.548598       -14.9281
  90   2.0000      -0.546787       -14.8788
  91   2.0000      -0.542836       -14.7713
  92   2.0000      -0.536166       -14.5898
  93   2.0000      -0.533327       -14.5126
  94   2.0000      -0.531282       -14.4569
  95   2.0000      -0.526131       -14.3167
  96   2.0000      -0.523280       -14.2392
  97   2.0000      -0.522575       -14.2200
  98   2.0000      -0.519444       -14.1348
  99   2.0000      -0.517080       -14.0705
 100   2.0000      -0.511634       -13.9223
 101   2.0000      -0.506768       -13.7899
 102   2.0000      -0.502950       -13.6860
 103   2.0000      -0.499232       -13.5848
 104   2.0000      -0.494044       -13.4436
 105   2.0000      -0.489741       -13.3265
 106   2.0000      -0.488811       -13.3012
 107   2.0000      -0.486201       -13.2302
 108   2.0000      -0.481066       -13.0905
 109   2.0000      -0.479830       -13.0568
 110   2.0000      -0.475601       -12.9418
 111   2.0000      -0.473393       -12.8817
 112   2.0000      -0.467059       -12.7093
 113   2.0000      -0.463437       -12.6108
 114   2.0000      -0.460419       -12.5286
 115   2.0000      -0.454630       -12.3711
 116   2.0000      -0.452300       -12.3077
 117   2.0000      -0.450073       -12.2471
 118   2.0000      -0.439094       -11.9483
 119   2.0000      -0.437937       -11.9169
 120   2.0000      -0.436657       -11.8820
 121   2.0000      -0.431274       -11.7355
 122   2.0000      -0.412444       -11.2232
 123   2.0000      -0.401827       -10.9343
 124   2.0000      -0.393864       -10.7176
 125   2.0000      -0.379714       -10.3325
 126   2.0000      -0.377115       -10.2618
 127   2.0000      -0.366061        -9.9610
 128   2.0000      -0.359825        -9.7913
 129   2.0000      -0.348947        -9.4953
 130   2.0000      -0.336176        -9.1478
 131   2.0000      -0.333973        -9.0879
 132   2.0000      -0.329096        -8.9552
 133   2.0000      -0.325477        -8.8567
 134   2.0000      -0.324346        -8.8259
 135   2.0000      -0.320466        -8.7203
 136   2.0000      -0.307513        -8.3679
 137   2.0000      -0.281887        -7.6705
 138   2.0000      -0.246561        -6.7093
 139   0.0000      -0.058113        -1.5813
 140   0.0000      -0.034348        -0.9346
 141   0.0000      -0.020364        -0.5541
 142   0.0000      -0.016031        -0.4362
 143   0.0000      -0.002591        -0.0705

MULLIKEN ATOMIC CHARGES
-----------------------
   0 C :   -0.017750
   1 C :   -0.004452
   2 C :    0.071253
   3 C :   -0.019627
   4 N :   -0.051535
   5 C :   -0.018198
   6 C :    0.032972
   7 C :    0.197312
   8 C :   -0.083595
   9 C :   -0.008965
  10 C :   -0.031437
  11 C :    0.036451
  12 O :   -0.166680
  13 C :    0.161516
  14 C :    0.151819
  15 C :   -0.107115
  16 C :   -0.012338
  17 C :   -0.020618
  18 C :    0.042417
  19 O :   -0.181515
  20 C :    0.175910
  21 C :    0.126283
  22 C :   -0.087996
  23 C :    0.022491
  24 C :   -0.017334
  25 C :    0.048378
  26 O :   -0.183070
  27 C :    0.115572
  28 C :   -0.019168
  29 C :    0.019144
  30 C :    0.040385
  31 C :    0.019022
  32 C :    0.010580
  33 C :    0.018904
  34 N :   -0.061749
  35 C :   -0.003220
  36 O :   -0.191730
  37 O :   -0.179092
  38 O :   -0.189554
  39 C :   -0.025063
  40 H :    0.036376
  41 H :    0.021737
  42 H :   -0.006923
  43 H :   -0.003609
  44 H :   -0.004941
  45 H :   -0.006681
  46 H :    0.034176
  47 H :    0.032458
  48 H :    0.048528
  49 H :   -0.006412
  50 H :    0.037380
  51 H :    0.043121
  52 H :    0.034614
  53 H :    0.007166
  54 H :    0.041166
  55 H :    0.031127
  56 H :    0.043297
  57 H :    0.020435
  58 H :   -0.007883
  59 H :   -0.003898
  60 H :   -0.006579
  61 H :    0.005570
  62 H :    0.006997
  63 H :   -0.005828
Sum of atomic charges:   -0.0000000

LOEWDIN ATOMIC CHARGES
----------------------
   0 C :   -0.034045
   1 C :   -0.022428
   2 C :   -0.044546
   3 C :    0.019180
   4 N :   -0.061437
   5 C :    0.025360
   6 C :   -0.056071
   7 C :    0.038389
   8 C :   -0.039532
   9 C :   -0.091450
  10 C :    0.075814
  11 C :   -0.078798
  12 O :   -0.130295
  13 C :    0.023320
  14 C :    0.013631
  15 C :   -0.049001
  16 C :   -0.114857
  17 C :    0.083295
  18 C :   -0.073874
  19 O :   -0.153002
  20 C :    0.068100
  21 C :    0.007672
  22 C :   -0.020354
  23 C :   -0.116449
  24 C :    0.082354
  25 C :   -0.073960
  26 O :   -0.155345
  27 C :    0.080425
  28 C :   -0.037217
  29 C :    0.005850
  30 C :   -0.053758
  31 C :    0.012306
  32 C :   -0.046186
  33 C :    0.019980
  34 N :   -0.067580
  35 C :    0.033917
  36 O :    0.026893
  37 O :    0.037406
  38 O :    0.030743
  39 C :    0.020360
  40 H :    0.029805
  41 H :    0.022360
  42 H :    0.030904
  43 H :    0.020504
  44 H :    0.020891
  45 H :    0.036376
  46 H :    0.038198
  47 H :    0.032243
  48 H :    0.054606
  49 H :    0.033754
  50 H :    0.041922
  51 H :    0.044154
  52 H :    0.040492
  53 H :    0.033138
  54 H :    0.044803
  55 H :    0.038652
  56 H :    0.045160
  57 H :    0.039206
  58 H :    0.029433
  59 H :    0.030390
  60 H :    0.031876
  61 H :    0.021614
  62 H :    0.024201
  63 H :    0.030511

  Mayer bond orders larger than 0.100000
B(  0-C ,  1-C ) :   1.9534 B(  0-C , 40-H ) :   0.9473 B(  0-C , 41-H ) :   0.9514
B(  1-C ,  2-C ) :   1.0435 B(  1-C , 42-H ) :   0.9669 B(  2-C ,  3-C ) :   1.3322
B(  2-C , 39-C ) :   1.3623 B(  3-C ,  4-N ) :   1.5511 B(  3-C , 43-H ) :   0.9882
B(  4-N ,  5-C ) :   1.5799 B(  5-C ,  6-C ) :   1.3316 B(  5-C , 44-H ) :   0.9858
B(  6-C ,  7-C ) :   1.0155 B(  6-C , 39-C ) :   1.3789 B(  7-C ,  8-C ) :   1.4925
B(  7-C , 13-C ) :   0.1244 B(  7-C , 38-O ) :   1.1448 B(  8-C ,  9-C ) :   1.2219
B(  8-C , 45-H ) :   1.0168 B(  9-C , 10-C ) :   0.8645 B(  9-C , 13-C ) :   1.5246
B( 10-C , 11-C ) :   1.0351 B( 10-C , 12-O ) :   2.2480 B( 11-C , 46-H ) :   0.9491
B( 11-C , 47-H ) :   0.9554 B( 11-C , 48-H ) :   0.9374 B( 13-C , 14-C ) :   0.9861
B( 13-C , 38-O ) :   1.1763 B( 14-C , 15-C ) :   1.5220 B( 14-C , 20-C ) :   0.1258
B( 14-C , 37-O ) :   1.1488 B( 15-C , 16-C ) :   1.1870 B( 15-C , 49-H ) :   0.9919
B( 16-C , 17-C ) :   0.9322 B( 16-C , 20-C ) :   1.4413 B( 17-C , 18-C ) :   1.0812
B( 17-C , 19-O ) :   2.1445 B( 18-C , 50-H ) :   0.9461 B( 18-C , 51-H ) :   0.9426
B( 18-C , 52-H ) :   0.9472 B( 20-C , 21-C ) :   1.0236 B( 20-C , 37-O ) :   1.1996
B( 21-C , 22-C ) :   1.5221 B( 21-C , 27-C ) :   0.1052 B( 21-C , 36-O ) :   1.1342
B( 22-C , 23-C ) :   1.1774 B( 22-C , 53-H ) :   0.9891 B( 23-C , 24-C ) :   0.9277
B( 23-C , 27-C ) :   1.3816 B( 24-C , 25-C ) :   1.0826 B( 24-C , 26-O ) :   2.1567
B( 25-C , 54-H ) :   0.9443 B( 25-C , 55-H ) :   0.9469 B( 25-C , 56-H ) :   0.9434
B( 27-C , 28-C ) :   1.1701 B( 27-C , 36-O ) :   1.1905 B( 28-C , 29-C ) :   1.6593
B( 28-C , 57-H ) :   0.9390 B( 29-C , 30-C ) :   1.0488 B( 29-C , 58-H ) :   0.9883
B( 30-C , 31-C ) :   1.3704 B( 30-C , 35-C ) :   1.3214 B( 31-C , 32-C ) :   1.4154
B( 31-C , 59-H ) :   0.9853 B( 32-C , 33-C ) :   1.3770 B( 32-C , 60-H ) :   0.9754
B( 33-C , 34-N ) :   1.5324 B( 33-C , 61-H ) :   0.9825 B( 34-N , 35-C ) :   1.5877
B( 35-C , 62-H ) :   0.9825 B( 39-C , 63-H ) :   0.9886

-----------------------------------------------------------------------------
         ABSORPTION SPECTRUM VIA TRANSITION ELECTRIC DIPOLE MOMENTS
-----------------------------------------------------------------------------
State   Energy  Wavelength   fosc         T2         TX        TY        TZ
        (cm-1)    (nm)                  (au**2)     (au)      (au)      (au)
-----------------------------------------------------------------------------
   0   24143.0    414.2   0.585381030   7.98221   2.62397   0.71418   0.76611
   1   30024.9    333.1   0.667743532   7.32156  -0.03737   2.29814  -1.42783
   2   31903.8    313.4   0.195663937   2.01903  -1.07036  -0.87116   0.33829
   3   32956.4    303.4   0.709822779   7.09065  -0.52801  -2.37058   1.09188
   4   33646.4    297.2   0.000465610   0.00456  -0.01129   0.05742  -0.03364
   5   34285.0    291.7   0.075955431   0.72934   0.15191  -0.70042   0.46441
   6   35549.3    281.3   0.000281262   0.00260  -0.02735  -0.02770  -0.03301
   7   35984.3    277.9   0.293861128   2.68846  -1.33294  -0.87862   0.37384
   8   38196.6    261.8   0.122032744   1.05179  -0.84230  -0.41564   0.41177
   9   38853.6    257.4   0.064992529   0.55069  -0.06258  -0.59532   0.43860

FINAL SINGLE POINT ENERGY     -1792.439987431027

DIPOLE MOMENT
-------------
                                X             Y             Z
Electronic contribution:      2.66914      -2.20231       4.47255
Nuclear contribution   :     -1.42807       2.13226      -4.89575
                        -----------------------------------------
Total Dipole Moment    :      1.24107      -0.07006      -0.42320
                        -----------------------------------------
Magnitude (a.u.)       :      1.31311
Magnitude (Debye)      :      3.33766

Rotational constants in cm-1:     0.002699     0.002324     0.001283
Rotational constants in MHz :    80.914132    69.659892    38.465897

                             ****ORCA TERMINATED NORMALLY****
TOTAL RUN TIME: 0 days 0 hours 5 minutes 32 seconds 404 msec
