                         Program Version 4.2.0 -  RELEASE  -
|  1> # ORCA input file
|  2> # SCF done       -162.690734069543          0.000443743700
|  3> ! CAM-B3LYP def2-SVP def2/J RIJCOSX Grid4 TightSCF
|  4> %maxcore 5000
|  5> %tddft
|  6>     Mode sTDDFT
|  7>     Ethresh 5.0
|  8>     maxcore 5000
|  9> end
| 10>
| 11> %pal
| 12>   nprocs 6
| 13>   end
| 14> * xyz 0 1
| 15>    C        3.54460         0.92379        -1.23133
| 16>    O        2.93022         1.25283        -0.01255
| 17>    C        3.60563         2.23608         0.74831
| 18>    C        4.88966         1.70527         1.39723
| 19>    C        4.56367         0.46714         2.22797
| 20>    C        3.53224         0.80984         3.25035
| 21>    C        3.37397         0.18346         4.48127
| 22>    C        4.07268        -0.90904         5.06616
| 23>    C        4.67021        -1.91870         4.39833
| 24>    N        5.36425        -2.93563         4.99485
| 25>    C        5.71862        -3.00961         6.33296
| 26>    C        5.54022        -4.20404         7.07707
| 27>    C        5.89074        -4.07850         8.38111
| 28>    S        6.45621        -2.50395         8.75365
| 29>    C        6.26329        -1.98265         7.09751
| 30>    C        6.74471        -0.69396         6.73475
| 31>    C        7.03340        -0.30144         5.47194
| 32>    C        7.54617         0.97177         5.11553
| 33>    O        7.73840         1.96825         6.03248
| 34>    C        8.26197         3.06210         5.40638
| 35>    C        8.58947         4.24573         6.11160
| 36>    C        8.37415         4.39723         7.43889
| 37>    N        8.67923         5.47592         8.19989
| 38>    C        9.40734         6.60847         7.85435
| 39>    C        9.20884         7.83732         8.54765
| 40>    C       10.02983         8.82119         8.11038
| 41>    S       11.06747         8.28514         6.85211
| 42>    C       10.39499         6.70665         6.91453
| 43>    C        8.40501         2.76874         4.06421
| 44>    C        7.94668         1.43628         3.88149
| 45>    C        8.10469         1.07674         2.47596
| 46>    O        7.84398         0.05721         1.88134
| 47>    N        8.64671         2.22077         1.90210
| 48>    C        8.86322         3.28708         2.78462
| 49>    O        9.32806         4.35384         2.46744
| 50>    S        2.11362         0.93115         5.41050
| 51>    C        1.76760         2.06524         4.12664
| 52>    C        0.70551         2.97600         4.21537
| 53>    C       -0.19986         3.01459         5.24105
| 54>    C       -1.28361         3.89930         5.25827
| 55>    C       -2.33705         3.92376         6.14076
| 56>    C       -3.16400         5.14217         6.25881
| 57>    O       -3.15430         6.11077         5.53010
| 58>    C       -3.97147         4.94745         7.48687
| 59>    C       -4.85071         5.81907         8.09392
| 60>    C       -5.47627         5.41387         9.26713
| 61>   Cl       -6.58028         6.47192        10.05265
| 62>    C       -5.20996         4.15397         9.80887
| 63>   Cl       -5.97933         3.67092        11.26822
| 64>    C       -4.32944         3.27333         9.18868
| 65>    C       -3.70851         3.67237         8.01810
| 66>    C       -2.78584         2.97010         7.12179
| 67>    C       -2.59087         1.60978         7.11480
| 68>    C       -1.98406         0.88773         6.06669
| 69>    N       -1.56544         0.22503         5.22733
| 70>    C       -3.08499         0.73985         8.10669
| 71>    N       -3.43494        -0.01862         8.89510
| 72>    C        2.64036         1.86734         3.05451
| 73>    C        2.62792         2.72064         1.82611
| 74>    H        2.85058         0.26796        -1.75386
| 75>    H        4.49574         0.39897        -1.08967
| 76>    H        3.72373         1.82036        -1.83831
| 77>    H        3.85576         3.08543         0.08820
| 78>    H        5.30887         2.48860         2.03235
| 79>    H        5.62955         1.45349         0.63721
| 80>    H        5.46550         0.07857         2.70168
| 81>    H        4.16790        -0.30270         1.55938
| 82>    H        4.03841        -0.95426         6.14610
| 83>    H        4.61098        -1.99742         3.32389
| 84>    H        5.40632        -3.80993         4.49098
| 85>    H        5.14743        -5.10931         6.64867
| 86>    H        5.83837        -4.81840         9.15439
| 87>    H        6.93657        -0.01024         7.55067
| 88>    H        6.94061        -0.97971         4.63950
| 89>    H        9.00261         5.03270         5.50410
| 90>    H        7.89507         3.59425         7.98370
| 91>    H        8.27353         5.50974         9.12332
| 92>    H        8.48031         7.96466         9.32862
| 93>    H       10.08721         9.83600         8.44835
| 94>    H       10.79312         5.94801         6.27416
| 95>    H        8.88531         2.27684         0.92263
| 96>    H        0.56993         3.64732         3.37732
| 97>    H       -0.06821         2.32696         6.06442
| 98>    H       -1.27815         4.71004         4.53668
| 99>    H       -5.04833         6.78922         7.66623
|100>    H       -4.14737         2.30965         9.63564
|101>    H        2.87881         3.74846         2.10319
|102>    H        1.62631         2.72252         1.39015
|103> *
|104>
|105>                          ****END OF INPUT****

CARTESIAN COORDINATES (ANGSTROEM)
---------------------------------
  C      3.544600    0.923790   -1.231330
  O      2.930220    1.252830   -0.012550
  C      3.605630    2.236080    0.748310
  C      4.889660    1.705270    1.397230
  C      4.563670    0.467140    2.227970
  C      3.532240    0.809840    3.250350
  C      3.373970    0.183460    4.481270
  C      4.072680   -0.909040    5.066160
  C      4.670210   -1.918700    4.398330
  N      5.364250   -2.935630    4.994850
  C      5.718620   -3.009610    6.332960
  C      5.540220   -4.204040    7.077070
  C      5.890740   -4.078500    8.381110
  S      6.456210   -2.503950    8.753650
  C      6.263290   -1.982650    7.097510
  C      6.744710   -0.693960    6.734750
  C      7.033400   -0.301440    5.471940
  C      7.546170    0.971770    5.115530
  O      7.738400    1.968250    6.032480
  C      8.261970    3.062100    5.406380
  C      8.589470    4.245730    6.111600
  C      8.374150    4.397230    7.438890
  N      8.679230    5.475920    8.199890
  C      9.407340    6.608470    7.854350
  C      9.208840    7.837320    8.547650
  C     10.029830    8.821190    8.110380
  S     11.067470    8.285140    6.852110
  C     10.394990    6.706650    6.914530
  C      8.405010    2.768740    4.064210
  C      7.946680    1.436280    3.881490
  C      8.104690    1.076740    2.475960
  O      7.843980    0.057210    1.881340
  N      8.646710    2.220770    1.902100
  C      8.863220    3.287080    2.784620
  O      9.328060    4.353840    2.467440
  S      2.113620    0.931150    5.410500
  C      1.767600    2.065240    4.126640
  C      0.705510    2.976000    4.215370
  C     -0.199860    3.014590    5.241050
  C     -1.283610    3.899300    5.258270
  C     -2.337050    3.923760    6.140760
  C     -3.164000    5.142170    6.258810
  O     -3.154300    6.110770    5.530100
  C     -3.971470    4.947450    7.486870
  C     -4.850710    5.819070    8.093920
  C     -5.476270    5.413870    9.267130
  Cl    -6.580280    6.471920   10.052650
  C     -5.209960    4.153970    9.808870
  Cl    -5.979330    3.670920   11.268220
  C     -4.329440    3.273330    9.188680
  C     -3.708510    3.672370    8.018100
  C     -2.785840    2.970100    7.121790
  C     -2.590870    1.609780    7.114800
  C     -1.984060    0.887730    6.066690
  N     -1.565440    0.225030    5.227330
  C     -3.084990    0.739850    8.106690
  N     -3.434940   -0.018620    8.895100
  C      2.640360    1.867340    3.054510
  C      2.627920    2.720640    1.826110
  H      2.850580    0.267960   -1.753860
  H      4.495740    0.398970   -1.089670
  H      3.723730    1.820360   -1.838310
  H      3.855760    3.085430    0.088200
  H      5.308870    2.488600    2.032350
  H      5.629550    1.453490    0.637210
  H      5.465500    0.078570    2.701680
  H      4.167900   -0.302700    1.559380
  H      4.038410   -0.954260    6.146100
  H      4.610980   -1.997420    3.323890
  H      5.406320   -3.809930    4.490980
  H      5.147430   -5.109310    6.648670
  H      5.838370   -4.818400    9.154390
  H      6.936570   -0.010240    7.550670
  H      6.940610   -0.979710    4.639500
  H      9.002610    5.032700    5.504100
  H      7.895070    3.594250    7.983700
  H      8.273530    5.509740    9.123320
  H      8.480310    7.964660    9.328620
  H     10.087210    9.836000    8.448350
  H     10.793120    5.948010    6.274160
  H      8.885310    2.276840    0.922630
  H      0.569930    3.647320    3.377320
  H     -0.068210    2.326960    6.064420
  H     -1.278150    4.710040    4.536680
  H     -5.048330    6.789220    7.666230
  H     -4.147370    2.309650    9.635640
  H      2.878810    3.748460    2.103190
  H      1.626310    2.722520    1.390150

 Total Charge           Charge          ....    0
 Multiplicity           Mult            ....    1
 Number of Electrons    NEL             ....  450
 Basis Dimension        Dim             ....  991

ORBITAL ENERGIES
----------------

  NO   OCC          E(Eh)            E(eV)
   0   2.0000    -101.588662     -2764.3680
   1   2.0000    -101.587431     -2764.3345
   2   2.0000     -88.960262     -2420.7318
   3   2.0000     -88.958264     -2420.6774
   4   2.0000     -88.945792     -2420.3380
   5   2.0000     -19.301382      -525.2173
   6   2.0000     -19.211193      -522.7631
   7   2.0000     -19.204308      -522.5758
   8   2.0000     -19.200012      -522.4589
   9   2.0000     -19.199286      -522.4391
  10   2.0000     -14.464699      -393.6045
  11   2.0000     -14.458688      -393.4409
  12   2.0000     -14.447025      -393.1235
  13   2.0000     -14.401821      -391.8935
  14   2.0000     -14.397985      -391.7891
  15   2.0000     -10.392755      -282.8012
  16   2.0000     -10.388709      -282.6911
  17   2.0000     -10.356025      -281.8018
  18   2.0000     -10.351380      -281.6754
  19   2.0000     -10.350117      -281.6410
  20   2.0000     -10.342580      -281.4359
  21   2.0000     -10.342085      -281.4224
  22   2.0000     -10.334772      -281.2234
  23   2.0000     -10.327729      -281.0318
  24   2.0000     -10.327174      -281.0167
  25   2.0000     -10.323969      -280.9295
  26   2.0000     -10.323246      -280.9098
  27   2.0000     -10.321438      -280.8606
  28   2.0000     -10.317006      -280.7400
  29   2.0000     -10.306800      -280.4623
  30   2.0000     -10.306004      -280.4406
  31   2.0000     -10.305209      -280.4190
  32   2.0000     -10.304307      -280.3944
  33   2.0000     -10.304248      -280.3928
  34   2.0000     -10.301035      -280.3054
  35   2.0000     -10.300692      -280.2961
  36   2.0000     -10.300197      -280.2826
  37   2.0000     -10.299866      -280.2736
  38   2.0000     -10.299391      -280.2607
  39   2.0000     -10.295496      -280.1547
  40   2.0000     -10.294701      -280.1331
  41   2.0000     -10.291591      -280.0484
  42   2.0000     -10.290700      -280.0242
  43   2.0000     -10.289840      -280.0008
  44   2.0000     -10.286041      -279.8974
  45   2.0000     -10.285446      -279.8812
  46   2.0000     -10.283548      -279.8296
  47   2.0000     -10.283434      -279.8265
  48   2.0000     -10.281904      -279.7848
  49   2.0000     -10.278645      -279.6962
  50   2.0000     -10.273886      -279.5667
  51   2.0000     -10.272391      -279.5260
  52   2.0000     -10.271954      -279.5141
  53   2.0000     -10.271865      -279.5117
  54   2.0000     -10.271764      -279.5089
  55   2.0000     -10.270135      -279.4646
  56   2.0000     -10.268321      -279.4152
  57   2.0000     -10.261188      -279.2211
  58   2.0000     -10.261127      -279.2194
  59   2.0000      -9.543637      -259.6956
  60   2.0000      -9.542463      -259.6636
  61   2.0000      -8.056290      -219.2228
  62   2.0000      -8.054528      -219.1748
  63   2.0000      -8.041615      -218.8235
  64   2.0000      -7.313983      -199.0236
  65   2.0000      -7.312829      -198.9922
  66   2.0000      -7.303911      -198.7495
  67   2.0000      -7.303233      -198.7311
  68   2.0000      -7.302719      -198.7171
  69   2.0000      -7.302038      -198.6986
  70   2.0000      -6.025615      -163.9653
  71   2.0000      -6.023894      -163.9185
  72   2.0000      -6.021428      -163.8514
  73   2.0000      -6.019417      -163.7967
  74   2.0000      -6.018365      -163.7680
  75   2.0000      -6.016746      -163.7240
  76   2.0000      -6.010808      -163.5624
  77   2.0000      -6.006916      -163.4565
  78   2.0000      -6.003579      -163.3657
  79   2.0000      -1.214344       -33.0440
  80   2.0000      -1.145683       -31.1756
  81   2.0000      -1.124278       -30.5931
  82   2.0000      -1.114387       -30.3240
  83   2.0000      -1.114261       -30.3206
  84   2.0000      -1.063656       -28.9436
  85   2.0000      -1.060097       -28.8467
  86   2.0000      -1.033155       -28.1136
  87   2.0000      -1.017145       -27.6779
  88   2.0000      -1.000144       -27.2153
  89   2.0000      -0.986537       -26.8450
  90   2.0000      -0.980124       -26.6705
  91   2.0000      -0.978574       -26.6284
  92   2.0000      -0.978342       -26.6220
  93   2.0000      -0.974684       -26.5225
  94   2.0000      -0.949421       -25.8351
  95   2.0000      -0.923958       -25.1422
  96   2.0000      -0.921795       -25.0833
  97   2.0000      -0.912420       -24.8282
  98   2.0000      -0.910832       -24.7850
  99   2.0000      -0.905603       -24.6427
 100   2.0000      -0.889446       -24.2031
 101   2.0000      -0.885458       -24.0946
 102   2.0000      -0.870657       -23.6918
 103   2.0000      -0.851889       -23.1811
 104   2.0000      -0.848897       -23.0997
 105   2.0000      -0.846385       -23.0313
 106   2.0000      -0.830959       -22.6116
 107   2.0000      -0.828804       -22.5529
 108   2.0000      -0.825474       -22.4623
 109   2.0000      -0.820541       -22.3281
 110   2.0000      -0.816272       -22.2119
 111   2.0000      -0.792035       -21.5524
 112   2.0000      -0.784699       -21.3527
 113   2.0000      -0.762901       -20.7596
 114   2.0000      -0.761708       -20.7271
 115   2.0000      -0.754973       -20.5439
 116   2.0000      -0.752950       -20.4888
 117   2.0000      -0.745189       -20.2776
 118   2.0000      -0.728869       -19.8335
 119   2.0000      -0.718462       -19.5503
 120   2.0000      -0.715066       -19.4579
 121   2.0000      -0.703884       -19.1537
 122   2.0000      -0.696800       -18.9609
 123   2.0000      -0.689935       -18.7741
 124   2.0000      -0.685943       -18.6655
 125   2.0000      -0.680747       -18.5241
 126   2.0000      -0.675784       -18.3890
 127   2.0000      -0.667158       -18.1543
 128   2.0000      -0.657577       -17.8936
 129   2.0000      -0.654201       -17.8017
 130   2.0000      -0.648287       -17.6408
 131   2.0000      -0.630742       -17.1634
 132   2.0000      -0.626485       -17.0475
 133   2.0000      -0.622105       -16.9284
 134   2.0000      -0.618869       -16.8403
 135   2.0000      -0.610673       -16.6173
 136   2.0000      -0.608704       -16.5637
 137   2.0000      -0.605064       -16.4646
 138   2.0000      -0.600817       -16.3491
 139   2.0000      -0.590556       -16.0698
 140   2.0000      -0.588022       -16.0009
 141   2.0000      -0.583734       -15.8842
 142   2.0000      -0.581810       -15.8318
 143   2.0000      -0.574748       -15.6397
 144   2.0000      -0.570709       -15.5298
 145   2.0000      -0.568786       -15.4775
 146   2.0000      -0.563849       -15.3431
 147   2.0000      -0.556965       -15.1558
 148   2.0000      -0.548155       -14.9161
 149   2.0000      -0.547071       -14.8866
 150   2.0000      -0.542081       -14.7508
 151   2.0000      -0.537513       -14.6265
 152   2.0000      -0.536346       -14.5947
 153   2.0000      -0.535716       -14.5776
 154   2.0000      -0.533885       -14.5277
 155   2.0000      -0.530962       -14.4482
 156   2.0000      -0.529337       -14.4040
 157   2.0000      -0.527816       -14.3626
 158   2.0000      -0.520507       -14.1637
 159   2.0000      -0.517035       -14.0692
 160   2.0000      -0.512526       -13.9465
 161   2.0000      -0.508396       -13.8342
 162   2.0000      -0.507150       -13.8002
 163   2.0000      -0.503961       -13.7135
 164   2.0000      -0.500435       -13.6175
 165   2.0000      -0.497420       -13.5355
 166   2.0000      -0.495365       -13.4796
 167   2.0000      -0.492571       -13.4035
 168   2.0000      -0.491678       -13.3792
 169   2.0000      -0.489984       -13.3331
 170   2.0000      -0.485946       -13.2233
 171   2.0000      -0.481290       -13.0966
 172   2.0000      -0.480392       -13.0721
 173   2.0000      -0.478160       -13.0114
 174   2.0000      -0.476452       -12.9649
 175   2.0000      -0.475564       -12.9408
 176   2.0000      -0.474106       -12.9011
 177   2.0000      -0.471964       -12.8428
 178   2.0000      -0.468558       -12.7501
 179   2.0000      -0.467045       -12.7090
 180   2.0000      -0.461353       -12.5541
 181   2.0000      -0.457713       -12.4550
 182   2.0000      -0.456845       -12.4314
 183   2.0000      -0.452171       -12.3042
 184   2.0000      -0.450922       -12.2702
 185   2.0000      -0.447144       -12.1674
 186   2.0000      -0.444653       -12.0996
 187   2.0000      -0.440277       -11.9806
 188   2.0000      -0.434854       -11.8330
 189   2.0000      -0.431555       -11.7432
 190   2.0000      -0.427734       -11.6392
 191   2.0000      -0.426747       -11.6124
 192   2.0000      -0.425963       -11.5910
 193   2.0000      -0.422480       -11.4963
 194   2.0000      -0.418091       -11.3768
 195   2.0000      -0.414353       -11.2751
 196   2.0000      -0.410579       -11.1724
 197   2.0000      -0.408761       -11.1230
 198   2.0000      -0.406233       -11.0542
 199   2.0000      -0.405617       -11.0374
 200   2.0000      -0.400305       -10.8929
 201   2.0000      -0.398958       -10.8562
 202   2.0000      -0.397409       -10.8140
 203   2.0000      -0.389760       -10.6059
 204   2.0000      -0.378686       -10.3046
 205   2.0000      -0.374433       -10.1888
 206   2.0000      -0.372852       -10.1458
 207   2.0000      -0.370300       -10.0764
 208   2.0000      -0.362053        -9.8520
 209   2.0000      -0.360976        -9.8227
 210   2.0000      -0.353224        -9.6117
 211   2.0000      -0.347221        -9.4484
 212   2.0000      -0.337212        -9.1760
 213   2.0000      -0.329381        -8.9629
 214   2.0000      -0.328345        -8.9347
 215   2.0000      -0.326411        -8.8821
 216   2.0000      -0.324670        -8.8347
 217   2.0000      -0.319468        -8.6932
 218   2.0000      -0.316780        -8.6200
 219   2.0000      -0.304373        -8.2824
 220   2.0000      -0.298295        -8.1170
 221   2.0000      -0.287050        -7.8110
 222   2.0000      -0.279992        -7.6190
 223   2.0000      -0.240520        -6.5449
 224   2.0000      -0.231905        -6.3105
 225   0.0000      -0.082314        -2.2399
 226   0.0000      -0.053391        -1.4528
 227   0.0000      -0.049024        -1.3340
 228   0.0000      -0.027225        -0.7408
 229   0.0000      -0.009566        -0.2603

MULLIKEN ATOMIC CHARGES
-----------------------
   0 C :    0.189404
   1 O :   -0.382700
   2 C :    0.108886
   3 C :    0.000322
   4 C :    0.149227
   5 C :   -0.083482
   6 C :   -0.110368
   7 C :    0.030026
   8 C :    0.004580
   9 N :   -0.052426
  10 C :    0.076898
  11 C :    0.016108
  12 C :   -0.054356
  13 S :    0.119484
  14 C :   -0.171828
  15 C :    0.024254
  16 C :   -0.001170
  17 C :    0.071757
  18 O :   -0.233632
  19 C :    0.105415
  20 C :   -0.090247
  21 C :    0.076308
  22 N :   -0.029559
  23 C :    0.099730
  24 C :    0.020885
  25 C :   -0.079873
  26 S :    0.120052
  27 C :   -0.169324
  28 C :   -0.050388
  29 C :   -0.027729
  30 C :    0.166680
  31 O :   -0.173706
  32 N :   -0.165992
  33 C :    0.148984
  34 O :   -0.153790
  35 S :    0.127812
  36 C :   -0.100467
  37 C :    0.011492
  38 C :   -0.010393
  39 C :    0.024785
  40 C :   -0.128019
  41 C :    0.140210
  42 O :   -0.151346
  43 C :   -0.008039
  44 C :   -0.033724
  45 C :    0.058599
  46 Cl:   -0.053980
  47 C :    0.048322
  48 Cl:   -0.046163
  49 C :   -0.017972
  50 C :    0.018983
  51 C :    0.289333
  52 C :   -0.337677
  53 C :   -0.224677
  54 N :    0.166388
  55 C :   -0.181430
  56 N :    0.137311
  57 C :   -0.065273
  58 C :    0.173766
  59 H :    0.030270
  60 H :    0.007112
  61 H :   -0.000023
  62 H :   -0.015994
  63 H :    0.007282
  64 H :    0.006209
  65 H :    0.003627
  66 H :    0.017065
  67 H :    0.010998
  68 H :    0.021042
  69 H :    0.133665
  70 H :   -0.022151
  71 H :    0.035746
  72 H :   -0.011954
  73 H :    0.021994
  74 H :    0.012925
  75 H :    0.017482
  76 H :    0.131558
  77 H :   -0.018932
  78 H :    0.033210
  79 H :    0.032022
  80 H :    0.131911
  81 H :    0.003980
  82 H :    0.020784
  83 H :    0.010553
  84 H :   -0.005329
  85 H :   -0.002374
  86 H :    0.020684
  87 H :    0.030367
Sum of atomic charges:   -0.0000000

LOEWDIN ATOMIC CHARGES
----------------------
   0 C :    0.066920
   1 O :   -0.170606
   2 C :    0.070240
   3 C :   -0.040489
   4 C :   -0.027818
   5 C :   -0.069874
   6 C :   -0.128209
   7 C :   -0.104579
   8 C :    0.037902
   9 N :    0.028631
  10 C :   -0.020064
  11 C :   -0.077191
  12 C :   -0.170172
  13 S :    0.437172
  14 C :   -0.203301
  15 C :   -0.035028
  16 C :   -0.035442
  17 C :    0.063957
  18 O :   -0.003744
  19 C :    0.090417
  20 C :   -0.129127
  21 C :    0.060267
  22 N :    0.036376
  23 C :   -0.024139
  24 C :   -0.082930
  25 C :   -0.175197
  26 S :    0.447952
  27 C :   -0.222405
  28 C :   -0.128611
  29 C :   -0.102619
  30 C :    0.084276
  31 O :   -0.181595
  32 N :   -0.007036
  33 C :    0.082396
  34 O :   -0.173961
  35 S :    0.443375
  36 C :   -0.198035
  37 C :    0.033041
  38 C :   -0.062418
  39 C :    0.070728
  40 C :   -0.121311
  41 C :    0.078770
  42 O :   -0.153909
  43 C :   -0.044017
  44 C :   -0.002884
  45 C :   -0.138540
  46 Cl:    0.149352
  47 C :   -0.133156
  48 Cl:    0.153126
  49 C :   -0.017860
  50 C :   -0.010033
  51 C :    0.068964
  52 C :   -0.148107
  53 C :   -0.025987
  54 N :   -0.053565
  55 C :   -0.020754
  56 N :   -0.061413
  57 C :   -0.011081
  58 C :   -0.030256
  59 H :    0.024632
  60 H :    0.005152
  61 H :    0.006631
  62 H :    0.007708
  63 H :    0.025963
  64 H :    0.021752
  65 H :    0.025467
  66 H :    0.031361
  67 H :    0.032876
  68 H :    0.032264
  69 H :    0.091458
  70 H :    0.029741
  71 H :    0.027607
  72 H :    0.028379
  73 H :    0.041705
  74 H :    0.042286
  75 H :    0.032826
  76 H :    0.092401
  77 H :    0.027719
  78 H :    0.026342
  79 H :    0.025809
  80 H :    0.090416
  81 H :    0.038426
  82 H :    0.024223
  83 H :    0.042298
  84 H :    0.043892
  85 H :    0.042860
  86 H :    0.038839
  87 H :    0.042570

  Mayer bond orders larger than 0.100000
B(  0-C ,  1-O ) :   0.9935 B(  0-C , 59-H ) :   0.9821 B(  0-C , 60-H ) :   0.9656
B(  0-C , 61-H ) :   0.9642 B(  1-O ,  2-C ) :   1.0270 B(  2-C ,  3-C ) :   1.0434
B(  2-C , 58-C ) :   1.0406 B(  2-C , 62-H ) :   0.9235 B(  3-C ,  4-C ) :   1.0714
B(  3-C , 63-H ) :   0.9386 B(  3-C , 64-H ) :   0.9237 B(  4-C ,  5-C ) :   1.0438
B(  4-C , 65-H ) :   0.9114 B(  4-C , 66-H ) :   0.8879 B(  5-C ,  6-C ) :   1.4610
B(  5-C , 57-C ) :   1.3699 B(  6-C ,  7-C ) :   1.1426 B(  6-C , 35-S ) :   1.1590
B(  7-C ,  8-C ) :   1.6845 B(  7-C , 67-H ) :   0.9267 B(  8-C ,  9-N ) :   1.1539
B(  8-C , 68-H ) :   0.9710 B(  9-N , 10-C ) :   1.0925 B(  9-N , 69-H ) :   0.9222
B( 10-C , 11-C ) :   1.2560 B( 10-C , 14-C ) :   1.4698 B( 11-C , 12-C ) :   1.5621
B( 11-C , 70-H ) :   0.9965 B( 12-C , 13-S ) :   1.1757 B( 12-C , 71-H ) :   0.9676
B( 13-S , 14-C ) :   1.1093 B( 14-C , 15-C ) :   1.1193 B( 15-C , 16-C ) :   1.6332
B( 15-C , 72-H ) :   0.9649 B( 16-C , 17-C ) :   1.2057 B( 16-C , 73-H ) :   0.9416
B( 17-C , 18-O ) :   1.1307 B( 17-C , 29-C ) :   1.4175 B( 18-O , 19-C ) :   1.1404
B( 19-C , 20-C ) :   1.2222 B( 19-C , 28-C ) :   1.3968 B( 20-C , 21-C ) :   1.5980
B( 20-C , 74-H ) :   0.9419 B( 21-C , 22-N ) :   1.2127 B( 21-C , 75-H ) :   0.9642
B( 22-N , 23-C ) :   1.0678 B( 22-N , 76-H ) :   0.9256 B( 23-C , 24-C ) :   1.2466
B( 23-C , 27-C ) :   1.5510 B( 24-C , 25-C ) :   1.5813 B( 24-C , 77-H ) :   0.9960
B( 25-C , 26-S ) :   1.1999 B( 25-C , 78-H ) :   0.9684 B( 26-S , 27-C ) :   1.1456
B( 27-C , 79-H ) :   0.9762 B( 28-C , 29-C ) :   1.2313 B( 28-C , 33-C ) :   0.9022
B( 29-C , 30-C ) :   0.8928 B( 30-C , 31-O ) :   2.1808 B( 30-C , 32-N ) :   1.1018
B( 32-N , 33-C ) :   1.0581 B( 32-N , 80-H ) :   0.9152 B( 33-C , 34-O ) :   2.2591
B( 35-S , 36-C ) :   1.0696 B( 36-C , 37-C ) :   1.2354 B( 36-C , 57-C ) :   1.3980
B( 37-C , 38-C ) :   1.5195 B( 37-C , 81-H ) :   0.9771 B( 38-C , 39-C ) :   1.2194
B( 38-C , 82-H ) :   0.9624 B( 39-C , 40-C ) :   1.5000 B( 39-C , 83-H ) :   0.9591
B( 40-C , 41-C ) :   0.9694 B( 40-C , 51-C ) :   1.0852 B( 41-C , 42-O ) :   2.2572
B( 41-C , 43-C ) :   0.9163 B( 43-C , 44-C ) :   1.3575 B( 43-C , 50-C ) :   1.3335
B( 44-C , 45-C ) :   1.3363 B( 44-C , 84-H ) :   1.0162 B( 45-C , 46-Cl) :   1.0371
B( 45-C , 47-C ) :   1.4216 B( 47-C , 48-Cl) :   1.0620 B( 47-C , 49-C ) :   1.3523
B( 49-C , 50-C ) :   1.3507 B( 49-C , 85-H ) :   0.9882 B( 50-C , 51-C ) :   0.9953
B( 51-C , 52-C ) :   1.6122 B( 52-C , 53-C ) :   1.1611 B( 52-C , 55-C ) :   1.1312
B( 53-C , 54-N ) :   3.0155 B( 55-C , 56-N ) :   2.9771 B( 57-C , 58-C ) :   1.0511
B( 58-C , 86-H ) :   0.9067 B( 58-C , 87-H ) :   0.8937

-----------------------------------------------------------------------------
         ABSORPTION SPECTRUM VIA TRANSITION ELECTRIC DIPOLE MOMENTS
-----------------------------------------------------------------------------
State   Energy  Wavelength   fosc         T2         TX        TY        TZ
        (cm-1)    (nm)                  (au**2)     (au)      (au)      (au)
-----------------------------------------------------------------------------
   0   16544.8    604.4   0.950513320  18.91353   3.98808  -1.16608  -1.28415
   1   21521.5    464.7   0.065224744   0.99774   0.28046   0.91253   0.29390
   2   22327.4    447.9   0.057542959   0.84846  -0.85974  -0.19553  -0.26659
   3   24166.6    413.8   0.326970438   4.45418  -1.05913   1.81371   0.20711
   4   25603.6    390.6   0.534809621   6.87660   0.86999   2.28794  -0.94077
   5   28314.9    353.2   0.195435561   2.27229  -0.29185   1.35853  -0.58439
   6   28933.5    345.6   0.585079826   6.65717   0.37314   1.75609   1.85313
   7   30172.1    331.4   0.063561794   0.69353  -0.50828   0.53245   0.38946
   8   30685.4    325.9   0.175219931   1.87987   0.58372   0.25393  -1.21435
   9   31017.2    322.4   0.007054435   0.07487   0.11814   0.12092  -0.21516
  10   31329.3    319.2   0.053400032   0.56113   0.07418  -0.67801  -0.30973
  11   31357.8    318.9   0.059137056   0.62085  -0.46559   0.58036   0.25935
  12   31971.4    312.8   0.043291598   0.44578  -0.01983   0.64267  -0.17987
  13   32359.1    309.0   0.114054797   1.16036  -0.60713  -0.09043   0.88519
  14   33780.0    296.0   0.072000871   0.70170   0.55291  -0.61402   0.13773
  15   34110.1    293.2   0.401516331   3.87522   0.14167  -1.82209   0.73152
  16   35419.2    282.3   0.481071535   4.47143  -1.15559   1.00656   1.45701
  17   35627.1    280.7   0.013151677   0.12153  -0.10215  -0.08467   0.32237
  18   36173.5    276.4   0.225932222   2.05619   0.39886  -1.19988   0.67631
  19   36844.4    271.4   0.046424492   0.41481  -0.11791   0.61563   0.14802
  20   37502.9    266.6   0.015239457   0.13378  -0.04059   0.29810  -0.20800
  21   37662.1    265.5   0.029565097   0.25843  -0.20356  -0.42053   0.20038
  22   38134.5    262.2   0.009064032   0.07825  -0.12849   0.14597   0.20108
  23   38678.2    258.5   0.093075702   0.79222  -0.22208  -0.58775  -0.63043
  24   39184.0    255.2   0.006894089   0.05792   0.10329   0.19974   0.08579
  25   39476.5    253.3   0.014613909   0.12187   0.03964   0.19161  -0.28911

FINAL SINGLE POINT ENERGY     -4455.355495287163

DIPOLE MOMENT
-------------
                                X             Y             Z
Electronic contribution:    -63.93192      18.47004      55.81562
Nuclear contribution   :     67.72764     -18.55288     -55.35734
                        -----------------------------------------
Total Dipole Moment    :      3.79572      -0.08284       0.45829
                        -----------------------------------------
Magnitude (a.u.)       :      3.82419
Magnitude (Debye)      :      9.72031

Rotational constants in cm-1:     0.001221     0.000522     0.000466
Rotational constants in MHz :    36.617924    15.659910    13.968502

                             ****ORCA TERMINATED NORMALLY****
TOTAL RUN TIME: 0 days 0 hours 7 minutes 24 seconds 189 msec
