                         Program Version 4.2.0 -  RELEASE  -
|  1> # ORCA input file
|  2> # SCF done       -156.818719280185          0.000595314703
|  3> ! CAM-B3LYP def2-SVP def2/J RIJCOSX Grid4 TightSCF
|  4> %maxcore 5000
|  5> %tddft
|  6>     Mode sTDDFT
|  7>     Ethresh 5.0
|  8>     maxcore 5000
|  9> end
| 10>
| 11> %pal
| 12>   nprocs 6
| 13>   end
| 14> * xyz 0 1
| 15>    C       12.26677         3.48726        -1.93352
| 16>    C       11.10191         2.87096        -2.12637
| 17>    C       10.96119         1.69859        -2.87822
| 18>    C       10.82208         0.68344        -3.53274
| 19>    C       10.65777        -0.43182        -4.26555
| 20>    C       10.53907        -1.44152        -4.93572
| 21>    C       10.33452        -2.57118        -5.70721
| 22>    C       11.27418        -3.43551        -6.21617
| 23>    C       10.70397        -4.46455        -6.97361
| 24>   Cl       11.65558        -5.67980        -7.72742
| 25>    C        9.32237        -4.41721        -7.06473
| 26>    C        8.44878        -5.28779        -7.76897
| 27>    S        9.03635        -6.62690        -8.71343
| 28>    C        7.43076        -7.07884        -9.20937
| 29>    C        7.25146        -8.18720       -10.09038
| 30>    C        6.06096        -8.56398       -10.59392
| 31>    C        5.83209        -9.66325       -11.50287
| 32>    C        6.70221       -10.74473       -11.62098
| 33>    C        6.44741       -11.81686       -12.46330
| 34>    O        7.35567       -12.84040       -12.43344
| 35>    C        6.86412       -14.16033       -12.28192
| 36>    C        5.29445       -11.80431       -13.27091
| 37>    C        5.03669       -12.78863       -14.29954
| 38>    C        5.93843       -13.41237       -15.12107
| 39>    C        5.32732       -14.24147       -16.07361
| 40>   Cl        6.23224       -15.13849       -17.22707
| 41>    C        3.94680       -14.26681       -16.00594
| 42>    C        3.03029       -14.98098       -16.82292
| 43>    S        3.57692       -16.00073       -18.12817
| 44>    C        1.94061       -16.47265       -18.54006
| 45>    C        1.60485       -17.28762       -19.66761
| 46>    S        0.17348       -16.82636       -20.53657
| 47>    C        0.40007       -18.02409       -21.71635
| 48>    C        1.52174       -18.78520       -21.48081
| 49>    C        2.00040       -19.87200       -22.27444
| 50>    C        1.30040       -20.27050       -23.49888
| 51>    O        0.29048       -19.76817       -23.93888
| 52>    O        1.89386       -21.29835       -24.13747
| 53>    C        3.12780       -20.53852       -21.85140
| 54>    C        3.77205       -20.19740       -20.66258
| 55>    C        3.33798       -19.15967       -19.86472
| 56>    O        3.98418       -18.97842       -18.69849
| 57>    C        2.22173       -18.38106       -20.28613
| 58>    C        1.04225       -15.82407       -17.72825
| 59>    C        1.64974       -15.00502       -16.76811
| 60>   Cl        0.73623       -14.12020       -15.61631
| 61>    S        3.40717       -13.22451       -14.71936
| 62>    C        4.39791       -10.74336       -13.12004
| 63>    C        4.64348        -9.69096       -12.26289
| 64>    O        3.71379        -8.67935       -12.16041
| 65>    C        4.03420        -7.49008       -12.86880
| 66>    C        3.95524        -7.66425       -14.38120
| 67>    C        6.49733        -6.23255        -8.65730
| 68>    C        7.06673        -5.23826        -7.85650
| 69>   Cl        6.11124        -4.05553        -7.05590
| 70>    S        8.72024        -3.04898        -6.16945
| 71>    H       12.33533         4.38815        -1.34895
| 72>    H       13.18186         3.10812        -2.35584
| 73>    H       10.18531         3.26190        -1.69999
| 74>    H       12.33079        -3.33094        -6.05297
| 75>    H        8.15470        -8.71067       -10.37152
| 76>    H        5.17379        -8.00546       -10.32928
| 77>    H        7.59208       -10.79178       -11.01359
| 78>    H        6.92402       -14.71606       -13.22128
| 79>    H        5.83076       -14.16581       -11.93005
| 80>    H        7.49954       -14.64718       -11.53992
| 81>    H        6.99992       -13.25137       -15.07482
| 82>    H       -0.28753       -18.12443       -22.53061
| 83>    H        1.38372       -21.51164       -24.93383
| 84>    H        3.50827       -21.35819       -22.43935
| 85>    H        4.62504       -20.76339       -20.32461
| 86>    H        3.63522       -18.22496       -18.20494
| 87>    H       -0.02207       -15.94822       -17.80545
| 88>    H        3.49366       -10.73203       -13.71026
| 89>    H        5.03633        -7.13768       -12.58719
| 90>    H        3.29272        -6.76205       -12.53066
| 91>    H        4.70120        -8.38026       -14.72052
| 92>    H        4.13803        -6.71006       -14.86744
| 93>    H        2.96962        -8.02345       -14.66644
| 94>    H        5.43818        -6.31403        -8.81270
| 95> *
| 96>
| 97>                          ****END OF INPUT****

CARTESIAN COORDINATES (ANGSTROEM)
---------------------------------
  C     12.266770    3.487260   -1.933520
  C     11.101910    2.870960   -2.126370
  C     10.961190    1.698590   -2.878220
  C     10.822080    0.683440   -3.532740
  C     10.657770   -0.431820   -4.265550
  C     10.539070   -1.441520   -4.935720
  C     10.334520   -2.571180   -5.707210
  C     11.274180   -3.435510   -6.216170
  C     10.703970   -4.464550   -6.973610
  Cl    11.655580   -5.679800   -7.727420
  C      9.322370   -4.417210   -7.064730
  C      8.448780   -5.287790   -7.768970
  S      9.036350   -6.626900   -8.713430
  C      7.430760   -7.078840   -9.209370
  C      7.251460   -8.187200  -10.090380
  C      6.060960   -8.563980  -10.593920
  C      5.832090   -9.663250  -11.502870
  C      6.702210  -10.744730  -11.620980
  C      6.447410  -11.816860  -12.463300
  O      7.355670  -12.840400  -12.433440
  C      6.864120  -14.160330  -12.281920
  C      5.294450  -11.804310  -13.270910
  C      5.036690  -12.788630  -14.299540
  C      5.938430  -13.412370  -15.121070
  C      5.327320  -14.241470  -16.073610
  Cl     6.232240  -15.138490  -17.227070
  C      3.946800  -14.266810  -16.005940
  C      3.030290  -14.980980  -16.822920
  S      3.576920  -16.000730  -18.128170
  C      1.940610  -16.472650  -18.540060
  C      1.604850  -17.287620  -19.667610
  S      0.173480  -16.826360  -20.536570
  C      0.400070  -18.024090  -21.716350
  C      1.521740  -18.785200  -21.480810
  C      2.000400  -19.872000  -22.274440
  C      1.300400  -20.270500  -23.498880
  O      0.290480  -19.768170  -23.938880
  O      1.893860  -21.298350  -24.137470
  C      3.127800  -20.538520  -21.851400
  C      3.772050  -20.197400  -20.662580
  C      3.337980  -19.159670  -19.864720
  O      3.984180  -18.978420  -18.698490
  C      2.221730  -18.381060  -20.286130
  C      1.042250  -15.824070  -17.728250
  C      1.649740  -15.005020  -16.768110
  Cl     0.736230  -14.120200  -15.616310
  S      3.407170  -13.224510  -14.719360
  C      4.397910  -10.743360  -13.120040
  C      4.643480   -9.690960  -12.262890
  O      3.713790   -8.679350  -12.160410
  C      4.034200   -7.490080  -12.868800
  C      3.955240   -7.664250  -14.381200
  C      6.497330   -6.232550   -8.657300
  C      7.066730   -5.238260   -7.856500
  Cl     6.111240   -4.055530   -7.055900
  S      8.720240   -3.048980   -6.169450
  H     12.335330    4.388150   -1.348950
  H     13.181860    3.108120   -2.355840
  H     10.185310    3.261900   -1.699990
  H     12.330790   -3.330940   -6.052970
  H      8.154700   -8.710670  -10.371520
  H      5.173790   -8.005460  -10.329280
  H      7.592080  -10.791780  -11.013590
  H      6.924020  -14.716060  -13.221280
  H      5.830760  -14.165810  -11.930050
  H      7.499540  -14.647180  -11.539920
  H      6.999920  -13.251370  -15.074820
  H     -0.287530  -18.124430  -22.530610
  H      1.383720  -21.511640  -24.933830
  H      3.508270  -21.358190  -22.439350
  H      4.625040  -20.763390  -20.324610
  H      3.635220  -18.224960  -18.204940
  H     -0.022070  -15.948220  -17.805450
  H      3.493660  -10.732030  -13.710260
  H      5.036330   -7.137680  -12.587190
  H      3.292720   -6.762050  -12.530660
  H      4.701200   -8.380260  -14.720520
  H      4.138030   -6.710060  -14.867440
  H      2.969620   -8.023450  -14.666440
  H      5.438180   -6.314030   -8.812700

 Total Charge           Charge          ....    0
 Multiplicity           Mult            ....    1
 Number of Electrons    NEL             ....  464
 Basis Dimension        Dim             ....  940

ORBITAL ENERGIES
----------------

  NO   OCC          E(Eh)            E(eV)
   0   2.0000    -101.601524     -2764.7180
   1   2.0000    -101.600136     -2764.6803
   2   2.0000    -101.595798     -2764.5622
   3   2.0000    -101.595003     -2764.5406
   4   2.0000     -88.975762     -2421.1536
   5   2.0000     -88.969116     -2420.9727
   6   2.0000     -88.965858     -2420.8841
   7   2.0000     -88.963608     -2420.8228
   8   2.0000     -88.961882     -2420.7759
   9   2.0000     -19.248725      -523.7844
  10   2.0000     -19.248023      -523.7653
  11   2.0000     -19.238277      -523.5001
  12   2.0000     -19.229291      -523.2556
  13   2.0000     -19.190812      -522.2086
  14   2.0000     -10.391446      -282.7656
  15   2.0000     -10.346711      -281.5483
  16   2.0000     -10.337569      -281.2995
  17   2.0000     -10.334057      -281.2040
  18   2.0000     -10.333439      -281.1872
  19   2.0000     -10.330665      -281.1117
  20   2.0000     -10.329558      -281.0816
  21   2.0000     -10.325713      -280.9769
  22   2.0000     -10.324465      -280.9430
  23   2.0000     -10.322364      -280.8858
  24   2.0000     -10.321213      -280.8545
  25   2.0000     -10.320678      -280.8399
  26   2.0000     -10.318446      -280.7792
  27   2.0000     -10.317170      -280.7445
  28   2.0000     -10.316785      -280.7340
  29   2.0000     -10.316776      -280.7337
  30   2.0000     -10.315446      -280.6975
  31   2.0000     -10.310127      -280.5528
  32   2.0000     -10.305963      -280.4395
  33   2.0000     -10.293836      -280.1095
  34   2.0000     -10.292582      -280.0754
  35   2.0000     -10.291222      -280.0384
  36   2.0000     -10.289621      -279.9948
  37   2.0000     -10.288062      -279.9524
  38   2.0000     -10.287900      -279.9480
  39   2.0000     -10.287261      -279.9306
  40   2.0000     -10.286475      -279.9092
  41   2.0000     -10.285200      -279.8745
  42   2.0000     -10.284950      -279.8677
  43   2.0000     -10.283986      -279.8415
  44   2.0000     -10.283332      -279.8237
  45   2.0000     -10.283326      -279.8235
  46   2.0000     -10.281001      -279.7603
  47   2.0000     -10.280366      -279.7430
  48   2.0000     -10.280194      -279.7383
  49   2.0000     -10.278935      -279.7041
  50   2.0000     -10.278803      -279.7005
  51   2.0000     -10.275848      -279.6200
  52   2.0000     -10.272726      -279.5351
  53   2.0000     -10.271247      -279.4948
  54   2.0000     -10.260630      -279.2059
  55   2.0000     -10.258263      -279.1415
  56   2.0000      -9.556238      -260.0385
  57   2.0000      -9.554779      -259.9987
  58   2.0000      -9.550478      -259.8817
  59   2.0000      -9.549677      -259.8599
  60   2.0000      -8.070264      -219.6031
  61   2.0000      -8.064488      -219.4459
  62   2.0000      -8.060522      -219.3380
  63   2.0000      -8.058314      -219.2779
  64   2.0000      -8.056772      -219.2359
  65   2.0000      -7.326327      -199.3595
  66   2.0000      -7.324810      -199.3182
  67   2.0000      -7.320538      -199.2020
  68   2.0000      -7.319783      -199.1814
  69   2.0000      -7.316339      -199.0877
  70   2.0000      -7.316257      -199.0855
  71   2.0000      -7.314897      -199.0485
  72   2.0000      -7.314860      -199.0475
  73   2.0000      -7.310573      -198.9308
  74   2.0000      -7.310553      -198.9303
  75   2.0000      -7.309767      -198.9089
  76   2.0000      -7.309719      -198.9076
  77   2.0000      -6.039809      -164.3516
  78   2.0000      -6.035432      -164.2325
  79   2.0000      -6.033459      -164.1788
  80   2.0000      -6.032047      -164.1404
  81   2.0000      -6.030071      -164.0866
  82   2.0000      -6.028973      -164.0567
  83   2.0000      -6.027935      -164.0285
  84   2.0000      -6.027674      -164.0214
  85   2.0000      -6.026234      -163.9822
  86   2.0000      -6.025672      -163.9669
  87   2.0000      -6.023471      -163.9070
  88   2.0000      -6.022351      -163.8765
  89   2.0000      -6.021941      -163.8653
  90   2.0000      -6.019966      -163.8116
  91   2.0000      -6.018646      -163.7757
  92   2.0000      -1.175521       -31.9876
  93   2.0000      -1.148917       -31.2636
  94   2.0000      -1.141252       -31.0551
  95   2.0000      -1.134507       -30.8715
  96   2.0000      -1.077917       -29.3316
  97   2.0000      -1.027043       -27.9472
  98   2.0000      -1.020203       -27.7611
  99   2.0000      -1.005303       -27.3557
 100   2.0000      -0.997091       -27.1322
 101   2.0000      -0.992872       -27.0174
 102   2.0000      -0.965204       -26.2645
 103   2.0000      -0.957258       -26.0483
 104   2.0000      -0.955411       -25.9981
 105   2.0000      -0.947667       -25.7873
 106   2.0000      -0.944525       -25.7018
 107   2.0000      -0.928374       -25.2623
 108   2.0000      -0.905468       -24.6390
 109   2.0000      -0.900565       -24.5056
 110   2.0000      -0.888218       -24.1696
 111   2.0000      -0.879774       -23.9399
 112   2.0000      -0.866082       -23.5673
 113   2.0000      -0.858782       -23.3686
 114   2.0000      -0.855127       -23.2692
 115   2.0000      -0.846641       -23.0383
 116   2.0000      -0.835241       -22.7281
 117   2.0000      -0.830607       -22.6020
 118   2.0000      -0.826984       -22.5034
 119   2.0000      -0.824885       -22.4463
 120   2.0000      -0.823764       -22.4158
 121   2.0000      -0.819791       -22.3077
 122   2.0000      -0.812579       -22.1114
 123   2.0000      -0.800500       -21.7827
 124   2.0000      -0.786052       -21.3896
 125   2.0000      -0.775627       -21.1059
 126   2.0000      -0.765344       -20.8261
 127   2.0000      -0.741336       -20.1728
 128   2.0000      -0.740876       -20.1603
 129   2.0000      -0.724975       -19.7276
 130   2.0000      -0.717450       -19.5228
 131   2.0000      -0.707891       -19.2627
 132   2.0000      -0.697900       -18.9908
 133   2.0000      -0.692486       -18.8435
 134   2.0000      -0.691054       -18.8045
 135   2.0000      -0.684471       -18.6254
 136   2.0000      -0.669216       -18.2103
 137   2.0000      -0.663747       -18.0615
 138   2.0000      -0.661219       -17.9927
 139   2.0000      -0.652248       -17.7486
 140   2.0000      -0.649672       -17.6785
 141   2.0000      -0.638262       -17.3680
 142   2.0000      -0.629774       -17.1370
 143   2.0000      -0.625835       -17.0298
 144   2.0000      -0.617039       -16.7905
 145   2.0000      -0.607338       -16.5265
 146   2.0000      -0.605923       -16.4880
 147   2.0000      -0.599948       -16.3254
 148   2.0000      -0.594775       -16.1846
 149   2.0000      -0.592384       -16.1196
 150   2.0000      -0.581896       -15.8342
 151   2.0000      -0.579912       -15.7802
 152   2.0000      -0.570912       -15.5353
 153   2.0000      -0.564196       -15.3525
 154   2.0000      -0.561613       -15.2823
 155   2.0000      -0.559969       -15.2375
 156   2.0000      -0.556368       -15.1395
 157   2.0000      -0.550677       -14.9847
 158   2.0000      -0.540086       -14.6965
 159   2.0000      -0.533590       -14.5197
 160   2.0000      -0.532246       -14.4832
 161   2.0000      -0.531352       -14.4588
 162   2.0000      -0.530156       -14.4263
 163   2.0000      -0.529334       -14.4039
 164   2.0000      -0.526734       -14.3332
 165   2.0000      -0.524530       -14.2732
 166   2.0000      -0.519351       -14.1323
 167   2.0000      -0.518372       -14.1056
 168   2.0000      -0.515439       -14.0258
 169   2.0000      -0.513382       -13.9698
 170   2.0000      -0.509413       -13.8618
 171   2.0000      -0.508400       -13.8343
 172   2.0000      -0.507479       -13.8092
 173   2.0000      -0.503069       -13.6892
 174   2.0000      -0.500255       -13.6126
 175   2.0000      -0.496116       -13.5000
 176   2.0000      -0.494890       -13.4666
 177   2.0000      -0.488151       -13.2833
 178   2.0000      -0.487394       -13.2627
 179   2.0000      -0.486382       -13.2351
 180   2.0000      -0.485535       -13.2121
 181   2.0000      -0.476015       -12.9530
 182   2.0000      -0.468592       -12.7510
 183   2.0000      -0.465683       -12.6719
 184   2.0000      -0.462228       -12.5779
 185   2.0000      -0.459693       -12.5089
 186   2.0000      -0.458785       -12.4842
 187   2.0000      -0.457014       -12.4360
 188   2.0000      -0.454300       -12.3621
 189   2.0000      -0.453359       -12.3365
 190   2.0000      -0.450399       -12.2560
 191   2.0000      -0.448532       -12.2052
 192   2.0000      -0.447836       -12.1862
 193   2.0000      -0.445314       -12.1176
 194   2.0000      -0.444728       -12.1017
 195   2.0000      -0.437078       -11.8935
 196   2.0000      -0.434654       -11.8275
 197   2.0000      -0.433515       -11.7965
 198   2.0000      -0.431833       -11.7508
 199   2.0000      -0.426449       -11.6043
 200   2.0000      -0.424752       -11.5581
 201   2.0000      -0.423225       -11.5165
 202   2.0000      -0.416281       -11.3276
 203   2.0000      -0.415610       -11.3093
 204   2.0000      -0.412889       -11.2353
 205   2.0000      -0.406191       -11.0530
 206   2.0000      -0.404021       -10.9940
 207   2.0000      -0.396718       -10.7952
 208   2.0000      -0.387885       -10.5549
 209   2.0000      -0.385552       -10.4914
 210   2.0000      -0.383600       -10.4383
 211   2.0000      -0.380194       -10.3456
 212   2.0000      -0.373782       -10.1711
 213   2.0000      -0.370247       -10.0749
 214   2.0000      -0.367359        -9.9964
 215   2.0000      -0.366885        -9.9834
 216   2.0000      -0.352736        -9.5984
 217   2.0000      -0.349219        -9.5027
 218   2.0000      -0.341343        -9.2884
 219   2.0000      -0.333866        -9.0850
 220   2.0000      -0.330636        -8.9971
 221   2.0000      -0.321277        -8.7424
 222   2.0000      -0.320624        -8.7246
 223   2.0000      -0.318806        -8.6752
 224   2.0000      -0.316469        -8.6116
 225   2.0000      -0.311343        -8.4721
 226   2.0000      -0.308153        -8.3853
 227   2.0000      -0.296620        -8.0714
 228   2.0000      -0.287176        -7.8144
 229   2.0000      -0.269509        -7.3337
 230   2.0000      -0.243937        -6.6379
 231   2.0000      -0.234860        -6.3909
 232   0.0000      -0.063829        -1.7369
 233   0.0000      -0.053712        -1.4616
 234   0.0000      -0.032799        -0.8925
 235   0.0000      -0.016688        -0.4541
 236   0.0000       0.005037         0.1371

MULLIKEN ATOMIC CHARGES
-----------------------
   0 C :    0.011029
   1 C :   -0.109436
   2 C :   -0.028607
   3 C :    0.015326
   4 C :   -0.049528
   5 C :    0.062666
   6 C :   -0.158133
   7 C :    0.060652
   8 C :    0.045926
   9 Cl:   -0.070062
  10 C :   -0.087901
  11 C :   -0.096575
  12 S :    0.150229
  13 C :   -0.062924
  14 C :    0.079699
  15 C :   -0.038103
  16 C :    0.090121
  17 C :   -0.084730
  18 C :    0.145704
  19 O :   -0.333358
  20 C :    0.191839
  21 C :    0.086931
  22 C :   -0.119383
  23 C :    0.010765
  24 C :    0.046524
  25 Cl:   -0.065329
  26 C :   -0.087876
  27 C :   -0.106062
  28 S :    0.137716
  29 C :   -0.121297
  30 C :   -0.170696
  31 S :    0.175307
  32 C :   -0.125282
  33 C :    0.047754
  34 C :   -0.017359
  35 C :    0.131315
  36 O :   -0.217280
  37 O :   -0.181839
  38 C :    0.015920
  39 C :   -0.046019
  40 C :    0.093155
  41 O :   -0.160155
  42 C :    0.131322
  43 C :    0.009025
  44 C :    0.065418
  45 Cl:   -0.062425
  46 S :    0.149383
  47 C :   -0.069923
  48 C :    0.139511
  49 O :   -0.341335
  50 C :    0.181623
  51 C :   -0.024482
  52 C :    0.000883
  53 C :    0.056692
  54 Cl:   -0.065395
  55 S :    0.185653
  56 H :    0.034305
  57 H :    0.034645
  58 H :    0.037861
  59 H :   -0.009599
  60 H :   -0.015379
  61 H :    0.007334
  62 H :   -0.030409
  63 H :    0.030408
  64 H :    0.026498
  65 H :    0.031563
  66 H :   -0.000663
  67 H :    0.045373
  68 H :    0.186071
  69 H :   -0.000546
  70 H :   -0.018264
  71 H :    0.170155
  72 H :   -0.008194
  73 H :   -0.025098
  74 H :    0.012668
  75 H :    0.019897
  76 H :    0.030708
  77 H :    0.018749
  78 H :    0.024583
  79 H :   -0.019262
Sum of atomic charges:   -0.0000000

LOEWDIN ATOMIC CHARGES
----------------------
   0 C :   -0.004434
   1 C :   -0.044542
   2 C :    0.003057
   3 C :   -0.052806
   4 C :   -0.037465
   5 C :   -0.029766
   6 C :   -0.192943
   7 C :   -0.045418
   8 C :   -0.175917
   9 Cl:    0.151831
  10 C :   -0.202439
  11 C :   -0.216438
  12 S :    0.450176
  13 C :   -0.167671
  14 C :   -0.038358
  15 C :   -0.009100
  16 C :   -0.038068
  17 C :   -0.025973
  18 C :    0.049427
  19 O :   -0.125560
  20 C :    0.080386
  21 C :   -0.070434
  22 C :   -0.162299
  23 C :   -0.070566
  24 C :   -0.172422
  25 Cl:    0.154831
  26 C :   -0.216227
  27 C :   -0.210511
  28 S :    0.459873
  29 C :   -0.198497
  30 C :   -0.208777
  31 S :    0.505953
  32 C :   -0.184311
  33 C :   -0.031797
  34 C :   -0.104028
  35 C :    0.091567
  36 O :   -0.197178
  37 O :   -0.047030
  38 C :    0.027645
  39 C :   -0.077502
  40 C :    0.079214
  41 O :   -0.030779
  42 C :   -0.076492
  43 C :   -0.076667
  44 C :   -0.168603
  45 Cl:    0.158443
  46 S :    0.453879
  47 C :   -0.031383
  48 C :    0.040835
  49 O :   -0.133800
  50 C :    0.081596
  51 C :   -0.072405
  52 C :   -0.072826
  53 C :   -0.165131
  54 Cl:    0.155011
  55 S :    0.464460
  56 H :    0.029033
  57 H :    0.031079
  58 H :    0.046709
  59 H :    0.038785
  60 H :    0.027189
  61 H :    0.030890
  62 H :    0.032843
  63 H :    0.014815
  64 H :    0.019500
  65 H :    0.022616
  66 H :    0.036588
  67 H :    0.029897
  68 H :    0.097549
  69 H :    0.036219
  70 H :    0.034205
  71 H :    0.041383
  72 H :    0.031613
  73 H :    0.026526
  74 H :    0.010562
  75 H :    0.022326
  76 H :    0.027542
  77 H :    0.031622
  78 H :    0.027144
  79 H :    0.031743

  Mayer bond orders larger than 0.100000
B(  0-C ,  1-C ) :   1.9354 B(  0-C , 56-H ) :   0.9553 B(  0-C , 57-H ) :   0.9629
B(  1-C ,  2-C ) :   1.0180 B(  1-C , 58-H ) :   0.9581 B(  2-C ,  3-C ) :   2.2393
B(  2-C ,  5-C ) :   0.1757 B(  3-C ,  4-C ) :   0.8727 B(  4-C ,  5-C ) :   2.2445
B(  5-C ,  6-C ) :   0.9849 B(  6-C ,  7-C ) :   1.4835 B(  6-C , 10-C ) :   0.1018
B(  6-C , 55-S ) :   1.0842 B(  7-C ,  8-C ) :   1.2682 B(  7-C , 59-H ) :   1.0101
B(  8-C ,  9-Cl) :   1.0216 B(  8-C , 10-C ) :   1.4765 B( 10-C , 11-C ) :   1.1676
B( 10-C , 55-S ) :   1.1312 B( 11-C , 12-S ) :   1.1239 B( 11-C , 53-C ) :   1.4789
B( 12-S , 13-C ) :   1.1073 B( 13-C , 14-C ) :   1.1002 B( 13-C , 52-C ) :   1.4843
B( 14-C , 15-C ) :   1.7138 B( 14-C , 60-H ) :   0.9606 B( 15-C , 16-C ) :   1.0666
B( 15-C , 61-H ) :   0.9711 B( 16-C , 17-C ) :   1.2921 B( 16-C , 48-C ) :   1.3162
B( 17-C , 18-C ) :   1.3750 B( 17-C , 62-H ) :   1.0000 B( 18-C , 19-O ) :   1.1404
B( 18-C , 21-C ) :   1.3255 B( 19-O , 20-C ) :   0.9409 B( 20-C , 63-H ) :   0.9681
B( 20-C , 64-H ) :   0.9647 B( 20-C , 65-H ) :   0.9790 B( 21-C , 22-C ) :   1.0164
B( 21-C , 47-C ) :   1.2718 B( 22-C , 23-C ) :   1.5177 B( 22-C , 26-C ) :   0.1025
B( 22-C , 46-S ) :   1.1216 B( 23-C , 24-C ) :   1.2444 B( 23-C , 66-H ) :   1.0070
B( 24-C , 25-Cl) :   1.0252 B( 24-C , 26-C ) :   1.4954 B( 26-C , 27-C ) :   1.1670
B( 26-C , 46-S ) :   1.1161 B( 27-C , 28-S ) :   1.0966 B( 27-C , 29-C ) :   0.1011
B( 27-C , 44-C ) :   1.4925 B( 28-S , 29-C ) :   1.0838 B( 29-C , 30-C ) :   1.0741
B( 29-C , 43-C ) :   1.4984 B( 30-C , 31-S ) :   1.2022 B( 30-C , 32-C ) :   0.1132
B( 30-C , 42-C ) :   1.3623 B( 31-S , 32-C ) :   1.1898 B( 32-C , 33-C ) :   1.4853
B( 32-C , 67-H ) :   0.9404 B( 33-C , 34-C ) :   1.1670 B( 33-C , 42-C ) :   1.1990
B( 34-C , 35-C ) :   0.9608 B( 34-C , 38-C ) :   1.4840 B( 35-C , 36-O ) :   2.0882
B( 35-C , 37-O ) :   1.2755 B( 37-O , 68-H ) :   0.9436 B( 38-C , 39-C ) :   1.2078
B( 38-C , 69-H ) :   0.9896 B( 39-C , 40-C ) :   1.4825 B( 39-C , 70-H ) :   0.9903
B( 40-C , 41-O ) :   1.3066 B( 40-C , 42-C ) :   1.0914 B( 41-O , 71-H ) :   0.9358
B( 43-C , 44-C ) :   1.2506 B( 43-C , 72-H ) :   1.0039 B( 44-C , 45-Cl) :   1.0315
B( 47-C , 48-C ) :   1.4063 B( 47-C , 73-H ) :   0.9965 B( 48-C , 49-O ) :   1.0915
B( 49-O , 50-C ) :   0.9421 B( 50-C , 51-C ) :   1.1078 B( 50-C , 74-H ) :   0.9456
B( 50-C , 75-H ) :   0.9596 B( 51-C , 76-H ) :   0.9661 B( 51-C , 77-H ) :   0.9605
B( 51-C , 78-H ) :   0.9652 B( 52-C , 53-C ) :   1.2736 B( 52-C , 79-H ) :   1.0013
B( 53-C , 54-Cl) :   1.0311

-----------------------------------------------------------------------------
         ABSORPTION SPECTRUM VIA TRANSITION ELECTRIC DIPOLE MOMENTS
-----------------------------------------------------------------------------
State   Energy  Wavelength   fosc         T2         TX        TY        TZ
        (cm-1)    (nm)                  (au**2)     (au)      (au)      (au)
-----------------------------------------------------------------------------
   0   22548.0    443.5   3.153120326  46.03710  -2.72646  -4.37685  -4.40984
   1   24770.1    403.7   0.349339942   4.64298   1.04272   1.75763   0.68297
   2   28672.0    348.8   0.008137160   0.09343  -0.20575  -0.02728  -0.22440
   3   29117.7    343.4   0.031797784   0.35951  -0.00824   0.48150   0.35721
   4   30546.4    327.4   0.005313997   0.05727  -0.21224   0.00122  -0.11056
   5   32309.2    309.5   0.030314843   0.30889  -0.20555  -0.49308   0.15333
   6   33135.1    301.8   0.011257313   0.11185  -0.08950   0.22235  -0.23324
   7   33728.6    296.5   0.066883821   0.65283   0.59216   0.43562   0.33528
   8   33984.7    294.2   0.003273703   0.03171   0.14601   0.01807   0.10033
   9   34567.2    289.3   0.018177430   0.17312  -0.26729  -0.27246  -0.16565
  10   34737.3    287.9   0.032333004   0.30643  -0.31467  -0.36439  -0.27318
  11   36796.2    271.8   0.118531365   1.06049   0.26224   0.63455   0.76751
  12   37438.0    267.1   0.006611453   0.05814   0.19600  -0.13093   0.05078
  13   37559.8    266.2   0.036578085   0.32061   0.08560  -0.43197  -0.35592
  14   38585.7    259.2   0.034290669   0.29257   0.27459  -0.38800  -0.25811
  15   38984.3    256.5   0.084522454   0.71377  -0.51480   0.42889   0.51459
  16   40004.4    250.0   0.025011916   0.20583   0.29461  -0.05195  -0.34109
  17   40217.0    248.7   0.137129495   1.12253  -0.72178   0.76999   0.09315

FINAL SINGLE POINT ENERGY     -5819.005168380256

DIPOLE MOMENT
-------------
                                X             Y             Z
Electronic contribution:     -1.11713      -6.55563       2.64406
Nuclear contribution   :      1.28986       6.97235      -2.38087
                        -----------------------------------------
Total Dipole Moment    :      0.17273       0.41672       0.26319
                        -----------------------------------------
Magnitude (a.u.)       :      0.52227
Magnitude (Debye)      :      1.32749

Rotational constants in cm-1:     0.005152     0.000215     0.000210
Rotational constants in MHz :   154.461672     6.450003     6.288738

                             ****ORCA TERMINATED NORMALLY****
TOTAL RUN TIME: 0 days 0 hours 5 minutes 37 seconds 621 msec
