                         Program Version 4.2.0 -  RELEASE  -
|  1> # ORCA input file
|  2> # SCF done       -170.861540705513          0.000985131992
|  3> ! CAM-B3LYP def2-SVP def2/J RIJCOSX Grid4 TightSCF
|  4> %maxcore 5000
|  5> %tddft
|  6>     Mode sTDDFT
|  7>     Ethresh 5.0
|  8>     maxcore 5000
|  9> end
| 10>
| 11> %pal
| 12>   nprocs 6
| 13>   end
| 14> * xyz 0 1
| 15>    C       -9.48459        -0.56034         2.71553
| 16>    C       -8.83391        -1.71158         3.09278
| 17>    C       -9.46861        -2.81703         3.69393
| 18>    N       -9.91959        -3.75002         4.18870
| 19>    C       -7.45552        -1.96214         2.94633
| 20>    N       -6.34287        -2.23849         2.85949
| 21>    C      -10.91624        -0.31711         2.87996
| 22>    C      -11.21301         0.97915         2.39218
| 23>    C      -12.48020         1.50678         2.40530
| 24>    C      -13.50993         0.71528         2.92640
| 25>    C      -13.20585        -0.57771         3.41160
| 26>    C      -11.92152        -1.11066         3.39770
| 27>    S      -14.62303        -1.38455         4.01168
| 28>    C      -15.59150         0.00737         3.60637
| 29>    C      -14.89195         1.02506         3.05093
| 30>   Br      -17.43462        -0.01215         3.95579
| 31>    C       -9.97038         1.60113         1.90025
| 32>    O       -9.86944         2.71992         1.41921
| 33>    C       -8.91050         0.61798         2.10616
| 34>    C       -7.58125         0.77552         1.76656
| 35>    C       -6.91222         1.85038         1.19243
| 36>    S       -7.61341         3.37965         0.74220
| 37>    C       -6.10616         4.00837         0.18459
| 38>    C       -5.06674         3.06206         0.32586
| 39>    C       -5.51937         1.84227         0.89906
| 40>    C       -4.61051         0.79585         1.11674
| 41>    C       -3.29799         0.97542         0.76523
| 42>    F       -2.41462        -0.01147         0.96411
| 43>    C       -2.85176         2.18316         0.19446
| 44>    F       -1.55681         2.31421        -0.13598
| 45>    C       -3.71681         3.21968        -0.02574
| 46>    C       -5.99031         5.32199        -0.32354
| 47>    C       -7.03092         6.18991        -0.41106
| 48>    C       -6.89353         7.52796        -0.87661
| 49>    C       -7.85906         8.46849        -0.90929
| 50>    C       -9.28350         8.25588        -0.51692
| 51>    C       -7.53412         9.86809        -1.37584
| 52>    N       -8.21950        10.19462        -2.60549
| 53>    C       -9.44957        10.74864        -2.63293
| 54>    C      -10.25561        10.79866        -3.72896
| 55>    C      -11.50398        11.44253        -3.72567
| 56>    C      -12.33768        11.55077        -4.80839
| 57>    C      -13.61076        12.16786        -4.84424
| 58>    C      -14.21285        12.14412        -6.06492
| 59>    C      -13.44717        11.51156        -7.07096
| 60>    S      -11.93889        10.92808        -6.40822
| 61>    C      -13.77023        11.36017        -8.40546
| 62>    C      -14.94468        11.78477        -9.06476
| 63>    C      -14.95788        11.51544       -10.39839
| 64>    C      -13.79155        10.86273       -10.87395
| 65>    S      -12.67937        10.59019        -9.54535
| 66>    C      -13.54834        10.50491       -12.17332
| 67>    C      -12.40338         9.87188       -12.68564
| 68>    S      -11.01158         9.36274       -11.74324
| 69>    C      -10.16192         8.73498       -13.10141
| 70>    C      -10.89879         8.89849       -14.25069
| 71>    C      -12.15246         9.53582       -14.00563
| 72>    O      -12.85071         9.68823       -15.15105
| 73>    C      -12.05933         9.15705       -16.12195
| 74>    N      -12.54257         9.18384       -17.44962
| 75>    O      -11.81737         8.70073       -18.30052
| 76>    O      -13.63099         9.67939       -17.65148
| 77>    C      -10.87095         8.66322       -15.65249
| 78>    H      -12.67342         2.49740         2.02459
| 79>    H      -11.74382        -2.10178         3.77967
| 80>    H      -15.33054         1.95617         2.74146
| 81>    H       -6.94140        -0.06977         1.97511
| 82>    H       -4.90573        -0.14568         1.55218
| 83>    H       -3.34988         4.13330        -0.46328
| 84>    H       -5.00734         5.64177        -0.64304
| 85>    H       -8.00278         5.85084        -0.08305
| 86>    H       -5.89559         7.81074        -1.19207
| 87>    H       -9.52486         7.20584        -0.39476
| 88>    H       -9.94951         8.67803        -1.27076
| 89>    H       -9.48864         8.76834         0.42417
| 90>    H       -6.45838         9.97494        -1.53998
| 91>    H       -7.84351        10.59409        -0.61765
| 92>    H       -7.94476         9.66104        -3.41867
| 93>    H       -9.75752        11.23086        -1.71413
| 94>    H       -9.93372        10.33125        -4.64995
| 95>    H      -11.84240        11.88795        -2.79875
| 96>    H      -14.04061        12.61152        -3.96322
| 97>    H      -15.17909        12.56771        -6.27106
| 98>    H      -15.74446        12.27643        -8.54076
| 99>    H      -15.76454        11.76621       -11.06402
|100>    H      -14.31052        10.73449       -12.90633
|101>    H       -9.19577         8.29507       -12.97085
|102>    H      -10.10466         8.20387       -16.24151
|103> *
|104>
|105>                          ****END OF INPUT****

CARTESIAN COORDINATES (ANGSTROEM)
---------------------------------
  C     -9.484590   -0.560340    2.715530
  C     -8.833910   -1.711580    3.092780
  C     -9.468610   -2.817030    3.693930
  N     -9.919590   -3.750020    4.188700
  C     -7.455520   -1.962140    2.946330
  N     -6.342870   -2.238490    2.859490
  C    -10.916240   -0.317110    2.879960
  C    -11.213010    0.979150    2.392180
  C    -12.480200    1.506780    2.405300
  C    -13.509930    0.715280    2.926400
  C    -13.205850   -0.577710    3.411600
  C    -11.921520   -1.110660    3.397700
  S    -14.623030   -1.384550    4.011680
  C    -15.591500    0.007370    3.606370
  C    -14.891950    1.025060    3.050930
  Br   -17.434620   -0.012150    3.955790
  C     -9.970380    1.601130    1.900250
  O     -9.869440    2.719920    1.419210
  C     -8.910500    0.617980    2.106160
  C     -7.581250    0.775520    1.766560
  C     -6.912220    1.850380    1.192430
  S     -7.613410    3.379650    0.742200
  C     -6.106160    4.008370    0.184590
  C     -5.066740    3.062060    0.325860
  C     -5.519370    1.842270    0.899060
  C     -4.610510    0.795850    1.116740
  C     -3.297990    0.975420    0.765230
  F     -2.414620   -0.011470    0.964110
  C     -2.851760    2.183160    0.194460
  F     -1.556810    2.314210   -0.135980
  C     -3.716810    3.219680   -0.025740
  C     -5.990310    5.321990   -0.323540
  C     -7.030920    6.189910   -0.411060
  C     -6.893530    7.527960   -0.876610
  C     -7.859060    8.468490   -0.909290
  C     -9.283500    8.255880   -0.516920
  C     -7.534120    9.868090   -1.375840
  N     -8.219500   10.194620   -2.605490
  C     -9.449570   10.748640   -2.632930
  C    -10.255610   10.798660   -3.728960
  C    -11.503980   11.442530   -3.725670
  C    -12.337680   11.550770   -4.808390
  C    -13.610760   12.167860   -4.844240
  C    -14.212850   12.144120   -6.064920
  C    -13.447170   11.511560   -7.070960
  S    -11.938890   10.928080   -6.408220
  C    -13.770230   11.360170   -8.405460
  C    -14.944680   11.784770   -9.064760
  C    -14.957880   11.515440  -10.398390
  C    -13.791550   10.862730  -10.873950
  S    -12.679370   10.590190   -9.545350
  C    -13.548340   10.504910  -12.173320
  C    -12.403380    9.871880  -12.685640
  S    -11.011580    9.362740  -11.743240
  C    -10.161920    8.734980  -13.101410
  C    -10.898790    8.898490  -14.250690
  C    -12.152460    9.535820  -14.005630
  O    -12.850710    9.688230  -15.151050
  C    -12.059330    9.157050  -16.121950
  N    -12.542570    9.183840  -17.449620
  O    -11.817370    8.700730  -18.300520
  O    -13.630990    9.679390  -17.651480
  C    -10.870950    8.663220  -15.652490
  H    -12.673420    2.497400    2.024590
  H    -11.743820   -2.101780    3.779670
  H    -15.330540    1.956170    2.741460
  H     -6.941400   -0.069770    1.975110
  H     -4.905730   -0.145680    1.552180
  H     -3.349880    4.133300   -0.463280
  H     -5.007340    5.641770   -0.643040
  H     -8.002780    5.850840   -0.083050
  H     -5.895590    7.810740   -1.192070
  H     -9.524860    7.205840   -0.394760
  H     -9.949510    8.678030   -1.270760
  H     -9.488640    8.768340    0.424170
  H     -6.458380    9.974940   -1.539980
  H     -7.843510   10.594090   -0.617650
  H     -7.944760    9.661040   -3.418670
  H     -9.757520   11.230860   -1.714130
  H     -9.933720   10.331250   -4.649950
  H    -11.842400   11.887950   -2.798750
  H    -14.040610   12.611520   -3.963220
  H    -15.179090   12.567710   -6.271060
  H    -15.744460   12.276430   -8.540760
  H    -15.764540   11.766210  -11.064020
  H    -14.310520   10.734490  -12.906330
  H     -9.195770    8.295070  -12.970850
  H    -10.104660    8.203870  -16.241510

 Total Charge           Charge          ....    0
 Multiplicity           Mult            ....    1
 Number of Electrons    NEL             ....  500
 Basis Dimension        Dim             .... 1045

ORBITAL ENERGIES
----------------

  NO   OCC          E(Eh)            E(eV)
   0   2.0000    -482.885691    -13139.9877
   1   2.0000     -88.981410     -2421.3073
   2   2.0000     -88.975174     -2421.1376
   3   2.0000     -88.964028     -2420.8343
   4   2.0000     -88.937354     -2420.1084
   5   2.0000     -88.937266     -2420.1060
   6   2.0000     -62.563409     -1702.4369
   7   2.0000     -56.397358     -1534.6501
   8   2.0000     -56.394644     -1534.5763
   9   2.0000     -56.394609     -1534.5753
  10   2.0000     -24.796252      -674.7403
  11   2.0000     -24.795906      -674.7309
  12   2.0000     -19.298075      -525.1273
  13   2.0000     -19.235346      -523.4204
  14   2.0000     -19.233068      -523.3584
  15   2.0000     -19.219949      -523.0014
  16   2.0000     -14.646711      -398.5573
  17   2.0000     -14.453239      -393.2926
  18   2.0000     -14.417372      -392.3166
  19   2.0000     -14.410640      -392.1335
  20   2.0000     -10.381991      -282.5083
  21   2.0000     -10.378753      -282.4202
  22   2.0000     -10.377022      -282.3731
  23   2.0000     -10.368045      -282.1289
  24   2.0000     -10.358586      -281.8714
  25   2.0000     -10.339339      -281.3477
  26   2.0000     -10.336823      -281.2793
  27   2.0000     -10.332875      -281.1718
  28   2.0000     -10.332429      -281.1597
  29   2.0000     -10.331037      -281.1218
  30   2.0000     -10.330270      -281.1009
  31   2.0000     -10.324472      -280.9432
  32   2.0000     -10.321530      -280.8631
  33   2.0000     -10.321180      -280.8536
  34   2.0000     -10.321089      -280.8511
  35   2.0000     -10.314500      -280.6718
  36   2.0000     -10.313537      -280.6456
  37   2.0000     -10.308291      -280.5029
  38   2.0000     -10.307287      -280.4755
  39   2.0000     -10.306729      -280.4603
  40   2.0000     -10.306628      -280.4576
  41   2.0000     -10.306372      -280.4506
  42   2.0000     -10.306143      -280.4444
  43   2.0000     -10.306030      -280.4413
  44   2.0000     -10.305026      -280.4140
  45   2.0000     -10.304618      -280.4029
  46   2.0000     -10.304172      -280.3908
  47   2.0000     -10.302665      -280.3498
  48   2.0000     -10.300996      -280.3044
  49   2.0000     -10.299855      -280.2733
  50   2.0000     -10.299138      -280.2538
  51   2.0000     -10.298187      -280.2279
  52   2.0000     -10.296796      -280.1901
  53   2.0000     -10.295989      -280.1681
  54   2.0000     -10.294315      -280.1226
  55   2.0000     -10.294099      -280.1167
  56   2.0000     -10.292871      -280.0833
  57   2.0000     -10.291326      -280.0412
  58   2.0000     -10.287018      -279.9240
  59   2.0000     -10.286692      -279.9151
  60   2.0000     -10.284697      -279.8608
  61   2.0000     -10.281441      -279.7722
  62   2.0000     -10.278144      -279.6825
  63   2.0000     -10.277371      -279.6615
  64   2.0000     -10.274948      -279.5955
  65   2.0000     -10.272249      -279.5221
  66   2.0000     -10.268416      -279.4178
  67   2.0000      -8.792840      -239.2653
  68   2.0000      -8.074221      -219.7107
  69   2.0000      -8.071166      -219.6276
  70   2.0000      -8.058545      -219.2842
  71   2.0000      -8.033589      -218.6051
  72   2.0000      -8.033358      -218.5988
  73   2.0000      -6.629143      -180.3881
  74   2.0000      -6.614568      -179.9915
  75   2.0000      -6.614379      -179.9864
  76   2.0000      -6.043367      -164.4484
  77   2.0000      -6.040862      -164.3802
  78   2.0000      -6.038836      -164.3251
  79   2.0000      -6.037107      -164.2780
  80   2.0000      -6.036558      -164.2631
  81   2.0000      -6.032400      -164.1499
  82   2.0000      -6.027878      -164.0269
  83   2.0000      -6.023487      -163.9074
  84   2.0000      -6.020967      -163.8388
  85   2.0000      -6.003303      -163.3582
  86   2.0000      -6.003148      -163.3540
  87   2.0000      -5.999413      -163.2523
  88   2.0000      -5.999086      -163.2434
  89   2.0000      -5.994461      -163.1176
  90   2.0000      -5.994226      -163.1112
  91   2.0000      -2.744999       -74.6952
  92   2.0000      -2.740907       -74.5839
  93   2.0000      -2.740809       -74.5812
  94   2.0000      -2.729197       -74.2652
  95   2.0000      -2.729192       -74.2651
  96   2.0000      -1.318760       -35.8853
  97   2.0000      -1.317791       -35.8589
  98   2.0000      -1.303636       -35.4737
  99   2.0000      -1.217884       -33.1403
 100   2.0000      -1.134339       -30.8669
 101   2.0000      -1.133963       -30.8567
 102   2.0000      -1.055640       -28.7254
 103   2.0000      -1.022258       -27.8171
 104   2.0000      -1.019089       -27.7308
 105   2.0000      -1.012646       -27.5555
 106   2.0000      -0.993369       -27.0309
 107   2.0000      -0.988755       -26.9054
 108   2.0000      -0.988301       -26.8930
 109   2.0000      -0.982140       -26.7254
 110   2.0000      -0.963366       -26.2145
 111   2.0000      -0.958915       -26.0934
 112   2.0000      -0.946174       -25.7467
 113   2.0000      -0.939462       -25.5641
 114   2.0000      -0.925395       -25.1813
 115   2.0000      -0.921238       -25.0682
 116   2.0000      -0.907522       -24.6949
 117   2.0000      -0.901698       -24.5365
 118   2.0000      -0.890890       -24.2423
 119   2.0000      -0.886075       -24.1113
 120   2.0000      -0.884979       -24.0815
 121   2.0000      -0.877976       -23.8909
 122   2.0000      -0.866870       -23.5887
 123   2.0000      -0.857701       -23.3392
 124   2.0000      -0.848294       -23.0833
 125   2.0000      -0.845407       -23.0047
 126   2.0000      -0.835509       -22.7354
 127   2.0000      -0.828856       -22.5543
 128   2.0000      -0.822310       -22.3762
 129   2.0000      -0.819564       -22.3015
 130   2.0000      -0.811706       -22.0876
 131   2.0000      -0.797107       -21.6904
 132   2.0000      -0.791061       -21.5259
 133   2.0000      -0.774475       -21.0745
 134   2.0000      -0.764386       -20.8000
 135   2.0000      -0.759545       -20.6683
 136   2.0000      -0.754602       -20.5338
 137   2.0000      -0.748817       -20.3763
 138   2.0000      -0.727029       -19.7835
 139   2.0000      -0.724209       -19.7067
 140   2.0000      -0.708267       -19.2729
 141   2.0000      -0.699769       -19.0417
 142   2.0000      -0.695963       -18.9381
 143   2.0000      -0.693054       -18.8589
 144   2.0000      -0.687378       -18.7045
 145   2.0000      -0.673824       -18.3357
 146   2.0000      -0.669172       -18.2091
 147   2.0000      -0.666213       -18.1286
 148   2.0000      -0.662807       -18.0359
 149   2.0000      -0.657482       -17.8910
 150   2.0000      -0.646431       -17.5903
 151   2.0000      -0.636918       -17.3314
 152   2.0000      -0.632941       -17.2232
 153   2.0000      -0.631634       -17.1876
 154   2.0000      -0.628232       -17.0951
 155   2.0000      -0.627117       -17.0647
 156   2.0000      -0.622485       -16.9387
 157   2.0000      -0.619784       -16.8652
 158   2.0000      -0.617977       -16.8160
 159   2.0000      -0.616719       -16.7818
 160   2.0000      -0.611637       -16.6435
 161   2.0000      -0.600642       -16.3443
 162   2.0000      -0.594660       -16.1815
 163   2.0000      -0.593685       -16.1550
 164   2.0000      -0.589842       -16.0504
 165   2.0000      -0.585273       -15.9261
 166   2.0000      -0.583921       -15.8893
 167   2.0000      -0.581547       -15.8247
 168   2.0000      -0.576750       -15.6942
 169   2.0000      -0.575974       -15.6731
 170   2.0000      -0.571613       -15.5544
 171   2.0000      -0.560178       -15.2432
 172   2.0000      -0.555849       -15.1254
 173   2.0000      -0.555080       -15.1045
 174   2.0000      -0.550925       -14.9914
 175   2.0000      -0.544935       -14.8284
 176   2.0000      -0.542533       -14.7631
 177   2.0000      -0.541759       -14.7420
 178   2.0000      -0.541402       -14.7323
 179   2.0000      -0.538816       -14.6619
 180   2.0000      -0.536657       -14.6032
 181   2.0000      -0.533196       -14.5090
 182   2.0000      -0.524489       -14.2721
 183   2.0000      -0.521160       -14.1815
 184   2.0000      -0.517154       -14.0725
 185   2.0000      -0.516574       -14.0567
 186   2.0000      -0.515587       -14.0298
 187   2.0000      -0.509143       -13.8545
 188   2.0000      -0.506873       -13.7927
 189   2.0000      -0.506054       -13.7704
 190   2.0000      -0.497432       -13.5358
 191   2.0000      -0.496723       -13.5165
 192   2.0000      -0.493927       -13.4404
 193   2.0000      -0.493491       -13.4286
 194   2.0000      -0.489938       -13.3319
 195   2.0000      -0.489503       -13.3201
 196   2.0000      -0.488040       -13.2802
 197   2.0000      -0.482349       -13.1254
 198   2.0000      -0.481510       -13.1026
 199   2.0000      -0.475383       -12.9358
 200   2.0000      -0.473115       -12.8741
 201   2.0000      -0.472755       -12.8643
 202   2.0000      -0.471781       -12.8378
 203   2.0000      -0.468300       -12.7431
 204   2.0000      -0.465644       -12.6708
 205   2.0000      -0.461990       -12.5714
 206   2.0000      -0.457760       -12.4563
 207   2.0000      -0.457440       -12.4476
 208   2.0000      -0.452703       -12.3187
 209   2.0000      -0.449316       -12.2265
 210   2.0000      -0.448756       -12.2113
 211   2.0000      -0.446240       -12.1428
 212   2.0000      -0.445386       -12.1196
 213   2.0000      -0.442323       -12.0362
 214   2.0000      -0.440910       -11.9978
 215   2.0000      -0.438701       -11.9377
 216   2.0000      -0.434197       -11.8151
 217   2.0000      -0.431470       -11.7409
 218   2.0000      -0.429108       -11.6766
 219   2.0000      -0.428406       -11.6575
 220   2.0000      -0.425919       -11.5899
 221   2.0000      -0.420029       -11.4296
 222   2.0000      -0.412822       -11.2335
 223   2.0000      -0.410924       -11.1818
 224   2.0000      -0.409382       -11.1398
 225   2.0000      -0.405312       -11.0291
 226   2.0000      -0.400996       -10.9117
 227   2.0000      -0.394329       -10.7302
 228   2.0000      -0.386624       -10.5206
 229   2.0000      -0.386563       -10.5189
 230   2.0000      -0.380848       -10.3634
 231   2.0000      -0.379150       -10.3172
 232   2.0000      -0.375198       -10.2096
 233   2.0000      -0.371370       -10.1055
 234   2.0000      -0.367840       -10.0094
 235   2.0000      -0.362881        -9.8745
 236   2.0000      -0.347244        -9.4490
 237   2.0000      -0.338460        -9.2100
 238   2.0000      -0.335876        -9.1397
 239   2.0000      -0.330768        -9.0007
 240   2.0000      -0.327005        -8.8983
 241   2.0000      -0.322235        -8.7685
 242   2.0000      -0.321201        -8.7403
 243   2.0000      -0.315057        -8.5731
 244   2.0000      -0.310193        -8.4408
 245   2.0000      -0.297001        -8.0818
 246   2.0000      -0.293425        -7.9845
 247   2.0000      -0.260763        -7.0957
 248   2.0000      -0.252761        -6.8780
 249   2.0000      -0.197492        -5.3740
 250   0.0000      -0.106204        -2.8900
 251   0.0000      -0.068525        -1.8647
 252   0.0000      -0.065442        -1.7808
 253   0.0000      -0.048849        -1.3293
 254   0.0000      -0.040978        -1.1151

MULLIKEN ATOMIC CHARGES
-----------------------
   0 C :    0.327522
   1 C :   -0.367295
   2 C :   -0.186599
   3 N :    0.148484
   4 C :   -0.182745
   5 N :    0.138724
   6 C :    0.009947
   7 C :   -0.009527
   8 C :   -0.075283
   9 C :    0.120328
  10 C :   -0.095497
  11 C :   -0.018743
  12 S :    0.186943
  13 C :   -0.123772
  14 C :    0.037297
  15 Br:    0.021460
  16 C :    0.152198
  17 O :   -0.195087
  18 C :   -0.101307
  19 C :   -0.031794
  20 C :   -0.074705
  21 S :    0.198236
  22 C :   -0.049217
  23 C :    0.125523
  24 C :    0.133370
  25 C :   -0.114000
  26 C :    0.231817
  27 F :   -0.164743
  28 C :    0.220971
  29 F :   -0.177158
  30 C :   -0.109417
  31 C :   -0.025367
  32 C :    0.021668
  33 C :    0.005617
  34 C :   -0.178413
  35 C :    0.089493
  36 C :    0.203125
  37 N :   -0.145403
  38 C :    0.044550
  39 C :   -0.022933
  40 C :   -0.010479
  41 C :   -0.039458
  42 C :    0.045513
  43 C :    0.010469
  44 C :   -0.038525
  45 S :    0.059419
  46 C :   -0.049538
  47 C :    0.030310
  48 C :    0.026658
  49 C :   -0.020760
  50 S :    0.050339
  51 C :   -0.026391
  52 C :   -0.182304
  53 S :    0.132591
  54 C :   -0.141217
  55 C :    0.127778
  56 C :    0.186454
  57 O :   -0.186689
  58 C :    0.231616
  59 N :    0.274980
  60 O :   -0.255344
  61 O :   -0.233603
  62 C :   -0.074450
  63 H :   -0.015717
  64 H :   -0.008390
  65 H :   -0.005423
  66 H :   -0.017039
  67 H :    0.015142
  68 H :   -0.010747
  69 H :   -0.013160
  70 H :    0.014976
  71 H :   -0.025112
  72 H :    0.023929
  73 H :    0.040562
  74 H :    0.029803
  75 H :    0.013363
  76 H :    0.023176
  77 H :    0.122701
  78 H :    0.003846
  79 H :   -0.012150
  80 H :   -0.023520
  81 H :   -0.019761
  82 H :   -0.019412
  83 H :   -0.018236
  84 H :   -0.015445
  85 H :   -0.001922
  86 H :    0.023741
  87 H :    0.009153
Sum of atomic charges:    0.0000000

LOEWDIN ATOMIC CHARGES
----------------------
   0 C :    0.078243
   1 C :   -0.154050
   2 C :   -0.019477
   3 N :   -0.059752
   4 C :   -0.016064
   5 N :   -0.064897
   6 C :   -0.019590
   7 C :   -0.049797
   8 C :    0.018792
   9 C :   -0.034534
  10 C :   -0.145128
  11 C :   -0.009523
  12 S :    0.433106
  13 C :   -0.272564
  14 C :   -0.071353
  15 Br:    0.135010
  16 C :    0.082142
  17 O :   -0.183833
  18 C :   -0.121188
  19 C :    0.047738
  20 C :   -0.196815
  21 S :    0.551030
  22 C :   -0.142723
  23 C :   -0.055322
  24 C :   -0.014052
  25 C :   -0.037481
  26 C :    0.075815
  27 F :   -0.044633
  28 C :    0.059589
  29 F :   -0.055317
  30 C :   -0.033501
  31 C :   -0.050943
  32 C :    0.008169
  33 C :   -0.054546
  34 C :   -0.019722
  35 C :   -0.050418
  36 C :    0.046416
  37 N :    0.002421
  38 C :    0.040093
  39 C :   -0.120281
  40 C :   -0.034262
  41 C :   -0.176246
  42 C :   -0.025302
  43 C :   -0.050863
  44 C :   -0.165198
  45 S :    0.355649
  46 C :   -0.198279
  47 C :   -0.031807
  48 C :   -0.045212
  49 C :   -0.146072
  50 S :    0.353232
  51 C :   -0.089429
  52 C :   -0.198643
  53 S :    0.465269
  54 C :   -0.203891
  55 C :   -0.084459
  56 C :    0.012780
  57 O :   -0.000599
  58 C :    0.022589
  59 N :    0.272595
  60 O :   -0.215415
  61 O :   -0.195473
  62 C :   -0.011209
  63 H :    0.038797
  64 H :    0.040925
  65 H :    0.037861
  66 H :    0.046854
  67 H :    0.047927
  68 H :    0.040088
  69 H :    0.031727
  70 H :    0.024992
  71 H :    0.026664
  72 H :    0.033749
  73 H :    0.040592
  74 H :    0.041391
  75 H :    0.028800
  76 H :    0.033977
  77 H :    0.081989
  78 H :    0.026873
  79 H :    0.019753
  80 H :    0.030010
  81 H :    0.030914
  82 H :    0.029328
  83 H :    0.030349
  84 H :    0.032117
  85 H :    0.043354
  86 H :    0.025004
  87 H :    0.045153

  Mayer bond orders larger than 0.100000
B(  0-C ,  1-C ) :   1.5925 B(  0-C ,  6-C ) :   0.9913 B(  0-C , 18-C ) :   1.1104
B(  1-C ,  2-C ) :   1.1508 B(  1-C ,  4-C ) :   1.1545 B(  2-C ,  3-N ) :   2.9645
B(  4-C ,  5-N ) :   2.9690 B(  6-C ,  7-C ) :   1.2757 B(  6-C , 11-C ) :   1.4220
B(  7-C ,  8-C ) :   1.4283 B(  7-C , 16-C ) :   0.9575 B(  8-C ,  9-C ) :   1.2389
B(  8-C , 63-H ) :   1.0159 B(  9-C , 10-C ) :   1.3132 B(  9-C , 14-C ) :   1.1620
B( 10-C , 11-C ) :   1.3218 B( 10-C , 12-S ) :   1.0866 B( 11-C , 64-H ) :   0.9785
B( 12-S , 13-C ) :   1.0877 B( 13-C , 14-C ) :   1.6186 B( 13-C , 15-Br) :   1.0175
B( 14-C , 65-H ) :   0.9997 B( 16-C , 17-O ) :   2.1165 B( 16-C , 18-C ) :   0.9891
B( 18-C , 19-C ) :   1.4439 B( 19-C , 20-C ) :   1.3569 B( 19-C , 66-H ) :   0.9296
B( 20-C , 21-S ) :   1.0895 B( 20-C , 24-C ) :   1.2203 B( 21-S , 22-C ) :   1.1735
B( 22-C , 23-C ) :   1.2526 B( 22-C , 31-C ) :   1.1704 B( 23-C , 24-C ) :   1.2516
B( 23-C , 30-C ) :   1.1835 B( 24-C , 25-C ) :   1.2082 B( 25-C , 26-C ) :   1.4616
B( 25-C , 30-C ) :   0.1123 B( 25-C , 67-H ) :   0.9881 B( 26-C , 27-F ) :   1.1540
B( 26-C , 28-C ) :   1.1807 B( 28-C , 29-F ) :   1.1295 B( 28-C , 30-C ) :   1.4845
B( 30-C , 68-H ) :   0.9972 B( 31-C , 32-C ) :   1.6470 B( 31-C , 69-H ) :   0.9802
B( 32-C , 33-C ) :   1.1231 B( 32-C , 70-H ) :   0.9721 B( 33-C , 34-C ) :   1.7320
B( 33-C , 71-H ) :   0.9766 B( 34-C , 35-C ) :   1.0784 B( 34-C , 36-C ) :   1.0390
B( 35-C , 72-H ) :   0.9496 B( 35-C , 73-H ) :   0.9390 B( 35-C , 74-H ) :   0.9418
B( 36-C , 37-N ) :   1.0096 B( 36-C , 75-H ) :   0.9422 B( 36-C , 76-H ) :   0.9289
B( 37-N , 38-C ) :   1.2231 B( 37-N , 77-H ) :   0.9368 B( 38-C , 39-C ) :   1.5889
B( 38-C , 78-H ) :   0.9647 B( 39-C , 40-C ) :   1.1728 B( 39-C , 79-H ) :   0.9637
B( 40-C , 41-C ) :   1.5846 B( 40-C , 80-H ) :   0.9780 B( 41-C , 42-C ) :   1.1474
B( 41-C , 45-S ) :   1.0093 B( 42-C , 43-C ) :   1.5888 B( 42-C , 81-H ) :   0.9979
B( 43-C , 44-C ) :   1.1887 B( 43-C , 82-H ) :   0.9933 B( 44-C , 45-S ) :   1.0548
B( 44-C , 46-C ) :   1.5116 B( 46-C , 47-C ) :   1.1917 B( 46-C , 50-S ) :   1.0240
B( 47-C , 48-C ) :   1.5886 B( 47-C , 83-H ) :   0.9917 B( 48-C , 49-C ) :   1.1446
B( 48-C , 84-H ) :   0.9998 B( 49-C , 50-S ) :   1.0392 B( 49-C , 51-C ) :   1.5628
B( 51-C , 52-C ) :   1.1764 B( 51-C , 85-H ) :   0.9727 B( 52-C , 53-S ) :   1.1100
B( 52-C , 54-C ) :   0.1088 B( 52-C , 56-C ) :   1.4422 B( 53-S , 54-C ) :   1.1754
B( 54-C , 55-C ) :   1.4173 B( 54-C , 86-H ) :   0.9752 B( 55-C , 56-C ) :   1.2307
B( 55-C , 62-C ) :   1.0604 B( 56-C , 57-O ) :   1.1139 B( 57-O , 58-C ) :   1.1278
B( 58-C , 59-N ) :   0.9200 B( 58-C , 62-C ) :   1.5710 B( 59-N , 60-O ) :   1.5297
B( 59-N , 61-O ) :   1.5132 B( 60-O , 61-O ) :   0.2777 B( 62-C , 87-H ) :   1.0250

-----------------------------------------------------------------------------
         ABSORPTION SPECTRUM VIA TRANSITION ELECTRIC DIPOLE MOMENTS
-----------------------------------------------------------------------------
State   Energy  Wavelength   fosc         T2         TX        TY        TZ
        (cm-1)    (nm)                  (au**2)     (au)      (au)      (au)
-----------------------------------------------------------------------------
   0   10762.3    929.2   0.231803986   7.09073   0.52799  -1.43176   2.18221
   1   15004.7    666.5   0.903521825  19.82381  -0.16222  -0.08026  -4.44871
   2   16895.1    591.9   0.861817594  16.79311  -1.65185  -3.50239   1.34080
   3   18790.0    532.2   0.558124122   9.77864  -1.66157  -0.54378  -2.59271
   4   20962.5    477.0   0.021174384   0.33254  -0.09277   0.17598   0.54126
   5   23900.2    418.4   0.087771208   1.20900   1.00332  -0.37331  -0.25098
   6   23975.9    417.1   0.002619239   0.03596   0.16296   0.09043  -0.03507
   7   25240.0    396.2   0.002965652   0.03868  -0.03155  -0.00872  -0.19393
   8   26152.6    382.4   0.060833361   0.76578   0.81004  -0.32702  -0.05174
   9   26485.0    377.6   0.143706829   1.78630  -1.32824   0.07909   0.12582
  10   27284.3    366.5   0.001760618   0.02124  -0.03213  -0.09333  -0.10724
  11   28651.7    349.0   0.006445928   0.07406  -0.17684   0.20680   0.00538
  12   29561.4    338.3   0.087697653   0.97665   0.96244  -0.09232  -0.20454
  13   29913.1    334.3   0.501581651   5.52021   2.08119  -1.07823   0.16210
  14   30263.2    330.4   0.427553623   4.65105   1.91179  -0.98863  -0.13681
  15   30363.1    329.3   0.102732868   1.11388   0.93257  -0.47426  -0.13883
  16   30931.5    323.3   0.135965086   1.44711  -0.66587   0.56971   0.82411
  17   31071.6    321.8   0.150727896   1.59700  -1.01363   0.73728   0.16117
  18   31349.5    319.0   0.024828052   0.26073   0.38746   0.05596  -0.32783
  19   32169.9    310.8   0.012324624   0.12612   0.02283  -0.28652   0.20858
  20   32424.2    308.4   0.760877084   7.72539   2.60348  -0.97169  -0.05574
  21   32522.1    307.5   0.018117457   0.18340   0.40253  -0.13899  -0.04529
  22   32966.9    303.3   0.020256888   0.20229  -0.11055   0.16283  -0.40442
  23   33724.9    296.5   0.067406424   0.65800  -0.79560  -0.15691  -0.01996
  24   33823.7    295.7   0.079839807   0.77709  -0.21961   0.14880  -0.84067
  25   34420.8    290.5   0.022035930   0.21076   0.42773  -0.13850   0.09287
  26   34632.1    288.7   0.002519431   0.02395   0.04582  -0.09120   0.11633
  27   35282.0    283.4   0.027366644   0.25535  -0.31947   0.37938  -0.09675
  28   36041.2    277.5   0.412211028   3.76527   1.25526  -1.42339   0.40443
  29   36621.8    273.1   0.094527087   0.84975   0.49718  -0.19738   0.75074
  30   36864.2    271.3   0.349515114   3.12131   0.27523   0.30867   1.71764
  31   37510.2    266.6   0.138435869   1.21500   0.01614   1.02608  -0.40237
  32   37610.0    265.9   0.004715855   0.04128  -0.07533  -0.02152   0.18746
  33   38297.8    261.1   0.025282816   0.21733   0.13263  -0.14839   0.42157
  34   38921.6    256.9   0.024553733   0.20768   0.35600  -0.16238   0.23362
  35   39015.8    256.3   0.002891974   0.02440  -0.10753   0.11304  -0.00785
  36   39319.0    254.3   0.002771578   0.02321  -0.12807   0.06111  -0.05540
  37   39350.5    254.1   0.052311424   0.43764  -0.24754   0.58220  -0.19341
  38   39808.2    251.2   0.006390168   0.05285  -0.05578   0.21059   0.07341
  39   39841.9    251.0   0.377965140   3.12311  -1.59285  -0.50197   0.57790

FINAL SINGLE POINT ENERGY     -7086.582768180466

DIPOLE MOMENT
-------------
                                X             Y             Z
Electronic contribution:    -61.29846    -110.74633      77.13391
Nuclear contribution   :     61.63131     114.04319     -74.01419
                        -----------------------------------------
Total Dipole Moment    :      0.33285       3.29686       3.11972
                        -----------------------------------------
Magnitude (a.u.)       :      4.55113
Magnitude (Debye)      :     11.56805

Rotational constants in cm-1:     0.000801     0.000238     0.000213
Rotational constants in MHz :    24.020126     7.120564     6.380556

                             ****ORCA TERMINATED NORMALLY****
TOTAL RUN TIME: 0 days 0 hours 6 minutes 48 seconds 38 msec
