                         Program Version 4.2.0 -  RELEASE  -
|  1> # ORCA input file
|  2> # SCF done       -195.345820978066          0.000998334713
|  3> ! CAM-B3LYP def2-SVP def2/J RIJCOSX Grid4 TightSCF
|  4> %maxcore 5000
|  5> %tddft
|  6>     Mode sTDDFT
|  7>     Ethresh 5.0
|  8>     maxcore 5000
|  9> end
| 10>
| 11> %pal
| 12>   nprocs 6
| 13>   end
| 14> * xyz 0 1
| 15>    C        1.35258         2.70225         1.07110
| 16>    C        2.58418         2.95549         1.62122
| 17>    C        3.58408         1.97858         1.79987
| 18>    N        4.43239         1.22406         1.97392
| 19>    C        3.03252         4.22396         2.04384
| 20>    N        3.47936         5.22446         2.38802
| 21>    C        0.91262         1.42008         0.53104
| 22>    C       -0.35448         1.59968        -0.07303
| 23>    C       -1.04225         0.57105        -0.66784
| 24>    C       -0.45080        -0.69710        -0.66776
| 25>    C        0.81353        -0.86747        -0.05737
| 26>    C        1.50979         0.17400         0.54462
| 27>    S        1.35294        -2.51710        -0.15401
| 28>    C       -0.10720        -2.94814        -1.00331
| 29>    C       -0.95572        -1.91260        -1.20599
| 30>   Br       -0.37575        -4.72475        -1.54363
| 31>    C       -0.78812         3.00519         0.09487
| 32>    O       -1.87044         3.45123        -0.23267
| 33>    C        0.30057         3.66635         0.83959
| 34>    C        0.22669         4.91384         1.41191
| 35>    C       -0.68533         5.91910         1.07344
| 36>    S       -1.11402         7.15111         2.24096
| 37>    C       -2.24342         7.88137         1.19112
| 38>    C       -2.28468         7.25660        -0.03341
| 39>    C       -1.35496         6.17066        -0.12926
| 40>    N       -1.08548         5.61828        -1.31978
| 41>    C       -1.82249         5.97154        -2.34425
| 42>    C       -3.01627         6.79172        -2.13457
| 43>    N       -4.00266         6.86309        -3.07242
| 44>    C       -5.24988         7.51252        -2.73758
| 45>    N       -3.16129         7.48726        -1.03860
| 46>    N       -1.41523         5.53703        -3.58075
| 47>    C       -0.42609         4.48049        -3.63606
| 48>    C       -1.75480         6.18417        -4.74295
| 49>    C       -1.36145         5.84722        -5.98629
| 50>    C       -1.81101         6.59889        -7.12366
| 51>    C       -1.46856         6.40768        -8.40633
| 52>    C       -0.47172         5.39736        -8.88557
| 53>    C       -2.07575         7.27744        -9.48381
| 54>    N       -1.10583         8.14495       -10.11111
| 55>    C       -0.84769         9.39564        -9.70835
| 56>    C        0.10427        10.20206       -10.26126
| 57>    C        0.33113        11.51840        -9.83961
| 58>    C        1.23854        12.37393       -10.41513
| 59>    C        1.55637        13.69060       -10.01380
| 60>    C        2.51343        14.29384       -10.77547
| 61>    C        2.99350        13.48652       -11.82913
| 62>    S        2.20247        11.93586       -11.82315
| 63>    C        3.96654        13.79150       -12.76785
| 64>    C        4.80426        14.91765       -12.85184
| 65>    C        5.71813        14.84161       -13.86444
| 66>    C        5.65875        13.65069       -14.62302
| 67>    S        4.36227        12.65063       -14.03500
| 68>    C        6.45521        13.37741       -15.72935
| 69>    C        6.48907        12.26909       -16.56005
| 70>    C        5.95320        10.99062       -16.44531
| 71>    C        5.55467        10.19196       -15.33653
| 72>    C        5.96662        10.33115       -14.02221
| 73>    C        5.49504         9.54219       -12.96147
| 74>    N        5.11427         8.94952       -12.05207
| 75>    C        6.97400        11.23080       -13.63248
| 76>    N        7.80597        11.94151       -13.28160
| 77>    C        4.77423         9.06599       -15.85011
| 78>    C        4.86390         9.06666       -17.26237
| 79>    C        5.66625        10.24044       -17.68553
| 80>    O        5.98440        10.53672       -18.81875
| 81>    C        4.25885         8.11294       -18.04031
| 82>    C        3.50976         7.12169       -17.39235
| 83>    C        3.41281         7.14325       -15.98467
| 84>    C        4.04208         8.09903       -15.19397
| 85>    S        2.42046         5.84202       -15.39364
| 86>    C        2.15949         5.29244       -17.02865
| 87>    C        2.78024         6.04240       -17.96709
| 88>   Br        1.08496         3.78243       -17.33432
| 89>    H       -2.00990         0.73645        -1.11540
| 90>    H        2.46588        -0.00768         1.00632
| 91>    H       -1.90076        -2.00161        -1.71006
| 92>    H        0.89269         5.14028         2.23592
| 93>    H       -2.84205         8.70439         1.52677
| 94>    H       -4.07551         6.07412        -3.69804
| 95>    H       -5.02016         8.45559        -2.24714
| 96>    H       -5.85720         6.91044        -2.05574
| 97>    H       -5.80654         7.69570        -3.65441
| 98>    H       -0.28482         4.09660        -2.62951
| 99>    H        0.52464         4.85996        -4.01378
|100>    H       -0.78246         3.68169        -4.28779
|101>    H       -2.35864         7.06979        -4.61003
|102>    H       -0.71630         5.00345        -6.16245
|103>    H       -2.51938         7.38716        -6.89644
|104>    H       -0.46865         4.51150        -8.25723
|105>    H        0.53438         5.81917        -8.87125
|106>    H       -0.69503         5.09162        -9.90580
|107>    H       -2.86671         7.90062        -9.06017
|108>    H       -2.51476         6.64332       -10.26211
|109>    H       -0.47700         7.73033       -10.78332
|110>    H       -1.48264         9.76962        -8.91587
|111>    H        0.71696         9.82146       -11.06732
|112>    H       -0.23992        11.89379        -8.99998
|113>    H        1.07432        14.15064        -9.16885
|114>    H        2.88136        15.29069       -10.61297
|115>    H        4.73391        15.73719       -12.15951
|116>    H        6.45396        15.59736       -14.07347
|117>    H        7.08656        14.20617       -16.02681
|118>    H        6.95135        12.43745       -17.52910
|119>    H        4.35266         8.12823       -19.11488
|120>    H        3.94164         8.07493       -14.12175
|121>    H        2.72781         5.84753       -19.02283
|122> *
|123>
|124>                          ****END OF INPUT****

CARTESIAN COORDINATES (ANGSTROEM)
---------------------------------
  C      1.352580    2.702250    1.071100
  C      2.584180    2.955490    1.621220
  C      3.584080    1.978580    1.799870
  N      4.432390    1.224060    1.973920
  C      3.032520    4.223960    2.043840
  N      3.479360    5.224460    2.388020
  C      0.912620    1.420080    0.531040
  C     -0.354480    1.599680   -0.073030
  C     -1.042250    0.571050   -0.667840
  C     -0.450800   -0.697100   -0.667760
  C      0.813530   -0.867470   -0.057370
  C      1.509790    0.174000    0.544620
  S      1.352940   -2.517100   -0.154010
  C     -0.107200   -2.948140   -1.003310
  C     -0.955720   -1.912600   -1.205990
  Br    -0.375750   -4.724750   -1.543630
  C     -0.788120    3.005190    0.094870
  O     -1.870440    3.451230   -0.232670
  C      0.300570    3.666350    0.839590
  C      0.226690    4.913840    1.411910
  C     -0.685330    5.919100    1.073440
  S     -1.114020    7.151110    2.240960
  C     -2.243420    7.881370    1.191120
  C     -2.284680    7.256600   -0.033410
  C     -1.354960    6.170660   -0.129260
  N     -1.085480    5.618280   -1.319780
  C     -1.822490    5.971540   -2.344250
  C     -3.016270    6.791720   -2.134570
  N     -4.002660    6.863090   -3.072420
  C     -5.249880    7.512520   -2.737580
  N     -3.161290    7.487260   -1.038600
  N     -1.415230    5.537030   -3.580750
  C     -0.426090    4.480490   -3.636060
  C     -1.754800    6.184170   -4.742950
  C     -1.361450    5.847220   -5.986290
  C     -1.811010    6.598890   -7.123660
  C     -1.468560    6.407680   -8.406330
  C     -0.471720    5.397360   -8.885570
  C     -2.075750    7.277440   -9.483810
  N     -1.105830    8.144950  -10.111110
  C     -0.847690    9.395640   -9.708350
  C      0.104270   10.202060  -10.261260
  C      0.331130   11.518400   -9.839610
  C      1.238540   12.373930  -10.415130
  C      1.556370   13.690600  -10.013800
  C      2.513430   14.293840  -10.775470
  C      2.993500   13.486520  -11.829130
  S      2.202470   11.935860  -11.823150
  C      3.966540   13.791500  -12.767850
  C      4.804260   14.917650  -12.851840
  C      5.718130   14.841610  -13.864440
  C      5.658750   13.650690  -14.623020
  S      4.362270   12.650630  -14.035000
  C      6.455210   13.377410  -15.729350
  C      6.489070   12.269090  -16.560050
  C      5.953200   10.990620  -16.445310
  C      5.554670   10.191960  -15.336530
  C      5.966620   10.331150  -14.022210
  C      5.495040    9.542190  -12.961470
  N      5.114270    8.949520  -12.052070
  C      6.974000   11.230800  -13.632480
  N      7.805970   11.941510  -13.281600
  C      4.774230    9.065990  -15.850110
  C      4.863900    9.066660  -17.262370
  C      5.666250   10.240440  -17.685530
  O      5.984400   10.536720  -18.818750
  C      4.258850    8.112940  -18.040310
  C      3.509760    7.121690  -17.392350
  C      3.412810    7.143250  -15.984670
  C      4.042080    8.099030  -15.193970
  S      2.420460    5.842020  -15.393640
  C      2.159490    5.292440  -17.028650
  C      2.780240    6.042400  -17.967090
  Br     1.084960    3.782430  -17.334320
  H     -2.009900    0.736450   -1.115400
  H      2.465880   -0.007680    1.006320
  H     -1.900760   -2.001610   -1.710060
  H      0.892690    5.140280    2.235920
  H     -2.842050    8.704390    1.526770
  H     -4.075510    6.074120   -3.698040
  H     -5.020160    8.455590   -2.247140
  H     -5.857200    6.910440   -2.055740
  H     -5.806540    7.695700   -3.654410
  H     -0.284820    4.096600   -2.629510
  H      0.524640    4.859960   -4.013780
  H     -0.782460    3.681690   -4.287790
  H     -2.358640    7.069790   -4.610030
  H     -0.716300    5.003450   -6.162450
  H     -2.519380    7.387160   -6.896440
  H     -0.468650    4.511500   -8.257230
  H      0.534380    5.819170   -8.871250
  H     -0.695030    5.091620   -9.905800
  H     -2.866710    7.900620   -9.060170
  H     -2.514760    6.643320  -10.262110
  H     -0.477000    7.730330  -10.783320
  H     -1.482640    9.769620   -8.915870
  H      0.716960    9.821460  -11.067320
  H     -0.239920   11.893790   -8.999980
  H      1.074320   14.150640   -9.168850
  H      2.881360   15.290690  -10.612970
  H      4.733910   15.737190  -12.159510
  H      6.453960   15.597360  -14.073470
  H      7.086560   14.206170  -16.026810
  H      6.951350   12.437450  -17.529100
  H      4.352660    8.128230  -19.114880
  H      3.941640    8.074930  -14.121750
  H      2.727810    5.847530  -19.022830

 Total Charge           Charge          ....    0
 Multiplicity           Mult            ....    1
 Number of Electrons    NEL             ....  598
 Basis Dimension        Dim             .... 1257

ORBITAL ENERGIES
----------------

  NO   OCC          E(Eh)            E(eV)
   0   2.0000    -482.886156    -13140.0003
   1   2.0000    -482.873492    -13139.6557
   2   2.0000     -88.976501     -2421.1737
   3   2.0000     -88.974726     -2421.1254
   4   2.0000     -88.958447     -2420.6824
   5   2.0000     -88.954313     -2420.5699
   6   2.0000     -88.950028     -2420.4533
   7   2.0000     -62.563848     -1702.4489
   8   2.0000     -62.551194     -1702.1045
   9   2.0000     -56.397798     -1534.6621
  10   2.0000     -56.395085     -1534.5883
  11   2.0000     -56.395055     -1534.5875
  12   2.0000     -56.385118     -1534.3171
  13   2.0000     -56.382467     -1534.2449
  14   2.0000     -56.382405     -1534.2432
  15   2.0000     -19.210052      -522.7321
  16   2.0000     -19.183090      -521.9984
  17   2.0000     -14.481156      -394.0523
  18   2.0000     -14.469541      -393.7362
  19   2.0000     -14.453613      -393.3028
  20   2.0000     -14.423489      -392.4831
  21   2.0000     -14.418440      -392.3457
  22   2.0000     -14.410431      -392.1278
  23   2.0000     -14.409895      -392.1132
  24   2.0000     -14.385923      -391.4609
  25   2.0000     -14.378744      -391.2655
  26   2.0000     -10.380802      -282.4760
  27   2.0000     -10.374970      -282.3173
  28   2.0000     -10.361222      -281.9432
  29   2.0000     -10.358683      -281.8741
  30   2.0000     -10.351210      -281.6708
  31   2.0000     -10.340916      -281.3906
  32   2.0000     -10.336191      -281.2621
  33   2.0000     -10.335633      -281.2469
  34   2.0000     -10.334712      -281.2218
  35   2.0000     -10.332968      -281.1744
  36   2.0000     -10.329532      -281.0808
  37   2.0000     -10.328361      -281.0490
  38   2.0000     -10.323788      -280.9245
  39   2.0000     -10.323541      -280.9178
  40   2.0000     -10.319096      -280.7969
  41   2.0000     -10.316990      -280.7396
  42   2.0000     -10.314295      -280.6662
  43   2.0000     -10.313658      -280.6489
  44   2.0000     -10.313081      -280.6332
  45   2.0000     -10.312282      -280.6115
  46   2.0000     -10.312054      -280.6052
  47   2.0000     -10.310456      -280.5618
  48   2.0000     -10.310422      -280.5608
  49   2.0000     -10.308141      -280.4988
  50   2.0000     -10.306441      -280.4525
  51   2.0000     -10.306202      -280.4460
  52   2.0000     -10.304852      -280.4093
  53   2.0000     -10.304018      -280.3866
  54   2.0000     -10.303987      -280.3857
  55   2.0000     -10.303463      -280.3715
  56   2.0000     -10.300168      -280.2818
  57   2.0000     -10.299978      -280.2767
  58   2.0000     -10.299375      -280.2603
  59   2.0000     -10.297828      -280.2181
  60   2.0000     -10.296753      -280.1889
  61   2.0000     -10.291833      -280.0550
  62   2.0000     -10.291240      -280.0389
  63   2.0000     -10.290982      -280.0319
  64   2.0000     -10.289750      -279.9983
  65   2.0000     -10.287742      -279.9437
  66   2.0000     -10.287227      -279.9297
  67   2.0000     -10.283946      -279.8404
  68   2.0000     -10.283855      -279.8379
  69   2.0000     -10.283019      -279.8152
  70   2.0000     -10.282303      -279.7957
  71   2.0000     -10.282116      -279.7906
  72   2.0000     -10.281041      -279.7613
  73   2.0000     -10.280580      -279.7488
  74   2.0000     -10.280451      -279.7453
  75   2.0000     -10.279106      -279.7087
  76   2.0000     -10.277280      -279.6590
  77   2.0000     -10.274380      -279.5801
  78   2.0000     -10.268679      -279.4250
  79   2.0000     -10.264339      -279.3069
  80   2.0000     -10.262473      -279.2561
  81   2.0000     -10.256197      -279.0853
  82   2.0000      -8.793254      -239.2766
  83   2.0000      -8.780584      -238.9318
  84   2.0000      -8.071929      -219.6483
  85   2.0000      -8.070735      -219.6159
  86   2.0000      -8.054488      -219.1738
  87   2.0000      -8.050501      -219.0653
  88   2.0000      -8.044715      -218.9078
  89   2.0000      -6.629534      -180.3988
  90   2.0000      -6.616744      -180.0508
  91   2.0000      -6.615003      -180.0034
  92   2.0000      -6.614796      -179.9977
  93   2.0000      -6.602331      -179.6586
  94   2.0000      -6.602271      -179.6569
  95   2.0000      -6.041021      -164.3845
  96   2.0000      -6.040442      -164.3688
  97   2.0000      -6.036878      -164.2718
  98   2.0000      -6.036152      -164.2521
  99   2.0000      -6.034476      -164.2064
 100   2.0000      -6.031930      -164.1372
 101   2.0000      -6.024189      -163.9265
 102   2.0000      -6.020088      -163.8149
 103   2.0000      -6.019985      -163.8121
 104   2.0000      -6.016069      -163.7056
 105   2.0000      -6.015688      -163.6952
 106   2.0000      -6.014070      -163.6512
 107   2.0000      -6.011665      -163.5857
 108   2.0000      -6.009916      -163.5381
 109   2.0000      -6.006681      -163.4501
 110   2.0000      -2.745412       -74.7065
 111   2.0000      -2.741314       -74.5949
 112   2.0000      -2.741198       -74.5918
 113   2.0000      -2.732626       -74.3585
 114   2.0000      -2.729624       -74.2768
 115   2.0000      -2.729613       -74.2765
 116   2.0000      -2.728598       -74.2489
 117   2.0000      -2.728505       -74.2464
 118   2.0000      -2.717074       -73.9353
 119   2.0000      -2.717056       -73.9349
 120   2.0000      -1.125782       -30.6341
 121   2.0000      -1.119878       -30.4734
 122   2.0000      -1.096539       -29.8383
 123   2.0000      -1.076088       -29.2819
 124   2.0000      -1.068247       -29.0685
 125   2.0000      -1.047603       -28.5067
 126   2.0000      -1.020512       -27.7696
 127   2.0000      -1.009682       -27.4749
 128   2.0000      -1.000126       -27.2148
 129   2.0000      -0.998946       -27.1827
 130   2.0000      -0.993234       -27.0273
 131   2.0000      -0.989023       -26.9127
 132   2.0000      -0.987042       -26.8588
 133   2.0000      -0.984719       -26.7956
 134   2.0000      -0.980206       -26.6728
 135   2.0000      -0.972983       -26.4762
 136   2.0000      -0.962017       -26.1778
 137   2.0000      -0.959040       -26.0968
 138   2.0000      -0.940421       -25.5901
 139   2.0000      -0.934855       -25.4387
 140   2.0000      -0.918995       -25.0071
 141   2.0000      -0.913998       -24.8712
 142   2.0000      -0.906109       -24.6565
 143   2.0000      -0.899035       -24.4640
 144   2.0000      -0.890026       -24.2188
 145   2.0000      -0.885072       -24.0840
 146   2.0000      -0.884050       -24.0562
 147   2.0000      -0.879820       -23.9411
 148   2.0000      -0.866030       -23.5659
 149   2.0000      -0.864369       -23.5207
 150   2.0000      -0.861859       -23.4524
 151   2.0000      -0.858915       -23.3723
 152   2.0000      -0.848792       -23.0968
 153   2.0000      -0.845116       -22.9968
 154   2.0000      -0.827790       -22.5253
 155   2.0000      -0.825271       -22.4568
 156   2.0000      -0.822105       -22.3706
 157   2.0000      -0.817709       -22.2510
 158   2.0000      -0.815898       -22.2017
 159   2.0000      -0.806580       -21.9481
 160   2.0000      -0.799729       -21.7617
 161   2.0000      -0.798543       -21.7294
 162   2.0000      -0.789896       -21.4942
 163   2.0000      -0.773804       -21.0563
 164   2.0000      -0.765261       -20.8238
 165   2.0000      -0.754843       -20.5403
 166   2.0000      -0.749983       -20.4081
 167   2.0000      -0.732590       -19.9348
 168   2.0000      -0.726941       -19.7811
 169   2.0000      -0.722468       -19.6594
 170   2.0000      -0.722213       -19.6524
 171   2.0000      -0.705071       -19.1860
 172   2.0000      -0.703003       -19.1297
 173   2.0000      -0.697237       -18.9728
 174   2.0000      -0.687647       -18.7118
 175   2.0000      -0.682733       -18.5781
 176   2.0000      -0.677164       -18.4266
 177   2.0000      -0.675071       -18.3696
 178   2.0000      -0.660694       -17.9784
 179   2.0000      -0.657612       -17.8945
 180   2.0000      -0.656551       -17.8657
 181   2.0000      -0.654886       -17.8203
 182   2.0000      -0.650431       -17.6991
 183   2.0000      -0.641209       -17.4482
 184   2.0000      -0.636218       -17.3124
 185   2.0000      -0.634831       -17.2746
 186   2.0000      -0.630278       -17.1507
 187   2.0000      -0.624290       -16.9878
 188   2.0000      -0.619379       -16.8542
 189   2.0000      -0.615731       -16.7549
 190   2.0000      -0.613250       -16.6874
 191   2.0000      -0.605127       -16.4663
 192   2.0000      -0.602587       -16.3972
 193   2.0000      -0.597846       -16.2682
 194   2.0000      -0.596736       -16.2380
 195   2.0000      -0.594017       -16.1640
 196   2.0000      -0.591029       -16.0827
 197   2.0000      -0.588569       -16.0158
 198   2.0000      -0.575136       -15.6503
 199   2.0000      -0.569758       -15.5039
 200   2.0000      -0.567950       -15.4547
 201   2.0000      -0.564189       -15.3524
 202   2.0000      -0.559633       -15.2284
 203   2.0000      -0.554093       -15.0776
 204   2.0000      -0.552994       -15.0477
 205   2.0000      -0.552046       -15.0219
 206   2.0000      -0.547288       -14.8925
 207   2.0000      -0.544742       -14.8232
 208   2.0000      -0.539940       -14.6925
 209   2.0000      -0.538677       -14.6582
 210   2.0000      -0.534644       -14.5484
 211   2.0000      -0.532439       -14.4884
 212   2.0000      -0.528322       -14.3764
 213   2.0000      -0.527414       -14.3517
 214   2.0000      -0.526363       -14.3231
 215   2.0000      -0.521531       -14.1916
 216   2.0000      -0.519398       -14.1335
 217   2.0000      -0.516499       -14.0547
 218   2.0000      -0.513938       -13.9850
 219   2.0000      -0.509825       -13.8731
 220   2.0000      -0.507728       -13.8160
 221   2.0000      -0.505379       -13.7521
 222   2.0000      -0.504376       -13.7248
 223   2.0000      -0.503028       -13.6881
 224   2.0000      -0.501199       -13.6383
 225   2.0000      -0.498902       -13.5758
 226   2.0000      -0.496330       -13.5058
 227   2.0000      -0.495332       -13.4787
 228   2.0000      -0.492552       -13.4030
 229   2.0000      -0.490540       -13.3483
 230   2.0000      -0.487473       -13.2648
 231   2.0000      -0.486098       -13.2274
 232   2.0000      -0.485463       -13.2101
 233   2.0000      -0.483128       -13.1466
 234   2.0000      -0.482699       -13.1349
 235   2.0000      -0.479891       -13.0585
 236   2.0000      -0.478842       -13.0299
 237   2.0000      -0.475594       -12.9416
 238   2.0000      -0.474162       -12.9026
 239   2.0000      -0.472546       -12.8586
 240   2.0000      -0.471748       -12.8369
 241   2.0000      -0.466241       -12.6871
 242   2.0000      -0.462116       -12.5748
 243   2.0000      -0.459732       -12.5099
 244   2.0000      -0.457519       -12.4497
 245   2.0000      -0.456536       -12.4230
 246   2.0000      -0.451735       -12.2923
 247   2.0000      -0.449260       -12.2250
 248   2.0000      -0.446354       -12.1459
 249   2.0000      -0.444409       -12.0930
 250   2.0000      -0.442440       -12.0394
 251   2.0000      -0.441167       -12.0048
 252   2.0000      -0.439252       -11.9527
 253   2.0000      -0.436258       -11.8712
 254   2.0000      -0.434324       -11.8186
 255   2.0000      -0.433145       -11.7865
 256   2.0000      -0.427942       -11.6449
 257   2.0000      -0.427544       -11.6341
 258   2.0000      -0.424460       -11.5502
 259   2.0000      -0.423046       -11.5117
 260   2.0000      -0.422230       -11.4895
 261   2.0000      -0.420256       -11.4358
 262   2.0000      -0.419569       -11.4171
 263   2.0000      -0.419042       -11.4027
 264   2.0000      -0.412344       -11.2204
 265   2.0000      -0.410386       -11.1672
 266   2.0000      -0.409562       -11.1447
 267   2.0000      -0.404383       -11.0038
 268   2.0000      -0.401940       -10.9373
 269   2.0000      -0.395560       -10.7637
 270   2.0000      -0.391936       -10.6651
 271   2.0000      -0.389414       -10.5965
 272   2.0000      -0.388533       -10.5725
 273   2.0000      -0.384387       -10.4597
 274   2.0000      -0.382130       -10.3983
 275   2.0000      -0.380825       -10.3628
 276   2.0000      -0.380410       -10.3515
 277   2.0000      -0.375544       -10.2191
 278   2.0000      -0.368802       -10.0356
 279   2.0000      -0.365346        -9.9416
 280   2.0000      -0.363566        -9.8931
 281   2.0000      -0.358680        -9.7602
 282   2.0000      -0.341796        -9.3007
 283   2.0000      -0.340776        -9.2730
 284   2.0000      -0.339896        -9.2490
 285   2.0000      -0.334707        -9.1078
 286   2.0000      -0.333168        -9.0660
 287   2.0000      -0.321563        -8.7502
 288   2.0000      -0.313545        -8.5320
 289   2.0000      -0.312240        -8.4965
 290   2.0000      -0.303555        -8.2602
 291   2.0000      -0.301664        -8.2087
 292   2.0000      -0.292874        -7.9695
 293   2.0000      -0.292568        -7.9612
 294   2.0000      -0.274234        -7.4623
 295   2.0000      -0.271768        -7.3952
 296   2.0000      -0.265024        -7.2117
 297   2.0000      -0.262183        -7.1344
 298   2.0000      -0.213808        -5.8180
 299   0.0000      -0.092493        -2.5169
 300   0.0000      -0.086925        -2.3653
 301   0.0000      -0.062488        -1.7004
 302   0.0000      -0.038535        -1.0486
 303   0.0000      -0.030690        -0.8351

MULLIKEN ATOMIC CHARGES
-----------------------
   0 C :    0.298301
   1 C :   -0.349671
   2 C :   -0.183897
   3 N :    0.145277
   4 C :   -0.208771
   5 N :    0.160951
   6 C :    0.013217
   7 C :   -0.016151
   8 C :   -0.079731
   9 C :    0.117288
  10 C :   -0.090217
  11 C :   -0.022210
  12 S :    0.185160
  13 C :   -0.124480
  14 C :    0.038152
  15 Br:    0.020046
  16 C :    0.143225
  17 O :   -0.162513
  18 C :   -0.095892
  19 C :    0.021918
  20 C :   -0.181876
  21 S :    0.170219
  22 C :   -0.129898
  23 C :    0.059268
  24 C :    0.077508
  25 N :   -0.030292
  26 C :    0.064944
  27 C :   -0.025404
  28 N :   -0.182136
  29 C :    0.121764
  30 N :   -0.054474
  31 N :   -0.194496
  32 C :    0.127736
  33 C :    0.063328
  34 C :   -0.039405
  35 C :    0.006422
  36 C :   -0.181864
  37 C :    0.079444
  38 C :    0.187031
  39 N :   -0.131515
  40 C :    0.083322
  41 C :   -0.038520
  42 C :    0.022476
  43 C :   -0.056427
  44 C :    0.063333
  45 C :    0.004743
  46 C :   -0.010221
  47 S :    0.107968
  48 C :   -0.075099
  49 C :    0.042000
  50 C :    0.036697
  51 C :   -0.027166
  52 S :    0.122815
  53 C :   -0.003513
  54 C :    0.026152
  55 C :   -0.156145
  56 C :    0.281896
  57 C :   -0.387367
  58 C :   -0.169640
  59 N :    0.121099
  60 C :   -0.212329
  61 N :    0.149415
  62 C :    0.012450
  63 C :    0.007932
  64 C :    0.130561
  65 O :   -0.160274
  66 C :   -0.085231
  67 C :    0.109711
  68 C :   -0.083759
  69 C :   -0.042361
  70 S :    0.146504
  71 C :   -0.124723
  72 C :    0.038488
  73 Br:   -0.002180
  74 H :   -0.021176
  75 H :   -0.006778
  76 H :   -0.007819
  77 H :    0.021503
  78 H :    0.024162
  79 H :    0.137207
  80 H :    0.046309
  81 H :    0.027852
  82 H :    0.018732
  83 H :    0.065811
  84 H :    0.037622
  85 H :    0.029955
  86 H :    0.023206
  87 H :   -0.012765
  88 H :   -0.037318
  89 H :    0.028061
  90 H :    0.045206
  91 H :    0.006595
  92 H :    0.008352
  93 H :    0.026302
  94 H :    0.134576
  95 H :    0.009705
  96 H :    0.006221
  97 H :   -0.009118
  98 H :   -0.008985
  99 H :   -0.010845
 100 H :   -0.015181
 101 H :   -0.012717
 102 H :   -0.010991
 103 H :    0.014833
 104 H :   -0.017238
 105 H :   -0.021898
 106 H :   -0.008298
Sum of atomic charges:   -0.0000000

LOEWDIN ATOMIC CHARGES
----------------------
   0 C :    0.075447
   1 C :   -0.146673
   2 C :   -0.018539
   3 N :   -0.058558
   4 C :   -0.025718
   5 N :   -0.054895
   6 C :   -0.021556
   7 C :   -0.049050
   8 C :    0.013583
   9 C :   -0.034855
  10 C :   -0.146079
  11 C :   -0.010298
  12 S :    0.431225
  13 C :   -0.272727
  14 C :   -0.072726
  15 Br:    0.134028
  16 C :    0.076115
  17 O :   -0.153301
  18 C :   -0.105148
  19 C :    0.054999
  20 C :   -0.203043
  21 S :    0.484824
  22 C :   -0.167969
  23 C :   -0.058821
  24 C :   -0.014963
  25 N :   -0.065691
  26 C :    0.047203
  27 C :    0.027869
  28 N :   -0.021761
  29 C :    0.024939
  30 N :   -0.100411
  31 N :    0.007726
  32 C :    0.037762
  33 C :    0.020962
  34 C :   -0.088947
  35 C :   -0.038906
  36 C :   -0.061341
  37 C :   -0.052711
  38 C :    0.045486
  39 N :    0.027962
  40 C :    0.080655
  41 C :   -0.124837
  42 C :    0.010075
  43 C :   -0.190794
  44 C :   -0.000073
  45 C :   -0.060293
  46 C :   -0.126132
  47 S :    0.402451
  48 C :   -0.219688
  49 C :   -0.019630
  50 C :   -0.048802
  51 C :   -0.112478
  52 S :    0.475358
  53 C :   -0.079194
  54 C :    0.031790
  55 C :   -0.125782
  56 C :    0.031709
  57 C :   -0.185580
  58 C :   -0.020081
  59 N :   -0.092132
  60 C :   -0.029788
  61 N :   -0.071718
  62 C :   -0.006744
  63 C :   -0.051104
  64 C :    0.080958
  65 O :   -0.160479
  66 C :    0.015754
  67 C :   -0.045083
  68 C :   -0.146031
  69 C :   -0.029769
  70 S :    0.403865
  71 C :   -0.282556
  72 C :   -0.067967
  73 Br:    0.116378
  74 H :    0.036663
  75 H :    0.040871
  76 H :    0.037042
  77 H :    0.044527
  78 H :    0.031265
  79 H :    0.079451
  80 H :    0.034568
  81 H :    0.022238
  82 H :    0.023664
  83 H :    0.037979
  84 H :    0.029981
  85 H :    0.025709
  86 H :    0.025972
  87 H :    0.024015
  88 H :    0.020577
  89 H :    0.034623
  90 H :    0.041833
  91 H :    0.027055
  92 H :    0.028946
  93 H :    0.031112
  94 H :    0.087375
  95 H :    0.032642
  96 H :    0.024952
  97 H :    0.035980
  98 H :    0.035412
  99 H :    0.032897
 100 H :    0.031682
 101 H :    0.033819
 102 H :    0.037414
 103 H :    0.042608
 104 H :    0.037684
 105 H :    0.034978
 106 H :    0.036768

  Mayer bond orders larger than 0.100000
B(  0-C ,  1-C ) :   1.6269 B(  0-C ,  6-C ) :   0.9973 B(  0-C , 18-C ) :   1.0929
B(  1-C ,  2-C ) :   1.1431 B(  1-C ,  4-C ) :   1.1424 B(  2-C ,  3-N ) :   2.9703
B(  4-C ,  5-N ) :   2.9966 B(  6-C ,  7-C ) :   1.2781 B(  6-C , 11-C ) :   1.4140
B(  7-C ,  8-C ) :   1.4287 B(  7-C , 16-C ) :   0.9376 B(  8-C ,  9-C ) :   1.2417
B(  8-C , 74-H ) :   1.0158 B(  9-C , 10-C ) :   1.3131 B(  9-C , 14-C ) :   1.1601
B( 10-C , 11-C ) :   1.3243 B( 10-C , 12-S ) :   1.0829 B( 11-C , 75-H ) :   0.9800
B( 12-S , 13-C ) :   1.0883 B( 13-C , 14-C ) :   1.6196 B( 13-C , 15-Br) :   1.0166
B( 14-C , 76-H ) :   0.9995 B( 16-C , 17-O ) :   2.1933 B( 16-C , 18-C ) :   0.9681
B( 18-C , 19-C ) :   1.5378 B( 19-C , 20-C ) :   1.2557 B( 19-C , 77-H ) :   0.9305
B( 20-C , 21-S ) :   1.1191 B( 20-C , 24-C ) :   1.3020 B( 21-S , 22-C ) :   1.2059
B( 22-C , 23-C ) :   1.4125 B( 22-C , 78-H ) :   0.9756 B( 23-C , 24-C ) :   1.2017
B( 23-C , 30-N ) :   1.3107 B( 24-C , 25-N ) :   1.3714 B( 25-N , 26-C ) :   1.6549
B( 26-C , 27-C ) :   1.0353 B( 26-C , 31-N ) :   1.1417 B( 27-C , 28-N ) :   1.2119
B( 27-C , 30-N ) :   1.6921 B( 28-N , 29-C ) :   1.0021 B( 28-N , 79-H ) :   0.9200
B( 29-C , 80-H ) :   0.9654 B( 29-C , 81-H ) :   0.9735 B( 29-C , 82-H ) :   0.9735
B( 31-N , 32-C ) :   0.9636 B( 31-N , 33-C ) :   1.0889 B( 32-C , 83-H ) :   0.9526
B( 32-C , 84-H ) :   0.9680 B( 32-C , 85-H ) :   0.9637 B( 33-C , 34-C ) :   1.7029
B( 33-C , 86-H ) :   0.9555 B( 34-C , 35-C ) :   1.0959 B( 34-C , 87-H ) :   0.9684
B( 35-C , 36-C ) :   1.8008 B( 35-C , 88-H ) :   0.9702 B( 36-C , 37-C ) :   1.0596
B( 36-C , 38-C ) :   1.0470 B( 37-C , 89-H ) :   0.9488 B( 37-C , 90-H ) :   0.9522
B( 37-C , 91-H ) :   0.9525 B( 38-C , 39-N ) :   0.9969 B( 38-C , 92-H ) :   0.9395
B( 38-C , 93-H ) :   0.9345 B( 39-N , 40-C ) :   1.2970 B( 39-N , 94-H ) :   0.9338
B( 40-C , 41-C ) :   1.5167 B( 40-C , 95-H ) :   0.9695 B( 41-C , 42-C ) :   1.2329
B( 41-C , 96-H ) :   0.9655 B( 42-C , 43-C ) :   1.5218 B( 42-C , 97-H ) :   0.9787
B( 43-C , 44-C ) :   1.1838 B( 43-C , 47-S ) :   1.0183 B( 44-C , 45-C ) :   1.5381
B( 44-C , 98-H ) :   0.9986 B( 45-C , 46-C ) :   1.2305 B( 45-C , 99-H ) :   0.9951
B( 46-C , 47-S ) :   1.1164 B( 46-C , 48-C ) :   1.4082 B( 48-C , 49-C ) :   1.2453
B( 48-C , 52-S ) :   1.0426 B( 49-C , 50-C ) :   1.5178 B( 49-C ,100-H ) :   0.9912
B( 50-C , 51-C ) :   1.2183 B( 50-C ,101-H ) :   0.9977 B( 51-C , 52-S ) :   1.1329
B( 51-C , 53-C ) :   1.3703 B( 53-C , 54-C ) :   1.4137 B( 53-C ,102-H ) :   0.9542
B( 54-C , 55-C ) :   1.3850 B( 54-C ,103-H ) :   0.9321 B( 55-C , 56-C ) :   1.1845
B( 55-C , 64-C ) :   0.9801 B( 56-C , 57-C ) :   1.5017 B( 56-C , 62-C ) :   0.9974
B( 57-C , 58-C ) :   1.1545 B( 57-C , 60-C ) :   1.1725 B( 58-C , 59-N ) :   2.9626
B( 60-C , 61-N ) :   3.0081 B( 62-C , 63-C ) :   1.2826 B( 62-C , 69-C ) :   1.4404
B( 63-C , 64-C ) :   0.9085 B( 63-C , 66-C ) :   1.4398 B( 64-C , 65-O ) :   2.2468
B( 66-C , 67-C ) :   1.2357 B( 66-C ,104-H ) :   1.0159 B( 67-C , 68-C ) :   1.3373
B( 67-C , 72-C ) :   1.1554 B( 68-C , 69-C ) :   1.3003 B( 68-C , 70-S ) :   1.0721
B( 69-C ,105-H ) :   0.9821 B( 70-S , 71-C ) :   1.0777 B( 71-C , 72-C ) :   1.6296
B( 71-C , 73-Br) :   1.0024 B( 72-C ,106-H ) :   1.0005

-----------------------------------------------------------------------------
         ABSORPTION SPECTRUM VIA TRANSITION ELECTRIC DIPOLE MOMENTS
-----------------------------------------------------------------------------
State   Energy  Wavelength   fosc         T2         TX        TY        TZ
        (cm-1)    (nm)                  (au**2)     (au)      (au)      (au)
-----------------------------------------------------------------------------
   0   12694.1    787.8   0.714635955  18.53350  -2.95778   0.20655   3.12127
   1   19339.4    517.1   0.070910752   1.20711  -0.32600   0.71636  -0.76659
   2   20325.4    492.0   0.666529144  10.79584  -1.35122   2.17303  -2.06107
   3   21216.0    471.3   0.065193630   1.01162  -0.48609  -0.53075   0.70260
   4   23200.0    431.0   0.256984614   3.64665   1.12235  -0.22752  -1.52814
   5   23307.3    429.1   0.235052792   3.32009  -0.69719   1.64565   0.35476
   6   24566.9    407.1   0.032903609   0.44093   0.40344   0.51949   0.09108
   7   25695.5    389.2   0.010145933   0.12999   0.16870   0.04535  -0.31540
   8   26206.6    381.6   0.099366535   1.24826   0.33225   1.03558  -0.25584
   9   26726.1    374.2   0.923764730  11.37893  -1.29254  -3.01900   0.77067
  10   27092.2    369.1   0.010375700   0.12608   0.30047   0.08141   0.17079
  11   27648.0    361.7   0.094617714   1.12664   0.54136   0.89963  -0.15566
  12   28045.9    356.6   0.272880576   3.20316   0.56557   1.67671   0.26821
  13   29323.7    341.0   0.205579411   2.30801   0.66060   0.53906   1.25739
  14   29472.2    339.3   0.038025431   0.42475   0.38608   0.45155   0.26794
  15   29604.1    337.8   0.022571196   0.25100   0.26215  -0.42236   0.06238
  16   30328.3    329.7   0.007549503   0.08195   0.10676   0.14819  -0.22044
  17   30470.8    328.2   0.003861554   0.04172   0.07285  -0.18789  -0.03337
  18   30761.4    325.1   0.002543199   0.02722   0.01805  -0.15740  -0.04600
  19   31428.5    318.2   0.152680502   1.59932   0.35414   1.17379   0.31004
  20   31596.3    316.5   0.043308489   0.45125  -0.13700   0.53159   0.38716
  21   31668.8    315.8   0.082368473   0.85626   0.22674   0.61312   0.65493
  22   32110.5    311.4   0.051943894   0.53255   0.50156   0.51121   0.14020
  23   32194.6    310.6   0.106375042   1.08776   0.54418   0.58853   0.66728
  24   32210.8    310.5   0.177213098   1.81122  -0.56383  -1.15001  -0.41328
  25   32594.5    306.8   0.005678627   0.05736   0.08975   0.04244   0.21795
  26   32618.1    306.6   0.294605992   2.97344  -0.71982  -1.18353  -1.02692
  27   32999.7    303.0   0.181859161   1.81427  -0.30310   1.00060   0.84923
  28   33058.6    302.5   0.026066545   0.25958  -0.05601  -0.50425   0.04665
  29   33187.1    301.3   0.165871470   1.64542  -0.44291  -1.12241  -0.43527
  30   33283.8    300.4   0.524482561   5.18769   1.29809   1.57344   1.01338
  31   33654.9    297.1   0.178639377   1.74745   0.45958  -0.67795   1.03760
  32   33872.1    295.2   0.046963267   0.45645   0.49080   0.40267   0.23112
  33   34736.9    287.9   0.056686149   0.53723   0.57277   0.37831   0.25699
  34   35262.0    283.6   0.017237590   0.16093   0.21435   0.22121   0.25700
  35   35523.8    281.5   0.056324787   0.52198  -0.07716   0.29236   0.65616
  36   36633.6    273.0   0.008642769   0.07767  -0.13914   0.23644   0.04902
  37   36745.9    272.1   0.107511585   0.96321   0.82577  -0.17699   0.49998
  38   37262.0    268.4   0.173311869   1.53122   0.00032   0.11275   1.23228
  39   37277.3    268.3   0.060081135   0.53060   0.42054  -0.25636  -0.53668
  40   37423.4    267.2   0.009827869   0.08646   0.03764   0.03184  -0.28987
  41   37463.2    266.9   0.002548479   0.02240  -0.11196   0.09929   0.00082
  42   37633.7    265.7   0.075838694   0.66342   0.45645   0.34423   0.58016
  43   37740.7    265.0   0.008555414   0.07463   0.22623  -0.07464   0.13370
  44   38705.8    258.4   0.144062816   1.22533   0.49750  -0.74454  -0.65075
  45   38873.1    257.2   0.007866073   0.06662   0.18202  -0.13915  -0.11884
  46   38936.6    256.8   0.002296038   0.01941  -0.09225  -0.03109   0.09969
  47   39158.4    255.4   0.050579286   0.42523   0.39328   0.01323  -0.51998
  48   39296.9    254.5   0.002954438   0.02475  -0.10445   0.06874   0.09548
  49   39418.3    253.7   0.021270236   0.17764   0.12138   0.04495   0.40111
  50   39601.7    252.5   0.028871284   0.24001  -0.36805   0.30790  -0.09872
  51   39970.6    250.2   0.261401064   2.15299   0.20320   0.44484   1.38341
  52   40324.8    248.0   0.052932314   0.43214  -0.31318  -0.20438   0.54064

FINAL SINGLE POINT ENERGY     -9931.618131183117

DIPOLE MOMENT
-------------
                                X             Y             Z
Electronic contribution:     14.02404    -170.41884     -28.43279
Nuclear contribution   :    -21.68561     170.23810      29.86712
                        -----------------------------------------
Total Dipole Moment    :     -7.66157      -0.18074       1.43434
                        -----------------------------------------
Magnitude (a.u.)       :      7.79677
Magnitude (Debye)      :     19.81782

Rotational constants in cm-1:     0.000741     0.000198     0.000175
Rotational constants in MHz :    22.222073     5.934444     5.237313

                             ****ORCA TERMINATED NORMALLY****
TOTAL RUN TIME: 0 days 0 hours 12 minutes 12 seconds 464 msec
