                         Program Version 4.2.0 -  RELEASE  -
|  1> # ORCA input file
|  2> # SCF done       -176.076767476336          0.000971478781
|  3> ! CAM-B3LYP def2-SVP def2/J RIJCOSX Grid4 TightSCF
|  4> %maxcore 5000
|  5> %tddft
|  6>     Mode sTDDFT
|  7>     Ethresh 5.0
|  8>     maxcore 5000
|  9> end
| 10>
| 11> %pal
| 12>   nprocs 6
| 13>   end
| 14> * xyz 0 1
| 15>    C       -5.89688        -2.99363         9.51773
| 16>    C       -5.76953        -4.02463         8.61422
| 17>    C       -4.77372        -5.01931         8.67504
| 18>    N       -3.99660        -5.86567         8.65931
| 19>    C       -6.60893        -4.25942         7.51178
| 20>    N       -7.23674        -4.54433         6.59059
| 21>    C       -5.03182        -2.78617        10.67686
| 22>    C       -5.49873        -1.65757        11.39280
| 23>    C       -4.89439        -1.20488        12.53879
| 24>    C       -3.76989        -1.89848        13.00104
| 25>    C       -3.30883        -3.02268        12.27782
| 26>    C       -3.92319        -3.48204        11.11831
| 27>    S       -1.90484        -3.72862        13.02038
| 28>    C       -1.95723        -2.51987        14.27568
| 29>    C       -2.97213        -1.63281        14.14763
| 30>   Br       -0.66652        -2.54258        15.63703
| 31>    C       -6.68072        -1.09880        10.70209
| 32>    O       -7.32615        -0.13125        11.05701
| 33>    C       -6.89019        -1.95309         9.51676
| 34>    C       -7.87152        -1.74732         8.56565
| 35>    C       -8.81333        -0.72604         8.61158
| 36>    C       -9.77207        -0.52135         7.63805
| 37>    C      -10.74999         0.49921         7.63938
| 38>    C      -11.57392         0.48520         6.55341
| 39>    C      -11.28602        -0.54964         5.63754
| 40>    S       -9.93473        -1.50952         6.20423
| 41>    C      -11.93762        -0.81725         4.44708
| 42>    C      -13.03462        -0.11646         3.89313
| 43>    C      -13.47134        -0.61169         2.70435
| 44>    C      -12.74001        -1.73644         2.24608
| 45>    S      -11.46655        -2.13602         3.40376
| 46>    C      -12.96055        -2.43514         1.09520
| 47>    N      -12.22038        -3.50055         0.71095
| 48>    C      -12.39474        -4.23349        -0.41559
| 49>    S      -13.60142        -3.81634        -1.59589
| 50>    C      -13.06830        -5.13758        -2.58893
| 51>    N      -13.76378        -5.40014        -3.76773
| 52>    O      -13.42577        -6.37711        -4.41620
| 53>    O      -14.67233        -4.63756        -4.05610
| 54>    C      -12.01252        -5.82507        -2.04894
| 55>    C      -11.62590        -5.33952        -0.79014
| 56>    C      -10.62526        -6.02572        -0.00388
| 57>    C      -10.64984        -6.21740         1.32154
| 58>    C       -9.71285        -7.07756         2.02445
| 59>    C       -9.33862        -8.31022         1.59730
| 60>    O       -8.36076        -9.09004         2.14903
| 61>    C       -7.64571        -8.65309         3.22210
| 62>    C       -6.61734        -9.37894         3.73937
| 63>    S       -5.90545        -8.60679         5.10365
| 64>    C       -7.00274        -7.28961         4.98053
| 65>    C       -7.86346        -7.44762         3.94382
| 66>    S       -9.11086        -6.29108         3.50503
| 67>    C       -9.93563        -8.99119         0.46086
| 68>    C      -11.23485        -8.92283         0.11543
| 69>    C      -11.77332        -9.48268        -1.07849
| 70>    S      -13.43861        -9.19114        -1.53829
| 71>    C      -13.30719       -10.01309        -3.03470
| 72>    C      -12.03699       -10.50833        -3.19866
| 73>    C      -11.18055       -10.20038        -2.09246
| 74>    O       -9.93883       -10.69095        -2.29748
| 75>    C       -9.99543       -11.30890        -3.51109
| 76>    N       -8.80922       -11.92311        -3.98493
| 77>    O       -8.88439       -12.48849        -5.05855
| 78>    O       -7.81555       -11.83980        -3.29687
| 79>    C      -11.22241       -11.23853        -4.10904
| 80>    H       -5.27484        -0.34225        13.06302
| 81>    H       -3.53188        -4.34320        10.60304
| 82>    H       -3.15227        -0.82382        14.83183
| 83>    H       -7.91607        -2.41751         7.71556
| 84>    H       -8.80156        -0.04586         9.45116
| 85>    H      -10.81135         1.21058         8.44340
| 86>    H      -12.37139         1.18758         6.39154
| 87>    H      -13.46959         0.73204         4.38839
| 88>    H      -14.29186        -0.20926         2.13832
| 89>    H      -13.76982        -2.14994         0.43839
| 90>    H      -11.43134        -3.75681         1.29743
| 91>    H      -11.56086        -6.66860        -2.53826
| 92>    H       -9.88762        -6.55771        -0.58813
| 93>    H      -11.36667        -5.71516         1.95891
| 94>    H       -6.24936       -10.32010         3.38726
| 95>    H       -6.96026        -6.46666         5.66631
| 96>    H       -9.26100        -9.63390        -0.08766
| 97>    H      -11.93278        -8.36144         0.71930
| 98>    H      -14.14773       -10.06906        -3.69432
| 99>    H      -11.48578       -11.65109        -5.06065
|100> *
|101>
|102>                          ****END OF INPUT****

CARTESIAN COORDINATES (ANGSTROEM)
---------------------------------
  C     -5.896880   -2.993630    9.517730
  C     -5.769530   -4.024630    8.614220
  C     -4.773720   -5.019310    8.675040
  N     -3.996600   -5.865670    8.659310
  C     -6.608930   -4.259420    7.511780
  N     -7.236740   -4.544330    6.590590
  C     -5.031820   -2.786170   10.676860
  C     -5.498730   -1.657570   11.392800
  C     -4.894390   -1.204880   12.538790
  C     -3.769890   -1.898480   13.001040
  C     -3.308830   -3.022680   12.277820
  C     -3.923190   -3.482040   11.118310
  S     -1.904840   -3.728620   13.020380
  C     -1.957230   -2.519870   14.275680
  C     -2.972130   -1.632810   14.147630
  Br    -0.666520   -2.542580   15.637030
  C     -6.680720   -1.098800   10.702090
  O     -7.326150   -0.131250   11.057010
  C     -6.890190   -1.953090    9.516760
  C     -7.871520   -1.747320    8.565650
  C     -8.813330   -0.726040    8.611580
  C     -9.772070   -0.521350    7.638050
  C    -10.749990    0.499210    7.639380
  C    -11.573920    0.485200    6.553410
  C    -11.286020   -0.549640    5.637540
  S     -9.934730   -1.509520    6.204230
  C    -11.937620   -0.817250    4.447080
  C    -13.034620   -0.116460    3.893130
  C    -13.471340   -0.611690    2.704350
  C    -12.740010   -1.736440    2.246080
  S    -11.466550   -2.136020    3.403760
  C    -12.960550   -2.435140    1.095200
  N    -12.220380   -3.500550    0.710950
  C    -12.394740   -4.233490   -0.415590
  S    -13.601420   -3.816340   -1.595890
  C    -13.068300   -5.137580   -2.588930
  N    -13.763780   -5.400140   -3.767730
  O    -13.425770   -6.377110   -4.416200
  O    -14.672330   -4.637560   -4.056100
  C    -12.012520   -5.825070   -2.048940
  C    -11.625900   -5.339520   -0.790140
  C    -10.625260   -6.025720   -0.003880
  C    -10.649840   -6.217400    1.321540
  C     -9.712850   -7.077560    2.024450
  C     -9.338620   -8.310220    1.597300
  O     -8.360760   -9.090040    2.149030
  C     -7.645710   -8.653090    3.222100
  C     -6.617340   -9.378940    3.739370
  S     -5.905450   -8.606790    5.103650
  C     -7.002740   -7.289610    4.980530
  C     -7.863460   -7.447620    3.943820
  S     -9.110860   -6.291080    3.505030
  C     -9.935630   -8.991190    0.460860
  C    -11.234850   -8.922830    0.115430
  C    -11.773320   -9.482680   -1.078490
  S    -13.438610   -9.191140   -1.538290
  C    -13.307190  -10.013090   -3.034700
  C    -12.036990  -10.508330   -3.198660
  C    -11.180550  -10.200380   -2.092460
  O     -9.938830  -10.690950   -2.297480
  C     -9.995430  -11.308900   -3.511090
  N     -8.809220  -11.923110   -3.984930
  O     -8.884390  -12.488490   -5.058550
  O     -7.815550  -11.839800   -3.296870
  C    -11.222410  -11.238530   -4.109040
  H     -5.274840   -0.342250   13.063020
  H     -3.531880   -4.343200   10.603040
  H     -3.152270   -0.823820   14.831830
  H     -7.916070   -2.417510    7.715560
  H     -8.801560   -0.045860    9.451160
  H    -10.811350    1.210580    8.443400
  H    -12.371390    1.187580    6.391540
  H    -13.469590    0.732040    4.388390
  H    -14.291860   -0.209260    2.138320
  H    -13.769820   -2.149940    0.438390
  H    -11.431340   -3.756810    1.297430
  H    -11.560860   -6.668600   -2.538260
  H     -9.887620   -6.557710   -0.588130
  H    -11.366670   -5.715160    1.958910
  H     -6.249360  -10.320100    3.387260
  H     -6.960260   -6.466660    5.666310
  H     -9.261000   -9.633900   -0.087660
  H    -11.932780   -8.361440    0.719300
  H    -14.147730  -10.069060   -3.694320
  H    -11.485780  -11.651090   -5.060650

 Total Charge           Charge          ....    0
 Multiplicity           Mult            ....    1
 Number of Electrons    NEL             ....  528
 Basis Dimension        Dim             .... 1056

ORBITAL ENERGIES
----------------

  NO   OCC          E(Eh)            E(eV)
   0   2.0000    -482.879525    -13139.8199
   1   2.0000     -88.997131     -2421.7350
   2   2.0000     -88.982539     -2421.3380
   3   2.0000     -88.978403     -2421.2254
   4   2.0000     -88.967771     -2420.9361
   5   2.0000     -88.964682     -2420.8521
   6   2.0000     -88.942681     -2420.2534
   7   2.0000     -88.935356     -2420.0541
   8   2.0000     -62.557218     -1702.2684
   9   2.0000     -56.391155     -1534.4813
  10   2.0000     -56.388461     -1534.4080
  11   2.0000     -56.388426     -1534.4071
  12   2.0000     -19.313886      -525.5575
  13   2.0000     -19.265892      -524.2516
  14   2.0000     -19.246295      -523.7183
  15   2.0000     -19.244174      -523.6606
  16   2.0000     -19.242559      -523.6167
  17   2.0000     -19.241391      -523.5849
  18   2.0000     -19.203659      -522.5581
  19   2.0000     -14.658015      -398.8649
  20   2.0000     -14.654122      -398.7589
  21   2.0000     -14.509883      -394.8340
  22   2.0000     -14.412176      -392.1753
  23   2.0000     -14.403275      -391.9330
  24   2.0000     -10.391002      -282.7535
  25   2.0000     -10.381951      -282.5073
  26   2.0000     -10.367609      -282.1170
  27   2.0000     -10.353929      -281.7447
  28   2.0000     -10.351737      -281.6851
  29   2.0000     -10.351315      -281.6736
  30   2.0000     -10.349397      -281.6214
  31   2.0000     -10.347429      -281.5679
  32   2.0000     -10.346259      -281.5360
  33   2.0000     -10.334612      -281.2191
  34   2.0000     -10.331511      -281.1347
  35   2.0000     -10.329609      -281.0829
  36   2.0000     -10.329338      -281.0756
  37   2.0000     -10.326225      -280.9909
  38   2.0000     -10.326219      -280.9907
  39   2.0000     -10.320614      -280.8382
  40   2.0000     -10.319743      -280.8145
  41   2.0000     -10.318940      -280.7926
  42   2.0000     -10.318528      -280.7814
  43   2.0000     -10.316747      -280.7330
  44   2.0000     -10.316546      -280.7275
  45   2.0000     -10.316151      -280.7167
  46   2.0000     -10.310242      -280.5559
  47   2.0000     -10.309954      -280.5481
  48   2.0000     -10.309864      -280.5457
  49   2.0000     -10.307904      -280.4923
  50   2.0000     -10.303810      -280.3809
  51   2.0000     -10.303357      -280.3686
  52   2.0000     -10.302561      -280.3469
  53   2.0000     -10.300717      -280.2968
  54   2.0000     -10.298276      -280.2303
  55   2.0000     -10.297300      -280.2038
  56   2.0000     -10.297270      -280.2030
  57   2.0000     -10.295667      -280.1594
  58   2.0000     -10.295622      -280.1581
  59   2.0000     -10.294902      -280.1385
  60   2.0000     -10.291226      -280.0385
  61   2.0000     -10.291024      -280.0330
  62   2.0000     -10.289299      -279.9860
  63   2.0000     -10.283652      -279.8324
  64   2.0000     -10.281164      -279.7647
  65   2.0000     -10.279781      -279.7271
  66   2.0000     -10.278085      -279.6809
  67   2.0000     -10.277965      -279.6776
  68   2.0000     -10.275777      -279.6181
  69   2.0000      -8.786649      -239.0969
  70   2.0000      -8.092486      -220.2078
  71   2.0000      -8.077346      -219.7958
  72   2.0000      -8.074576      -219.7204
  73   2.0000      -8.063717      -219.4249
  74   2.0000      -8.060649      -219.3414
  75   2.0000      -8.038615      -218.7418
  76   2.0000      -8.030746      -218.5277
  77   2.0000      -6.622869      -180.2174
  78   2.0000      -6.608407      -179.8239
  79   2.0000      -6.608234      -179.8192
  80   2.0000      -6.062195      -164.9607
  81   2.0000      -6.057815      -164.8415
  82   2.0000      -6.053867      -164.7341
  83   2.0000      -6.046612      -164.5367
  84   2.0000      -6.044343      -164.4749
  85   2.0000      -6.042260      -164.4183
  86   2.0000      -6.040337      -164.3659
  87   2.0000      -6.039856      -164.3528
  88   2.0000      -6.035416      -164.2320
  89   2.0000      -6.033410      -164.1774
  90   2.0000      -6.030228      -164.0908
  91   2.0000      -6.029137      -164.0612
  92   2.0000      -6.026264      -163.9830
  93   2.0000      -6.024960      -163.9475
  94   2.0000      -6.021813      -163.8619
  95   2.0000      -6.007995      -163.4859
  96   2.0000      -6.003736      -163.3700
  97   2.0000      -6.001114      -163.2986
  98   2.0000      -6.000610      -163.2849
  99   2.0000      -5.997153      -163.1908
 100   2.0000      -5.990338      -163.0054
 101   2.0000      -2.738799       -74.5265
 102   2.0000      -2.734669       -74.4141
 103   2.0000      -2.734551       -74.4109
 104   2.0000      -2.723037       -74.0976
 105   2.0000      -2.723032       -74.0975
 106   2.0000      -1.329756       -36.1845
 107   2.0000      -1.321990       -35.9732
 108   2.0000      -1.232903       -33.5490
 109   2.0000      -1.175670       -31.9916
 110   2.0000      -1.146294       -31.1922
 111   2.0000      -1.141024       -31.0488
 112   2.0000      -1.117152       -30.3992
 113   2.0000      -1.115742       -30.3609
 114   2.0000      -1.022791       -27.8316
 115   2.0000      -1.013921       -27.5902
 116   2.0000      -1.013349       -27.5746
 117   2.0000      -1.006610       -27.3912
 118   2.0000      -1.002994       -27.2929
 119   2.0000      -0.994214       -27.0539
 120   2.0000      -0.987257       -26.8646
 121   2.0000      -0.978850       -26.6359
 122   2.0000      -0.974573       -26.5195
 123   2.0000      -0.951489       -25.8913
 124   2.0000      -0.939176       -25.5563
 125   2.0000      -0.934621       -25.4323
 126   2.0000      -0.924521       -25.1575
 127   2.0000      -0.912375       -24.8270
 128   2.0000      -0.904275       -24.6066
 129   2.0000      -0.899433       -24.4748
 130   2.0000      -0.897425       -24.4202
 131   2.0000      -0.888111       -24.1667
 132   2.0000      -0.885283       -24.0898
 133   2.0000      -0.876735       -23.8572
 134   2.0000      -0.870616       -23.6907
 135   2.0000      -0.869116       -23.6499
 136   2.0000      -0.860659       -23.4197
 137   2.0000      -0.849672       -23.1207
 138   2.0000      -0.845235       -23.0000
 139   2.0000      -0.842189       -22.9171
 140   2.0000      -0.820502       -22.3270
 141   2.0000      -0.812156       -22.0999
 142   2.0000      -0.811583       -22.0843
 143   2.0000      -0.804287       -21.8858
 144   2.0000      -0.792236       -21.5578
 145   2.0000      -0.780833       -21.2475
 146   2.0000      -0.761978       -20.7345
 147   2.0000      -0.761330       -20.7168
 148   2.0000      -0.749451       -20.3936
 149   2.0000      -0.740953       -20.1624
 150   2.0000      -0.737226       -20.0609
 151   2.0000      -0.720154       -19.5964
 152   2.0000      -0.714869       -19.4526
 153   2.0000      -0.709464       -19.3055
 154   2.0000      -0.703055       -19.1311
 155   2.0000      -0.686592       -18.6831
 156   2.0000      -0.686403       -18.6780
 157   2.0000      -0.681589       -18.5470
 158   2.0000      -0.673579       -18.3290
 159   2.0000      -0.667258       -18.1570
 160   2.0000      -0.661698       -18.0057
 161   2.0000      -0.655847       -17.8465
 162   2.0000      -0.649300       -17.6684
 163   2.0000      -0.645574       -17.5670
 164   2.0000      -0.643253       -17.5038
 165   2.0000      -0.639966       -17.4144
 166   2.0000      -0.638953       -17.3868
 167   2.0000      -0.637084       -17.3359
 168   2.0000      -0.635377       -17.2895
 169   2.0000      -0.634644       -17.2695
 170   2.0000      -0.627241       -17.0681
 171   2.0000      -0.625512       -17.0211
 172   2.0000      -0.614131       -16.7114
 173   2.0000      -0.611702       -16.6453
 174   2.0000      -0.602919       -16.4063
 175   2.0000      -0.594674       -16.1819
 176   2.0000      -0.591129       -16.0854
 177   2.0000      -0.590375       -16.0649
 178   2.0000      -0.587350       -15.9826
 179   2.0000      -0.584196       -15.8968
 180   2.0000      -0.583583       -15.8801
 181   2.0000      -0.576196       -15.6791
 182   2.0000      -0.570740       -15.5306
 183   2.0000      -0.570035       -15.5114
 184   2.0000      -0.567033       -15.4297
 185   2.0000      -0.555996       -15.1294
 186   2.0000      -0.555272       -15.1097
 187   2.0000      -0.550529       -14.9807
 188   2.0000      -0.543261       -14.7829
 189   2.0000      -0.538943       -14.6654
 190   2.0000      -0.535554       -14.5732
 191   2.0000      -0.535014       -14.5585
 192   2.0000      -0.529406       -14.4059
 193   2.0000      -0.526143       -14.3171
 194   2.0000      -0.523712       -14.2509
 195   2.0000      -0.521610       -14.1937
 196   2.0000      -0.519280       -14.1303
 197   2.0000      -0.518209       -14.1012
 198   2.0000      -0.515805       -14.0358
 199   2.0000      -0.514836       -14.0094
 200   2.0000      -0.509016       -13.8510
 201   2.0000      -0.500684       -13.6243
 202   2.0000      -0.500484       -13.6189
 203   2.0000      -0.499283       -13.5862
 204   2.0000      -0.496014       -13.4972
 205   2.0000      -0.490518       -13.3477
 206   2.0000      -0.488947       -13.3049
 207   2.0000      -0.484773       -13.1913
 208   2.0000      -0.484363       -13.1802
 209   2.0000      -0.483546       -13.1580
 210   2.0000      -0.481551       -13.1037
 211   2.0000      -0.477412       -12.9911
 212   2.0000      -0.475521       -12.9396
 213   2.0000      -0.466455       -12.6929
 214   2.0000      -0.464884       -12.6501
 215   2.0000      -0.462641       -12.5891
 216   2.0000      -0.460290       -12.5251
 217   2.0000      -0.456709       -12.4277
 218   2.0000      -0.452206       -12.3052
 219   2.0000      -0.450675       -12.2635
 220   2.0000      -0.448556       -12.2058
 221   2.0000      -0.446198       -12.1417
 222   2.0000      -0.444262       -12.0890
 223   2.0000      -0.441389       -12.0108
 224   2.0000      -0.439125       -11.9492
 225   2.0000      -0.436797       -11.8858
 226   2.0000      -0.434850       -11.8329
 227   2.0000      -0.431074       -11.7301
 228   2.0000      -0.426374       -11.6022
 229   2.0000      -0.421762       -11.4767
 230   2.0000      -0.420657       -11.4467
 231   2.0000      -0.419882       -11.4256
 232   2.0000      -0.416830       -11.3425
 233   2.0000      -0.415511       -11.3066
 234   2.0000      -0.409523       -11.1437
 235   2.0000      -0.401080       -10.9139
 236   2.0000      -0.400280       -10.8922
 237   2.0000      -0.393320       -10.7028
 238   2.0000      -0.392150       -10.6709
 239   2.0000      -0.390611       -10.6291
 240   2.0000      -0.389098       -10.5879
 241   2.0000      -0.383431       -10.4337
 242   2.0000      -0.381731       -10.3874
 243   2.0000      -0.380610       -10.3569
 244   2.0000      -0.373967       -10.1762
 245   2.0000      -0.373202       -10.1554
 246   2.0000      -0.371321       -10.1041
 247   2.0000      -0.368947       -10.0396
 248   2.0000      -0.367196        -9.9919
 249   2.0000      -0.363437        -9.8896
 250   2.0000      -0.352630        -9.5956
 251   2.0000      -0.346282        -9.4228
 252   2.0000      -0.342396        -9.3171
 253   2.0000      -0.329480        -8.9656
 254   2.0000      -0.325616        -8.8605
 255   2.0000      -0.323754        -8.8098
 256   2.0000      -0.313334        -8.5262
 257   2.0000      -0.306771        -8.3477
 258   2.0000      -0.291309        -7.9269
 259   2.0000      -0.285973        -7.7817
 260   2.0000      -0.281015        -7.6468
 261   2.0000      -0.275828        -7.5057
 262   2.0000      -0.236778        -6.4431
 263   2.0000      -0.230666        -6.2767
 264   0.0000      -0.111075        -3.0225
 265   0.0000      -0.069058        -1.8792
 266   0.0000      -0.067974        -1.8497
 267   0.0000      -0.054750        -1.4898
 268   0.0000      -0.042456        -1.1553

MULLIKEN ATOMIC CHARGES
-----------------------
   0 C :    0.333077
   1 C :   -0.367241
   2 C :   -0.203525
   3 N :    0.147346
   4 C :   -0.130257
   5 N :    0.084487
   6 C :    0.010685
   7 C :   -0.008101
   8 C :   -0.075968
   9 C :    0.116868
  10 C :   -0.091754
  11 C :   -0.023879
  12 S :    0.180896
  13 C :   -0.123891
  14 C :    0.037549
  15 Br:    0.017063
  16 C :    0.139725
  17 O :   -0.166282
  18 C :   -0.094951
  19 C :   -0.033974
  20 C :   -0.032472
  21 C :    0.009195
  22 C :    0.022852
  23 C :    0.042615
  24 C :   -0.059445
  25 S :    0.112371
  26 C :   -0.030142
  27 C :    0.019661
  28 C :    0.054679
  29 C :   -0.054655
  30 S :    0.092708
  31 C :    0.042964
  32 N :   -0.024719
  33 C :   -0.123542
  34 S :    0.151374
  35 C :   -0.009851
  36 N :    0.279259
  37 O :   -0.258404
  38 O :   -0.268634
  39 C :    0.022426
  40 C :    0.078316
  41 C :    0.036647
  42 C :   -0.048955
  43 C :   -0.142067
  44 C :    0.185015
  45 O :   -0.247059
  46 C :    0.221224
  47 C :   -0.154173
  48 S :    0.127799
  49 C :   -0.109235
  50 C :   -0.036025
  51 S :    0.096557
  52 C :   -0.058657
  53 C :    0.113169
  54 C :   -0.270818
  55 S :    0.158274
  56 C :   -0.124345
  57 C :    0.122707
  58 C :    0.211547
  59 O :   -0.190581
  60 C :    0.244860
  61 N :    0.272244
  62 O :   -0.246991
  63 O :   -0.226728
  64 C :   -0.071322
  65 H :   -0.015270
  66 H :   -0.008691
  67 H :   -0.005296
  68 H :    0.011237
  69 H :    0.017953
  70 H :    0.002002
  71 H :   -0.005111
  72 H :   -0.004026
  73 H :    0.001361
  74 H :    0.035344
  75 H :    0.154201
  76 H :    0.013685
  77 H :    0.018929
  78 H :    0.003584
  79 H :    0.018489
  80 H :    0.007956
  81 H :    0.029540
  82 H :   -0.010968
  83 H :    0.041119
  84 H :    0.016443
Sum of atomic charges:   -0.0000000

LOEWDIN ATOMIC CHARGES
----------------------
   0 C :    0.077559
   1 C :   -0.164627
   2 C :   -0.021937
   3 N :   -0.068281
   4 C :    0.000522
   5 N :   -0.077453
   6 C :   -0.019420
   7 C :   -0.047755
   8 C :    0.017720
   9 C :   -0.034977
  10 C :   -0.146104
  11 C :   -0.012426
  12 S :    0.428840
  13 C :   -0.274077
  14 C :   -0.071205
  15 Br:    0.131614
  16 C :    0.082764
  17 O :   -0.157716
  18 C :   -0.112051
  19 C :    0.050587
  20 C :   -0.077753
  21 C :   -0.101051
  22 C :   -0.044412
  23 C :   -0.006119
  24 C :   -0.200924
  25 S :    0.407730
  26 C :   -0.139712
  27 C :   -0.046936
  28 C :   -0.005688
  29 C :   -0.195255
  30 S :    0.377928
  31 C :    0.020238
  32 N :    0.059144
  33 C :   -0.103686
  34 S :    0.451992
  35 C :   -0.214593
  36 N :    0.274946
  37 O :   -0.224705
  38 O :   -0.234861
  39 C :    0.005315
  40 C :   -0.099451
  41 C :   -0.014496
  42 C :   -0.049410
  43 C :   -0.210011
  44 C :    0.034131
  45 O :   -0.047266
  46 C :   -0.005590
  47 C :   -0.212201
  48 S :    0.448512
  49 C :   -0.192951
  50 C :   -0.223882
  51 S :    0.348107
  52 C :   -0.030293
  53 C :   -0.028766
  54 C :   -0.211595
  55 S :    0.485223
  56 C :   -0.174888
  57 C :   -0.081822
  58 C :    0.021321
  59 O :   -0.000155
  60 C :    0.027774
  61 N :    0.271505
  62 O :   -0.207522
  63 O :   -0.189409
  64 C :   -0.004915
  65 H :    0.038972
  66 H :    0.040255
  67 H :    0.037792
  68 H :    0.031453
  69 H :    0.038851
  70 H :    0.039426
  71 H :    0.035141
  72 H :    0.035919
  73 H :    0.039189
  74 H :    0.035504
  75 H :    0.092201
  76 H :    0.045832
  77 H :    0.039626
  78 H :    0.016432
  79 H :    0.026841
  80 H :    0.020106
  81 H :    0.038199
  82 H :    0.030785
  83 H :    0.033298
  84 H :    0.049053

  Mayer bond orders larger than 0.100000
B(  0-C ,  1-C ) :   1.5638 B(  0-C ,  6-C ) :   0.9911 B(  0-C , 18-C ) :   1.1231
B(  1-C ,  2-C ) :   1.1443 B(  1-C ,  4-C ) :   1.1763 B(  2-C ,  3-N ) :   2.9716
B(  4-C ,  5-N ) :   2.8256 B(  6-C ,  7-C ) :   1.2778 B(  6-C , 11-C ) :   1.4220
B(  7-C ,  8-C ) :   1.4335 B(  7-C , 16-C ) :   0.9359 B(  8-C ,  9-C ) :   1.2386
B(  8-C , 65-H ) :   1.0161 B(  9-C , 10-C ) :   1.3172 B(  9-C , 14-C ) :   1.1608
B( 10-C , 11-C ) :   1.3206 B( 10-C , 12-S ) :   1.0826 B( 11-C , 66-H ) :   0.9790
B( 12-S , 13-C ) :   1.0869 B( 13-C , 14-C ) :   1.6184 B( 13-C , 15-Br) :   1.0157
B( 14-C , 67-H ) :   1.0003 B( 16-C , 17-O ) :   2.1811 B( 16-C , 18-C ) :   0.9670
B( 18-C , 19-C ) :   1.4634 B( 19-C , 20-C ) :   1.2745 B( 19-C , 68-H ) :   0.9462
B( 20-C , 21-C ) :   1.4068 B( 20-C , 69-H ) :   0.9755 B( 21-C , 22-C ) :   1.1836
B( 21-C , 25-S ) :   1.0895 B( 22-C , 23-C ) :   1.5394 B( 22-C , 70-H ) :   1.0023
B( 23-C , 24-C ) :   1.2157 B( 23-C , 71-H ) :   0.9948 B( 24-C , 25-S ) :   1.0386
B( 24-C , 26-C ) :   1.4753 B( 26-C , 27-C ) :   1.1967 B( 26-C , 30-S ) :   1.0832
B( 27-C , 28-C ) :   1.5945 B( 27-C , 72-H ) :   0.9933 B( 28-C , 29-C ) :   1.1625
B( 28-C , 73-H ) :   0.9955 B( 29-C , 30-S ) :   1.0065 B( 29-C , 31-C ) :   1.5809
B( 31-C , 32-N ) :   1.1829 B( 31-C , 74-H ) :   0.9588 B( 32-N , 33-C ) :   1.2123
B( 32-N , 75-H ) :   0.8953 B( 33-C , 34-S ) :   1.1322 B( 33-C , 40-C ) :   1.3825
B( 34-S , 35-C ) :   1.0692 B( 35-C , 36-N ) :   0.9854 B( 35-C , 39-C ) :   1.4711
B( 36-N , 37-O ) :   1.5256 B( 36-N , 38-O ) :   1.5038 B( 37-O , 38-O ) :   0.2534
B( 39-C , 40-C ) :   1.2444 B( 39-C , 76-H ) :   1.0055 B( 40-C , 41-C ) :   1.0732
B( 41-C , 42-C ) :   1.8284 B( 41-C , 77-H ) :   0.9382 B( 42-C , 43-C ) :   1.0262
B( 42-C , 78-H ) :   0.9343 B( 43-C , 44-C ) :   1.7052 B( 43-C , 51-S ) :   0.9682
B( 44-C , 45-O ) :   1.0692 B( 44-C , 52-C ) :   1.0618 B( 45-O , 46-C ) :   1.0535
B( 46-C , 47-C ) :   1.5982 B( 46-C , 50-C ) :   1.2287 B( 47-C , 48-S ) :   1.1465
B( 47-C , 79-H ) :   0.9660 B( 48-S , 49-C ) :   1.1802 B( 49-C , 50-C ) :   1.5941
B( 49-C , 80-H ) :   0.9506 B( 50-C , 51-S ) :   0.9651 B( 52-C , 53-C ) :   1.7673
B( 52-C , 81-H ) :   0.9459 B( 53-C , 54-C ) :   1.1286 B( 53-C , 82-H ) :   0.9408
B( 54-C , 55-S ) :   1.1379 B( 54-C , 56-C ) :   0.1117 B( 54-C , 58-C ) :   1.4590
B( 55-S , 56-C ) :   1.1961 B( 56-C , 57-C ) :   1.4358 B( 56-C , 83-H ) :   0.9743
B( 57-C , 58-C ) :   1.2223 B( 57-C , 64-C ) :   1.0543 B( 58-C , 59-O ) :   1.1068
B( 59-O , 60-C ) :   1.1117 B( 60-C , 61-N ) :   0.9132 B( 60-C , 64-C ) :   1.5848
B( 61-N , 62-O ) :   1.5348 B( 61-N , 63-O ) :   1.5159 B( 62-O , 63-O ) :   0.2817
B( 64-C , 84-H ) :   1.0248

-----------------------------------------------------------------------------
         ABSORPTION SPECTRUM VIA TRANSITION ELECTRIC DIPOLE MOMENTS
-----------------------------------------------------------------------------
State   Energy  Wavelength   fosc         T2         TX        TY        TZ
        (cm-1)    (nm)                  (au**2)     (au)      (au)      (au)
-----------------------------------------------------------------------------
   0   11999.7    833.4   1.178766381  32.33941   3.19203   0.59899   4.66814
   1   14123.8    708.0   0.202607058   4.72258  -1.43499   0.42720  -1.57508
   2   20738.7    482.2   0.167373804   2.65694  -0.47428  -1.24649  -0.93715
   3   21354.8    468.3   0.285010465   4.39381   0.74441  -1.65228  -1.05339
   4   22121.9    452.0   0.026177709   0.38957   0.28812   0.03086   0.55282
   5   23149.7    432.0   0.174266509   2.47825   0.66800  -1.25383  -0.67818
   6   23763.8    420.8   0.013649553   0.18909   0.03640  -0.43328   0.00625
   7   24176.4    413.6   0.288344736   3.92642  -0.69104   1.68055   0.79033
   8   25144.0    397.7   0.094870764   1.24215  -0.37440  -0.27713  -1.01251
   9   25482.2    392.4   0.127107493   1.64214   0.49097   0.47942   1.08224
  10   25691.2    389.2   0.051108391   0.65491   0.48718  -0.09146   0.63969
  11   26176.3    382.0   0.143881284   1.80955   1.07548  -0.79449   0.14719
  12   26869.6    372.2   0.021883080   0.26812  -0.32761  -0.03719  -0.39925
  13   27154.0    368.3   0.000291687   0.00354  -0.03072   0.04466   0.02446
  14   28518.8    350.6   0.020941452   0.24174   0.31200  -0.32069   0.20385
  15   28772.7    347.6   0.020889725   0.23902   0.01275  -0.48248   0.07790
  16   29008.0    344.7   0.061752719   0.70083  -0.78205   0.29145  -0.06545
  17   29394.2    340.2   0.017423440   0.19514   0.13289   0.00486   0.42126
  18   30846.0    324.2   0.108656978   1.15967  -0.69478  -0.19336  -0.79973
  19   31103.5    321.5   0.061308179   0.64891  -0.08530  -0.45859  -0.65676
  20   31575.1    316.7   0.000804955   0.00839  -0.00021   0.07855   0.04714
  21   31592.7    316.5   0.105004359   1.09420  -0.80154   0.43952  -0.50848
  22   31933.8    313.1   0.014071685   0.14507  -0.03259  -0.09308  -0.36789
  23   32100.8    311.5   0.047115765   0.48320  -0.09727   0.59705   0.34245
  24   32306.5    309.5   0.483746853   4.92950   1.21317   0.53704   1.78025
  25   32387.9    308.8   0.191332391   1.94483  -0.92063  -0.00954  -1.04746
  26   32831.9    304.6   0.004143109   0.04154  -0.04651  -0.11923  -0.15863
  27   32868.9    304.2   0.000129635   0.00130  -0.03389  -0.00791   0.00934
  28   33312.9    300.2   0.048401128   0.47832   0.16296   0.33889   0.58045
  29   33448.2    299.0   0.166348900   1.63728   0.64157   0.16992   1.09398
  30   34195.8    292.4   0.018032066   0.17360  -0.26355   0.22899  -0.22738
  31   34997.4    285.7   0.018588046   0.17485   0.01423  -0.08202  -0.40978
  32   35227.4    283.9   0.214100165   2.00084   0.52095   0.55349   1.19293
  33   35667.8    280.4   0.036522261   0.33710   0.53732  -0.19082   0.10940
  34   35680.7    280.3   0.107649370   0.99324  -0.52309  -0.19805  -0.82486
  35   35897.3    278.6   0.027525827   0.25244   0.33724  -0.21467   0.30434
  36   36586.2    273.3   0.100425313   0.90365  -0.17977  -0.31748  -0.87781
  37   36625.8    273.0   0.092796675   0.83410   0.53939  -0.29414   0.67575
  38   36853.5    271.3   0.108402652   0.96836   0.54175  -0.81284  -0.11898
  39   37277.6    268.3   0.006922472   0.06113  -0.17690   0.17129   0.02238
  40   37650.5    265.6   0.123862437   1.08304   0.57712   0.12147   0.85745
  41   38056.7    262.8   0.479781191   4.15038  -1.70514   0.86175   0.70730
  42   38224.2    261.6   0.013444967   0.11580  -0.30141   0.02531   0.15591
  43   38330.2    260.9   0.010443968   0.08970   0.06041  -0.16710  -0.24110
  44   38396.5    260.4   0.061748843   0.52944   0.24932  -0.51374  -0.45094
  45   38880.4    257.2   0.168506322   1.42679   0.67065  -0.92647  -0.34450
  46   39284.3    254.6   0.126284922   1.05830   0.68318  -0.19782   0.74326
  47   39709.3    251.8   0.069160157   0.57338  -0.11507   0.21203   0.71776
  48   39818.2    251.1   0.087726883   0.72531   0.55095  -0.59917  -0.25054
  49   40170.6    248.9   0.006384428   0.05232  -0.14858   0.13456  -0.11018
  50   40289.1    248.2   0.020324845   0.16608   0.29953   0.07150   0.26693

FINAL SINGLE POINT ENERGY     -7884.124935335564

DIPOLE MOMENT
-------------
                                X             Y             Z
Electronic contribution:     95.00956      13.50342     116.09698
Nuclear contribution   :    -98.33544     -10.39228    -115.41657
                        -----------------------------------------
Total Dipole Moment    :     -3.32588       3.11115       0.68041
                        -----------------------------------------
Magnitude (a.u.)       :      4.60475
Magnitude (Debye)      :     11.70434

Rotational constants in cm-1:     0.001415     0.000292     0.000245
Rotational constants in MHz :    42.430954     8.743974     7.344936

                             ****ORCA TERMINATED NORMALLY****
TOTAL RUN TIME: 0 days 0 hours 8 minutes 47 seconds 453 msec
