                         Program Version 4.2.0 -  RELEASE  -
|  1> # ORCA input file
|  2> # SCF done       -175.048466652482          0.000468785487
|  3> ! CAM-B3LYP def2-SVP def2/J RIJCOSX Grid4 TightSCF
|  4> %maxcore 5000
|  5> %tddft
|  6>     Mode sTDDFT
|  7>     Ethresh 5.0
|  8>     maxcore 5000
|  9> end
| 10>
| 11> %pal
| 12>   nprocs 6
| 13>   end
| 14> * xyz 0 1
| 15>    C       -1.10088        -0.87879        -2.69625
| 16>    S       -1.16609         0.81904        -2.91179
| 17>    C        0.47880         0.82732        -3.45489
| 18>    C        1.36676         1.82538        -3.87657
| 19>    C        2.59103         1.30460        -4.20340
| 20>    C        3.74019         2.09395        -4.67688
| 21>    O        3.67418         3.28502        -4.81453
| 22>    O        4.86942         1.42072        -4.94815
| 23>    S        2.65098        -0.43405        -3.99161
| 24>    C        1.01518        -0.45745        -3.45727
| 25>    C        0.10794        -1.46278        -3.01616
| 26>    C        0.37738        -2.86513        -2.90066
| 27>    C       -0.47221        -3.83250        -2.41988
| 28>    C        0.17566        -5.09720        -2.48077
| 29>    C        1.52149        -4.84315        -3.02929
| 30>    C        1.62847        -3.51006        -3.26941
| 31>    C        2.55859        -5.76936        -3.19100
| 32>    N        3.45379        -6.48047        -3.29993
| 33>    C       -0.33173        -6.31856        -2.09410
| 34>    C        0.27112        -7.59488        -2.23968
| 35>    C       -0.53193        -8.55113        -1.63988
| 36>    C       -1.70383        -7.87324        -1.10953
| 37>    C       -1.60873        -6.54763        -1.39863
| 38>    C       -2.56958        -5.58931        -1.06001
| 39>    N       -3.37989        -4.82871        -0.76785
| 40>    C       -0.21130        -9.93155        -1.60876
| 41>    N       -0.68109       -10.87858        -0.73480
| 42>    C       -1.58982       -10.70520         0.37416
| 43>    C       -3.02853       -11.02356        -0.02630
| 44>    C       -0.11843       -12.14495        -0.97980
| 45>    O       -0.37053       -13.12501        -0.30745
| 46>    C        0.75025       -11.94181        -2.11820
| 47>    C        0.68433       -10.58077        -2.47051
| 48>    C        1.50270       -10.38144        -3.65389
| 49>    O        1.72304        -9.40886        -4.33844
| 50>    N        2.03215       -11.65960        -3.92232
| 51>    C        2.96513       -11.86319        -5.00561
| 52>    C        4.40797       -11.90118        -4.50979
| 53>    C        1.60336       -12.60044        -3.02140
| 54>    C        1.96687       -13.96001        -3.06040
| 55>    C        1.52263       -14.86131        -2.13313
| 56>    C        1.83955       -16.23604        -2.12907
| 57>    C        2.61546       -16.96977        -3.01107
| 58>    C        2.63020       -18.32859        -2.60298
| 59>    C        1.80383       -18.40116        -1.38173
| 60>    C        1.34203       -17.15362        -1.11284
| 61>    C        1.53350       -19.54148        -0.61649
| 62>    N        1.29323       -20.45731         0.03396
| 63>    C        3.27250       -19.38510        -3.21511
| 64>    C        3.27044       -20.74854        -2.81834
| 65>    C        4.03175       -21.48088        -3.70240
| 66>    C        4.55142       -20.57017        -4.70986
| 67>    C        4.10431       -19.31653        -4.43172
| 68>    C        4.39698       -18.17370        -5.18200
| 69>    N        4.65084       -17.24849        -5.81498
| 70>    C        4.27603       -22.87847        -3.65708
| 71>    S        3.55041       -23.84656        -2.38406
| 72>    C        4.28773       -25.26995        -3.01766
| 73>    C        4.29714       -26.62153        -2.66080
| 74>    C        5.06552       -27.36867        -3.51887
| 75>    C        5.27233       -28.82153        -3.40516
| 76>    O        4.76238       -29.46682        -2.52996
| 77>    O        6.05881       -29.39640        -4.32959
| 78>    S        5.79228       -26.40181        -4.79074
| 79>    C        5.05181       -24.97903        -4.15629
| 80>    C        5.04735       -23.63330        -4.52044
| 81>    H       -1.97519        -1.38444        -2.33655
| 82>    H        1.14413         2.87382        -3.94333
| 83>    H        4.79862         0.46836        -4.79792
| 84>    H       -1.47259        -3.68293        -2.06770
| 85>    H        2.49302        -3.00728        -3.66092
| 86>    H        1.20076        -7.78149        -2.73940
| 87>    H       -2.53951        -8.33525        -0.62086
| 88>    H       -1.49109        -9.69016         0.76324
| 89>    H       -1.27414       -11.41112         1.14856
| 90>    H       -3.34766       -10.41819        -0.87229
| 91>    H       -3.69521       -10.83933         0.81161
| 92>    H       -3.10536       -12.07076        -0.30776
| 93>    H        2.83241       -11.01368        -5.68114
| 94>    H        2.71067       -12.78275        -5.53926
| 95>    H        4.65933       -10.95984        -4.02741
| 96>    H        5.07915       -12.05119        -5.35044
| 97>    H        4.55563       -12.70929        -3.79662
| 98>    H        2.61819       -14.28915        -3.85672
| 99>    H        0.87659       -14.51606        -1.33644
|100>    H        3.12714       -16.59351        -3.87424
|101>    H        0.71209       -16.86232        -0.29284
|102>    H        2.75429       -21.14170        -1.96457
|103>    H        5.18091       -20.84898        -5.53373
|104>    H        3.77874       -27.05306        -1.82493
|105>    H        6.40923       -28.77197        -4.97919
|106>    H        5.57667       -23.23084        -5.36361
|107> *
|108>
|109>                          ****END OF INPUT****

CARTESIAN COORDINATES (ANGSTROEM)
---------------------------------
  C     -1.100880   -0.878790   -2.696250
  S     -1.166090    0.819040   -2.911790
  C      0.478800    0.827320   -3.454890
  C      1.366760    1.825380   -3.876570
  C      2.591030    1.304600   -4.203400
  C      3.740190    2.093950   -4.676880
  O      3.674180    3.285020   -4.814530
  O      4.869420    1.420720   -4.948150
  S      2.650980   -0.434050   -3.991610
  C      1.015180   -0.457450   -3.457270
  C      0.107940   -1.462780   -3.016160
  C      0.377380   -2.865130   -2.900660
  C     -0.472210   -3.832500   -2.419880
  C      0.175660   -5.097200   -2.480770
  C      1.521490   -4.843150   -3.029290
  C      1.628470   -3.510060   -3.269410
  C      2.558590   -5.769360   -3.191000
  N      3.453790   -6.480470   -3.299930
  C     -0.331730   -6.318560   -2.094100
  C      0.271120   -7.594880   -2.239680
  C     -0.531930   -8.551130   -1.639880
  C     -1.703830   -7.873240   -1.109530
  C     -1.608730   -6.547630   -1.398630
  C     -2.569580   -5.589310   -1.060010
  N     -3.379890   -4.828710   -0.767850
  C     -0.211300   -9.931550   -1.608760
  N     -0.681090  -10.878580   -0.734800
  C     -1.589820  -10.705200    0.374160
  C     -3.028530  -11.023560   -0.026300
  C     -0.118430  -12.144950   -0.979800
  O     -0.370530  -13.125010   -0.307450
  C      0.750250  -11.941810   -2.118200
  C      0.684330  -10.580770   -2.470510
  C      1.502700  -10.381440   -3.653890
  O      1.723040   -9.408860   -4.338440
  N      2.032150  -11.659600   -3.922320
  C      2.965130  -11.863190   -5.005610
  C      4.407970  -11.901180   -4.509790
  C      1.603360  -12.600440   -3.021400
  C      1.966870  -13.960010   -3.060400
  C      1.522630  -14.861310   -2.133130
  C      1.839550  -16.236040   -2.129070
  C      2.615460  -16.969770   -3.011070
  C      2.630200  -18.328590   -2.602980
  C      1.803830  -18.401160   -1.381730
  C      1.342030  -17.153620   -1.112840
  C      1.533500  -19.541480   -0.616490
  N      1.293230  -20.457310    0.033960
  C      3.272500  -19.385100   -3.215110
  C      3.270440  -20.748540   -2.818340
  C      4.031750  -21.480880   -3.702400
  C      4.551420  -20.570170   -4.709860
  C      4.104310  -19.316530   -4.431720
  C      4.396980  -18.173700   -5.182000
  N      4.650840  -17.248490   -5.814980
  C      4.276030  -22.878470   -3.657080
  S      3.550410  -23.846560   -2.384060
  C      4.287730  -25.269950   -3.017660
  C      4.297140  -26.621530   -2.660800
  C      5.065520  -27.368670   -3.518870
  C      5.272330  -28.821530   -3.405160
  O      4.762380  -29.466820   -2.529960
  O      6.058810  -29.396400   -4.329590
  S      5.792280  -26.401810   -4.790740
  C      5.051810  -24.979030   -4.156290
  C      5.047350  -23.633300   -4.520440
  H     -1.975190   -1.384440   -2.336550
  H      1.144130    2.873820   -3.943330
  H      4.798620    0.468360   -4.797920
  H     -1.472590   -3.682930   -2.067700
  H      2.493020   -3.007280   -3.660920
  H      1.200760   -7.781490   -2.739400
  H     -2.539510   -8.335250   -0.620860
  H     -1.491090   -9.690160    0.763240
  H     -1.274140  -11.411120    1.148560
  H     -3.347660  -10.418190   -0.872290
  H     -3.695210  -10.839330    0.811610
  H     -3.105360  -12.070760   -0.307760
  H      2.832410  -11.013680   -5.681140
  H      2.710670  -12.782750   -5.539260
  H      4.659330  -10.959840   -4.027410
  H      5.079150  -12.051190   -5.350440
  H      4.555630  -12.709290   -3.796620
  H      2.618190  -14.289150   -3.856720
  H      0.876590  -14.516060   -1.336440
  H      3.127140  -16.593510   -3.874240
  H      0.712090  -16.862320   -0.292840
  H      2.754290  -21.141700   -1.964570
  H      5.180910  -20.848980   -5.533730
  H      3.778740  -27.053060   -1.824930
  H      6.409230  -28.771970   -4.979190
  H      5.576670  -23.230840   -5.363610

 Total Charge           Charge          ....    0
 Multiplicity           Mult            ....    1
 Number of Electrons    NEL             ....  480
 Basis Dimension        Dim             .... 1070

ORBITAL ENERGIES
----------------

  NO   OCC          E(Eh)            E(eV)
   0   2.0000     -88.987698     -2421.4784
   1   2.0000     -88.985835     -2421.4277
   2   2.0000     -88.983857     -2421.3739
   3   2.0000     -88.978932     -2421.2398
   4   2.0000     -19.267178      -524.2866
   5   2.0000     -19.266474      -524.2674
   6   2.0000     -19.204733      -522.5873
   7   2.0000     -19.201764      -522.5066
   8   2.0000     -19.201383      -522.4962
   9   2.0000     -19.200224      -522.4646
  10   2.0000     -14.467960      -393.6932
  11   2.0000     -14.463688      -393.5770
  12   2.0000     -14.420071      -392.3901
  13   2.0000     -14.416594      -392.2955
  14   2.0000     -14.412441      -392.1825
  15   2.0000     -14.409434      -392.1006
  16   2.0000     -10.412386      -283.3354
  17   2.0000     -10.411760      -283.3184
  18   2.0000     -10.386235      -282.6238
  19   2.0000     -10.384715      -282.5825
  20   2.0000     -10.353875      -281.7433
  21   2.0000     -10.352959      -281.7183
  22   2.0000     -10.334141      -281.2063
  23   2.0000     -10.331660      -281.1387
  24   2.0000     -10.330984      -281.1204
  25   2.0000     -10.329549      -281.0813
  26   2.0000     -10.328653      -281.0569
  27   2.0000     -10.327981      -281.0387
  28   2.0000     -10.327111      -281.0150
  29   2.0000     -10.326782      -281.0060
  30   2.0000     -10.324848      -280.9534
  31   2.0000     -10.324514      -280.9443
  32   2.0000     -10.323631      -280.9203
  33   2.0000     -10.322720      -280.8955
  34   2.0000     -10.322324      -280.8847
  35   2.0000     -10.322212      -280.8817
  36   2.0000     -10.321937      -280.8742
  37   2.0000     -10.321471      -280.8615
  38   2.0000     -10.320692      -280.8403
  39   2.0000     -10.320673      -280.8398
  40   2.0000     -10.319856      -280.8176
  41   2.0000     -10.318977      -280.7936
  42   2.0000     -10.318871      -280.7908
  43   2.0000     -10.318713      -280.7864
  44   2.0000     -10.315751      -280.7059
  45   2.0000     -10.315561      -280.7007
  46   2.0000     -10.315136      -280.6891
  47   2.0000     -10.314584      -280.6741
  48   2.0000     -10.313816      -280.6532
  49   2.0000     -10.313233      -280.6373
  50   2.0000     -10.312310      -280.6122
  51   2.0000     -10.311800      -280.5983
  52   2.0000     -10.310481      -280.5625
  53   2.0000     -10.308219      -280.5009
  54   2.0000     -10.308187      -280.5000
  55   2.0000     -10.307402      -280.4787
  56   2.0000     -10.306417      -280.4519
  57   2.0000     -10.304285      -280.3938
  58   2.0000     -10.293081      -280.0890
  59   2.0000     -10.291866      -280.0559
  60   2.0000     -10.291474      -280.0452
  61   2.0000     -10.287423      -279.9350
  62   2.0000     -10.277123      -279.6547
  63   2.0000     -10.275618      -279.6138
  64   2.0000     -10.273599      -279.5588
  65   2.0000     -10.265696      -279.3438
  66   2.0000      -8.082660      -219.9404
  67   2.0000      -8.081354      -219.9048
  68   2.0000      -8.079509      -219.8546
  69   2.0000      -8.074097      -219.7074
  70   2.0000      -6.052167      -164.6878
  71   2.0000      -6.050849      -164.6520
  72   2.0000      -6.048868      -164.5981
  73   2.0000      -6.048150      -164.5785
  74   2.0000      -6.046859      -164.5434
  75   2.0000      -6.044627      -164.4827
  76   2.0000      -6.044394      -164.4763
  77   2.0000      -6.043614      -164.4551
  78   2.0000      -6.042969      -164.4376
  79   2.0000      -6.041524      -164.3982
  80   2.0000      -6.039540      -164.3442
  81   2.0000      -6.035655      -164.2385
  82   2.0000      -1.189257       -32.3613
  83   2.0000      -1.188511       -32.3410
  84   2.0000      -1.146757       -31.2048
  85   2.0000      -1.139691       -31.0126
  86   2.0000      -1.102190       -29.9921
  87   2.0000      -1.101361       -29.9696
  88   2.0000      -1.076738       -29.2995
  89   2.0000      -1.068108       -29.0647
  90   2.0000      -1.033464       -28.1220
  91   2.0000      -1.032748       -28.1025
  92   2.0000      -1.023053       -27.8387
  93   2.0000      -1.021203       -27.7884
  94   2.0000      -1.007827       -27.4244
  95   2.0000      -1.005534       -27.3620
  96   2.0000      -0.995404       -27.0863
  97   2.0000      -0.990746       -26.9596
  98   2.0000      -0.988281       -26.8925
  99   2.0000      -0.985335       -26.8123
 100   2.0000      -0.965184       -26.2640
 101   2.0000      -0.963934       -26.2300
 102   2.0000      -0.940255       -25.5856
 103   2.0000      -0.922844       -25.1119
 104   2.0000      -0.903770       -24.5928
 105   2.0000      -0.891052       -24.2468
 106   2.0000      -0.886807       -24.1313
 107   2.0000      -0.880568       -23.9615
 108   2.0000      -0.877306       -23.8727
 109   2.0000      -0.867840       -23.6151
 110   2.0000      -0.862649       -23.4739
 111   2.0000      -0.855625       -23.2827
 112   2.0000      -0.853179       -23.2162
 113   2.0000      -0.833424       -22.6786
 114   2.0000      -0.833069       -22.6689
 115   2.0000      -0.829974       -22.5847
 116   2.0000      -0.826105       -22.4795
 117   2.0000      -0.823154       -22.3992
 118   2.0000      -0.810655       -22.0590
 119   2.0000      -0.803080       -21.8529
 120   2.0000      -0.781273       -21.2595
 121   2.0000      -0.771483       -20.9931
 122   2.0000      -0.769066       -20.9274
 123   2.0000      -0.751765       -20.4566
 124   2.0000      -0.743744       -20.2383
 125   2.0000      -0.729367       -19.8471
 126   2.0000      -0.725885       -19.7523
 127   2.0000      -0.719857       -19.5883
 128   2.0000      -0.717198       -19.5159
 129   2.0000      -0.713747       -19.4220
 130   2.0000      -0.711384       -19.3577
 131   2.0000      -0.703373       -19.1398
 132   2.0000      -0.697014       -18.9667
 133   2.0000      -0.689316       -18.7572
 134   2.0000      -0.684691       -18.6314
 135   2.0000      -0.681615       -18.5477
 136   2.0000      -0.675717       -18.3872
 137   2.0000      -0.660991       -17.9865
 138   2.0000      -0.656071       -17.8526
 139   2.0000      -0.651741       -17.7348
 140   2.0000      -0.649782       -17.6815
 141   2.0000      -0.647260       -17.6128
 142   2.0000      -0.643018       -17.4974
 143   2.0000      -0.632508       -17.2114
 144   2.0000      -0.626925       -17.0595
 145   2.0000      -0.611617       -16.6429
 146   2.0000      -0.607206       -16.5229
 147   2.0000      -0.601177       -16.3589
 148   2.0000      -0.598834       -16.2951
 149   2.0000      -0.586851       -15.9690
 150   2.0000      -0.584288       -15.8993
 151   2.0000      -0.580014       -15.7830
 152   2.0000      -0.575988       -15.6734
 153   2.0000      -0.573612       -15.6088
 154   2.0000      -0.569564       -15.4986
 155   2.0000      -0.562006       -15.2930
 156   2.0000      -0.550999       -14.9934
 157   2.0000      -0.547210       -14.8903
 158   2.0000      -0.546994       -14.8845
 159   2.0000      -0.546786       -14.8788
 160   2.0000      -0.543509       -14.7896
 161   2.0000      -0.540660       -14.7121
 162   2.0000      -0.539008       -14.6672
 163   2.0000      -0.534882       -14.5549
 164   2.0000      -0.533370       -14.5137
 165   2.0000      -0.532043       -14.4776
 166   2.0000      -0.529620       -14.4117
 167   2.0000      -0.528168       -14.3722
 168   2.0000      -0.525697       -14.3049
 169   2.0000      -0.522323       -14.2131
 170   2.0000      -0.521304       -14.1854
 171   2.0000      -0.518832       -14.1181
 172   2.0000      -0.517036       -14.0693
 173   2.0000      -0.516895       -14.0654
 174   2.0000      -0.514975       -14.0132
 175   2.0000      -0.513141       -13.9633
 176   2.0000      -0.510402       -13.8887
 177   2.0000      -0.508183       -13.8284
 178   2.0000      -0.507327       -13.8051
 179   2.0000      -0.502441       -13.6721
 180   2.0000      -0.499557       -13.5936
 181   2.0000      -0.495561       -13.4849
 182   2.0000      -0.492523       -13.4022
 183   2.0000      -0.491607       -13.3773
 184   2.0000      -0.489908       -13.3311
 185   2.0000      -0.485963       -13.2237
 186   2.0000      -0.482493       -13.1293
 187   2.0000      -0.479152       -13.0384
 188   2.0000      -0.476935       -12.9781
 189   2.0000      -0.474965       -12.9245
 190   2.0000      -0.473537       -12.8856
 191   2.0000      -0.468607       -12.7514
 192   2.0000      -0.467530       -12.7221
 193   2.0000      -0.465626       -12.6703
 194   2.0000      -0.463572       -12.6144
 195   2.0000      -0.462045       -12.5729
 196   2.0000      -0.460873       -12.5410
 197   2.0000      -0.457208       -12.4413
 198   2.0000      -0.456448       -12.4206
 199   2.0000      -0.453386       -12.3373
 200   2.0000      -0.452115       -12.3027
 201   2.0000      -0.449462       -12.2305
 202   2.0000      -0.447727       -12.1833
 203   2.0000      -0.446475       -12.1492
 204   2.0000      -0.444666       -12.1000
 205   2.0000      -0.442086       -12.0298
 206   2.0000      -0.439638       -11.9631
 207   2.0000      -0.438635       -11.9359
 208   2.0000      -0.435618       -11.8538
 209   2.0000      -0.434323       -11.8185
 210   2.0000      -0.432573       -11.7709
 211   2.0000      -0.430512       -11.7148
 212   2.0000      -0.429573       -11.6893
 213   2.0000      -0.424172       -11.5423
 214   2.0000      -0.423663       -11.5284
 215   2.0000      -0.421047       -11.4573
 216   2.0000      -0.415710       -11.3120
 217   2.0000      -0.403839       -10.9890
 218   2.0000      -0.401935       -10.9372
 219   2.0000      -0.399394       -10.8681
 220   2.0000      -0.398575       -10.8458
 221   2.0000      -0.388026       -10.5587
 222   2.0000      -0.384491       -10.4625
 223   2.0000      -0.376528       -10.2458
 224   2.0000      -0.359834        -9.7916
 225   2.0000      -0.357949        -9.7403
 226   2.0000      -0.356980        -9.7139
 227   2.0000      -0.345089        -9.3904
 228   2.0000      -0.344640        -9.3781
 229   2.0000      -0.343635        -9.3508
 230   2.0000      -0.332910        -9.0589
 231   2.0000      -0.329108        -8.9555
 232   2.0000      -0.328482        -8.9384
 233   2.0000      -0.318991        -8.6802
 234   2.0000      -0.317981        -8.6527
 235   2.0000      -0.315611        -8.5882
 236   2.0000      -0.307419        -8.3653
 237   2.0000      -0.285519        -7.7694
 238   2.0000      -0.280025        -7.6199
 239   2.0000      -0.242269        -6.5925
 240   0.0000      -0.143969        -3.9176
 241   0.0000      -0.126987        -3.4555
 242   0.0000      -0.068515        -1.8644
 243   0.0000      -0.047594        -1.2951
 244   0.0000      -0.043367        -1.1801

MULLIKEN ATOMIC CHARGES
-----------------------
   0 C :   -0.122810
   1 S :    0.182496
   2 C :   -0.036832
   3 C :   -0.004398
   4 C :   -0.157685
   5 C :    0.182095
   6 O :   -0.167998
   7 O :   -0.155693
   8 S :    0.087605
   9 C :   -0.071508
  10 C :    0.106250
  11 C :    0.099440
  12 C :   -0.135929
  13 C :    0.117909
  14 C :   -0.086853
  15 C :   -0.019093
  16 C :   -0.181722
  17 N :    0.149992
  18 C :    0.113860
  19 C :   -0.102433
  20 C :    0.037442
  21 C :   -0.027421
  22 C :   -0.098894
  23 C :   -0.174178
  24 N :    0.132052
  25 C :    0.151803
  26 N :   -0.257231
  27 C :    0.104535
  28 C :   -0.002068
  29 C :    0.169079
  30 O :   -0.213065
  31 C :   -0.070230
  32 C :   -0.053397
  33 C :    0.150221
  34 O :   -0.178023
  35 N :   -0.259615
  36 C :    0.093050
  37 C :    0.003702
  38 C :    0.157104
  39 C :   -0.014810
  40 C :    0.007773
  41 C :    0.111476
  42 C :   -0.119080
  43 C :    0.116378
  44 C :   -0.093173
  45 C :   -0.000794
  46 C :   -0.170483
  47 N :    0.130875
  48 C :    0.124552
  49 C :   -0.145879
  50 C :    0.136541
  51 C :   -0.013038
  52 C :   -0.098585
  53 C :   -0.164800
  54 N :    0.126871
  55 C :   -0.073815
  56 S :    0.172926
  57 C :    0.001120
  58 C :   -0.001743
  59 C :   -0.179285
  60 C :    0.182898
  61 O :   -0.166740
  62 O :   -0.156514
  63 S :    0.113132
  64 C :   -0.010238
  65 C :   -0.041022
  66 H :    0.045176
  67 H :    0.017571
  68 H :    0.180745
  69 H :   -0.009574
  70 H :   -0.003098
  71 H :    0.027155
  72 H :   -0.011755
  73 H :    0.026766
  74 H :    0.040673
  75 H :    0.020947
  76 H :    0.028457
  77 H :    0.036325
  78 H :    0.048524
  79 H :    0.030081
  80 H :    0.037052
  81 H :    0.030791
  82 H :    0.015548
  83 H :   -0.012763
  84 H :    0.005235
  85 H :   -0.000199
  86 H :    0.011818
  87 H :    0.011434
  88 H :   -0.002607
  89 H :    0.019426
  90 H :    0.179822
  91 H :   -0.009652
Sum of atomic charges:   -0.0000000

LOEWDIN ATOMIC CHARGES
----------------------
   0 C :   -0.143801
   1 S :    0.470329
   2 C :   -0.206110
   3 C :   -0.012763
   4 C :   -0.229641
   5 C :    0.063336
   6 O :   -0.156225
   7 O :   -0.030377
   8 S :    0.417825
   9 C :   -0.184799
  10 C :   -0.078164
  11 C :    0.000155
  12 C :   -0.036752
  13 C :    0.050016
  14 C :   -0.071720
  15 C :    0.039326
  16 C :   -0.034562
  17 N :   -0.049444
  18 C :    0.027962
  19 C :    0.015102
  20 C :   -0.037921
  21 C :    0.042785
  22 C :   -0.080312
  23 C :   -0.029346
  24 N :   -0.066832
  25 C :    0.070931
  26 N :    0.004370
  27 C :    0.037496
  28 C :   -0.062393
  29 C :    0.080330
  30 O :   -0.199834
  31 C :   -0.116993
  32 C :   -0.103015
  33 C :    0.082981
  34 O :   -0.172273
  35 N :    0.002402
  36 C :    0.037050
  37 C :   -0.059331
  38 C :    0.082566
  39 C :   -0.024150
  40 C :    0.030802
  41 C :   -0.021349
  42 C :   -0.017660
  43 C :    0.035373
  44 C :   -0.083164
  45 C :    0.060907
  46 C :   -0.029964
  47 N :   -0.062511
  48 C :    0.038815
  49 C :   -0.038445
  50 C :   -0.026439
  51 C :    0.052092
  52 C :   -0.076436
  53 C :   -0.027772
  54 N :   -0.065988
  55 C :   -0.149153
  56 S :    0.456045
  57 C :   -0.194692
  58 C :   -0.016121
  59 C :   -0.222595
  60 C :    0.062528
  61 O :   -0.154604
  62 O :   -0.031045
  63 S :    0.410670
  64 C :   -0.191040
  65 C :   -0.054256
  66 H :    0.033293
  67 H :    0.047931
  68 H :    0.079697
  69 H :    0.031210
  70 H :    0.023667
  71 H :    0.039368
  72 H :    0.035878
  73 H :    0.025317
  74 H :    0.038076
  75 H :    0.020801
  76 H :    0.032786
  77 H :    0.035453
  78 H :    0.039901
  79 H :    0.025378
  80 H :    0.035085
  81 H :    0.034183
  82 H :    0.022092
  83 H :    0.035210
  84 H :    0.038362
  85 H :    0.031341
  86 H :    0.042876
  87 H :    0.031209
  88 H :    0.035916
  89 H :    0.048765
  90 H :    0.078950
  91 H :    0.035049

  Mayer bond orders larger than 0.100000
B(  0-C ,  1-S ) :   1.1799 B(  0-C , 10-C ) :   1.5387 B(  0-C , 66-H ) :   0.9525
B(  1-S ,  2-C ) :   1.0784 B(  2-C ,  3-C ) :   1.2183 B(  2-C ,  9-C ) :   1.4432
B(  3-C ,  4-C ) :   1.5829 B(  3-C , 67-H ) :   1.0122 B(  4-C ,  5-C ) :   0.9341
B(  4-C ,  8-S ) :   1.0596 B(  5-C ,  6-O ) :   2.2060 B(  5-C ,  7-O ) :   1.2389
B(  7-O , 68-H ) :   0.9502 B(  8-S ,  9-C ) :   1.1156 B(  9-C , 10-C ) :   1.2163
B( 10-C , 11-C ) :   1.0340 B( 11-C , 12-C ) :   1.5763 B( 11-C , 15-C ) :   1.0504
B( 12-C , 13-C ) :   1.1336 B( 12-C , 69-H ) :   0.9991 B( 13-C , 14-C ) :   1.1039
B( 13-C , 18-C ) :   1.3787 B( 14-C , 15-C ) :   1.6892 B( 14-C , 16-C ) :   1.0847
B( 15-C , 70-H ) :   1.0033 B( 16-C , 17-N ) :   2.9811 B( 18-C , 19-C ) :   1.1269
B( 18-C , 22-C ) :   1.1046 B( 19-C , 20-C ) :   1.5353 B( 19-C , 71-H ) :   0.9923
B( 20-C , 21-C ) :   1.0345 B( 20-C , 25-C ) :   1.0443 B( 21-C , 22-C ) :   1.6580
B( 21-C , 72-H ) :   1.0239 B( 22-C , 23-C ) :   1.0843 B( 23-C , 24-N ) :   2.9660
B( 25-C , 26-N ) :   1.2001 B( 25-C , 32-C ) :   1.3565 B( 26-N , 27-C ) :   0.9404
B( 26-N , 29-C ) :   1.0548 B( 27-C , 28-C ) :   1.1175 B( 27-C , 73-H ) :   0.9499
B( 27-C , 74-H ) :   0.9283 B( 28-C , 75-H ) :   0.9646 B( 28-C , 76-H ) :   0.9686
B( 28-C , 77-H ) :   0.9605 B( 29-C , 30-O ) :   2.0069 B( 29-C , 31-C ) :   0.9951
B( 30-O , 84-H ) :   0.1173 B( 31-C , 32-C ) :   1.2724 B( 31-C , 38-C ) :   1.2843
B( 32-C , 33-C ) :   0.9635 B( 33-C , 34-O ) :   2.1075 B( 33-C , 35-N ) :   1.0395
B( 35-N , 36-C ) :   0.9373 B( 35-N , 38-C ) :   1.1761 B( 36-C , 37-C ) :   1.1224
B( 36-C , 78-H ) :   0.9271 B( 36-C , 79-H ) :   0.9500 B( 37-C , 80-H ) :   0.9638
B( 37-C , 81-H ) :   0.9677 B( 37-C , 82-H ) :   0.9681 B( 38-C , 39-C ) :   1.1778
B( 39-C , 40-C ) :   1.5478 B( 39-C , 83-H ) :   0.9690 B( 40-C , 41-C ) :   1.1257
B( 40-C , 84-H ) :   0.9531 B( 41-C , 42-C ) :   1.5038 B( 41-C , 45-C ) :   1.0366
B( 42-C , 43-C ) :   1.1483 B( 42-C , 85-H ) :   0.9956 B( 43-C , 44-C ) :   1.1045
B( 43-C , 48-C ) :   1.3797 B( 44-C , 45-C ) :   1.6588 B( 44-C , 46-C ) :   1.0892
B( 45-C , 86-H ) :   1.0286 B( 46-C , 47-N ) :   2.9595 B( 48-C , 49-C ) :   1.1496
B( 48-C , 52-C ) :   1.1060 B( 49-C , 50-C ) :   1.5355 B( 49-C , 87-H ) :   0.9939
B( 50-C , 51-C ) :   1.0629 B( 50-C , 55-C ) :   1.1168 B( 51-C , 52-C ) :   1.6717
B( 51-C , 88-H ) :   1.0174 B( 52-C , 53-C ) :   1.0882 B( 53-C , 54-N ) :   2.9578
B( 55-C , 56-S ) :   1.1097 B( 55-C , 65-C ) :   1.4950 B( 56-S , 57-C ) :   1.0744
B( 57-C , 58-C ) :   1.2296 B( 57-C , 64-C ) :   1.4053 B( 58-C , 59-C ) :   1.5602
B( 58-C , 89-H ) :   1.0126 B( 59-C , 60-C ) :   0.9387 B( 59-C , 63-S ) :   1.0752
B( 60-C , 61-O ) :   2.2033 B( 60-C , 62-O ) :   1.2378 B( 62-O , 90-H ) :   0.9504
B( 63-S , 64-C ) :   1.0917 B( 64-C , 65-C ) :   1.2572 B( 65-C , 91-H ) :   1.0018

-----------------------------------------------------------------------------
         ABSORPTION SPECTRUM VIA TRANSITION ELECTRIC DIPOLE MOMENTS
-----------------------------------------------------------------------------
State   Energy  Wavelength   fosc         T2         TX        TY        TZ
        (cm-1)    (nm)                  (au**2)     (au)      (au)      (au)
-----------------------------------------------------------------------------
   0    7531.0   1327.8   0.788270200  34.45851  -1.19391   5.72047   0.55620
   1   10993.9    909.6   0.101790137   3.04811  -1.10168   1.14659   0.72093
   2   14685.4    680.9   0.053256717   1.19389   0.83741  -0.30275  -0.63322
   3   15004.7    666.5   0.195835754   4.29675  -0.19488   2.06243   0.07177
   4   17986.4    556.0   0.010846728   0.19853  -0.21710   0.36739   0.12817
   5   20126.6    496.9   0.070296081   1.14984  -0.51247   0.88900   0.31127
   6   21789.6    458.9   0.362149045   5.47159   0.95023  -2.05573  -0.58535
   7   22850.3    437.6   0.139074111   2.00369   0.27784  -1.38718  -0.04730
   8   23304.1    429.1   0.023415995   0.33079   0.02931   0.55506  -0.14780
   9   23366.3    428.0   0.050283301   0.70845   0.04116   0.81547  -0.20438
  10   23889.8    418.6   0.066746150   0.91979   0.16893   0.78906  -0.51830
  11   24468.2    408.7   0.002874954   0.03868  -0.01706  -0.18205   0.07245
  12   24794.1    403.3   0.006322731   0.08395   0.00624   0.27577   0.08867
  13   25132.6    397.9   0.389089885   5.09669  -0.38701   2.22394   0.03167
  14   25358.7    394.3   0.130644805   1.69606   0.44686   1.12899  -0.47090
  15   27480.5    363.9   0.075896885   0.90923   0.16397  -0.93747   0.05914
  16   27862.1    358.9   0.021946742   0.25932  -0.07227   0.50340  -0.02606
  17   28059.2    356.4   0.031793187   0.37302   0.02845  -0.60543   0.07525
  18   28655.5    349.0   0.123831878   1.42265  -0.21775   1.17188   0.04409
  19   29338.9    340.8   0.058143940   0.65243   0.44646  -0.48068  -0.47123
  20   30573.2    327.1   0.374734013   4.03513  -0.96268  -1.59562   0.74991
  21   31872.7    313.7   0.437397724   4.51786   0.28191  -2.09560   0.21646
  22   31954.7    312.9   0.086497723   0.89114   0.01356  -0.92829   0.17096
  23   32777.8    305.1   0.044063341   0.44256  -0.58674   0.28252   0.13596
  24   32966.5    303.3   0.020011871   0.19984  -0.36094  -0.05831   0.25722
  25   33036.9    302.7   0.092360158   0.92037   0.09880  -0.89561   0.32938
  26   33638.7    297.3   0.009634528   0.09429   0.15756   0.07245  -0.25341
  27   34073.7    293.5   0.042181675   0.40755  -0.26531  -0.53387   0.22836
  28   34198.0    292.4   0.011860188   0.11417  -0.06992  -0.23076   0.23671
  29   34460.4    290.2   0.007112250   0.06795  -0.07511  -0.20888   0.13664
  30   34959.8    286.0   0.021551859   0.20295  -0.19889   0.38378   0.12691
  31   35283.8    283.4   0.000276977   0.00258   0.02596   0.04253   0.01008
  32   35318.9    283.1   0.031367524   0.29238   0.31772  -0.41798   0.12936
  33   35430.1    282.2   0.069963830   0.65009   0.33100   0.71449  -0.17330
  34   35582.8    281.0   0.184861597   1.71034  -0.12752  -1.24565   0.37739
  35   35775.8    279.5   0.018306321   0.16846  -0.36502  -0.08650   0.16654
  36   36118.9    276.9   0.144579621   1.31780   0.36589  -1.06866  -0.20467
  37   36340.5    275.2   0.027406064   0.24827  -0.40327   0.27541  -0.09897
  38   36574.3    273.4   0.001629347   0.01467   0.07912   0.04514  -0.07980
  39   36590.3    273.3   0.085920419   0.77305   0.59499   0.26435  -0.59089
  40   37185.3    268.9   0.059450563   0.52633  -0.29437  -0.55119   0.36860
  41   37344.1    267.8   0.006828636   0.06020  -0.04855   0.21707   0.10355
  42   37660.1    265.5   0.017641435   0.15422   0.26348  -0.29097  -0.01158
  43   37847.1    264.2   0.029915945   0.26022   0.13677   0.40192  -0.28281
  44   38592.5    259.1   0.062889268   0.53648   0.66437  -0.26607  -0.15589
  45   39130.8    255.6   0.116860105   0.98316   0.36760   0.45577  -0.80019
  46   39295.6    254.5   0.064262167   0.53838  -0.11888  -0.72226   0.05080

FINAL SINGLE POINT ENERGY     -4289.621141128413

DIPOLE MOMENT
-------------
                                X             Y             Z
Electronic contribution:      9.18190      -1.97353      -5.01649
Nuclear contribution   :     -9.58650       1.82301       4.24055
                        -----------------------------------------
Total Dipole Moment    :     -0.40460      -0.15052      -0.77593
                        -----------------------------------------
Magnitude (a.u.)       :      0.88794
Magnitude (Debye)      :      2.25695

Rotational constants in cm-1:     0.003149     0.000196     0.000186
Rotational constants in MHz :    94.396073     5.873585     5.567316

                             ****ORCA TERMINATED NORMALLY****
TOTAL RUN TIME: 0 days 0 hours 8 minutes 51 seconds 268 msec
