                         Program Version 4.2.0 -  RELEASE  -
|  1> # ORCA input file
|  2> # SCF done       -181.997937022977          0.000773919611
|  3> ! CAM-B3LYP def2-SVP def2/J RIJCOSX Grid4 TightSCF
|  4> %maxcore 5000
|  5> %tddft
|  6>     Mode sTDDFT
|  7>     Ethresh 5.0
|  8>     maxcore 5000
|  9> end
| 10>
| 11> %pal
| 12>   nprocs 6
| 13>   end
| 14> * xyz 0 1
| 15>    C        0.75366         0.42925         2.30246
| 16>    S        0.34279         1.92316         3.05440
| 17>    C       -0.56536         1.08214         4.26267
| 18>    C       -1.31205         1.45821         5.38638
| 19>    C       -1.86221         0.37030         6.01299
| 20>    C       -2.69504         0.43232         7.22466
| 21>    O       -2.85934         1.45634         7.83001
| 22>    O       -3.26250        -0.71652         7.62774
| 23>    S       -1.45551        -1.13861         5.21817
| 24>    C       -0.54032        -0.29058         4.03833
| 25>    C        0.22839        -0.67857         2.91364
| 26>    C        0.36149        -2.04298         2.42975
| 27>    C       -0.67853        -2.81545         1.95486
| 28>    N       -2.02235        -2.42981         1.80302
| 29>    O       -2.79273        -3.25631         1.34697
| 30>    O       -2.34479        -1.30066         2.13704
| 31>    C       -0.17733        -4.10449         1.53895
| 32>    C        1.14095        -4.14910         1.82470
| 33>    C        1.54068        -2.89504         2.43481
| 34>    C        2.78070        -2.60664         2.97494
| 35>    C        3.35016        -1.31792         3.18550
| 36>    C        4.69682        -1.45118         3.37158
| 37>    C        5.03667        -2.83522         3.37071
| 38>    N        6.34049        -3.29376         3.59884
| 39>    O        7.20957        -2.45254         3.75797
| 40>    O        6.54981        -4.49996         3.61645
| 41>    C        3.86357        -3.59176         3.22088
| 42>    C        3.75432        -4.96710         3.42781
| 43>    C        2.61377        -5.64825         3.79792
| 44>    C        2.56565        -7.03207         3.93767
| 45>    S        3.91411        -8.08500         3.54681
| 46>    C        3.04082        -9.55458         3.91438
| 47>    C        1.73564        -9.23483         4.34402
| 48>    C        1.49205        -7.83632         4.34629
| 49>    N        0.22276        -7.61892         4.75938
| 50>    C       -0.35646        -8.83967         5.02999
| 51>    C       -1.67672        -8.94899         5.49194
| 52>    N       -2.75401        -9.04382         5.87295
| 53>    C        0.54715        -9.85597         4.78518
| 54>    C        3.68688       -10.77735         3.71782
| 55>    C        3.12133       -12.01313         3.90126
| 56>    C        3.76885       -13.23309         3.64184
| 57>    C        3.19078       -14.49171         3.76524
| 58>    C        4.12113       -15.47880         3.36724
| 59>    C        5.35097       -14.75329         2.99775
| 60>    C        5.13022       -13.42336         3.16541
| 61>    C        6.55418       -15.31321         2.55249
| 62>    N        7.55526       -15.73838         2.18295
| 63>    C        3.92917       -16.84672         3.29612
| 64>    C        4.83386       -17.82834         2.82867
| 65>    C        4.23184       -19.07339         2.87894
| 66>    C        2.88936       -18.89244         3.41705
| 67>    C        2.69664       -17.57262         3.66938
| 68>    C        1.52662       -17.01839         4.19935
| 69>    N        0.55335       -16.59088         4.63532
| 70>    C        4.82302       -20.28672         2.45710
| 71>    C        4.20565       -21.49866         2.47338
| 72>    C        4.78661       -22.71073         2.02550
| 73>    S        3.82204       -24.17937         2.10101
| 74>    C        5.11324       -25.09717         1.42599
| 75>    C        5.30234       -26.43821         1.08147
| 76>    C        6.55351       -26.65575         0.55923
| 77>    C        7.04760       -27.96579         0.10019
| 78>    O        6.36500       -28.95200         0.15798
| 79>    O        8.29839       -28.00730        -0.38309
| 80>    S        7.52173       -25.19482         0.48825
| 81>    C        6.22510       -24.28176         1.16724
| 82>    C        6.04724       -22.94167         1.50195
| 83>    H        1.33280         0.44351         1.39888
| 84>    H       -1.45883         2.46350         5.73452
| 85>    H       -3.09303        -1.45627         7.02910
| 86>    H       -0.78444        -4.84950         1.06267
| 87>    H        1.82165        -4.93784         1.57237
| 88>    H        2.81949        -0.39079         3.11533
| 89>    H        5.41516        -0.66391         3.50404
| 90>    H        4.68126        -5.52813         3.38518
| 91>    H        1.70806        -5.10068         4.02354
| 92>    H       -0.24048        -6.73007         4.85551
| 93>    H        0.34673       -10.89913         4.91979
| 94>    H        4.70952       -10.71386         3.37235
| 95>    H        2.09998       -12.08002         4.24575
| 96>    H        2.18859       -14.68518         4.09409
| 97>    H        5.84365       -12.64291         2.97923
| 98>    H        5.82708       -17.63153         2.47590
| 99>    H        2.17351       -19.67419         3.58791
|100>    H        5.83664       -20.20948         2.08838
|101>    H        3.19217       -21.57741         2.84115
|102>    H        4.57985       -27.22462         1.19628
|103>    H        8.74485       -27.14974        -0.37752
|104>    H        6.79355       -22.18129         1.37017
|105> *
|106>
|107>                          ****END OF INPUT****

CARTESIAN COORDINATES (ANGSTROEM)
---------------------------------
  C      0.753660    0.429250    2.302460
  S      0.342790    1.923160    3.054400
  C     -0.565360    1.082140    4.262670
  C     -1.312050    1.458210    5.386380
  C     -1.862210    0.370300    6.012990
  C     -2.695040    0.432320    7.224660
  O     -2.859340    1.456340    7.830010
  O     -3.262500   -0.716520    7.627740
  S     -1.455510   -1.138610    5.218170
  C     -0.540320   -0.290580    4.038330
  C      0.228390   -0.678570    2.913640
  C      0.361490   -2.042980    2.429750
  C     -0.678530   -2.815450    1.954860
  N     -2.022350   -2.429810    1.803020
  O     -2.792730   -3.256310    1.346970
  O     -2.344790   -1.300660    2.137040
  C     -0.177330   -4.104490    1.538950
  C      1.140950   -4.149100    1.824700
  C      1.540680   -2.895040    2.434810
  C      2.780700   -2.606640    2.974940
  C      3.350160   -1.317920    3.185500
  C      4.696820   -1.451180    3.371580
  C      5.036670   -2.835220    3.370710
  N      6.340490   -3.293760    3.598840
  O      7.209570   -2.452540    3.757970
  O      6.549810   -4.499960    3.616450
  C      3.863570   -3.591760    3.220880
  C      3.754320   -4.967100    3.427810
  C      2.613770   -5.648250    3.797920
  C      2.565650   -7.032070    3.937670
  S      3.914110   -8.085000    3.546810
  C      3.040820   -9.554580    3.914380
  C      1.735640   -9.234830    4.344020
  C      1.492050   -7.836320    4.346290
  N      0.222760   -7.618920    4.759380
  C     -0.356460   -8.839670    5.029990
  C     -1.676720   -8.948990    5.491940
  N     -2.754010   -9.043820    5.872950
  C      0.547150   -9.855970    4.785180
  C      3.686880  -10.777350    3.717820
  C      3.121330  -12.013130    3.901260
  C      3.768850  -13.233090    3.641840
  C      3.190780  -14.491710    3.765240
  C      4.121130  -15.478800    3.367240
  C      5.350970  -14.753290    2.997750
  C      5.130220  -13.423360    3.165410
  C      6.554180  -15.313210    2.552490
  N      7.555260  -15.738380    2.182950
  C      3.929170  -16.846720    3.296120
  C      4.833860  -17.828340    2.828670
  C      4.231840  -19.073390    2.878940
  C      2.889360  -18.892440    3.417050
  C      2.696640  -17.572620    3.669380
  C      1.526620  -17.018390    4.199350
  N      0.553350  -16.590880    4.635320
  C      4.823020  -20.286720    2.457100
  C      4.205650  -21.498660    2.473380
  C      4.786610  -22.710730    2.025500
  S      3.822040  -24.179370    2.101010
  C      5.113240  -25.097170    1.425990
  C      5.302340  -26.438210    1.081470
  C      6.553510  -26.655750    0.559230
  C      7.047600  -27.965790    0.100190
  O      6.365000  -28.952000    0.157980
  O      8.298390  -28.007300   -0.383090
  S      7.521730  -25.194820    0.488250
  C      6.225100  -24.281760    1.167240
  C      6.047240  -22.941670    1.501950
  H      1.332800    0.443510    1.398880
  H     -1.458830    2.463500    5.734520
  H     -3.093030   -1.456270    7.029100
  H     -0.784440   -4.849500    1.062670
  H      1.821650   -4.937840    1.572370
  H      2.819490   -0.390790    3.115330
  H      5.415160   -0.663910    3.504040
  H      4.681260   -5.528130    3.385180
  H      1.708060   -5.100680    4.023540
  H     -0.240480   -6.730070    4.855510
  H      0.346730  -10.899130    4.919790
  H      4.709520  -10.713860    3.372350
  H      2.099980  -12.080020    4.245750
  H      2.188590  -14.685180    4.094090
  H      5.843650  -12.642910    2.979230
  H      5.827080  -17.631530    2.475900
  H      2.173510  -19.674190    3.587910
  H      5.836640  -20.209480    2.088380
  H      3.192170  -21.577410    2.841150
  H      4.579850  -27.224620    1.196280
  H      8.744850  -27.149740   -0.377520
  H      6.793550  -22.181290    1.370170

 Total Charge           Charge          ....    0
 Multiplicity           Mult            ....    1
 Number of Electrons    NEL             ....  502
 Basis Dimension        Dim             .... 1082

ORBITAL ENERGIES
----------------

  NO   OCC          E(Eh)            E(eV)
   0   2.0000     -88.996823     -2421.7267
   1   2.0000     -88.987442     -2421.4714
   2   2.0000     -88.983522     -2421.3647
   3   2.0000     -88.976267     -2421.1673
   4   2.0000     -88.973577     -2421.0941
   5   2.0000     -19.269334      -524.3452
   6   2.0000     -19.259839      -524.0869
   7   2.0000     -19.242825      -523.6239
   8   2.0000     -19.241914      -523.5991
   9   2.0000     -19.230608      -523.2914
  10   2.0000     -19.230467      -523.2876
  11   2.0000     -19.203327      -522.5491
  12   2.0000     -19.193306      -522.2764
  13   2.0000     -14.650631      -398.6639
  14   2.0000     -14.640868      -398.3983
  15   2.0000     -14.512418      -394.9030
  16   2.0000     -14.436731      -392.8434
  17   2.0000     -14.422153      -392.4467
  18   2.0000     -14.420608      -392.4047
  19   2.0000     -10.414523      -283.3936
  20   2.0000     -10.404301      -283.1154
  21   2.0000     -10.375375      -282.3283
  22   2.0000     -10.359907      -281.9074
  23   2.0000     -10.356057      -281.8026
  24   2.0000     -10.342962      -281.4463
  25   2.0000     -10.337960      -281.3102
  26   2.0000     -10.336219      -281.2628
  27   2.0000     -10.335688      -281.2484
  28   2.0000     -10.335372      -281.2398
  29   2.0000     -10.335198      -281.2350
  30   2.0000     -10.332083      -281.1503
  31   2.0000     -10.331973      -281.1473
  32   2.0000     -10.330873      -281.1173
  33   2.0000     -10.330284      -281.1013
  34   2.0000     -10.329582      -281.0822
  35   2.0000     -10.328762      -281.0599
  36   2.0000     -10.327800      -281.0337
  37   2.0000     -10.326330      -280.9937
  38   2.0000     -10.326269      -280.9921
  39   2.0000     -10.323893      -280.9274
  40   2.0000     -10.323187      -280.9082
  41   2.0000     -10.323064      -280.9048
  42   2.0000     -10.322777      -280.8970
  43   2.0000     -10.322363      -280.8858
  44   2.0000     -10.321780      -280.8699
  45   2.0000     -10.321635      -280.8660
  46   2.0000     -10.320843      -280.8444
  47   2.0000     -10.320494      -280.8349
  48   2.0000     -10.319590      -280.8103
  49   2.0000     -10.319219      -280.8002
  50   2.0000     -10.317319      -280.7485
  51   2.0000     -10.317192      -280.7451
  52   2.0000     -10.317001      -280.7399
  53   2.0000     -10.316318      -280.7213
  54   2.0000     -10.313018      -280.6315
  55   2.0000     -10.311745      -280.5969
  56   2.0000     -10.310791      -280.5709
  57   2.0000     -10.310748      -280.5697
  58   2.0000     -10.310281      -280.5570
  59   2.0000     -10.310150      -280.5534
  60   2.0000     -10.307749      -280.4881
  61   2.0000     -10.306644      -280.4581
  62   2.0000     -10.299464      -280.2627
  63   2.0000     -10.299363      -280.2599
  64   2.0000     -10.295114      -280.1443
  65   2.0000     -10.292575      -280.0752
  66   2.0000     -10.292432      -280.0713
  67   2.0000     -10.283214      -279.8205
  68   2.0000      -8.091605      -220.1838
  69   2.0000      -8.083069      -219.9515
  70   2.0000      -8.079071      -219.8427
  71   2.0000      -8.071719      -219.6427
  72   2.0000      -8.069107      -219.5716
  73   2.0000      -6.060961      -164.9271
  74   2.0000      -6.056792      -164.8137
  75   2.0000      -6.053642      -164.7280
  76   2.0000      -6.052518      -164.6974
  77   2.0000      -6.048601      -164.5908
  78   2.0000      -6.048461      -164.5870
  79   2.0000      -6.044667      -164.4838
  80   2.0000      -6.044552      -164.4806
  81   2.0000      -6.041123      -164.3873
  82   2.0000      -6.040707      -164.3760
  83   2.0000      -6.038567      -164.3178
  84   2.0000      -6.037263      -164.2823
  85   2.0000      -6.034421      -164.2050
  86   2.0000      -6.033424      -164.1778
  87   2.0000      -6.030876      -164.1085
  88   2.0000      -1.321523       -35.9605
  89   2.0000      -1.309341       -35.6290
  90   2.0000      -1.191646       -32.4263
  91   2.0000      -1.181739       -32.1567
  92   2.0000      -1.138913       -30.9914
  93   2.0000      -1.134498       -30.8712
  94   2.0000      -1.126353       -30.6496
  95   2.0000      -1.104466       -30.0540
  96   2.0000      -1.094477       -29.7822
  97   2.0000      -1.033276       -28.1169
  98   2.0000      -1.028626       -27.9903
  99   2.0000      -1.027774       -27.9671
 100   2.0000      -1.021639       -27.8002
 101   2.0000      -1.016929       -27.6721
 102   2.0000      -1.013588       -27.5811
 103   2.0000      -1.011572       -27.5263
 104   2.0000      -0.999817       -27.2064
 105   2.0000      -0.998345       -27.1663
 106   2.0000      -0.994543       -27.0629
 107   2.0000      -0.973274       -26.4841
 108   2.0000      -0.956569       -26.0296
 109   2.0000      -0.952394       -25.9160
 110   2.0000      -0.927780       -25.2462
 111   2.0000      -0.920012       -25.0348
 112   2.0000      -0.914815       -24.8934
 113   2.0000      -0.911000       -24.7896
 114   2.0000      -0.890415       -24.2294
 115   2.0000      -0.886822       -24.1316
 116   2.0000      -0.884631       -24.0720
 117   2.0000      -0.880911       -23.9708
 118   2.0000      -0.873855       -23.7788
 119   2.0000      -0.868653       -23.6373
 120   2.0000      -0.861978       -23.4556
 121   2.0000      -0.848447       -23.0874
 122   2.0000      -0.841233       -22.8911
 123   2.0000      -0.830388       -22.5960
 124   2.0000      -0.824799       -22.4439
 125   2.0000      -0.823406       -22.4060
 126   2.0000      -0.817557       -22.2469
 127   2.0000      -0.803058       -21.8523
 128   2.0000      -0.787064       -21.4171
 129   2.0000      -0.781254       -21.2590
 130   2.0000      -0.772041       -21.0083
 131   2.0000      -0.763420       -20.7737
 132   2.0000      -0.755977       -20.5712
 133   2.0000      -0.739266       -20.1165
 134   2.0000      -0.735548       -20.0153
 135   2.0000      -0.731543       -19.9063
 136   2.0000      -0.731028       -19.8923
 137   2.0000      -0.720778       -19.6134
 138   2.0000      -0.711108       -19.3502
 139   2.0000      -0.697707       -18.9856
 140   2.0000      -0.696609       -18.9557
 141   2.0000      -0.688597       -18.7377
 142   2.0000      -0.686227       -18.6732
 143   2.0000      -0.682411       -18.5694
 144   2.0000      -0.674065       -18.3422
 145   2.0000      -0.672467       -18.2987
 146   2.0000      -0.666460       -18.1353
 147   2.0000      -0.660122       -17.9628
 148   2.0000      -0.654860       -17.8197
 149   2.0000      -0.646222       -17.5846
 150   2.0000      -0.644991       -17.5511
 151   2.0000      -0.639781       -17.4093
 152   2.0000      -0.637304       -17.3419
 153   2.0000      -0.631335       -17.1795
 154   2.0000      -0.630143       -17.1471
 155   2.0000      -0.625283       -17.0148
 156   2.0000      -0.622380       -16.9358
 157   2.0000      -0.619508       -16.8577
 158   2.0000      -0.615129       -16.7385
 159   2.0000      -0.609503       -16.5854
 160   2.0000      -0.603967       -16.4348
 161   2.0000      -0.599816       -16.3218
 162   2.0000      -0.598702       -16.2915
 163   2.0000      -0.587186       -15.9781
 164   2.0000      -0.586695       -15.9648
 165   2.0000      -0.578014       -15.7286
 166   2.0000      -0.577791       -15.7225
 167   2.0000      -0.573261       -15.5992
 168   2.0000      -0.568865       -15.4796
 169   2.0000      -0.565364       -15.3843
 170   2.0000      -0.558813       -15.2061
 171   2.0000      -0.554045       -15.0763
 172   2.0000      -0.549301       -14.9472
 173   2.0000      -0.545974       -14.8567
 174   2.0000      -0.543704       -14.7949
 175   2.0000      -0.539337       -14.6761
 176   2.0000      -0.538679       -14.6582
 177   2.0000      -0.537145       -14.6165
 178   2.0000      -0.536064       -14.5870
 179   2.0000      -0.534015       -14.5313
 180   2.0000      -0.533157       -14.5079
 181   2.0000      -0.527029       -14.3412
 182   2.0000      -0.522836       -14.2271
 183   2.0000      -0.521887       -14.2013
 184   2.0000      -0.517633       -14.0855
 185   2.0000      -0.514990       -14.0136
 186   2.0000      -0.513482       -13.9726
 187   2.0000      -0.512543       -13.9470
 188   2.0000      -0.510341       -13.8871
 189   2.0000      -0.507379       -13.8065
 190   2.0000      -0.505699       -13.7608
 191   2.0000      -0.504176       -13.7193
 192   2.0000      -0.500709       -13.6250
 193   2.0000      -0.497591       -13.5401
 194   2.0000      -0.494174       -13.4472
 195   2.0000      -0.492498       -13.4015
 196   2.0000      -0.491824       -13.3832
 197   2.0000      -0.487771       -13.2729
 198   2.0000      -0.483995       -13.1702
 199   2.0000      -0.479768       -13.0551
 200   2.0000      -0.477504       -12.9935
 201   2.0000      -0.475125       -12.9288
 202   2.0000      -0.469867       -12.7857
 203   2.0000      -0.469552       -12.7772
 204   2.0000      -0.467269       -12.7150
 205   2.0000      -0.464266       -12.6333
 206   2.0000      -0.463909       -12.6236
 207   2.0000      -0.463266       -12.6061
 208   2.0000      -0.458260       -12.4699
 209   2.0000      -0.457521       -12.4498
 210   2.0000      -0.457309       -12.4440
 211   2.0000      -0.453784       -12.3481
 212   2.0000      -0.451296       -12.2804
 213   2.0000      -0.449415       -12.2292
 214   2.0000      -0.448430       -12.2024
 215   2.0000      -0.444817       -12.1041
 216   2.0000      -0.444168       -12.0864
 217   2.0000      -0.441644       -12.0177
 218   2.0000      -0.437249       -11.8981
 219   2.0000      -0.436665       -11.8823
 220   2.0000      -0.428718       -11.6660
 221   2.0000      -0.427707       -11.6385
 222   2.0000      -0.425281       -11.5725
 223   2.0000      -0.409795       -11.1511
 224   2.0000      -0.408994       -11.1293
 225   2.0000      -0.401414       -10.9230
 226   2.0000      -0.395182       -10.7535
 227   2.0000      -0.391308       -10.6480
 228   2.0000      -0.390345       -10.6218
 229   2.0000      -0.384066       -10.4510
 230   2.0000      -0.381150       -10.3716
 231   2.0000      -0.378530       -10.3003
 232   2.0000      -0.376504       -10.2452
 233   2.0000      -0.374709       -10.1964
 234   2.0000      -0.370596       -10.0844
 235   2.0000      -0.359975        -9.7954
 236   2.0000      -0.359009        -9.7691
 237   2.0000      -0.356307        -9.6956
 238   2.0000      -0.350263        -9.5311
 239   2.0000      -0.349813        -9.5189
 240   2.0000      -0.344760        -9.3814
 241   2.0000      -0.338638        -9.2148
 242   2.0000      -0.329881        -8.9765
 243   2.0000      -0.327952        -8.9240
 244   2.0000      -0.323663        -8.8073
 245   2.0000      -0.318823        -8.6756
 246   2.0000      -0.310084        -8.4378
 247   2.0000      -0.304033        -8.2732
 248   2.0000      -0.291955        -7.9445
 249   2.0000      -0.276163        -7.5148
 250   2.0000      -0.248478        -6.7614
 251   0.0000      -0.151425        -4.1205
 252   0.0000      -0.127733        -3.4758
 253   0.0000      -0.086990        -2.3671
 254   0.0000      -0.063401        -1.7252
 255   0.0000      -0.047188        -1.2840

MULLIKEN ATOMIC CHARGES
-----------------------
   0 C :   -0.105471
   1 S :    0.156796
   2 C :   -0.045627
   3 C :    0.002868
   4 C :   -0.178007
   5 C :    0.179657
   6 O :   -0.171726
   7 O :   -0.157995
   8 S :    0.107517
   9 C :    0.002617
  10 C :   -0.002961
  11 C :   -0.002723
  12 C :    0.071463
  13 N :    0.264839
  14 O :   -0.247144
  15 O :   -0.235274
  16 C :   -0.011089
  17 C :   -0.026581
  18 C :    0.034642
  19 C :    0.056619
  20 C :   -0.017472
  21 C :    0.034079
  22 C :    0.073889
  23 N :    0.277273
  24 O :   -0.258736
  25 O :   -0.270941
  26 C :    0.041079
  27 C :   -0.086838
  28 C :   -0.001860
  29 C :   -0.144016
  30 S :    0.172755
  31 C :   -0.116151
  32 C :    0.119909
  33 C :    0.115583
  34 N :   -0.013824
  35 C :   -0.096421
  36 C :   -0.150666
  37 N :    0.183308
  38 C :   -0.034050
  39 C :    0.060271
  40 C :    0.015279
  41 C :    0.103914
  42 C :   -0.104642
  43 C :    0.120821
  44 C :   -0.100912
  45 C :   -0.009932
  46 C :   -0.174154
  47 N :    0.137134
  48 C :    0.131034
  49 C :   -0.119152
  50 C :    0.118657
  51 C :   -0.007312
  52 C :   -0.103033
  53 C :   -0.172532
  54 N :    0.137807
  55 C :    0.000459
  56 C :    0.068385
  57 C :   -0.089571
  58 S :    0.160956
  59 C :   -0.010874
  60 C :   -0.001391
  61 C :   -0.181161
  62 C :    0.183768
  63 O :   -0.168348
  64 O :   -0.155679
  65 S :    0.114146
  66 C :   -0.021609
  67 C :   -0.014554
  68 H :    0.031780
  69 H :    0.012670
  70 H :    0.178377
  71 H :   -0.004974
  72 H :    0.008766
  73 H :   -0.020076
  74 H :    0.010416
  75 H :    0.033714
  76 H :    0.017200
  77 H :    0.140458
  78 H :    0.008205
  79 H :   -0.015700
  80 H :   -0.022582
  81 H :    0.001413
  82 H :    0.002712
  83 H :   -0.000802
  84 H :    0.002651
  85 H :   -0.006804
  86 H :   -0.011423
  87 H :    0.018610
  88 H :    0.180625
  89 H :   -0.002328
Sum of atomic charges:   -0.0000000

LOEWDIN ATOMIC CHARGES
----------------------
   0 C :   -0.159667
   1 S :    0.447058
   2 C :   -0.204370
   3 C :   -0.013646
   4 C :   -0.228584
   5 C :    0.062713
   6 O :   -0.158855
   7 O :   -0.032902
   8 S :    0.410627
   9 C :   -0.177677
  10 C :   -0.081340
  11 C :   -0.005704
  12 C :   -0.037298
  13 N :    0.280891
  14 O :   -0.211310
  15 O :   -0.203604
  16 C :   -0.028045
  17 C :   -0.038851
  18 C :    0.005677
  19 C :    0.057744
  20 C :   -0.063860
  21 C :    0.045491
  22 C :   -0.079308
  23 N :    0.285777
  24 O :   -0.223305
  25 O :   -0.235032
  26 C :    0.020583
  27 C :   -0.033119
  28 C :    0.005062
  29 C :   -0.202307
  30 S :    0.480225
  31 C :   -0.131130
  32 C :   -0.069806
  33 C :    0.012107
  34 N :    0.090761
  35 C :   -0.022543
  36 C :   -0.048111
  37 N :   -0.021641
  38 C :   -0.024332
  39 C :   -0.040124
  40 C :    0.012980
  41 C :   -0.023453
  42 C :   -0.015502
  43 C :    0.023447
  44 C :   -0.073853
  45 C :    0.045962
  46 C :   -0.029804
  47 N :   -0.060437
  48 C :    0.042508
  49 C :   -0.037194
  50 C :   -0.005626
  51 C :    0.051826
  52 C :   -0.074247
  53 C :   -0.030131
  54 N :   -0.060082
  55 C :   -0.009792
  56 C :   -0.017996
  57 C :   -0.156749
  58 S :    0.440746
  59 C :   -0.200208
  60 C :   -0.017623
  61 C :   -0.224225
  62 C :    0.062266
  63 O :   -0.155591
  64 O :   -0.029920
  65 S :    0.411129
  66 C :   -0.187253
  67 C :   -0.052750
  68 H :    0.028304
  69 H :    0.046169
  70 H :    0.078039
  71 H :    0.034598
  72 H :    0.031449
  73 H :    0.028424
  74 H :    0.040955
  75 H :    0.032228
  76 H :    0.037924
  77 H :    0.103392
  78 H :    0.039080
  79 H :    0.032458
  80 H :    0.037197
  81 H :    0.034825
  82 H :    0.035780
  83 H :    0.034601
  84 H :    0.036133
  85 H :    0.036595
  86 H :    0.030474
  87 H :    0.048030
  88 H :    0.079951
  89 H :    0.036720

  Mayer bond orders larger than 0.100000
B(  0-C ,  1-S ) :   1.1434 B(  0-C , 10-C ) :   1.5924 B(  0-C , 68-H ) :   0.9630
B(  1-S ,  2-C ) :   1.0750 B(  2-C ,  3-C ) :   1.2210 B(  2-C ,  9-C ) :   1.4393
B(  3-C ,  4-C ) :   1.5745 B(  3-C , 69-H ) :   1.0134 B(  4-C ,  5-C ) :   0.9384
B(  4-C ,  8-S ) :   1.0725 B(  5-C ,  6-O ) :   2.2015 B(  5-C ,  7-O ) :   1.2362
B(  7-O , 70-H ) :   0.9507 B(  8-S ,  9-C ) :   1.1035 B(  9-C , 10-C ) :   1.2774
B( 10-C , 11-C ) :   0.9435 B( 11-C , 12-C ) :   1.6104 B( 11-C , 18-C ) :   1.1370
B( 12-C , 13-N ) :   0.9329 B( 12-C , 16-C ) :   1.1202 B( 13-N , 14-O ) :   1.5258
B( 13-N , 15-O ) :   1.5164 B( 14-O , 15-O ) :   0.2693 B( 16-C , 17-C ) :   1.5999
B( 16-C , 71-H ) :   1.0195 B( 17-C , 18-C ) :   1.0910 B( 17-C , 72-H ) :   0.9886
B( 18-C , 19-C ) :   1.4646 B( 19-C , 20-C ) :   1.1727 B( 19-C , 26-C ) :   0.9791
B( 20-C , 21-C ) :   1.5049 B( 20-C , 73-H ) :   1.0164 B( 21-C , 22-C ) :   1.1613
B( 21-C , 74-H ) :   1.0101 B( 22-C , 23-N ) :   0.9767 B( 22-C , 26-C ) :   1.4182
B( 23-N , 24-O ) :   1.5267 B( 23-N , 25-O ) :   1.4748 B( 24-O , 25-O ) :   0.2447
B( 26-C , 27-C ) :   1.3015 B( 27-C , 28-C ) :   1.4077 B( 27-C , 75-H ) :   0.9468
B( 28-C , 29-C ) :   1.3073 B( 28-C , 76-H ) :   0.9676 B( 29-C , 30-S ) :   1.0758
B( 29-C , 33-C ) :   1.2776 B( 30-S , 31-C ) :   1.1563 B( 31-C , 32-C ) :   1.2370
B( 31-C , 39-C ) :   1.2199 B( 32-C , 33-C ) :   1.2628 B( 32-C , 38-C ) :   1.1880
B( 33-C , 34-N ) :   1.2206 B( 34-N , 35-C ) :   1.2016 B( 34-N , 77-H ) :   0.9316
B( 35-C , 36-C ) :   1.0566 B( 35-C , 38-C ) :   1.5877 B( 36-C , 37-N ) :   3.0560
B( 38-C , 78-H ) :   1.0093 B( 39-C , 40-C ) :   1.5450 B( 39-C , 79-H ) :   0.9534
B( 40-C , 41-C ) :   1.1777 B( 40-C , 80-H ) :   0.9758 B( 41-C , 42-C ) :   1.4598
B( 41-C , 45-C ) :   1.0468 B( 42-C , 43-C ) :   1.1520 B( 42-C , 81-H ) :   1.0052
B( 43-C , 44-C ) :   1.1099 B( 43-C , 48-C ) :   1.3640 B( 44-C , 45-C ) :   1.6819
B( 44-C , 46-C ) :   1.0906 B( 45-C , 82-H ) :   1.0132 B( 46-C , 47-N ) :   2.9670
B( 48-C , 49-C ) :   1.1509 B( 48-C , 52-C ) :   1.0987 B( 49-C , 50-C ) :   1.4849
B( 49-C , 83-H ) :   1.0076 B( 50-C , 51-C ) :   1.0354 B( 50-C , 55-C ) :   1.1501
B( 51-C , 52-C ) :   1.6901 B( 51-C , 84-H ) :   1.0144 B( 52-C , 53-C ) :   1.0921
B( 53-C , 54-N ) :   2.9640 B( 55-C , 56-C ) :   1.6310 B( 55-C , 85-H ) :   0.9750
B( 56-C , 57-C ) :   1.1345 B( 56-C , 86-H ) :   0.9611 B( 57-C , 58-S ) :   1.1055
B( 57-C , 67-C ) :   1.4958 B( 58-S , 59-C ) :   1.0785 B( 59-C , 60-C ) :   1.2298
B( 59-C , 66-C ) :   1.4011 B( 60-C , 61-C ) :   1.5666 B( 60-C , 87-H ) :   1.0118
B( 61-C , 62-C ) :   0.9373 B( 61-C , 65-S ) :   1.0733 B( 62-C , 63-O ) :   2.2010
B( 62-C , 64-O ) :   1.2396 B( 64-O , 88-H ) :   0.9501 B( 65-S , 66-C ) :   1.0922
B( 66-C , 67-C ) :   1.2779 B( 67-C , 89-H ) :   0.9980

-----------------------------------------------------------------------------
         ABSORPTION SPECTRUM VIA TRANSITION ELECTRIC DIPOLE MOMENTS
-----------------------------------------------------------------------------
State   Energy  Wavelength   fosc         T2         TX        TY        TZ
        (cm-1)    (nm)                  (au**2)     (au)      (au)      (au)
-----------------------------------------------------------------------------
   0    7414.8   1348.7   0.901149886  40.01042   0.67334  -6.28663   0.18780
   1   11819.5    846.1   0.489019650  13.62082   0.03809  -3.59775  -0.82193
   2   14214.9    703.5   0.067990545   1.57464   0.21081  -1.20581  -0.27608
   3   15464.9    646.6   0.011697937   0.24902  -0.02100   0.28540   0.40882
   4   18127.3    551.7   0.049566513   0.90018   0.06985  -0.94585  -0.02583
   5   19460.9    513.9   0.016949545   0.28673   0.03329  -0.52477   0.10120
   6   19666.4    508.5   0.411859872   6.89447   0.05414   2.61956   0.17157
   7   20728.5    482.4   0.011960407   0.18996  -0.31451  -0.29938  -0.03756
   8   21702.9    460.8   0.032100674   0.48694   0.42839  -0.51392  -0.19824
   9   22473.6    445.0   0.195763354   2.86771   0.72107  -1.41699  -0.58301
  10   23190.4    431.2   0.075555966   1.07260  -0.00812  -1.00168  -0.26301
  11   24768.6    403.7   0.008042080   0.10689  -0.14419   0.21690   0.19763
  12   25359.7    394.3   0.130479913   1.69385   0.57165   1.15282  -0.19511
  13   25654.0    389.8   0.064459074   0.82719   0.18137   0.87534   0.16754
  14   26098.5    383.2   0.023709906   0.29908  -0.01821   0.52263  -0.16004
  15   26503.2    377.3   0.003248367   0.04035   0.07684   0.18179   0.03740
  16   26896.4    371.8   0.000498117   0.00610  -0.05175   0.05841   0.00254
  17   27600.8    362.3   0.112149947   1.33768   1.02088  -0.08894  -0.53626
  18   28089.2    356.0   0.468193865   5.48734   0.81474  -2.07648  -0.71538
  19   28910.3    345.9   0.025983476   0.29588   0.01303  -0.53422  -0.10161
  20   28999.9    344.8   0.358514265   4.06992  -1.12024   1.66652   0.19418
  21   29415.8    340.0   0.172521845   1.93081  -0.53515  -1.06510  -0.71413
  22   29724.2    336.4   0.433702791   4.80350   2.18401   0.16343  -0.08302
  23   30083.5    332.4   0.079286558   0.86765   0.91442  -0.14082   0.10794
  24   30387.6    329.1   0.050775281   0.55009  -0.71289  -0.20120  -0.03741
  25   30879.3    323.8   0.081427001   0.86811  -0.92149   0.08968  -0.10453
  26   31215.4    320.4   0.012916753   0.13623   0.34508   0.12884   0.02333
  27   31666.1    315.8   0.007677839   0.07982   0.13661   0.22409  -0.10462
  28   32040.8    312.1   0.015875033   0.16311   0.29239  -0.27268  -0.05713
  29   32221.2    310.4   0.135383455   1.38325  -1.10760  -0.33461  -0.21098
  30   32816.8    304.7   0.011095404   0.11131   0.33334   0.00496   0.01282
  31   32959.4    303.4   0.171181069   1.70983  -1.29023  -0.09296  -0.19103
  32   33195.3    301.2   0.044685686   0.44317  -0.31631  -0.51031  -0.28757
  33   33485.2    298.6   0.039789082   0.39119  -0.28194   0.53546   0.15805
  34   33712.0    296.6   0.005649521   0.05517  -0.09236   0.12383   0.17694
  35   33846.4    295.5   0.085859193   0.83512  -0.60516   0.67073   0.13791
  36   34137.7    292.9   0.005543306   0.05346   0.07081  -0.09229  -0.19982
  37   34378.6    290.9   0.040589665   0.38869  -0.58420   0.18913  -0.10783
  38   34778.0    287.5   0.126523266   1.19768  -0.88152  -0.64550   0.06269
  39   35272.2    283.5   0.036294020   0.33875  -0.50331   0.16856  -0.23878
  40   35539.5    281.4   0.132367260   1.22615   1.01712  -0.27100   0.34376
  41   35788.6    279.4   0.023103412   0.21252  -0.44426  -0.12034  -0.02596
  42   36112.0    276.9   0.016501623   0.15044  -0.10962  -0.34843   0.13044
  43   36163.2    276.5   0.048254324   0.43928  -0.66010   0.04816  -0.03505
  44   36227.6    276.0   0.000122196   0.00111  -0.01289   0.01152  -0.02849
  45   36319.7    275.3   0.095151531   0.86248   0.47894  -0.79347  -0.05925
  46   36602.8    273.2   0.038085018   0.34254  -0.20235  -0.52839  -0.14968
  47   36677.6    272.6   0.074350089   0.66735  -0.69662   0.01897  -0.42628
  48   37127.9    269.3   0.050953732   0.45181   0.26936   0.58478   0.19308
  49   37574.0    266.1   0.038887424   0.34072   0.54712   0.18206   0.09073
  50   38023.7    263.0   0.016364386   0.14168   0.30679   0.21795  -0.00783
  51   38109.4    262.4   0.153957854   1.32998   0.65311   0.94517  -0.10042
  52   38795.5    257.8   0.004432577   0.03761  -0.09627  -0.04365  -0.16261
  53   38861.9    257.3   0.038111037   0.32285  -0.31493  -0.00100   0.47294
  54   39265.3    254.7   0.036855469   0.30901  -0.33462  -0.37150   0.24294
  55   39325.0    254.3   0.136167171   1.13993  -0.79551  -0.66608   0.25187
  56   39465.5    253.4   0.000868712   0.00725   0.06041   0.05811  -0.01484
  57   39684.9    252.0   0.016930482   0.14045   0.35416   0.02080  -0.12077
  58   39815.4    251.2   0.011041752   0.09130   0.06656   0.29315  -0.03048
  59   40069.8    249.6   0.175265474   1.43997   1.14748   0.18488  -0.29846

FINAL SINGLE POINT ENERGY     -4797.247082441181

DIPOLE MOMENT
-------------
                                X             Y             Z
Electronic contribution:     -5.13430       9.83108       0.75630
Nuclear contribution   :      6.87914     -11.78257      -2.09058
                        -----------------------------------------
Total Dipole Moment    :      1.74484      -1.95149      -1.33429
                        -----------------------------------------
Magnitude (a.u.)       :      2.93821
Magnitude (Debye)      :      7.46834

Rotational constants in cm-1:     0.002463     0.000177     0.000170
Rotational constants in MHz :    73.848721     5.312103     5.103431

                             ****ORCA TERMINATED NORMALLY****
TOTAL RUN TIME: 0 days 0 hours 10 minutes 38 seconds 847 msec
