                         Program Version 4.2.0 -  RELEASE  -
|  1> # ORCA input file
|  2> # SCF done       -217.647773910085          0.000790724908
|  3> ! CAM-B3LYP def2-SVP def2/J RIJCOSX Grid4 TightSCF
|  4> %maxcore 5000
|  5> %tddft
|  6>     Mode sTDDFT
|  7>     Ethresh 5.0
|  8>     maxcore 5000
|  9> end
| 10>
| 11> %pal
| 12>   nprocs 6
| 13>   end
| 14> * xyz 0 1
| 15>    C        3.05134        -2.27546        -3.61335
| 16>    C        2.68382        -2.85349        -2.40704
| 17>    C        2.48130        -4.27694        -2.29209
| 18>    N        2.10731        -4.80514        -1.12852
| 19>    C        1.93093        -4.03228        -0.08131
| 20>    C        2.15350        -2.61747        -0.19128
| 21>    N        2.51265        -2.06836        -1.31947
| 22>    C        1.96941        -1.79413         0.95153
| 23>    N        1.80755        -1.16136         1.89165
| 24>    C        1.49917        -4.61020         1.13519
| 25>    N        1.13262        -5.05292         2.12682
| 26>    C        2.65026        -5.16744        -3.38877
| 27>    C        3.01441        -4.55559        -4.61250
| 28>    C        3.21100        -3.12156        -4.70600
| 29>    N        3.55435        -2.75001        -5.94506
| 30>    S        3.62276        -4.03863        -6.88386
| 31>    N        3.22415        -5.15149        -5.78828
| 32>    C        2.45113        -6.55130        -3.20095
| 33>    S        2.05322        -7.20258        -1.62421
| 34>    C        1.97335        -8.85226        -2.19591
| 35>    C        2.23420        -8.89248        -3.56507
| 36>    C        2.50944        -7.60830        -4.11542
| 37>    N        2.74942        -7.80348        -5.42619
| 38>    N        2.65061        -9.09828        -5.75376
| 39>    C        2.34470        -9.77109        -4.67173
| 40>    C        1.65323        -9.93181        -1.34395
| 41>    C        1.52204        -9.78778        -0.00408
| 42>    C        1.20701       -10.80908         0.95394
| 43>    C        0.29201       -11.87527         0.80104
| 44>    C       -0.61976       -12.01861        -0.35123
| 45>    O       -0.74050       -11.31571        -1.30981
| 46>    S       -1.66580       -13.46124        -0.10866
| 47>    C       -0.94320       -13.84567         1.48475
| 48>    O       -1.29731       -14.77787         2.14184
| 49>    C        0.08481       -12.83255         1.80286
| 50>    C        0.73120       -12.78874         3.04648
| 51>    C        1.59517       -11.70218         3.20734
| 52>    C        1.83014       -10.76816         2.21463
| 53>    C        2.88782        -9.85618         2.71444
| 54>    O        3.40732        -8.92112         2.19116
| 55>    O        3.23133       -10.28936         3.97537
| 56>    C        2.50923       -11.39775         4.33434
| 57>    O        2.65957       -11.96485         5.37142
| 58>    C        0.58330       -13.75449         4.11939
| 59>    C        0.87975       -15.05192         3.99134
| 60>    C        0.80967       -15.99512         5.07455
| 61>    C        1.73064       -16.98782         5.41159
| 62>    C        1.24767       -17.78067         6.49089
| 63>    C        0.02256       -17.37126         6.94241
| 64>    S       -0.60093       -16.02117         6.08279
| 65>    C       -0.52772       -18.33352         7.91956
| 66>    C        0.76504       -18.97688         8.42940
| 67>    C        1.75115       -19.00398         7.23426
| 68>    C        1.67698       -20.26601         6.35150
| 69>    C        0.34723       -20.52741         5.65330
| 70>    C        3.19930       -18.87660         7.75662
| 71>    C        3.59175       -17.48719         8.24803
| 72>    C        0.30245       -20.14886         9.27426
| 73>    C       -0.73927       -19.52686        10.21906
| 74>    S       -1.40497       -17.96401         9.47488
| 75>    C        3.03542       -17.15675         4.85243
| 76>    C        3.68156       -16.23720         4.09854
| 77>    C        5.02577       -16.25303         3.61163
| 78>    C        5.98398       -17.30681         3.60406
| 79>    C        5.66396       -18.73882         3.76064
| 80>    O        4.59741       -19.27222         3.87470
| 81>    S        7.16216       -19.71648         3.67840
| 82>    C        8.18296       -18.29255         3.31098
| 83>    O        9.34204       -18.39844         3.04817
| 84>    C        7.34151       -17.07567         3.33954
| 85>    C        7.86132       -15.80915         3.01383
| 86>    C        6.88196       -14.83153         2.81828
| 87>    C        5.53499       -15.03815         3.09686
| 88>    C        4.83480       -13.78889         2.74306
| 89>    O        3.66731       -13.50943         2.75684
| 90>    O        5.77139       -12.89333         2.30064
| 91>    C        7.03421       -13.44641         2.32668
| 92>    O        8.00367       -12.84690         1.98124
| 93>    C        9.26716       -15.47068         2.85354
| 94>    C       10.22773       -15.81826         3.69944
| 95>    H        3.20514        -1.21384        -3.69406
| 96>    H        2.98550        -7.08368        -6.09808
| 97>    H        2.21222       -10.83293        -4.70730
| 98>    H        1.54462       -10.89641        -1.81893
| 99>    H        1.76024        -8.82396         0.42949
|100>    H        0.35633       -13.34420         5.09440
|101>    H        1.21130       -15.44119         3.03689
|102>    H       -1.18289       -19.03912         7.39808
|103>    H        1.19055       -18.24839         9.13063
|104>    H        2.44308       -20.17572         5.57840
|105>    H        1.93668       -21.12701         6.97147
|106>    H        0.01744       -19.64975         5.10260
|107>    H       -0.43151       -20.81627         6.35362
|108>    H        0.47130       -21.34250         4.94403
|109>    H        3.31810       -19.59347         8.57272
|110>    H        3.89476       -19.17593         6.97060
|111>    H        3.56148       -16.76133         7.43918
|112>    H        4.60483       -17.51423         8.64287
|113>    H        2.93495       -17.13751         9.04073
|114>    H        1.11182       -20.59555         9.85077
|115>    H       -0.15464       -20.92393         8.65874
|116>    H       -0.29817       -19.23725        11.17130
|117>    H       -1.58244       -20.18825        10.40798
|118>    H        3.51750       -18.07784         5.12854
|119>    H        3.17818       -15.30017         3.91560
|120>    H        9.47978       -14.80345         2.02920
|121>    H       10.04015       -16.42179         4.57137
|122>    H       11.24189       -15.49347         3.54961
|123> *
|124>
|125>                          ****END OF INPUT****

CARTESIAN COORDINATES (ANGSTROEM)
---------------------------------
  C      3.051340   -2.275460   -3.613350
  C      2.683820   -2.853490   -2.407040
  C      2.481300   -4.276940   -2.292090
  N      2.107310   -4.805140   -1.128520
  C      1.930930   -4.032280   -0.081310
  C      2.153500   -2.617470   -0.191280
  N      2.512650   -2.068360   -1.319470
  C      1.969410   -1.794130    0.951530
  N      1.807550   -1.161360    1.891650
  C      1.499170   -4.610200    1.135190
  N      1.132620   -5.052920    2.126820
  C      2.650260   -5.167440   -3.388770
  C      3.014410   -4.555590   -4.612500
  C      3.211000   -3.121560   -4.706000
  N      3.554350   -2.750010   -5.945060
  S      3.622760   -4.038630   -6.883860
  N      3.224150   -5.151490   -5.788280
  C      2.451130   -6.551300   -3.200950
  S      2.053220   -7.202580   -1.624210
  C      1.973350   -8.852260   -2.195910
  C      2.234200   -8.892480   -3.565070
  C      2.509440   -7.608300   -4.115420
  N      2.749420   -7.803480   -5.426190
  N      2.650610   -9.098280   -5.753760
  C      2.344700   -9.771090   -4.671730
  C      1.653230   -9.931810   -1.343950
  C      1.522040   -9.787780   -0.004080
  C      1.207010  -10.809080    0.953940
  C      0.292010  -11.875270    0.801040
  C     -0.619760  -12.018610   -0.351230
  O     -0.740500  -11.315710   -1.309810
  S     -1.665800  -13.461240   -0.108660
  C     -0.943200  -13.845670    1.484750
  O     -1.297310  -14.777870    2.141840
  C      0.084810  -12.832550    1.802860
  C      0.731200  -12.788740    3.046480
  C      1.595170  -11.702180    3.207340
  C      1.830140  -10.768160    2.214630
  C      2.887820   -9.856180    2.714440
  O      3.407320   -8.921120    2.191160
  O      3.231330  -10.289360    3.975370
  C      2.509230  -11.397750    4.334340
  O      2.659570  -11.964850    5.371420
  C      0.583300  -13.754490    4.119390
  C      0.879750  -15.051920    3.991340
  C      0.809670  -15.995120    5.074550
  C      1.730640  -16.987820    5.411590
  C      1.247670  -17.780670    6.490890
  C      0.022560  -17.371260    6.942410
  S     -0.600930  -16.021170    6.082790
  C     -0.527720  -18.333520    7.919560
  C      0.765040  -18.976880    8.429400
  C      1.751150  -19.003980    7.234260
  C      1.676980  -20.266010    6.351500
  C      0.347230  -20.527410    5.653300
  C      3.199300  -18.876600    7.756620
  C      3.591750  -17.487190    8.248030
  C      0.302450  -20.148860    9.274260
  C     -0.739270  -19.526860   10.219060
  S     -1.404970  -17.964010    9.474880
  C      3.035420  -17.156750    4.852430
  C      3.681560  -16.237200    4.098540
  C      5.025770  -16.253030    3.611630
  C      5.983980  -17.306810    3.604060
  C      5.663960  -18.738820    3.760640
  O      4.597410  -19.272220    3.874700
  S      7.162160  -19.716480    3.678400
  C      8.182960  -18.292550    3.310980
  O      9.342040  -18.398440    3.048170
  C      7.341510  -17.075670    3.339540
  C      7.861320  -15.809150    3.013830
  C      6.881960  -14.831530    2.818280
  C      5.534990  -15.038150    3.096860
  C      4.834800  -13.788890    2.743060
  O      3.667310  -13.509430    2.756840
  O      5.771390  -12.893330    2.300640
  C      7.034210  -13.446410    2.326680
  O      8.003670  -12.846900    1.981240
  C      9.267160  -15.470680    2.853540
  C     10.227730  -15.818260    3.699440
  H      3.205140   -1.213840   -3.694060
  H      2.985500   -7.083680   -6.098080
  H      2.212220  -10.832930   -4.707300
  H      1.544620  -10.896410   -1.818930
  H      1.760240   -8.823960    0.429490
  H      0.356330  -13.344200    5.094400
  H      1.211300  -15.441190    3.036890
  H     -1.182890  -19.039120    7.398080
  H      1.190550  -18.248390    9.130630
  H      2.443080  -20.175720    5.578400
  H      1.936680  -21.127010    6.971470
  H      0.017440  -19.649750    5.102600
  H     -0.431510  -20.816270    6.353620
  H      0.471300  -21.342500    4.944030
  H      3.318100  -19.593470    8.572720
  H      3.894760  -19.175930    6.970600
  H      3.561480  -16.761330    7.439180
  H      4.604830  -17.514230    8.642870
  H      2.934950  -17.137510    9.040730
  H      1.111820  -20.595550    9.850770
  H     -0.154640  -20.923930    8.658740
  H     -0.298170  -19.237250   11.171300
  H     -1.582440  -20.188250   10.407980
  H      3.517500  -18.077840    5.128540
  H      3.178180  -15.300170    3.915600
  H      9.479780  -14.803450    2.029200
  H     10.040150  -16.421790    4.571370
  H     11.241890  -15.493470    3.549610

 Total Charge           Charge          ....    0
 Multiplicity           Mult            ....    1
 Number of Electrons    NEL             ....  596
 Basis Dimension        Dim             .... 1284

ORBITAL ENERGIES
----------------

  NO   OCC          E(Eh)            E(eV)
   0   2.0000     -89.049072     -2423.1484
   1   2.0000     -88.971173     -2421.0287
   2   2.0000     -88.966679     -2420.9064
   3   2.0000     -88.959488     -2420.7107
   4   2.0000     -88.953304     -2420.5425
   5   2.0000     -88.902685     -2419.1650
   6   2.0000     -19.306088      -525.3454
   7   2.0000     -19.290462      -524.9202
   8   2.0000     -19.257351      -524.0192
   9   2.0000     -19.252965      -523.8998
  10   2.0000     -19.252323      -523.8823
  11   2.0000     -19.249034      -523.7928
  12   2.0000     -19.245340      -523.6923
  13   2.0000     -19.243427      -523.6403
  14   2.0000     -19.239245      -523.5265
  15   2.0000     -19.237468      -523.4781
  16   2.0000     -14.483301      -394.1106
  17   2.0000     -14.466640      -393.6573
  18   2.0000     -14.464520      -393.5996
  19   2.0000     -14.454980      -393.3400
  20   2.0000     -14.453051      -393.2875
  21   2.0000     -14.441909      -392.9843
  22   2.0000     -14.426087      -392.5538
  23   2.0000     -14.425062      -392.5259
  24   2.0000     -10.450881      -284.3829
  25   2.0000     -10.444569      -284.2112
  26   2.0000     -10.432063      -283.8709
  27   2.0000     -10.430712      -283.8341
  28   2.0000     -10.417307      -283.4693
  29   2.0000     -10.413711      -283.3715
  30   2.0000     -10.409892      -283.2676
  31   2.0000     -10.407612      -283.2055
  32   2.0000     -10.380138      -282.4579
  33   2.0000     -10.376331      -282.3543
  34   2.0000     -10.351970      -281.6914
  35   2.0000     -10.347580      -281.5720
  36   2.0000     -10.344706      -281.4938
  37   2.0000     -10.344175      -281.4793
  38   2.0000     -10.343791      -281.4689
  39   2.0000     -10.339753      -281.3590
  40   2.0000     -10.339452      -281.3508
  41   2.0000     -10.339088      -281.3409
  42   2.0000     -10.338267      -281.3186
  43   2.0000     -10.335292      -281.2376
  44   2.0000     -10.334733      -281.2224
  45   2.0000     -10.333965      -281.2015
  46   2.0000     -10.333067      -281.1770
  47   2.0000     -10.331715      -281.1403
  48   2.0000     -10.330130      -281.0971
  49   2.0000     -10.329916      -281.0913
  50   2.0000     -10.324816      -280.9525
  51   2.0000     -10.324784      -280.9517
  52   2.0000     -10.324158      -280.9346
  53   2.0000     -10.323664      -280.9212
  54   2.0000     -10.319605      -280.8107
  55   2.0000     -10.319067      -280.7961
  56   2.0000     -10.312745      -280.6240
  57   2.0000     -10.306297      -280.4486
  58   2.0000     -10.303609      -280.3755
  59   2.0000     -10.300796      -280.2989
  60   2.0000     -10.299641      -280.2675
  61   2.0000     -10.298631      -280.2400
  62   2.0000     -10.297911      -280.2204
  63   2.0000     -10.295786      -280.1626
  64   2.0000     -10.291431      -280.0441
  65   2.0000     -10.291102      -280.0351
  66   2.0000     -10.290680      -280.0236
  67   2.0000     -10.290478      -280.0182
  68   2.0000     -10.288955      -279.9767
  69   2.0000     -10.288337      -279.9599
  70   2.0000     -10.288188      -279.9558
  71   2.0000     -10.287199      -279.9289
  72   2.0000     -10.286012      -279.8966
  73   2.0000     -10.276259      -279.6312
  74   2.0000     -10.274756      -279.5903
  75   2.0000     -10.274570      -279.5853
  76   2.0000     -10.266045      -279.3533
  77   2.0000     -10.263161      -279.2748
  78   2.0000     -10.254808      -279.0475
  79   2.0000     -10.253258      -279.0053
  80   2.0000      -8.140484      -221.5138
  81   2.0000      -8.063647      -219.4230
  82   2.0000      -8.061859      -219.3743
  83   2.0000      -8.058983      -219.2961
  84   2.0000      -8.052597      -219.1223
  85   2.0000      -7.998795      -217.6583
  86   2.0000      -6.111531      -166.3032
  87   2.0000      -6.103817      -166.0933
  88   2.0000      -6.103226      -166.0772
  89   2.0000      -6.033396      -164.1771
  90   2.0000      -6.031078      -164.1140
  91   2.0000      -6.028518      -164.0443
  92   2.0000      -6.027785      -164.0244
  93   2.0000      -6.026780      -163.9970
  94   2.0000      -6.025725      -163.9683
  95   2.0000      -6.024612      -163.9380
  96   2.0000      -6.024291      -163.9293
  97   2.0000      -6.021408      -163.8508
  98   2.0000      -6.020004      -163.8126
  99   2.0000      -6.018179      -163.7630
 100   2.0000      -6.013717      -163.6416
 101   2.0000      -5.969346      -162.4342
 102   2.0000      -5.965807      -162.3379
 103   2.0000      -5.957592      -162.1143
 104   2.0000      -1.256192       -34.1827
 105   2.0000      -1.239695       -33.7338
 106   2.0000      -1.181126       -32.1401
 107   2.0000      -1.178148       -32.0590
 108   2.0000      -1.173106       -31.9218
 109   2.0000      -1.171237       -31.8710
 110   2.0000      -1.166623       -31.7454
 111   2.0000      -1.165777       -31.7224
 112   2.0000      -1.151225       -31.3264
 113   2.0000      -1.145803       -31.1789
 114   2.0000      -1.142736       -31.0954
 115   2.0000      -1.128213       -30.7002
 116   2.0000      -1.119198       -30.4549
 117   2.0000      -1.046672       -28.4814
 118   2.0000      -1.024742       -27.8847
 119   2.0000      -1.018261       -27.7083
 120   2.0000      -1.011126       -27.5141
 121   2.0000      -1.006482       -27.3878
 122   2.0000      -1.004305       -27.3285
 123   2.0000      -0.998952       -27.1829
 124   2.0000      -0.993426       -27.0325
 125   2.0000      -0.972105       -26.4523
 126   2.0000      -0.963082       -26.2068
 127   2.0000      -0.961240       -26.1567
 128   2.0000      -0.954005       -25.9598
 129   2.0000      -0.941747       -25.6262
 130   2.0000      -0.939707       -25.5707
 131   2.0000      -0.925861       -25.1940
 132   2.0000      -0.911655       -24.8074
 133   2.0000      -0.906814       -24.6757
 134   2.0000      -0.906238       -24.6600
 135   2.0000      -0.902606       -24.5612
 136   2.0000      -0.891706       -24.2646
 137   2.0000      -0.885194       -24.0873
 138   2.0000      -0.875247       -23.8167
 139   2.0000      -0.872187       -23.7334
 140   2.0000      -0.859873       -23.3983
 141   2.0000      -0.851547       -23.1718
 142   2.0000      -0.845424       -23.0051
 143   2.0000      -0.841081       -22.8870
 144   2.0000      -0.834366       -22.7043
 145   2.0000      -0.821899       -22.3650
 146   2.0000      -0.816713       -22.2239
 147   2.0000      -0.810468       -22.0540
 148   2.0000      -0.807896       -21.9840
 149   2.0000      -0.799905       -21.7665
 150   2.0000      -0.798670       -21.7329
 151   2.0000      -0.787450       -21.4276
 152   2.0000      -0.782922       -21.3044
 153   2.0000      -0.776442       -21.1281
 154   2.0000      -0.770322       -20.9615
 155   2.0000      -0.761780       -20.7291
 156   2.0000      -0.759435       -20.6653
 157   2.0000      -0.748685       -20.3727
 158   2.0000      -0.737083       -20.0570
 159   2.0000      -0.733424       -19.9575
 160   2.0000      -0.719559       -19.5802
 161   2.0000      -0.717146       -19.5145
 162   2.0000      -0.706908       -19.2360
 163   2.0000      -0.704135       -19.1605
 164   2.0000      -0.700962       -19.0741
 165   2.0000      -0.696893       -18.9634
 166   2.0000      -0.694838       -18.9075
 167   2.0000      -0.690788       -18.7973
 168   2.0000      -0.683423       -18.5969
 169   2.0000      -0.680431       -18.5155
 170   2.0000      -0.672114       -18.2892
 171   2.0000      -0.661951       -18.0126
 172   2.0000      -0.658287       -17.9129
 173   2.0000      -0.649235       -17.6666
 174   2.0000      -0.645992       -17.5783
 175   2.0000      -0.644818       -17.5464
 176   2.0000      -0.639447       -17.4002
 177   2.0000      -0.637549       -17.3486
 178   2.0000      -0.636863       -17.3299
 179   2.0000      -0.635176       -17.2840
 180   2.0000      -0.632623       -17.2145
 181   2.0000      -0.627136       -17.0652
 182   2.0000      -0.624164       -16.9844
 183   2.0000      -0.618475       -16.8296
 184   2.0000      -0.616352       -16.7718
 185   2.0000      -0.611812       -16.6483
 186   2.0000      -0.608287       -16.5523
 187   2.0000      -0.603869       -16.4321
 188   2.0000      -0.596205       -16.2236
 189   2.0000      -0.594381       -16.1739
 190   2.0000      -0.584738       -15.9115
 191   2.0000      -0.582699       -15.8560
 192   2.0000      -0.580244       -15.7892
 193   2.0000      -0.578933       -15.7536
 194   2.0000      -0.574155       -15.6236
 195   2.0000      -0.568636       -15.4734
 196   2.0000      -0.565006       -15.3746
 197   2.0000      -0.563108       -15.3230
 198   2.0000      -0.562262       -15.2999
 199   2.0000      -0.559303       -15.2194
 200   2.0000      -0.558579       -15.1997
 201   2.0000      -0.556125       -15.1329
 202   2.0000      -0.554322       -15.0839
 203   2.0000      -0.552113       -15.0238
 204   2.0000      -0.550978       -14.9929
 205   2.0000      -0.549614       -14.9558
 206   2.0000      -0.546363       -14.8673
 207   2.0000      -0.544384       -14.8134
 208   2.0000      -0.542774       -14.7696
 209   2.0000      -0.540692       -14.7130
 210   2.0000      -0.539074       -14.6689
 211   2.0000      -0.535139       -14.5619
 212   2.0000      -0.533455       -14.5160
 213   2.0000      -0.530199       -14.4274
 214   2.0000      -0.528302       -14.3758
 215   2.0000      -0.527950       -14.3662
 216   2.0000      -0.523656       -14.2494
 217   2.0000      -0.522269       -14.2116
 218   2.0000      -0.521181       -14.1820
 219   2.0000      -0.518224       -14.1016
 220   2.0000      -0.516970       -14.0675
 221   2.0000      -0.512191       -13.9374
 222   2.0000      -0.510487       -13.8911
 223   2.0000      -0.507362       -13.8060
 224   2.0000      -0.504411       -13.7257
 225   2.0000      -0.502143       -13.6640
 226   2.0000      -0.499034       -13.5794
 227   2.0000      -0.495745       -13.4899
 228   2.0000      -0.494820       -13.4647
 229   2.0000      -0.491160       -13.3652
 230   2.0000      -0.490161       -13.3380
 231   2.0000      -0.488861       -13.3026
 232   2.0000      -0.487874       -13.2757
 233   2.0000      -0.484428       -13.1820
 234   2.0000      -0.483294       -13.1511
 235   2.0000      -0.477127       -12.9833
 236   2.0000      -0.476598       -12.9689
 237   2.0000      -0.475812       -12.9475
 238   2.0000      -0.474325       -12.9070
 239   2.0000      -0.470843       -12.8123
 240   2.0000      -0.469356       -12.7718
 241   2.0000      -0.467311       -12.7162
 242   2.0000      -0.465766       -12.6741
 243   2.0000      -0.464530       -12.6405
 244   2.0000      -0.460319       -12.5259
 245   2.0000      -0.457994       -12.4627
 246   2.0000      -0.456267       -12.4156
 247   2.0000      -0.451637       -12.2897
 248   2.0000      -0.450869       -12.2688
 249   2.0000      -0.450016       -12.2456
 250   2.0000      -0.445357       -12.1188
 251   2.0000      -0.440397       -11.9838
 252   2.0000      -0.439995       -11.9729
 253   2.0000      -0.433507       -11.7963
 254   2.0000      -0.429887       -11.6978
 255   2.0000      -0.428805       -11.6684
 256   2.0000      -0.427324       -11.6281
 257   2.0000      -0.425309       -11.5732
 258   2.0000      -0.424263       -11.5448
 259   2.0000      -0.421044       -11.4572
 260   2.0000      -0.420322       -11.4375
 261   2.0000      -0.415398       -11.3036
 262   2.0000      -0.412619       -11.2279
 263   2.0000      -0.409660       -11.1474
 264   2.0000      -0.408510       -11.1161
 265   2.0000      -0.405684       -11.0392
 266   2.0000      -0.404275       -11.0009
 267   2.0000      -0.397450       -10.8152
 268   2.0000      -0.396594       -10.7919
 269   2.0000      -0.395098       -10.7512
 270   2.0000      -0.392408       -10.6780
 271   2.0000      -0.391676       -10.6580
 272   2.0000      -0.390092       -10.6149
 273   2.0000      -0.388374       -10.5682
 274   2.0000      -0.384824       -10.4716
 275   2.0000      -0.383876       -10.4458
 276   2.0000      -0.382050       -10.3961
 277   2.0000      -0.376127       -10.2349
 278   2.0000      -0.373975       -10.1764
 279   2.0000      -0.371571       -10.1110
 280   2.0000      -0.370559       -10.0834
 281   2.0000      -0.368936       -10.0393
 282   2.0000      -0.363969        -9.9041
 283   2.0000      -0.357235        -9.7208
 284   2.0000      -0.355623        -9.6770
 285   2.0000      -0.354208        -9.6385
 286   2.0000      -0.349797        -9.5184
 287   2.0000      -0.348906        -9.4942
 288   2.0000      -0.346238        -9.4216
 289   2.0000      -0.343196        -9.3388
 290   2.0000      -0.334379        -9.0989
 291   2.0000      -0.331708        -9.0262
 292   2.0000      -0.322171        -8.7667
 293   2.0000      -0.316204        -8.6043
 294   2.0000      -0.297040        -8.0829
 295   2.0000      -0.281058        -7.6480
 296   2.0000      -0.270377        -7.3573
 297   2.0000      -0.245704        -6.6860
 298   0.0000      -0.125032        -3.4023
 299   0.0000      -0.107319        -2.9203
 300   0.0000      -0.093998        -2.5578
 301   0.0000      -0.086449        -2.3524
 302   0.0000      -0.071776        -1.9531

MULLIKEN ATOMIC CHARGES
-----------------------
   0 C :   -0.117228
   1 C :    0.040434
   2 C :   -0.072595
   3 N :   -0.002670
   4 C :   -0.102589
   5 C :   -0.145568
   6 N :    0.054476
   7 C :   -0.210000
   8 N :    0.234627
   9 C :   -0.230357
  10 N :    0.240387
  11 C :    0.213293
  12 C :   -0.019712
  13 C :    0.109790
  14 N :   -0.265975
  15 S :    0.542572
  16 N :   -0.355432
  17 C :   -0.279671
  18 S :    0.180708
  19 C :   -0.072734
  20 C :    0.003716
  21 C :    0.172822
  22 N :   -0.011948
  23 N :   -0.053041
  24 C :   -0.000420
  25 C :    0.075361
  26 C :   -0.064579
  27 C :    0.055661
  28 C :    0.033059
  29 C :    0.021144
  30 O :   -0.123065
  31 S :    0.016345
  32 C :    0.029378
  33 O :   -0.115798
  34 C :    0.027797
  35 C :    0.000295
  36 C :   -0.017003
  37 C :   -0.070604
  38 C :    0.243588
  39 O :   -0.099865
  40 O :   -0.230781
  41 C :    0.232214
  42 O :   -0.107081
  43 C :   -0.047075
  44 C :    0.061385
  45 C :   -0.185705
  46 C :    0.126963
  47 C :   -0.046624
  48 C :   -0.087394
  49 S :    0.198688
  50 C :   -0.080674
  51 C :   -0.152522
  52 C :   -0.128158
  53 C :    0.058999
  54 C :    0.032059
  55 C :    0.028469
  56 C :    0.046622
  57 C :    0.158721
  58 C :   -0.057345
  59 S :   -0.062403
  60 C :    0.031082
  61 C :   -0.089698
  62 C :    0.107547
  63 C :    0.021418
  64 C :    0.032898
  65 O :   -0.134897
  66 S :    0.027195
  67 C :    0.026296
  68 O :   -0.108479
  69 C :    0.019058
  70 C :   -0.007958
  71 C :   -0.069854
  72 C :   -0.082203
  73 C :    0.257770
  74 O :   -0.146176
  75 O :   -0.231614
  76 C :    0.242579
  77 O :   -0.091483
  78 C :   -0.048577
  79 C :    0.041999
  80 H :   -0.023689
  81 H :    0.136952
  82 H :   -0.000008
  83 H :   -0.003080
  84 H :    0.043014
  85 H :    0.029591
  86 H :    0.027798
  87 H :    0.055323
  88 H :    0.020446
  89 H :    0.007847
  90 H :   -0.002637
  91 H :    0.021666
  92 H :    0.006225
  93 H :    0.014204
  94 H :   -0.002441
  95 H :   -0.003999
  96 H :    0.017802
  97 H :    0.009638
  98 H :    0.015215
  99 H :    0.010300
 100 H :    0.002162
 101 H :    0.047778
 102 H :    0.044604
 103 H :   -0.009916
 104 H :    0.015541
 105 H :    0.033720
 106 H :    0.025683
 107 H :    0.040405
Sum of atomic charges:   -0.0000000

LOEWDIN ATOMIC CHARGES
----------------------
   0 C :   -0.042848
   1 C :   -0.002913
   2 C :   -0.026033
   3 N :   -0.015714
   4 C :   -0.038035
   5 C :   -0.020305
   6 N :   -0.005667
   7 C :   -0.033508
   8 N :   -0.003674
   9 C :   -0.039770
  10 N :   -0.011296
  11 C :   -0.017760
  12 C :   -0.039790
  13 C :   -0.039415
  14 N :   -0.284391
  15 S :    0.669777
  16 N :   -0.287649
  17 C :   -0.197873
  18 S :    0.509059
  19 C :   -0.136505
  20 C :   -0.095096
  21 C :    0.001286
  22 N :    0.109465
  23 N :   -0.053134
  24 C :   -0.029431
  25 C :    0.004618
  26 C :   -0.016694
  27 C :    0.025448
  28 C :   -0.057497
  29 C :   -0.045234
  30 O :   -0.111935
  31 S :    0.303539
  32 C :   -0.047799
  33 O :   -0.108890
  34 C :   -0.052876
  35 C :    0.032622
  36 C :   -0.030138
  37 C :   -0.038371
  38 C :    0.112614
  39 O :   -0.091848
  40 O :   -0.052392
  41 C :    0.104245
  42 O :   -0.100327
  43 C :   -0.026858
  44 C :   -0.004036
  45 C :   -0.148589
  46 C :   -0.069630
  47 C :   -0.035177
  48 C :   -0.193949
  49 S :    0.481098
  50 C :   -0.133023
  51 C :   -0.027565
  52 C :   -0.034567
  53 C :   -0.022844
  54 C :   -0.058646
  55 C :   -0.026348
  56 C :   -0.057150
  57 C :   -0.034266
  58 C :   -0.113796
  59 S :    0.193825
  60 C :    0.046450
  61 C :   -0.060853
  62 C :    0.040139
  63 C :   -0.059972
  64 C :   -0.041960
  65 O :   -0.118340
  66 S :    0.311835
  67 C :   -0.048402
  68 O :   -0.100748
  69 C :   -0.047796
  70 C :    0.024243
  71 C :   -0.040994
  72 C :   -0.052980
  73 C :    0.121440
  74 O :   -0.120645
  75 O :   -0.054155
  76 C :    0.112211
  77 O :   -0.086403
  78 C :   -0.038555
  79 C :    0.017471
  80 H :    0.045945
  81 H :    0.061613
  82 H :    0.024383
  83 H :    0.035306
  84 H :    0.034708
  85 H :    0.037508
  86 H :    0.037554
  87 H :    0.023210
  88 H :    0.026287
  89 H :    0.024598
  90 H :    0.021534
  91 H :    0.026399
  92 H :    0.015720
  93 H :    0.028528
  94 H :    0.023460
  95 H :    0.017074
  96 H :    0.024719
  97 H :    0.025567
  98 H :    0.023865
  99 H :    0.027290
 100 H :    0.022660
 101 H :    0.022387
 102 H :    0.020957
 103 H :    0.026791
 104 H :    0.035199
 105 H :    0.040197
 106 H :    0.023918
 107 H :    0.034289

  Mayer bond orders larger than 0.100000
B(  0-C ,  1-C ) :   1.3136 B(  0-C , 11-C ) :   0.1089 B(  0-C , 13-C ) :   1.1636
B(  0-C , 80-H ) :   1.0626 B(  1-C ,  2-C ) :   1.1309 B(  1-C ,  6-N ) :   1.3332
B(  2-C ,  3-N ) :   1.4292 B(  2-C , 11-C ) :   1.2046 B(  3-N ,  4-C ) :   1.6631
B(  4-C ,  5-C ) :   1.2020 B(  4-C ,  9-C ) :   1.1658 B(  5-C ,  6-N ) :   1.7801
B(  5-C ,  7-C ) :   1.1587 B(  7-C ,  8-N ) :   3.0537 B(  9-C , 10-N ) :   3.0313
B( 11-C , 12-C ) :   1.1791 B( 11-C , 17-C ) :   1.2842 B( 12-C , 13-C ) :   1.1270
B( 12-C , 16-N ) :   1.4663 B( 13-C , 14-N ) :   1.4717 B( 14-N , 15-S ) :   1.3007
B( 14-N , 16-N ) :   0.1490 B( 15-S , 16-N ) :   1.2494 B( 17-C , 18-S ) :   1.1055
B( 17-C , 21-C ) :   1.3093 B( 18-S , 19-C ) :   1.1002 B( 19-C , 20-C ) :   1.2999
B( 19-C , 25-C ) :   1.2307 B( 20-C , 21-C ) :   1.2482 B( 20-C , 24-C ) :   1.1584
B( 21-C , 22-N ) :   1.2302 B( 22-N , 23-N ) :   1.1247 B( 22-N , 81-H ) :   0.9041
B( 23-N , 24-C ) :   1.7319 B( 24-C , 82-H ) :   0.9995 B( 25-C , 26-C ) :   1.6516
B( 25-C , 83-H ) :   0.9657 B( 26-C , 27-C ) :   1.1051 B( 26-C , 84-H ) :   0.9433
B( 27-C , 28-C ) :   1.3519 B( 27-C , 37-C ) :   1.3203 B( 28-C , 29-C ) :   0.8433
B( 28-C , 34-C ) :   1.2970 B( 29-C , 30-O ) :   2.1826 B( 29-C , 31-S ) :   1.0296
B( 30-O , 31-S ) :   0.1050 B( 31-S , 32-C ) :   1.0261 B( 31-S , 33-O ) :   0.1074
B( 32-C , 33-O ) :   2.1939 B( 32-C , 34-C ) :   0.8389 B( 34-C , 35-C ) :   1.3992
B( 35-C , 36-C ) :   1.3603 B( 35-C , 43-C ) :   1.0608 B( 36-C , 37-C ) :   1.3756
B( 36-C , 41-C ) :   0.8971 B( 37-C , 38-C ) :   0.9099 B( 38-C , 39-O ) :   2.2370
B( 38-C , 40-O ) :   1.0525 B( 40-O , 41-C ) :   1.0626 B( 41-C , 42-O ) :   2.2455
B( 43-C , 44-C ) :   1.7973 B( 43-C , 85-H ) :   0.9392 B( 44-C , 45-C ) :   1.1063
B( 44-C , 86-H ) :   0.9402 B( 45-C , 46-C ) :   1.4236 B( 45-C , 49-S ) :   1.1741
B( 46-C , 47-C ) :   1.2057 B( 46-C , 60-C ) :   1.1380 B( 47-C , 48-C ) :   1.6501
B( 47-C , 52-C ) :   0.9461 B( 48-C , 49-S ) :   1.1024 B( 48-C , 50-C ) :   0.9976
B( 50-C , 51-C ) :   0.9913 B( 50-C , 59-S ) :   1.0111 B( 50-C , 87-H ) :   0.8917
B( 51-C , 52-C ) :   0.9491 B( 51-C , 57-C ) :   1.0758 B( 51-C , 88-H ) :   0.9182
B( 52-C , 53-C ) :   1.0367 B( 52-C , 55-C ) :   1.0391 B( 53-C , 54-C ) :   1.1151
B( 53-C , 89-H ) :   0.9347 B( 53-C , 90-H ) :   0.9337 B( 54-C , 91-H ) :   0.9598
B( 54-C , 92-H ) :   0.9598 B( 54-C , 93-H ) :   0.9575 B( 55-C , 56-C ) :   1.1184
B( 55-C , 94-H ) :   0.9364 B( 55-C , 95-H ) :   0.9336 B( 56-C , 96-H ) :   0.9530
B( 56-C , 97-H ) :   0.9590 B( 56-C , 98-H ) :   0.9581 B( 57-C , 58-C ) :   1.0530
B( 57-C , 99-H ) :   0.9325 B( 57-C ,100-H ) :   0.9215 B( 58-C , 59-S ) :   0.9859
B( 58-C ,101-H ) :   0.9514 B( 58-C ,102-H ) :   0.9517 B( 60-C , 61-C ) :   1.6076
B( 60-C ,103-H ) :   0.9542 B( 61-C , 62-C ) :   1.1689 B( 61-C ,104-H ) :   0.9477
B( 62-C , 63-C ) :   1.2727 B( 62-C , 72-C ) :   1.2901 B( 63-C , 64-C ) :   0.8518
B( 63-C , 69-C ) :   1.3381 B( 64-C , 65-O ) :   2.1352 B( 64-C , 66-S ) :   1.0394
B( 65-O , 66-S ) :   0.1004 B( 66-S , 67-C ) :   1.0228 B( 66-S , 68-O ) :   0.1060
B( 67-C , 68-O ) :   2.2031 B( 67-C , 69-C ) :   0.8350 B( 69-C , 70-C ) :   1.3613
B( 70-C , 71-C ) :   1.3615 B( 70-C , 78-C ) :   1.0761 B( 71-C , 72-C ) :   1.3526
B( 71-C , 76-C ) :   0.9095 B( 72-C , 73-C ) :   0.9330 B( 73-C , 74-O ) :   2.1146
B( 73-C , 75-O ) :   1.0791 B( 75-O , 76-C ) :   1.0364 B( 76-C , 77-O ) :   2.2550
B( 78-C , 79-C ) :   1.9605 B( 78-C ,105-H ) :   0.9412 B( 79-C ,106-H ) :   0.9644
B( 79-C ,107-H ) :   0.9503

-----------------------------------------------------------------------------
         ABSORPTION SPECTRUM VIA TRANSITION ELECTRIC DIPOLE MOMENTS
-----------------------------------------------------------------------------
State   Energy  Wavelength   fosc         T2         TX        TY        TZ
        (cm-1)    (nm)                  (au**2)     (au)      (au)      (au)
-----------------------------------------------------------------------------
   0   10405.9    961.0   0.444792014  14.07186  -0.42924  -3.62476   0.86530
   1   17692.2    565.2   0.017462557   0.32494  -0.56078   0.01225  -0.10154
   2   18223.5    548.7   0.055201170   0.99722  -0.10756   0.98341  -0.13620
   3   20800.8    480.7   0.101580347   1.60770  -0.51691   0.92940  -0.69045
   4   20880.6    478.9   0.298558716   4.70719   0.84963  -1.53163   1.28040
   5   21301.3    469.5   0.022300148   0.34465  -0.24121  -0.25058   0.47295
   6   22068.6    453.1   0.052688560   0.78599   0.84064   0.25328  -0.12312
   7   23163.1    431.7   0.123836424   1.76006  -1.21845  -0.35277   0.38859
   8   23341.9    428.4   0.193808740   2.73347  -1.33516  -0.10662   0.96925
   9   24050.3    415.8   0.022380575   0.30636   0.42854  -0.34066  -0.08162
  10   24595.6    406.6   0.003951955   0.05290   0.12362  -0.08012  -0.17662
  11   25427.1    393.3   0.174267699   2.25629  -0.70715  -0.62318   1.16957
  12   25818.4    387.3   0.036904547   0.47057  -0.57584   0.36099   0.09312
  13   26035.6    384.1   0.005749369   0.07270   0.23015  -0.07172   0.12076
  14   26312.5    380.0   0.029971379   0.37499  -0.47759   0.32633  -0.20101
  15   26347.8    379.5   0.033428631   0.41769   0.55374  -0.05133  -0.32928
  16   26719.1    374.3   0.026268311   0.32366   0.43997   0.21835  -0.28706
  17   27262.5    366.8   0.001222410   0.01476   0.08401   0.06735   0.05629
  18   27577.0    362.6   0.006396533   0.07636  -0.07571   0.26090   0.05058
  19   28073.3    356.2   0.347060854   4.06994   1.55747   0.61166  -1.12699
  20   28686.3    348.6   0.029457184   0.33806   0.14656  -0.20408   0.52434
  21   28995.6    344.9   0.013735023   0.15595  -0.03473  -0.01844   0.39294
  22   29487.8    339.1   0.064459219   0.71964  -0.38374  -0.36454   0.66295
  23   29870.3    334.8   0.021365464   0.23548  -0.25938  -0.26321  -0.31452
  24   30029.0    333.0   0.044475167   0.48759   0.29002   0.21397  -0.59807
  25   30694.3    325.8   0.048935593   0.52486  -0.20226  -0.46242   0.51973
  26   30850.0    324.1   0.084910691   0.90611  -0.80713   0.18087   0.47110
  27   31676.3    315.7   0.144181469   1.49848   0.27340  -0.58815  -1.03818
  28   31833.0    314.1   0.134886967   1.39498   0.10557   0.19383   1.16029
  29   32093.5    311.6   0.030906536   0.31704   0.33242   0.05454  -0.45117
  30   32523.2    307.5   0.071869230   0.72749  -0.41288  -0.71475   0.21484
  31   32655.7    306.2   0.628968663   6.34082  -0.66076  -0.39138   2.39813
  32   32755.5    305.3   0.034428155   0.34602  -0.40046  -0.26629   0.33875
  33   33048.9    302.6   0.030040253   0.29924   0.11688   0.20997  -0.49142
  34   33148.6    301.7   0.009964439   0.09896  -0.29764  -0.03470   0.09575
  35   33218.5    301.0   0.016653763   0.16505  -0.32914  -0.19332   0.13908
  36   33558.9    298.0   0.093669690   0.91890   0.05529   0.72392  -0.62592
  37   33901.8    295.0   0.020732634   0.20133  -0.32942  -0.27183   0.13754
  38   34114.5    293.1   0.013124249   0.12665   0.24473   0.06118   0.25103
  39   34240.4    292.1   0.000139323   0.00134  -0.02548   0.00570   0.02565
  40   34402.0    290.7   0.001109096   0.01061  -0.04730  -0.05448  -0.07354
  41   34442.8    290.3   0.009137298   0.08734   0.04287  -0.24283  -0.16289
  42   34643.6    288.7   0.016442986   0.15625  -0.00426   0.09286  -0.38421
  43   35028.6    285.5   0.012059024   0.11334  -0.04120   0.24362   0.22867
  44   35143.2    284.6   0.004815674   0.04511  -0.03328   0.10748  -0.18015
  45   35462.0    282.0   0.012855142   0.11934  -0.09579  -0.25938   0.20709
  46   36022.6    277.6   0.024378849   0.22280   0.37838  -0.02878  -0.28071
  47   36218.1    276.1   0.083484277   0.75885   0.40832   0.59200  -0.49159
  48   36422.7    274.6   0.051794479   0.46815   0.27302  -0.02664   0.62682
  49   36648.2    272.9   0.018701879   0.16800   0.23254   0.01055   0.33736
  50   36794.8    271.8   0.004956607   0.04435  -0.01374  -0.10245   0.18348
  51   37013.7    270.2   0.050109902   0.44569  -0.02068   0.20356   0.63547
  52   37130.2    269.3   0.043683514   0.38732  -0.15999   0.06670   0.59772
  53   37226.6    268.6   0.011140676   0.09852  -0.07292   0.08200   0.29407
  54   37373.3    267.6   0.027216501   0.23974  -0.03756  -0.07868   0.48181
  55   37553.8    266.3   0.004516907   0.03960  -0.06191   0.09619   0.16282
  56   37706.8    265.2   0.005436892   0.04747  -0.03468  -0.00081   0.21509
  57   37892.3    263.9   0.089767780   0.77991  -0.13669  -0.12587  -0.86336
  58   38574.5    259.2   0.002768810   0.02363   0.00967   0.00274  -0.15339
  59   38938.2    256.8   0.005929251   0.05013   0.17683  -0.03644  -0.13242
  60   39005.0    256.4   0.005203752   0.04392   0.00072   0.12972  -0.16460
  61   39318.4    254.3   0.039267314   0.32878   0.55880  -0.09651   0.08492
  62   39534.6    252.9   0.004053533   0.03375  -0.02441  -0.11744   0.13917
  63   39577.5    252.7   0.031437454   0.26150   0.50743   0.06258  -0.00999
  64   39828.8    251.1   0.035950532   0.29716   0.33953  -0.09153  -0.41653
  65   40036.7    249.8   0.084066946   0.69126   0.10350   0.10372   0.81841
  66   40107.0    249.3   0.037626529   0.30885  -0.12841   0.03555  -0.53954
  67   40195.7    248.8   0.035587216   0.29147   0.01272   0.53833  -0.03877
  68   40326.3    248.0   0.012132865   0.09905   0.21956  -0.14460  -0.17301

FINAL SINGLE POINT ENERGY     -5725.329355617653

DIPOLE MOMENT
-------------
                                X             Y             Z
Electronic contribution:      2.97788     107.95725     -81.13284
Nuclear contribution   :     -1.99491    -110.86718      79.74507
                        -----------------------------------------
Total Dipole Moment    :      0.98297      -2.90993      -1.38777
                        -----------------------------------------
Magnitude (a.u.)       :      3.37044
Magnitude (Debye)      :      8.56697

Rotational constants in cm-1:     0.001200     0.000302     0.000276
Rotational constants in MHz :    35.983692     9.062488     8.284271

                             ****ORCA TERMINATED NORMALLY****
TOTAL RUN TIME: 0 days 0 hours 12 minutes 56 seconds 405 msec
