                         Program Version 4.2.0 -  RELEASE  -
|  1> # ORCA input file
|  2> # SCF done       -169.545935802160          0.000401118907
|  3> ! CAM-B3LYP def2-SVP def2/J RIJCOSX Grid4 TightSCF
|  4> %maxcore 5000
|  5> %tddft
|  6>     Mode sTDDFT
|  7>     Ethresh 5.0
|  8>     maxcore 5000
|  9> end
| 10>
| 11> %pal
| 12>   nprocs 6
| 13>   end
| 14> * xyz 0 1
| 15>    C       -6.34995        -2.00594        -4.41663
| 16>    C       -6.94223        -2.98024        -3.65323
| 17>    C       -7.59217        -4.10960        -4.19108
| 18>    N       -8.12448        -5.05057        -4.57817
| 19>    C       -7.04381        -2.95813        -2.24590
| 20>    N       -7.20773        -2.99376        -1.11026
| 21>    C       -6.37372        -1.93648        -5.87170
| 22>    C       -5.82885        -0.69314        -6.27162
| 23>    C       -5.68538        -0.33437        -7.58937
| 24>    C       -6.09141        -1.25363        -8.56213
| 25>    C       -6.65799        -2.48365        -8.15406
| 26>    C       -6.80970        -2.84341        -6.82062
| 27>    S       -7.08893        -3.47087        -9.51802
| 28>    C       -6.47939        -2.24759       -10.60088
| 29>    C       -5.99860        -1.14631        -9.97695
| 30>   Br       -6.53534        -2.53809       -12.45442
| 31>    C       -5.44024         0.08920        -5.07880
| 32>    O       -5.00088         1.21705        -5.09180
| 33>    C       -5.67144        -0.82052        -3.92303
| 34>    C       -5.18016        -0.68273        -2.65445
| 35>    C       -4.55554         0.44659        -2.07963
| 36>    O       -4.58832         1.67517        -2.65259
| 37>    C       -3.86149         0.55630        -0.88203
| 38>    C       -3.35486        -0.19178         0.27499
| 39>    O       -3.42496        -1.35711         0.55983
| 40>    N       -2.70694         0.78430         1.03323
| 41>    C       -2.71751         2.06835         0.49224
| 42>    O       -2.20437         3.03678         0.99024
| 43>    C       -3.46791         1.90780        -0.75617
| 44>    C       -3.93987         2.56912        -1.87839
| 45>    C       -3.84647         3.93018        -2.29200
| 46>    C       -4.36026         4.31721        -3.47975
| 47>    C       -4.39894         5.62741        -4.06354
| 48>    C       -3.59178         6.67937        -3.85484
| 49>    C       -2.41129         6.68618        -2.93944
| 50>    C       -3.80266         7.98528        -4.59781
| 51>    N       -4.92648         8.00404        -5.49564
| 52>    C       -6.19077         8.22572        -5.05542
| 53>    C       -7.30688         7.72688        -5.64509
| 54>    C       -8.61560         8.01984        -5.21589
| 55>    C       -9.73306         7.35690        -5.64758
| 56>    C      -11.07713         7.59348        -5.26803
| 57>    C      -11.97481         6.72590        -5.80920
| 58>    C      -11.39295         5.73863        -6.63924
| 59>    S       -9.66630         5.97995        -6.74847
| 60>    C      -12.02208         4.68073        -7.26425
| 61>    C      -13.39904         4.36120        -7.25555
| 62>    C      -13.70399         3.21811        -7.92540
| 63>    C      -12.58496         2.55997        -8.50221
| 64>    S      -11.12575         3.47602        -8.17454
| 65>    C      -12.62932         1.38192        -9.19623
| 66>    C      -11.55503         0.68176        -9.77327
| 67>    S       -9.88769         1.20160        -9.73573
| 68>    C       -9.40092        -0.16772       -10.65621
| 69>    C      -10.43956        -0.99848       -10.97316
| 70>    C      -11.65655        -0.51346       -10.46248
| 71>    S      -13.21457        -1.32229       -10.75025
| 72>    O      -13.90736        -0.61273       -11.79362
| 73>    O      -13.91158        -1.49028        -9.50143
| 74>    C      -12.69667        -2.94411       -11.38642
| 75>    C      -11.61374        -2.69114       -12.41453
| 76>    C      -10.30327        -2.26972       -11.75269
| 77>    H       -5.26334         0.61993        -7.86241
| 78>    H       -7.23264        -3.79900        -6.55984
| 79>    H       -5.58443        -0.29643       -10.48873
| 80>    H       -5.22907        -1.52797        -1.97997
| 81>    H       -2.25251         0.57030         1.90960
| 82>    H       -3.38345         4.59899        -1.58596
| 83>    H       -4.84204         3.54743        -4.07096
| 84>    H       -5.18930         5.72997        -4.79619
| 85>    H       -1.93010         5.71137        -2.92121
| 86>    H       -2.72015         6.92915        -1.92269
| 87>    H       -1.68643         7.43441        -3.25378
| 88>    H       -2.89758         8.21402        -5.17292
| 89>    H       -3.93548         8.78551        -3.86144
| 90>    H       -4.84649         7.38052        -6.28844
| 91>    H       -6.26655         8.86593        -4.18680
| 92>    H       -7.20421         7.03656        -6.47285
| 93>    H       -8.74995         8.79685        -4.47507
| 94>    H      -11.33477         8.39875        -4.60254
| 95>    H      -13.03342         6.75683        -5.62458
| 96>    H      -14.12227         4.98056        -6.75609
| 97>    H      -14.69364         2.81005        -8.02553
| 98>    H      -13.59433         0.90902        -9.31954
| 99>    H       -8.37013        -0.27163       -10.92713
|100>    H      -13.58374        -3.39941       -11.81850
|101>    H      -12.35358        -3.52516       -10.53477
|102>    H      -11.43980        -3.58964       -13.01092
|103>    H      -11.96154        -1.89989       -13.08293
|104>    H       -9.53362        -2.14004       -12.51619
|105>    H       -9.96698        -3.06704       -11.08022
|106> *
|107>
|108>                          ****END OF INPUT****

CARTESIAN COORDINATES (ANGSTROEM)
---------------------------------
  C     -6.349950   -2.005940   -4.416630
  C     -6.942230   -2.980240   -3.653230
  C     -7.592170   -4.109600   -4.191080
  N     -8.124480   -5.050570   -4.578170
  C     -7.043810   -2.958130   -2.245900
  N     -7.207730   -2.993760   -1.110260
  C     -6.373720   -1.936480   -5.871700
  C     -5.828850   -0.693140   -6.271620
  C     -5.685380   -0.334370   -7.589370
  C     -6.091410   -1.253630   -8.562130
  C     -6.657990   -2.483650   -8.154060
  C     -6.809700   -2.843410   -6.820620
  S     -7.088930   -3.470870   -9.518020
  C     -6.479390   -2.247590  -10.600880
  C     -5.998600   -1.146310   -9.976950
  Br    -6.535340   -2.538090  -12.454420
  C     -5.440240    0.089200   -5.078800
  O     -5.000880    1.217050   -5.091800
  C     -5.671440   -0.820520   -3.923030
  C     -5.180160   -0.682730   -2.654450
  C     -4.555540    0.446590   -2.079630
  O     -4.588320    1.675170   -2.652590
  C     -3.861490    0.556300   -0.882030
  C     -3.354860   -0.191780    0.274990
  O     -3.424960   -1.357110    0.559830
  N     -2.706940    0.784300    1.033230
  C     -2.717510    2.068350    0.492240
  O     -2.204370    3.036780    0.990240
  C     -3.467910    1.907800   -0.756170
  C     -3.939870    2.569120   -1.878390
  C     -3.846470    3.930180   -2.292000
  C     -4.360260    4.317210   -3.479750
  C     -4.398940    5.627410   -4.063540
  C     -3.591780    6.679370   -3.854840
  C     -2.411290    6.686180   -2.939440
  C     -3.802660    7.985280   -4.597810
  N     -4.926480    8.004040   -5.495640
  C     -6.190770    8.225720   -5.055420
  C     -7.306880    7.726880   -5.645090
  C     -8.615600    8.019840   -5.215890
  C     -9.733060    7.356900   -5.647580
  C    -11.077130    7.593480   -5.268030
  C    -11.974810    6.725900   -5.809200
  C    -11.392950    5.738630   -6.639240
  S     -9.666300    5.979950   -6.748470
  C    -12.022080    4.680730   -7.264250
  C    -13.399040    4.361200   -7.255550
  C    -13.703990    3.218110   -7.925400
  C    -12.584960    2.559970   -8.502210
  S    -11.125750    3.476020   -8.174540
  C    -12.629320    1.381920   -9.196230
  C    -11.555030    0.681760   -9.773270
  S     -9.887690    1.201600   -9.735730
  C     -9.400920   -0.167720  -10.656210
  C    -10.439560   -0.998480  -10.973160
  C    -11.656550   -0.513460  -10.462480
  S    -13.214570   -1.322290  -10.750250
  O    -13.907360   -0.612730  -11.793620
  O    -13.911580   -1.490280   -9.501430
  C    -12.696670   -2.944110  -11.386420
  C    -11.613740   -2.691140  -12.414530
  C    -10.303270   -2.269720  -11.752690
  H     -5.263340    0.619930   -7.862410
  H     -7.232640   -3.799000   -6.559840
  H     -5.584430   -0.296430  -10.488730
  H     -5.229070   -1.527970   -1.979970
  H     -2.252510    0.570300    1.909600
  H     -3.383450    4.598990   -1.585960
  H     -4.842040    3.547430   -4.070960
  H     -5.189300    5.729970   -4.796190
  H     -1.930100    5.711370   -2.921210
  H     -2.720150    6.929150   -1.922690
  H     -1.686430    7.434410   -3.253780
  H     -2.897580    8.214020   -5.172920
  H     -3.935480    8.785510   -3.861440
  H     -4.846490    7.380520   -6.288440
  H     -6.266550    8.865930   -4.186800
  H     -7.204210    7.036560   -6.472850
  H     -8.749950    8.796850   -4.475070
  H    -11.334770    8.398750   -4.602540
  H    -13.033420    6.756830   -5.624580
  H    -14.122270    4.980560   -6.756090
  H    -14.693640    2.810050   -8.025530
  H    -13.594330    0.909020   -9.319540
  H     -8.370130   -0.271630  -10.927130
  H    -13.583740   -3.399410  -11.818500
  H    -12.353580   -3.525160  -10.534770
  H    -11.439800   -3.589640  -13.010920
  H    -11.961540   -1.899890  -13.082930
  H     -9.533620   -2.140040  -12.516190
  H     -9.966980   -3.067040  -11.080220

 Total Charge           Charge          ....    0
 Multiplicity           Mult            ....    1
 Number of Electrons    NEL             ....  496
 Basis Dimension        Dim             .... 1051

ORBITAL ENERGIES
----------------

  NO   OCC          E(Eh)            E(eV)
   0   2.0000    -482.896894    -13140.2925
   1   2.0000     -89.121052     -2425.1071
   2   2.0000     -88.984264     -2421.3849
   3   2.0000     -88.950664     -2420.4706
   4   2.0000     -88.933632     -2420.0072
   5   2.0000     -88.932717     -2419.9822
   6   2.0000     -62.574305     -1702.7334
   7   2.0000     -56.408279     -1534.9473
   8   2.0000     -56.405586     -1534.8740
   9   2.0000     -56.405491     -1534.8714
  10   2.0000     -19.314894      -525.5850
  11   2.0000     -19.222806      -523.0791
  12   2.0000     -19.219950      -523.0014
  13   2.0000     -19.216699      -522.9130
  14   2.0000     -19.170941      -521.6678
  15   2.0000     -19.170185      -521.6473
  16   2.0000     -14.460417      -393.4880
  17   2.0000     -14.443122      -393.0173
  18   2.0000     -14.419826      -392.3834
  19   2.0000     -14.417824      -392.3289
  20   2.0000     -10.408710      -283.2354
  21   2.0000     -10.406397      -283.1725
  22   2.0000     -10.376838      -282.3681
  23   2.0000     -10.375334      -282.3272
  24   2.0000     -10.370503      -282.1957
  25   2.0000     -10.367959      -282.1265
  26   2.0000     -10.349203      -281.6161
  27   2.0000     -10.346906      -281.5536
  28   2.0000     -10.332826      -281.1705
  29   2.0000     -10.331688      -281.1395
  30   2.0000     -10.329002      -281.0664
  31   2.0000     -10.322333      -280.8850
  32   2.0000     -10.321979      -280.8753
  33   2.0000     -10.319454      -280.8066
  34   2.0000     -10.314896      -280.6826
  35   2.0000     -10.314724      -280.6779
  36   2.0000     -10.313180      -280.6359
  37   2.0000     -10.311738      -280.5967
  38   2.0000     -10.310078      -280.5515
  39   2.0000     -10.307660      -280.4857
  40   2.0000     -10.305834      -280.4360
  41   2.0000     -10.303213      -280.3647
  42   2.0000     -10.302881      -280.3556
  43   2.0000     -10.302157      -280.3359
  44   2.0000     -10.298812      -280.2449
  45   2.0000     -10.298621      -280.2397
  46   2.0000     -10.298418      -280.2342
  47   2.0000     -10.295571      -280.1567
  48   2.0000     -10.295487      -280.1545
  49   2.0000     -10.292603      -280.0760
  50   2.0000     -10.291637      -280.0497
  51   2.0000     -10.291261      -280.0394
  52   2.0000     -10.283157      -279.8189
  53   2.0000     -10.281264      -279.7674
  54   2.0000     -10.280259      -279.7401
  55   2.0000     -10.279982      -279.7325
  56   2.0000     -10.278698      -279.6976
  57   2.0000     -10.278185      -279.6836
  58   2.0000     -10.277417      -279.6627
  59   2.0000     -10.274894      -279.5941
  60   2.0000     -10.274812      -279.5919
  61   2.0000     -10.274022      -279.5703
  62   2.0000     -10.273888      -279.5667
  63   2.0000     -10.266773      -279.3731
  64   2.0000     -10.263632      -279.2876
  65   2.0000     -10.262528      -279.2576
  66   2.0000      -8.803606      -239.5583
  67   2.0000      -8.186171      -222.7571
  68   2.0000      -8.079999      -219.8679
  69   2.0000      -8.045978      -218.9422
  70   2.0000      -8.029980      -218.5069
  71   2.0000      -8.028808      -218.4750
  72   2.0000      -6.639840      -180.6792
  73   2.0000      -6.625413      -180.2866
  74   2.0000      -6.625126      -180.2788
  75   2.0000      -6.155053      -167.4875
  76   2.0000      -6.154968      -167.4852
  77   2.0000      -6.154350      -167.4684
  78   2.0000      -6.049715      -164.6211
  79   2.0000      -6.045431      -164.5045
  80   2.0000      -6.041200      -164.3894
  81   2.0000      -6.015242      -163.6831
  82   2.0000      -6.011055      -163.5691
  83   2.0000      -6.008208      -163.4917
  84   2.0000      -5.999710      -163.2604
  85   2.0000      -5.998566      -163.2293
  86   2.0000      -5.995794      -163.1538
  87   2.0000      -5.994528      -163.1194
  88   2.0000      -5.990814      -163.0183
  89   2.0000      -5.989704      -162.9881
  90   2.0000      -2.755710       -74.9867
  91   2.0000      -2.751711       -74.8779
  92   2.0000      -2.751486       -74.8717
  93   2.0000      -2.740013       -74.5596
  94   2.0000      -2.740004       -74.5593
  95   2.0000      -1.238885       -33.7118
  96   2.0000      -1.177920       -32.0528
  97   2.0000      -1.162557       -31.6348
  98   2.0000      -1.141933       -31.0736
  99   2.0000      -1.138735       -30.9866
 100   2.0000      -1.055011       -28.7083
 101   2.0000      -1.049770       -28.5657
 102   2.0000      -1.047888       -28.5145
 103   2.0000      -1.029814       -28.0227
 104   2.0000      -1.018546       -27.7160
 105   2.0000      -0.997164       -27.1342
 106   2.0000      -0.995965       -27.1016
 107   2.0000      -0.985360       -26.8130
 108   2.0000      -0.979517       -26.6540
 109   2.0000      -0.959193       -26.1010
 110   2.0000      -0.954305       -25.9680
 111   2.0000      -0.942086       -25.6355
 112   2.0000      -0.933388       -25.3988
 113   2.0000      -0.924479       -25.1563
 114   2.0000      -0.916757       -24.9462
 115   2.0000      -0.915659       -24.9163
 116   2.0000      -0.901937       -24.5430
 117   2.0000      -0.893102       -24.3026
 118   2.0000      -0.891948       -24.2711
 119   2.0000      -0.876477       -23.8501
 120   2.0000      -0.871213       -23.7069
 121   2.0000      -0.848011       -23.0755
 122   2.0000      -0.840515       -22.8716
 123   2.0000      -0.836349       -22.7582
 124   2.0000      -0.835812       -22.7436
 125   2.0000      -0.830067       -22.5873
 126   2.0000      -0.825273       -22.4568
 127   2.0000      -0.808651       -22.0045
 128   2.0000      -0.806241       -21.9389
 129   2.0000      -0.798009       -21.7149
 130   2.0000      -0.784289       -21.3416
 131   2.0000      -0.777702       -21.1624
 132   2.0000      -0.772194       -21.0125
 133   2.0000      -0.765706       -20.8359
 134   2.0000      -0.761267       -20.7151
 135   2.0000      -0.749848       -20.4044
 136   2.0000      -0.722741       -19.6668
 137   2.0000      -0.719820       -19.5873
 138   2.0000      -0.713183       -19.4067
 139   2.0000      -0.709457       -19.3053
 140   2.0000      -0.701289       -19.0830
 141   2.0000      -0.696230       -18.9454
 142   2.0000      -0.695291       -18.9198
 143   2.0000      -0.682703       -18.5773
 144   2.0000      -0.681930       -18.5562
 145   2.0000      -0.665776       -18.1167
 146   2.0000      -0.665281       -18.1032
 147   2.0000      -0.653989       -17.7960
 148   2.0000      -0.640101       -17.4180
 149   2.0000      -0.631824       -17.1928
 150   2.0000      -0.629666       -17.1341
 151   2.0000      -0.622892       -16.9497
 152   2.0000      -0.617791       -16.8109
 153   2.0000      -0.612591       -16.6695
 154   2.0000      -0.607528       -16.5317
 155   2.0000      -0.604269       -16.4430
 156   2.0000      -0.601293       -16.3620
 157   2.0000      -0.598953       -16.2983
 158   2.0000      -0.595488       -16.2040
 159   2.0000      -0.589312       -16.0360
 160   2.0000      -0.586874       -15.9697
 161   2.0000      -0.584879       -15.9154
 162   2.0000      -0.577924       -15.7261
 163   2.0000      -0.573924       -15.6173
 164   2.0000      -0.568787       -15.4775
 165   2.0000      -0.563900       -15.3445
 166   2.0000      -0.559737       -15.2312
 167   2.0000      -0.552584       -15.0366
 168   2.0000      -0.550919       -14.9913
 169   2.0000      -0.550542       -14.9810
 170   2.0000      -0.545951       -14.8561
 171   2.0000      -0.545062       -14.8319
 172   2.0000      -0.541274       -14.7288
 173   2.0000      -0.536912       -14.6101
 174   2.0000      -0.533431       -14.5154
 175   2.0000      -0.532649       -14.4941
 176   2.0000      -0.528158       -14.3719
 177   2.0000      -0.523594       -14.2477
 178   2.0000      -0.522589       -14.2204
 179   2.0000      -0.521133       -14.1807
 180   2.0000      -0.519019       -14.1232
 181   2.0000      -0.516070       -14.0430
 182   2.0000      -0.512034       -13.9332
 183   2.0000      -0.511137       -13.9087
 184   2.0000      -0.507563       -13.8115
 185   2.0000      -0.505964       -13.7680
 186   2.0000      -0.500149       -13.6098
 187   2.0000      -0.499651       -13.5962
 188   2.0000      -0.497881       -13.5480
 189   2.0000      -0.493069       -13.4171
 190   2.0000      -0.489922       -13.3315
 191   2.0000      -0.488966       -13.3055
 192   2.0000      -0.487435       -13.2638
 193   2.0000      -0.484415       -13.1816
 194   2.0000      -0.483043       -13.1443
 195   2.0000      -0.480216       -13.0674
 196   2.0000      -0.474260       -12.9053
 197   2.0000      -0.472762       -12.8645
 198   2.0000      -0.470384       -12.7998
 199   2.0000      -0.465929       -12.6786
 200   2.0000      -0.464706       -12.6453
 201   2.0000      -0.464016       -12.6265
 202   2.0000      -0.455370       -12.3912
 203   2.0000      -0.454482       -12.3671
 204   2.0000      -0.452201       -12.3050
 205   2.0000      -0.451473       -12.2852
 206   2.0000      -0.447951       -12.1894
 207   2.0000      -0.447386       -12.1740
 208   2.0000      -0.446503       -12.1500
 209   2.0000      -0.444428       -12.0935
 210   2.0000      -0.437207       -11.8970
 211   2.0000      -0.434893       -11.8340
 212   2.0000      -0.433051       -11.7839
 213   2.0000      -0.428925       -11.6716
 214   2.0000      -0.427366       -11.6292
 215   2.0000      -0.426337       -11.6012
 216   2.0000      -0.425130       -11.5684
 217   2.0000      -0.421919       -11.4810
 218   2.0000      -0.415369       -11.3028
 219   2.0000      -0.413786       -11.2597
 220   2.0000      -0.411958       -11.2099
 221   2.0000      -0.403298       -10.9743
 222   2.0000      -0.397334       -10.8120
 223   2.0000      -0.392432       -10.6786
 224   2.0000      -0.385154       -10.4806
 225   2.0000      -0.384713       -10.4686
 226   2.0000      -0.382361       -10.4046
 227   2.0000      -0.381583       -10.3834
 228   2.0000      -0.377011       -10.2590
 229   2.0000      -0.376890       -10.2557
 230   2.0000      -0.375529       -10.2187
 231   2.0000      -0.367689       -10.0053
 232   2.0000      -0.362490        -9.8639
 233   2.0000      -0.352392        -9.5891
 234   2.0000      -0.351150        -9.5553
 235   2.0000      -0.347632        -9.4595
 236   2.0000      -0.342679        -9.3248
 237   2.0000      -0.333765        -9.0822
 238   2.0000      -0.328881        -8.9493
 239   2.0000      -0.328016        -8.9258
 240   2.0000      -0.322351        -8.7716
 241   2.0000      -0.316221        -8.6048
 242   2.0000      -0.306007        -8.3269
 243   2.0000      -0.301494        -8.2041
 244   2.0000      -0.299854        -8.1594
 245   2.0000      -0.277054        -7.5390
 246   2.0000      -0.259342        -7.0571
 247   2.0000      -0.196831        -5.3560
 248   0.0000      -0.105064        -2.8589
 249   0.0000      -0.067944        -1.8488
 250   0.0000      -0.061585        -1.6758
 251   0.0000      -0.053610        -1.4588
 252   0.0000      -0.025260        -0.6873

MULLIKEN ATOMIC CHARGES
-----------------------
   0 C :    0.290612
   1 C :   -0.330548
   2 C :   -0.179862
   3 N :    0.153151
   4 C :   -0.206587
   5 N :    0.176806
   6 C :    0.025278
   7 C :   -0.018816
   8 C :   -0.067476
   9 C :    0.120809
  10 C :   -0.084420
  11 C :   -0.016967
  12 S :    0.194735
  13 C :   -0.137673
  14 C :    0.037230
  15 Br:    0.034899
  16 C :    0.144146
  17 O :   -0.129932
  18 C :   -0.065181
  19 C :   -0.046327
  20 C :    0.078385
  21 O :   -0.170312
  22 C :   -0.012766
  23 C :    0.170560
  24 O :   -0.126395
  25 N :   -0.168575
  26 C :    0.166210
  27 O :   -0.139998
  28 C :   -0.043300
  29 C :    0.088835
  30 C :   -0.050081
  31 C :    0.053549
  32 C :    0.012803
  33 C :   -0.211881
  34 C :    0.076535
  35 C :    0.181569
  36 N :   -0.149436
  37 C :    0.056922
  38 C :   -0.019162
  39 C :   -0.009605
  40 C :   -0.037993
  41 C :    0.043990
  42 C :    0.015769
  43 C :   -0.041549
  44 S :    0.054921
  45 C :   -0.051008
  46 C :    0.035940
  47 C :    0.023781
  48 C :   -0.021890
  49 S :    0.052744
  50 C :   -0.034964
  51 C :   -0.110768
  52 S :    0.115347
  53 C :   -0.136171
  54 C :   -0.014037
  55 C :   -0.041346
  56 S :    0.733115
  57 O :   -0.468981
  58 O :   -0.466513
  59 C :   -0.011259
  60 C :   -0.033476
  61 C :    0.121894
  62 H :   -0.012551
  63 H :   -0.004574
  64 H :    0.001978
  65 H :    0.042795
  66 H :    0.141766
  67 H :    0.002906
  68 H :    0.033582
  69 H :   -0.013594
  70 H :    0.039023
  71 H :    0.049254
  72 H :    0.016238
  73 H :    0.032348
  74 H :    0.031488
  75 H :    0.121094
  76 H :    0.000757
  77 H :   -0.011349
  78 H :   -0.019183
  79 H :   -0.017176
  80 H :   -0.016912
  81 H :   -0.017114
  82 H :   -0.007853
  83 H :    0.005882
  84 H :   -0.006016
  85 H :    0.062789
  86 H :    0.049303
  87 H :    0.018658
  88 H :    0.044601
  89 H :    0.012655
  90 H :    0.013926
Sum of atomic charges:   -0.0000000

LOEWDIN ATOMIC CHARGES
----------------------
   0 C :    0.071464
   1 C :   -0.129596
   2 C :   -0.016644
   3 N :   -0.046732
   4 C :   -0.028601
   5 N :   -0.035812
   6 C :   -0.018041
   7 C :   -0.048917
   8 C :    0.023865
   9 C :   -0.031054
  10 C :   -0.139894
  11 C :   -0.007090
  12 S :    0.438392
  13 C :   -0.272690
  14 C :   -0.071080
  15 Br:    0.149838
  16 C :    0.082332
  17 O :   -0.135841
  18 C :   -0.076126
  19 C :    0.049260
  20 C :    0.041032
  21 O :    0.048647
  22 C :   -0.057574
  23 C :    0.085373
  24 O :   -0.141867
  25 N :   -0.006032
  26 C :    0.085121
  27 O :   -0.158770
  28 C :   -0.109088
  29 C :    0.095113
  30 C :   -0.058414
  31 C :    0.031163
  32 C :   -0.068232
  33 C :   -0.011570
  34 C :   -0.050182
  35 C :    0.037868
  36 N :   -0.007059
  37 C :    0.046357
  38 C :   -0.119389
  39 C :   -0.034126
  40 C :   -0.171805
  41 C :   -0.025048
  42 C :   -0.048086
  43 C :   -0.164794
  44 S :    0.354383
  45 C :   -0.196221
  46 C :   -0.030027
  47 C :   -0.038570
  48 C :   -0.137880
  49 S :    0.353666
  50 C :   -0.089127
  51 C :   -0.153608
  52 S :    0.438902
  53 C :   -0.211720
  54 C :   -0.067417
  55 C :   -0.239462
  56 S :    1.171321
  57 O :   -0.519611
  58 O :   -0.516588
  59 C :   -0.134916
  60 C :   -0.048276
  61 C :   -0.029403
  62 H :    0.040277
  63 H :    0.041754
  64 H :    0.039050
  65 H :    0.060675
  66 H :    0.096551
  67 H :    0.039965
  68 H :    0.042425
  69 H :    0.029639
  70 H :    0.040593
  71 H :    0.044563
  72 H :    0.031466
  73 H :    0.034848
  74 H :    0.037440
  75 H :    0.077345
  76 H :    0.027105
  77 H :    0.017531
  78 H :    0.030978
  79 H :    0.031736
  80 H :    0.030107
  81 H :    0.030783
  82 H :    0.035634
  83 H :    0.036695
  84 H :    0.012654
  85 H :    0.041092
  86 H :    0.031285
  87 H :    0.031988
  88 H :    0.031390
  89 H :    0.026827
  90 H :    0.026488

  Mayer bond orders larger than 0.100000
B(  0-C ,  1-C ) :   1.6534 B(  0-C ,  6-C ) :   1.0085 B(  0-C , 18-C ) :   1.0499
B(  1-C ,  2-C ) :   1.1398 B(  1-C ,  4-C ) :   1.1374 B(  2-C ,  3-N ) :   2.9706
B(  4-C ,  5-N ) :   3.0009 B(  6-C ,  7-C ) :   1.2726 B(  6-C , 11-C ) :   1.4113
B(  7-C ,  8-C ) :   1.4236 B(  7-C , 16-C ) :   0.9440 B(  8-C ,  9-C ) :   1.2522
B(  8-C , 62-H ) :   1.0153 B(  9-C , 10-C ) :   1.3076 B(  9-C , 14-C ) :   1.1600
B( 10-C , 11-C ) :   1.3339 B( 10-C , 12-S ) :   1.0844 B( 11-C , 63-H ) :   0.9789
B( 12-S , 13-C ) :   1.0919 B( 13-C , 14-C ) :   1.6105 B( 13-C , 15-Br) :   1.0235
B( 14-C , 64-H ) :   0.9985 B( 16-C , 17-O ) :   2.2237 B( 16-C , 18-C ) :   0.9252
B( 18-C , 19-C ) :   1.5711 B( 19-C , 20-C ) :   1.2111 B( 19-C , 65-H ) :   0.9366
B( 20-C , 21-O ) :   1.1455 B( 20-C , 22-C ) :   1.3740 B( 21-O , 29-C ) :   1.2047
B( 22-C , 23-C ) :   0.8667 B( 22-C , 28-C ) :   1.3134 B( 23-C , 24-O ) :   2.2691
B( 23-C , 25-N ) :   1.0830 B( 25-N , 26-C ) :   1.0741 B( 25-N , 66-H ) :   0.9134
B( 26-C , 27-O ) :   2.2756 B( 26-C , 28-C ) :   0.8787 B( 28-C , 29-C ) :   1.3386
B( 29-C , 30-C ) :   1.1791 B( 30-C , 31-C ) :   1.6720 B( 30-C , 67-H ) :   0.9578
B( 31-C , 32-C ) :   1.1036 B( 31-C , 68-H ) :   0.9507 B( 32-C , 33-C ) :   1.8222
B( 32-C , 69-H ) :   0.9379 B( 33-C , 34-C ) :   1.0883 B( 33-C , 35-C ) :   0.9898
B( 34-C , 70-H ) :   0.9430 B( 34-C , 71-H ) :   0.9405 B( 34-C , 72-H ) :   0.9518
B( 35-C , 36-N ) :   1.0643 B( 35-C , 73-H ) :   0.9332 B( 35-C , 74-H ) :   0.9304
B( 36-N , 37-C ) :   1.1917 B( 36-N , 75-H ) :   0.9396 B( 37-C , 38-C ) :   1.6277
B( 37-C , 76-H ) :   0.9672 B( 38-C , 39-C ) :   1.1577 B( 38-C , 77-H ) :   0.9593
B( 39-C , 40-C ) :   1.5976 B( 39-C , 78-H ) :   0.9808 B( 40-C , 41-C ) :   1.1413
B( 40-C , 44-S ) :   1.0078 B( 41-C , 42-C ) :   1.5960 B( 41-C , 79-H ) :   0.9977
B( 42-C , 43-C ) :   1.1838 B( 42-C , 80-H ) :   0.9933 B( 43-C , 44-S ) :   1.0549
B( 43-C , 45-C ) :   1.5177 B( 45-C , 46-C ) :   1.1850 B( 45-C , 49-S ) :   1.0255
B( 46-C , 47-C ) :   1.5902 B( 46-C , 81-H ) :   0.9928 B( 47-C , 48-C ) :   1.1407
B( 47-C , 82-H ) :   1.0021 B( 48-C , 49-S ) :   1.0389 B( 48-C , 50-C ) :   1.5796
B( 50-C , 51-C ) :   1.1960 B( 50-C , 83-H ) :   0.9427 B( 51-C , 52-S ) :   1.1428
B( 51-C , 55-C ) :   1.5284 B( 52-S , 53-C ) :   1.1293 B( 53-C , 54-C ) :   1.5838
B( 53-C , 84-H ) :   0.9605 B( 54-C , 55-C ) :   1.3064 B( 54-C , 61-C ) :   1.0284
B( 55-C , 56-S ) :   0.8261 B( 56-S , 57-O ) :   1.6921 B( 56-S , 58-O ) :   1.6896
B( 56-S , 59-C ) :   0.8753 B( 59-C , 60-C ) :   1.0261 B( 59-C , 85-H ) :   0.9329
B( 59-C , 86-H ) :   0.9372 B( 60-C , 61-C ) :   1.0838 B( 60-C , 87-H ) :   0.9331
B( 60-C , 88-H ) :   0.9467 B( 61-C , 89-H ) :   0.9176 B( 61-C , 90-H ) :   0.9191

-----------------------------------------------------------------------------
         ABSORPTION SPECTRUM VIA TRANSITION ELECTRIC DIPOLE MOMENTS
-----------------------------------------------------------------------------
State   Energy  Wavelength   fosc         T2         TX        TY        TZ
        (cm-1)    (nm)                  (au**2)     (au)      (au)      (au)
-----------------------------------------------------------------------------
   0    8581.4   1165.3   0.000362190   0.01389  -0.07187   0.07644  -0.05373
   1   15760.5    634.5   0.003427104   0.07159  -0.14808  -0.15230  -0.16268
   2   16002.7    624.9   0.935538257  19.24616   1.91393   3.32578   2.12655
   3   19184.1    521.3   0.009118266   0.15648   0.10857   0.36751   0.09812
   4   20883.0    478.9   1.000704134  15.77570  -1.58439  -3.21339  -1.71450
   5   22208.1    450.3   0.025960768   0.38484  -0.25223  -0.47851  -0.30372
   6   25367.5    394.2   0.001043295   0.01354   0.01426  -0.10901  -0.03812
   7   25416.8    393.4   0.009737506   0.12613  -0.05117  -0.26415  -0.23180
   8   26069.0    383.6   0.096832121   1.22284  -0.03239  -0.18674  -1.08946
   9   26966.9    370.8   0.043567176   0.53187  -0.02812   0.18255  -0.70552
  10   28178.3    354.9   0.106174000   1.24045   0.07276  -0.08218  -1.10833
  11   28951.9    345.4   0.011572458   0.13159  -0.02380  -0.01099   0.36181
  12   29170.1    342.8   0.017912612   0.20216  -0.09512  -0.30158   0.31963
  13   30056.7    332.7   0.920733359  10.08482   2.87198  -1.35517   0.00778
  14   30522.9    327.6   0.011500731   0.12404  -0.25142   0.17831   0.17040
  15   31160.1    320.9   0.004456870   0.04709  -0.14230   0.15264  -0.05949
  16   31538.5    317.1   0.260572301   2.71996  -0.51017  -1.47146   0.54267
  17   31735.8    315.1   0.011690477   0.12127   0.03151   0.34393  -0.04463
  18   32010.2    312.4   0.005130611   0.05277   0.04229   0.21239   0.07660
  19   32206.9    310.5   0.010315365   0.10544   0.24829   0.02695  -0.20753
  20   32614.6    306.6   0.000208842   0.00211   0.02236  -0.03871   0.01047
  21   32928.9    303.7   0.010935625   0.10933  -0.17280   0.17732  -0.21915
  22   33131.4    301.8   0.878415465   8.72843  -0.29500  -0.76161   2.83925
  23   33626.5    297.4   0.036863671   0.36090   0.59234   0.06710   0.07442
  24   33870.6    295.2   0.377266431   3.66691  -0.56412   0.26662  -1.81041
  25   34144.3    292.9   0.053750490   0.51825   0.51694   0.03320  -0.49992
  26   34664.3    288.5   0.002413618   0.02292  -0.07667   0.02003  -0.12901
  27   35232.4    283.8   0.001989202   0.01859  -0.11068  -0.02061   0.07690
  28   36242.0    275.9   0.000525218   0.00477  -0.01853  -0.00586  -0.06628
  29   36622.5    273.1   0.000465319   0.00418   0.01782  -0.03091  -0.05395
  30   36966.4    270.5   0.003715176   0.03309  -0.11615  -0.10625  -0.09114
  31   37314.9    268.0   0.021766580   0.19204   0.02509  -0.30608  -0.31260
  32   37672.3    265.4   0.006023982   0.05264  -0.04992  -0.11358  -0.19301
  33   37945.3    263.5   0.085736144   0.74384  -0.37441  -0.49631  -0.59778
  34   38590.9    259.1   0.010576242   0.09022  -0.03659  -0.18150  -0.23652
  35   38678.9    258.5   0.085143188   0.72469  -0.32137  -0.78695   0.04605
  36   38987.8    256.5   0.213293894   1.80105   0.56160   1.19036  -0.26211
  37   39176.1    255.3   0.004705198   0.03954  -0.04659  -0.18637   0.05134
  38   39391.8    253.9   0.001597441   0.01335  -0.04821  -0.10369   0.01657
  39   39904.8    250.6   0.006928471   0.05716  -0.22907  -0.04721   0.04958
  40   39933.7    250.4   0.012897435   0.10633  -0.19050  -0.24407  -0.10231
  41   39942.7    250.4   0.061923152   0.51038  -0.38959  -0.56132  -0.20860
  42   40018.1    249.9   0.000631532   0.00520  -0.04371  -0.02739  -0.05035
  43   40223.4    248.6   0.089295351   0.73085   0.09928   0.02477   0.84875
  44   40300.8    248.1   0.002197920   0.01795   0.08785   0.09127   0.04367

FINAL SINGLE POINT ENERGY     -7001.811434730031

DIPOLE MOMENT
-------------
                                X             Y             Z
Electronic contribution:     12.99456     -81.05712     -57.02685
Nuclear contribution   :     -9.21889      84.04383      56.17967
                        -----------------------------------------
Total Dipole Moment    :      3.77567       2.98672      -0.84718
                        -----------------------------------------
Magnitude (a.u.)       :      4.88814
Magnitude (Debye)      :     12.42466

Rotational constants in cm-1:     0.001037     0.000635     0.000482
Rotational constants in MHz :    31.075326    19.032193    14.439398

                             ****ORCA TERMINATED NORMALLY****
TOTAL RUN TIME: 0 days 0 hours 7 minutes 38 seconds 318 msec
