                         Program Version 4.2.0 -  RELEASE  -
|  1> # ORCA input file
|  2> # SCF done       -208.861870641150          0.000783138998
|  3> ! CAM-B3LYP def2-SVP def2/J RIJCOSX Grid4 TightSCF
|  4> %maxcore 5000
|  5> %tddft
|  6>     Mode sTDDFT
|  7>     Ethresh 5.0
|  8>     maxcore 5000
|  9> end
| 10>
| 11> %pal
| 12>   nprocs 6
| 13>   end
| 14> * xyz 0 1
| 15>    C       -4.99075         4.61434         2.57944
| 16>    C       -4.50049         3.39456         2.98072
| 17>    C       -3.13700         3.12773         3.21658
| 18>    N       -2.04442         2.84189         3.42780
| 19>    C       -5.26561         2.23615         3.22362
| 20>    N       -5.80366         1.24533         3.44664
| 21>    C       -4.17696         5.80525         2.34362
| 22>    C       -5.02767         6.86482         1.94787
| 23>    C       -4.56063         8.12259         1.65667
| 24>    C       -3.18426         8.34949         1.76580
| 25>    C       -2.34189         7.28634         2.16463
| 26>    C       -2.81492         6.01205         2.45512
| 27>    S       -0.67769         7.78388         2.24217
| 28>    C       -1.13268         9.39179         1.74486
| 29>    C       -2.45968         9.55048         1.52975
| 30>   Br        0.18809        10.71141         1.55538
| 31>    C       -6.42644         6.38483         1.92180
| 32>    O       -7.39952         7.04681         1.61823
| 33>    C       -6.36978         4.96629         2.33098
| 34>    C       -7.46456         4.14370         2.46607
| 35>    C       -8.79546         4.54218         2.28335
| 36>    C       -9.84228         3.68356         2.49048
| 37>    C      -11.18907         4.06234         2.40424
| 38>    O      -11.55620         5.33336         2.08920
| 39>    C      -12.90657         5.42315         2.15725
| 40>    C      -13.42961         4.17252         2.51115
| 41>    C      -12.34164         3.30483         2.66361
| 42>    O      -12.36632         2.00420         3.00070
| 43>    O      -14.72621         3.80091         2.68729
| 44>    C      -13.56343         6.64497         1.92238
| 45>    C      -12.91832         7.78331         1.51340
| 46>    C      -13.54425         9.02348         1.35814
| 47>    C      -12.89200        10.14601         0.89877
| 48>    C      -13.46978        11.40883         0.83196
| 49>    C      -12.83641        12.53802         0.34295
| 50>    C      -13.32392        13.85914         0.36158
| 51>    C      -12.46853        14.78008        -0.17937
| 52>    C      -11.27819        14.22227        -0.67740
| 53>    S      -11.25583        12.49669        -0.41166
| 54>    C      -10.23658        14.87762        -1.32602
| 55>    C      -10.07000        16.26176        -1.50849
| 56>    C       -8.94037        16.59346        -2.20573
| 57>    C       -8.17751        15.48750        -2.62847
| 58>    S       -8.92149        14.00231        -2.06903
| 59>    C       -7.03329        15.51111        -3.40553
| 60>    C       -6.39962        14.37724        -3.90150
| 61>    C       -5.30308        14.41358        -4.73075
| 62>    C       -4.73776        13.27687        -5.31731
| 63>    O       -5.24088        12.03244        -5.10124
| 64>    C       -4.52774        11.15229        -5.85557
| 65>    C       -3.52990        11.84546        -6.56925
| 66>    C       -3.66486        13.19493        -6.22100
| 67>    O       -2.92944        14.23558        -6.65956
| 68>    O       -2.60984        11.37950        -7.42524
| 69>    C       -4.78231         9.78401        -5.91772
| 70>    C       -5.68741         9.03985        -5.20083
| 71>    C       -5.81720         7.65651        -5.40235
| 72>    C       -5.32041         7.00094        -6.50875
| 73>    C       -5.25642         5.61933        -6.63904
| 74>    C       -4.71177         4.88468        -7.67442
| 75>    C       -3.97990         5.21236        -8.86582
| 76>    C       -3.30019         6.36561        -9.21534
| 77>    C       -2.57424         6.51707       -10.41812
| 78>    N       -1.96680         6.74331       -11.36689
| 79>    C       -3.10937         7.55860        -8.50788
| 80>    N       -2.84228         8.59589        -8.07521
| 81>    C       -3.93386         3.99720        -9.69147
| 82>    C       -4.48039         2.91700        -8.95703
| 83>    C       -4.95453         3.42351        -7.65578
| 84>    O       -5.46407         2.78624        -6.75827
| 85>    C       -4.55494         1.63831        -9.44863
| 86>    C       -4.07520         1.40805       -10.74311
| 87>    C       -3.55204         2.49386       -11.48045
| 88>    C       -3.47269         3.78777       -10.97714
| 89>    S       -3.03194         1.99954       -13.06375
| 90>    C       -3.51347         0.36093       -12.71336
| 91>    C       -4.03923         0.19095       -11.47732
| 92>   Br       -3.27958        -0.97039       -14.01438
| 93>    H       -5.23584         8.90908         1.35760
| 94>    H       -2.13003         5.23671         2.75439
| 95>    H       -2.91141        10.47483         1.21882
| 96>    H       -7.30378         3.11469         2.76066
| 97>    H       -8.99988         5.56341         1.99970
| 98>    H       -9.66530         2.65323         2.76689
| 99>    H      -13.28592         1.73470         3.12677
|100>    H      -15.30604         4.55285         2.52697
|101>    H      -14.63276         6.66793         2.08914
|102>    H      -11.85802         7.71792         1.31267
|103>    H      -14.59048         9.10495         1.62644
|104>    H      -11.86054        10.04863         0.58333
|105>    H      -14.47684        11.53902         1.20753
|106>    H      -14.28527        14.09845         0.78085
|107>    H      -12.67811        15.83249        -0.24480
|108>    H      -10.77065        16.97810        -1.11901
|109>    H       -8.64657        17.60155        -2.43924
|110>    H       -6.64028        16.48334        -3.67291
|111>    H       -6.81602        13.41044        -3.64994
|112>    H       -4.84300        15.35409        -4.99513
|113>    H       -2.26348        13.89534        -7.27267
|114>    H       -2.68929        10.41536        -7.57920
|115>    H       -4.13210         9.26311        -6.60536
|116>    H       -6.26384         9.51490        -4.42042
|117>    H       -6.31944         7.07500        -4.64013
|118>    H       -4.96047         7.59115        -7.33383
|119>    H       -5.69916         5.01304        -5.85481
|120>    H       -4.97245         0.84045        -8.85479
|121>    H       -3.07203         4.57404       -11.59339
|122>    H       -4.38762        -0.75198       -11.09714
|123> *
|124>
|125>                          ****END OF INPUT****

CARTESIAN COORDINATES (ANGSTROEM)
---------------------------------
  C     -4.990750    4.614340    2.579440
  C     -4.500490    3.394560    2.980720
  C     -3.137000    3.127730    3.216580
  N     -2.044420    2.841890    3.427800
  C     -5.265610    2.236150    3.223620
  N     -5.803660    1.245330    3.446640
  C     -4.176960    5.805250    2.343620
  C     -5.027670    6.864820    1.947870
  C     -4.560630    8.122590    1.656670
  C     -3.184260    8.349490    1.765800
  C     -2.341890    7.286340    2.164630
  C     -2.814920    6.012050    2.455120
  S     -0.677690    7.783880    2.242170
  C     -1.132680    9.391790    1.744860
  C     -2.459680    9.550480    1.529750
  Br     0.188090   10.711410    1.555380
  C     -6.426440    6.384830    1.921800
  O     -7.399520    7.046810    1.618230
  C     -6.369780    4.966290    2.330980
  C     -7.464560    4.143700    2.466070
  C     -8.795460    4.542180    2.283350
  C     -9.842280    3.683560    2.490480
  C    -11.189070    4.062340    2.404240
  O    -11.556200    5.333360    2.089200
  C    -12.906570    5.423150    2.157250
  C    -13.429610    4.172520    2.511150
  C    -12.341640    3.304830    2.663610
  O    -12.366320    2.004200    3.000700
  O    -14.726210    3.800910    2.687290
  C    -13.563430    6.644970    1.922380
  C    -12.918320    7.783310    1.513400
  C    -13.544250    9.023480    1.358140
  C    -12.892000   10.146010    0.898770
  C    -13.469780   11.408830    0.831960
  C    -12.836410   12.538020    0.342950
  C    -13.323920   13.859140    0.361580
  C    -12.468530   14.780080   -0.179370
  C    -11.278190   14.222270   -0.677400
  S    -11.255830   12.496690   -0.411660
  C    -10.236580   14.877620   -1.326020
  C    -10.070000   16.261760   -1.508490
  C     -8.940370   16.593460   -2.205730
  C     -8.177510   15.487500   -2.628470
  S     -8.921490   14.002310   -2.069030
  C     -7.033290   15.511110   -3.405530
  C     -6.399620   14.377240   -3.901500
  C     -5.303080   14.413580   -4.730750
  C     -4.737760   13.276870   -5.317310
  O     -5.240880   12.032440   -5.101240
  C     -4.527740   11.152290   -5.855570
  C     -3.529900   11.845460   -6.569250
  C     -3.664860   13.194930   -6.221000
  O     -2.929440   14.235580   -6.659560
  O     -2.609840   11.379500   -7.425240
  C     -4.782310    9.784010   -5.917720
  C     -5.687410    9.039850   -5.200830
  C     -5.817200    7.656510   -5.402350
  C     -5.320410    7.000940   -6.508750
  C     -5.256420    5.619330   -6.639040
  C     -4.711770    4.884680   -7.674420
  C     -3.979900    5.212360   -8.865820
  C     -3.300190    6.365610   -9.215340
  C     -2.574240    6.517070  -10.418120
  N     -1.966800    6.743310  -11.366890
  C     -3.109370    7.558600   -8.507880
  N     -2.842280    8.595890   -8.075210
  C     -3.933860    3.997200   -9.691470
  C     -4.480390    2.917000   -8.957030
  C     -4.954530    3.423510   -7.655780
  O     -5.464070    2.786240   -6.758270
  C     -4.554940    1.638310   -9.448630
  C     -4.075200    1.408050  -10.743110
  C     -3.552040    2.493860  -11.480450
  C     -3.472690    3.787770  -10.977140
  S     -3.031940    1.999540  -13.063750
  C     -3.513470    0.360930  -12.713360
  C     -4.039230    0.190950  -11.477320
  Br    -3.279580   -0.970390  -14.014380
  H     -5.235840    8.909080    1.357600
  H     -2.130030    5.236710    2.754390
  H     -2.911410   10.474830    1.218820
  H     -7.303780    3.114690    2.760660
  H     -8.999880    5.563410    1.999700
  H     -9.665300    2.653230    2.766890
  H    -13.285920    1.734700    3.126770
  H    -15.306040    4.552850    2.526970
  H    -14.632760    6.667930    2.089140
  H    -11.858020    7.717920    1.312670
  H    -14.590480    9.104950    1.626440
  H    -11.860540   10.048630    0.583330
  H    -14.476840   11.539020    1.207530
  H    -14.285270   14.098450    0.780850
  H    -12.678110   15.832490   -0.244800
  H    -10.770650   16.978100   -1.119010
  H     -8.646570   17.601550   -2.439240
  H     -6.640280   16.483340   -3.672910
  H     -6.816020   13.410440   -3.649940
  H     -4.843000   15.354090   -4.995130
  H     -2.263480   13.895340   -7.272670
  H     -2.689290   10.415360   -7.579200
  H     -4.132100    9.263110   -6.605360
  H     -6.263840    9.514900   -4.420420
  H     -6.319440    7.075000   -4.640130
  H     -4.960470    7.591150   -7.333830
  H     -5.699160    5.013040   -5.854810
  H     -4.972450    0.840450   -8.854790
  H     -3.072030    4.574040  -11.593390
  H     -4.387620   -0.751980  -11.097140

 Total Charge           Charge          ....    0
 Multiplicity           Mult            ....    1
 Number of Electrons    NEL             ....  616
 Basis Dimension        Dim             .... 1294

ORBITAL ENERGIES
----------------

  NO   OCC          E(Eh)            E(eV)
   0   2.0000    -482.878101    -13139.7811
   1   2.0000    -482.877569    -13139.7667
   2   2.0000     -88.966560     -2420.9032
   3   2.0000     -88.965002     -2420.8608
   4   2.0000     -88.954919     -2420.5864
   5   2.0000     -88.954647     -2420.5790
   6   2.0000     -62.555804     -1702.2300
   7   2.0000     -62.555253     -1702.2150
   8   2.0000     -56.389745     -1534.4430
   9   2.0000     -56.389191     -1534.4279
  10   2.0000     -56.387049     -1534.3696
  11   2.0000     -56.387011     -1534.3686
  12   2.0000     -56.386500     -1534.3547
  13   2.0000     -56.386462     -1534.3536
  14   2.0000     -19.295534      -525.0582
  15   2.0000     -19.292923      -524.9871
  16   2.0000     -19.277148      -524.5579
  17   2.0000     -19.272319      -524.4265
  18   2.0000     -19.262256      -524.1526
  19   2.0000     -19.256814      -524.0045
  20   2.0000     -19.199846      -522.4544
  21   2.0000     -19.198854      -522.4274
  22   2.0000     -14.429682      -392.6516
  23   2.0000     -14.404327      -391.9617
  24   2.0000     -14.400213      -391.8497
  25   2.0000     -14.398576      -391.8052
  26   2.0000     -10.354576      -281.7623
  27   2.0000     -10.351869      -281.6887
  28   2.0000     -10.350467      -281.6505
  29   2.0000     -10.349928      -281.6358
  30   2.0000     -10.349771      -281.6316
  31   2.0000     -10.348947      -281.6092
  32   2.0000     -10.348640      -281.6008
  33   2.0000     -10.348119      -281.5866
  34   2.0000     -10.345402      -281.5127
  35   2.0000     -10.342188      -281.4253
  36   2.0000     -10.341733      -281.4129
  37   2.0000     -10.336980      -281.2835
  38   2.0000     -10.336571      -281.2724
  39   2.0000     -10.336221      -281.2629
  40   2.0000     -10.330721      -281.1132
  41   2.0000     -10.324351      -280.9399
  42   2.0000     -10.322640      -280.8933
  43   2.0000     -10.320875      -280.8453
  44   2.0000     -10.319982      -280.8210
  45   2.0000     -10.316402      -280.7236
  46   2.0000     -10.316049      -280.7140
  47   2.0000     -10.314697      -280.6772
  48   2.0000     -10.313377      -280.6413
  49   2.0000     -10.309928      -280.5474
  50   2.0000     -10.303947      -280.3847
  51   2.0000     -10.302637      -280.3490
  52   2.0000     -10.300290      -280.2851
  53   2.0000     -10.299418      -280.2614
  54   2.0000     -10.298652      -280.2406
  55   2.0000     -10.297490      -280.2090
  56   2.0000     -10.296637      -280.1857
  57   2.0000     -10.296534      -280.1829
  58   2.0000     -10.296525      -280.1827
  59   2.0000     -10.296466      -280.1811
  60   2.0000     -10.296002      -280.1684
  61   2.0000     -10.295613      -280.1579
  62   2.0000     -10.294819      -280.1363
  63   2.0000     -10.294303      -280.1222
  64   2.0000     -10.294018      -280.1145
  65   2.0000     -10.292916      -280.0845
  66   2.0000     -10.292262      -280.0667
  67   2.0000     -10.292022      -280.0602
  68   2.0000     -10.289602      -279.9943
  69   2.0000     -10.288978      -279.9773
  70   2.0000     -10.288463      -279.9633
  71   2.0000     -10.288237      -279.9572
  72   2.0000     -10.288138      -279.9545
  73   2.0000     -10.288010      -279.9510
  74   2.0000     -10.287536      -279.9381
  75   2.0000     -10.287088      -279.9259
  76   2.0000     -10.286911      -279.9211
  77   2.0000     -10.286531      -279.9108
  78   2.0000     -10.283194      -279.8199
  79   2.0000     -10.279396      -279.7166
  80   2.0000     -10.277901      -279.6759
  81   2.0000     -10.277453      -279.6637
  82   2.0000     -10.276178      -279.6290
  83   2.0000     -10.275837      -279.6198
  84   2.0000     -10.272311      -279.5238
  85   2.0000     -10.267481      -279.3924
  86   2.0000      -8.785222      -239.0581
  87   2.0000      -8.784658      -239.0427
  88   2.0000      -8.062442      -219.3902
  89   2.0000      -8.060975      -219.3503
  90   2.0000      -8.051241      -219.0854
  91   2.0000      -8.051043      -219.0800
  92   2.0000      -6.621465      -180.1792
  93   2.0000      -6.620881      -180.1633
  94   2.0000      -6.606972      -179.7849
  95   2.0000      -6.606809      -179.7804
  96   2.0000      -6.606416      -179.7697
  97   2.0000      -6.606254      -179.7653
  98   2.0000      -6.032125      -164.1425
  99   2.0000      -6.030659      -164.1026
 100   2.0000      -6.027869      -164.0266
 101   2.0000      -6.026418      -163.9872
 102   2.0000      -6.023722      -163.9138
 103   2.0000      -6.022196      -163.8723
 104   2.0000      -6.020844      -163.8355
 105   2.0000      -6.020655      -163.8303
 106   2.0000      -6.016897      -163.7281
 107   2.0000      -6.016690      -163.7225
 108   2.0000      -6.012312      -163.6033
 109   2.0000      -6.012108      -163.5978
 110   2.0000      -2.737391       -74.4882
 111   2.0000      -2.736817       -74.4726
 112   2.0000      -2.733253       -74.3756
 113   2.0000      -2.733129       -74.3722
 114   2.0000      -2.732676       -74.3599
 115   2.0000      -2.732557       -74.3567
 116   2.0000      -2.721620       -74.0590
 117   2.0000      -2.721613       -74.0589
 118   2.0000      -2.721065       -74.0439
 119   2.0000      -2.721059       -74.0438
 120   2.0000      -1.217845       -33.1392
 121   2.0000      -1.213292       -33.0153
 122   2.0000      -1.173010       -31.9192
 123   2.0000      -1.161149       -31.5965
 124   2.0000      -1.157208       -31.4892
 125   2.0000      -1.143012       -31.1030
 126   2.0000      -1.113564       -30.3016
 127   2.0000      -1.113236       -30.2927
 128   2.0000      -1.022707       -27.8293
 129   2.0000      -1.009703       -27.4754
 130   2.0000      -1.009649       -27.4739
 131   2.0000      -1.005021       -27.3480
 132   2.0000      -0.998953       -27.1829
 133   2.0000      -0.992701       -27.0128
 134   2.0000      -0.983353       -26.7584
 135   2.0000      -0.978388       -26.6233
 136   2.0000      -0.978102       -26.6155
 137   2.0000      -0.974475       -26.5168
 138   2.0000      -0.936671       -25.4881
 139   2.0000      -0.934667       -25.4336
 140   2.0000      -0.930694       -25.3255
 141   2.0000      -0.929766       -25.3002
 142   2.0000      -0.921353       -25.0713
 143   2.0000      -0.916202       -24.9311
 144   2.0000      -0.903365       -24.5818
 145   2.0000      -0.900645       -24.5078
 146   2.0000      -0.899685       -24.4817
 147   2.0000      -0.897573       -24.4242
 148   2.0000      -0.895339       -24.3634
 149   2.0000      -0.893042       -24.3009
 150   2.0000      -0.881638       -23.9906
 151   2.0000      -0.876376       -23.8474
 152   2.0000      -0.874717       -23.8023
 153   2.0000      -0.872990       -23.7553
 154   2.0000      -0.865606       -23.5543
 155   2.0000      -0.855471       -23.2786
 156   2.0000      -0.853694       -23.2302
 157   2.0000      -0.839710       -22.8497
 158   2.0000      -0.833686       -22.6857
 159   2.0000      -0.827062       -22.5055
 160   2.0000      -0.820215       -22.3192
 161   2.0000      -0.817146       -22.2357
 162   2.0000      -0.811729       -22.0883
 163   2.0000      -0.797089       -21.6899
 164   2.0000      -0.783924       -21.3317
 165   2.0000      -0.772428       -21.0188
 166   2.0000      -0.759004       -20.6535
 167   2.0000      -0.754650       -20.5351
 168   2.0000      -0.746196       -20.3050
 169   2.0000      -0.741516       -20.1777
 170   2.0000      -0.732924       -19.9439
 171   2.0000      -0.725725       -19.7480
 172   2.0000      -0.717341       -19.5198
 173   2.0000      -0.712600       -19.3908
 174   2.0000      -0.704761       -19.1775
 175   2.0000      -0.699893       -19.0451
 176   2.0000      -0.697964       -18.9926
 177   2.0000      -0.691334       -18.8122
 178   2.0000      -0.683603       -18.6018
 179   2.0000      -0.678183       -18.4543
 180   2.0000      -0.676244       -18.4015
 181   2.0000      -0.674491       -18.3538
 182   2.0000      -0.670310       -18.2401
 183   2.0000      -0.662305       -18.0222
 184   2.0000      -0.658492       -17.9185
 185   2.0000      -0.654285       -17.8040
 186   2.0000      -0.649925       -17.6853
 187   2.0000      -0.644524       -17.5384
 188   2.0000      -0.642542       -17.4845
 189   2.0000      -0.640436       -17.4271
 190   2.0000      -0.633239       -17.2313
 191   2.0000      -0.628561       -17.1040
 192   2.0000      -0.621229       -16.9045
 193   2.0000      -0.614213       -16.7136
 194   2.0000      -0.613413       -16.6918
 195   2.0000      -0.612048       -16.6547
 196   2.0000      -0.610603       -16.6153
 197   2.0000      -0.605132       -16.4665
 198   2.0000      -0.603788       -16.4299
 199   2.0000      -0.593786       -16.1577
 200   2.0000      -0.592736       -16.1292
 201   2.0000      -0.585086       -15.9210
 202   2.0000      -0.583817       -15.8865
 203   2.0000      -0.580852       -15.8058
 204   2.0000      -0.578703       -15.7473
 205   2.0000      -0.577793       -15.7226
 206   2.0000      -0.573251       -15.5989
 207   2.0000      -0.570281       -15.5181
 208   2.0000      -0.558761       -15.2047
 209   2.0000      -0.556014       -15.1299
 210   2.0000      -0.550079       -14.9684
 211   2.0000      -0.547435       -14.8965
 212   2.0000      -0.545466       -14.8429
 213   2.0000      -0.538384       -14.6502
 214   2.0000      -0.536593       -14.6014
 215   2.0000      -0.535366       -14.5680
 216   2.0000      -0.528239       -14.3741
 217   2.0000      -0.526812       -14.3353
 218   2.0000      -0.525554       -14.3010
 219   2.0000      -0.524987       -14.2856
 220   2.0000      -0.522016       -14.2048
 221   2.0000      -0.521495       -14.1906
 222   2.0000      -0.516987       -14.0679
 223   2.0000      -0.515050       -14.0152
 224   2.0000      -0.509312       -13.8591
 225   2.0000      -0.508829       -13.8459
 226   2.0000      -0.506038       -13.7700
 227   2.0000      -0.504187       -13.7196
 228   2.0000      -0.502377       -13.6704
 229   2.0000      -0.500356       -13.6154
 230   2.0000      -0.498895       -13.5756
 231   2.0000      -0.496515       -13.5109
 232   2.0000      -0.495619       -13.4865
 233   2.0000      -0.495283       -13.4773
 234   2.0000      -0.493952       -13.4411
 235   2.0000      -0.492673       -13.4063
 236   2.0000      -0.491225       -13.3669
 237   2.0000      -0.488174       -13.2839
 238   2.0000      -0.487256       -13.2589
 239   2.0000      -0.486999       -13.2519
 240   2.0000      -0.484740       -13.1904
 241   2.0000      -0.481068       -13.0905
 242   2.0000      -0.480596       -13.0777
 243   2.0000      -0.480267       -13.0687
 244   2.0000      -0.478259       -13.0141
 245   2.0000      -0.478017       -13.0075
 246   2.0000      -0.474114       -12.9013
 247   2.0000      -0.473243       -12.8776
 248   2.0000      -0.470113       -12.7924
 249   2.0000      -0.469432       -12.7739
 250   2.0000      -0.465800       -12.6751
 251   2.0000      -0.461727       -12.5642
 252   2.0000      -0.460182       -12.5222
 253   2.0000      -0.459775       -12.5111
 254   2.0000      -0.454507       -12.3678
 255   2.0000      -0.451027       -12.2731
 256   2.0000      -0.449982       -12.2446
 257   2.0000      -0.445305       -12.1174
 258   2.0000      -0.443420       -12.0661
 259   2.0000      -0.441519       -12.0143
 260   2.0000      -0.439944       -11.9715
 261   2.0000      -0.438927       -11.9438
 262   2.0000      -0.436070       -11.8661
 263   2.0000      -0.434725       -11.8295
 264   2.0000      -0.434254       -11.8167
 265   2.0000      -0.433981       -11.8092
 266   2.0000      -0.433714       -11.8020
 267   2.0000      -0.430752       -11.7214
 268   2.0000      -0.429043       -11.6749
 269   2.0000      -0.428180       -11.6514
 270   2.0000      -0.426450       -11.6043
 271   2.0000      -0.425660       -11.5828
 272   2.0000      -0.423399       -11.5213
 273   2.0000      -0.420454       -11.4411
 274   2.0000      -0.419035       -11.4025
 275   2.0000      -0.416481       -11.3330
 276   2.0000      -0.411447       -11.1960
 277   2.0000      -0.408373       -11.1124
 278   2.0000      -0.406644       -11.0653
 279   2.0000      -0.404753       -11.0139
 280   2.0000      -0.400095       -10.8871
 281   2.0000      -0.397053       -10.8044
 282   2.0000      -0.392023       -10.6675
 283   2.0000      -0.389394       -10.5959
 284   2.0000      -0.380911       -10.3651
 285   2.0000      -0.375898       -10.2287
 286   2.0000      -0.373696       -10.1688
 287   2.0000      -0.367592       -10.0027
 288   2.0000      -0.367062        -9.9883
 289   2.0000      -0.362246        -9.8572
 290   2.0000      -0.353796        -9.6273
 291   2.0000      -0.348238        -9.4760
 292   2.0000      -0.343710        -9.3528
 293   2.0000      -0.334327        -9.0975
 294   2.0000      -0.325104        -8.8465
 295   2.0000      -0.323930        -8.8146
 296   2.0000      -0.322820        -8.7844
 297   2.0000      -0.319794        -8.7020
 298   2.0000      -0.310338        -8.4447
 299   2.0000      -0.305470        -8.3123
 300   2.0000      -0.303653        -8.2628
 301   2.0000      -0.301040        -8.1917
 302   2.0000      -0.286838        -7.8053
 303   2.0000      -0.283952        -7.7267
 304   2.0000      -0.279095        -7.5946
 305   2.0000      -0.255350        -6.9484
 306   2.0000      -0.236674        -6.4402
 307   2.0000      -0.201221        -5.4755
 308   0.0000      -0.112958        -3.0737
 309   0.0000      -0.089459        -2.4343
 310   0.0000      -0.074339        -2.0229
 311   0.0000      -0.056213        -1.5296
 312   0.0000      -0.047693        -1.2978

MULLIKEN ATOMIC CHARGES
-----------------------
   0 C :    0.334469
   1 C :   -0.363797
   2 C :   -0.186005
   3 N :    0.138745
   4 C :   -0.192889
   5 N :    0.137653
   6 C :    0.010608
   7 C :   -0.009514
   8 C :   -0.078153
   9 C :    0.116508
  10 C :   -0.093341
  11 C :   -0.020643
  12 S :    0.180694
  13 C :   -0.123200
  14 C :    0.038024
  15 Br:    0.014583
  16 C :    0.139303
  17 O :   -0.165120
  18 C :   -0.080966
  19 C :   -0.029634
  20 C :   -0.006040
  21 C :   -0.003913
  22 C :    0.082313
  23 O :   -0.215370
  24 C :    0.136707
  25 C :    0.069835
  26 C :    0.110710
  27 O :   -0.157381
  28 O :   -0.196724
  29 C :   -0.090788
  30 C :    0.038550
  31 C :    0.009276
  32 C :    0.017449
  33 C :   -0.008659
  34 C :   -0.021185
  35 C :    0.034422
  36 C :    0.023877
  37 C :   -0.047519
  38 S :    0.091334
  39 C :   -0.046309
  40 C :    0.023452
  41 C :    0.035392
  42 C :   -0.021230
  43 S :    0.090672
  44 C :   -0.005237
  45 C :    0.027409
  46 C :   -0.055090
  47 C :    0.115517
  48 O :   -0.224327
  49 C :    0.089338
  50 C :    0.122393
  51 C :    0.079796
  52 O :   -0.174198
  53 O :   -0.190608
  54 C :    0.000315
  55 C :   -0.003942
  56 C :    0.056104
  57 C :   -0.026179
  58 C :    0.039967
  59 C :   -0.150202
  60 C :    0.360178
  61 C :   -0.381052
  62 C :   -0.207130
  63 N :    0.136345
  64 C :   -0.096822
  65 N :    0.066765
  66 C :   -0.007075
  67 C :   -0.001247
  68 C :    0.129782
  69 O :   -0.155820
  70 C :   -0.072672
  71 C :    0.115854
  72 C :   -0.096597
  73 C :   -0.020558
  74 S :    0.180941
  75 C :   -0.123859
  76 C :    0.039194
  77 Br:    0.016554
  78 H :   -0.016725
  79 H :   -0.009954
  80 H :   -0.006938
  81 H :    0.005691
  82 H :    0.026200
  83 H :    0.023174
  84 H :    0.199356
  85 H :    0.194143
  86 H :   -0.029062
  87 H :    0.018789
  88 H :   -0.017815
  89 H :    0.006227
  90 H :   -0.016086
  91 H :   -0.011822
  92 H :   -0.010954
  93 H :   -0.010844
  94 H :   -0.009644
  95 H :   -0.011344
  96 H :    0.013827
  97 H :    0.005714
  98 H :    0.198982
  99 H :    0.193999
 100 H :   -0.024811
 101 H :   -0.004842
 102 H :    0.010881
 103 H :    0.002247
 104 H :    0.008595
 105 H :   -0.012986
 106 H :   -0.009029
 107 H :   -0.004996
Sum of atomic charges:   -0.0000000

LOEWDIN ATOMIC CHARGES
----------------------
   0 C :    0.075408
   1 C :   -0.152858
   2 C :   -0.018220
   3 N :   -0.066120
   4 C :   -0.020309
   5 N :   -0.063602
   6 C :   -0.018821
   7 C :   -0.048665
   8 C :    0.016281
   9 C :   -0.035511
  10 C :   -0.145479
  11 C :   -0.012401
  12 S :    0.427900
  13 C :   -0.274206
  14 C :   -0.071532
  15 Br:    0.129737
  16 C :    0.082052
  17 O :   -0.157972
  18 C :   -0.111955
  19 C :    0.065172
  20 C :   -0.043411
  21 C :    0.021700
  22 C :   -0.006349
  23 O :    0.008550
  24 C :    0.016500
  25 C :   -0.026985
  26 C :    0.019048
  27 O :   -0.030597
  28 O :   -0.059899
  29 C :   -0.069226
  30 C :    0.001363
  31 C :   -0.029970
  32 C :   -0.017628
  33 C :   -0.058119
  34 C :   -0.141085
  35 C :   -0.036497
  36 C :   -0.030181
  37 C :   -0.178439
  38 S :    0.387182
  39 C :   -0.175421
  40 C :   -0.032237
  41 C :   -0.033345
  42 C :   -0.143658
  43 S :    0.387090
  44 C :   -0.050966
  45 C :   -0.015207
  46 C :   -0.037982
  47 C :    0.032282
  48 O :   -0.005519
  49 C :   -0.016071
  50 C :    0.020792
  51 C :   -0.010012
  52 O :   -0.044194
  53 O :   -0.043592
  54 C :    0.011016
  55 C :   -0.061581
  56 C :    0.050284
  57 C :   -0.066877
  58 C :    0.069156
  59 C :   -0.125510
  60 C :    0.083797
  61 C :   -0.174676
  62 C :   -0.020521
  63 N :   -0.068755
  64 C :    0.046027
  65 N :   -0.095624
  66 C :   -0.018325
  67 C :   -0.049816
  68 C :    0.079399
  69 O :   -0.154869
  70 C :    0.019498
  71 C :   -0.035403
  72 C :   -0.146164
  73 C :   -0.014678
  74 S :    0.428256
  75 C :   -0.274094
  76 C :   -0.070364
  77 Br:    0.131290
  78 H :    0.038238
  79 H :    0.040220
  80 H :    0.037217
  81 H :    0.040311
  82 H :    0.033029
  83 H :    0.048120
  84 H :    0.108889
  85 H :    0.100313
  86 H :    0.024993
  87 H :    0.039372
  88 H :    0.025574
  89 H :    0.027220
  90 H :    0.032903
  91 H :    0.033957
  92 H :    0.032802
  93 H :    0.032789
  94 H :    0.034664
  95 H :    0.034410
  96 H :    0.026918
  97 H :    0.042317
  98 H :    0.107912
  99 H :    0.068917
 100 H :    0.034378
 101 H :    0.031656
 102 H :    0.037817
 103 H :    0.026736
 104 H :    0.042348
 105 H :    0.040197
 106 H :    0.039422
 107 H :    0.038077

  Mayer bond orders larger than 0.100000
B(  0-C ,  1-C ) :   1.5963 B(  0-C ,  6-C ) :   0.9909 B(  0-C , 18-C ) :   1.0986
B(  1-C ,  2-C ) :   1.1464 B(  1-C ,  4-C ) :   1.1535 B(  2-C ,  3-N ) :   2.9625
B(  4-C ,  5-N ) :   2.9583 B(  6-C ,  7-C ) :   1.2803 B(  6-C , 11-C ) :   1.4179
B(  7-C ,  8-C ) :   1.4274 B(  7-C , 16-C ) :   0.9376 B(  8-C ,  9-C ) :   1.2428
B(  8-C , 78-H ) :   1.0151 B(  9-C , 10-C ) :   1.3155 B(  9-C , 14-C ) :   1.1597
B( 10-C , 11-C ) :   1.3252 B( 10-C , 12-S ) :   1.0821 B( 11-C , 79-H ) :   0.9775
B( 12-S , 13-C ) :   1.0861 B( 13-C , 14-C ) :   1.6205 B( 13-C , 15-Br) :   1.0140
B( 14-C , 80-H ) :   0.9998 B( 16-C , 17-O ) :   2.1902 B( 16-C , 18-C ) :   0.9638
B( 18-C , 19-C ) :   1.4612 B( 19-C , 20-C ) :   1.2185 B( 19-C , 81-H ) :   0.9600
B( 20-C , 21-C ) :   1.4424 B( 20-C , 82-H ) :   0.9930 B( 21-C , 22-C ) :   1.2275
B( 21-C , 83-H ) :   0.9782 B( 22-C , 23-O ) :   1.1026 B( 22-C , 24-C ) :   0.1027
B( 22-C , 26-C ) :   1.3077 B( 23-O , 24-C ) :   1.1402 B( 24-C , 25-C ) :   1.2570
B( 24-C , 29-C ) :   1.1764 B( 25-C , 26-C ) :   1.2728 B( 25-C , 28-O ) :   1.2355
B( 26-C , 27-O ) :   1.2994 B( 27-O , 84-H ) :   0.9496 B( 28-O , 85-H ) :   0.9563
B( 29-C , 30-C ) :   1.5524 B( 29-C , 86-H ) :   0.9656 B( 30-C , 31-C ) :   1.1902
B( 30-C , 87-H ) :   0.9936 B( 31-C , 32-C ) :   1.5329 B( 31-C , 88-H ) :   0.9888
B( 32-C , 33-C ) :   1.2124 B( 32-C , 89-H ) :   0.9763 B( 33-C , 34-C ) :   1.4906
B( 33-C , 90-H ) :   0.9806 B( 34-C , 35-C ) :   1.1847 B( 34-C , 38-S ) :   1.0479
B( 35-C , 36-C ) :   1.5399 B( 35-C , 91-H ) :   0.9996 B( 36-C , 37-C ) :   1.2300
B( 36-C , 92-H ) :   0.9952 B( 37-C , 38-S ) :   1.0593 B( 37-C , 39-C ) :   1.4378
B( 39-C , 40-C ) :   1.2297 B( 39-C , 43-S ) :   1.0613 B( 40-C , 41-C ) :   1.5398
B( 40-C , 93-H ) :   0.9949 B( 41-C , 42-C ) :   1.1832 B( 41-C , 94-H ) :   1.0007
B( 42-C , 43-S ) :   1.0464 B( 42-C , 44-C ) :   1.4855 B( 44-C , 45-C ) :   1.2105
B( 44-C , 95-H ) :   0.9845 B( 45-C , 46-C ) :   1.5113 B( 45-C , 96-H ) :   0.9791
B( 46-C , 47-C ) :   1.2243 B( 46-C , 97-H ) :   0.9752 B( 47-C , 48-O ) :   1.1241
B( 47-C , 51-C ) :   1.3108 B( 48-O , 49-C ) :   1.1038 B( 49-C , 50-C ) :   1.2019
B( 49-C , 54-C ) :   1.3086 B( 50-C , 51-C ) :   1.2640 B( 50-C , 53-O ) :   1.3098
B( 51-C , 52-O ) :   1.2809 B( 52-O , 98-H ) :   0.9501 B( 53-O , 99-H ) :   0.8974
B( 54-C , 55-C ) :   1.4631 B( 54-C ,100-H ) :   0.9234 B( 55-C , 56-C ) :   1.2468
B( 55-C ,101-H ) :   0.9904 B( 56-C , 57-C ) :   1.4676 B( 56-C ,102-H ) :   0.9807
B( 57-C , 58-C ) :   1.2751 B( 57-C ,103-H ) :   0.9493 B( 58-C , 59-C ) :   1.4470
B( 58-C ,104-H ) :   0.9535 B( 59-C , 60-C ) :   1.1242 B( 59-C , 68-C ) :   0.9638
B( 60-C , 61-C ) :   1.5005 B( 60-C , 66-C ) :   1.0002 B( 61-C , 62-C ) :   1.1360
B( 61-C , 64-C ) :   1.2018 B( 62-C , 63-N ) :   2.9691 B( 64-C , 65-N ) :   2.7965
B( 65-N , 99-H ) :   0.1372 B( 66-C , 67-C ) :   1.2765 B( 66-C , 73-C ) :   1.4167
B( 67-C , 68-C ) :   0.9215 B( 67-C , 70-C ) :   1.4425 B( 68-C , 69-O ) :   2.2412
B( 70-C , 71-C ) :   1.2344 B( 70-C ,105-H ) :   1.0161 B( 71-C , 72-C ) :   1.3191
B( 71-C , 76-C ) :   1.1621 B( 72-C , 73-C ) :   1.3255 B( 72-C , 74-S ) :   1.0842
B( 73-C ,106-H ) :   0.9757 B( 74-S , 75-C ) :   1.0870 B( 75-C , 76-C ) :   1.6181
B( 75-C , 77-Br) :   1.0149 B( 76-C ,107-H ) :   1.0000

-----------------------------------------------------------------------------
         ABSORPTION SPECTRUM VIA TRANSITION ELECTRIC DIPOLE MOMENTS
-----------------------------------------------------------------------------
State   Energy  Wavelength   fosc         T2         TX        TY        TZ
        (cm-1)    (nm)                  (au**2)     (au)      (au)      (au)
-----------------------------------------------------------------------------
   0    6849.4   1460.0   0.536424771  25.78294   2.40213   0.61516  -4.43106
   1   12423.4    804.9   0.663089437  17.57140   1.98830  -3.65387  -0.51700
   2   14532.5    688.1   1.266534684  28.69139  -2.47352   4.64102   1.01688
   3   16691.1    599.1   0.439983883   8.67814  -2.74677  -0.99293   0.38402
   4   18643.5    536.4   0.674295441  11.90686  -3.27159  -1.06146  -0.27729
   5   20302.8    492.5   0.162692206   2.63808   1.05717   1.22542   0.13710
   6   20424.0    489.6   0.135875482   2.19016   0.10471  -1.47272   0.10151
   7   21773.7    459.3   0.260157432   3.93351   1.33621   1.42947  -0.32351
   8   22708.1    440.4   0.423495320   6.13964   1.68902   1.78109  -0.33852
   9   23678.6    422.3   0.036207873   0.50341  -0.41136  -0.56270   0.13254
  10   24577.5    406.9   0.089510727   1.19898  -0.65265  -0.85200   0.21706
  11   25392.4    393.8   0.031129968   0.40360   0.56158  -0.21671  -0.20312
  12   25836.6    387.0   0.332488653   4.23659  -0.43653  -2.00850  -0.10945
  13   26166.8    382.2   0.025682138   0.32311   0.02133   0.13413  -0.55197
  14   26868.7    372.2   0.105079662   1.28750   0.33925   1.06713   0.18345
  15   27540.1    363.1   0.000372023   0.00445  -0.03339  -0.05708   0.00864
  16   27787.2    359.9   0.195952034   2.32156  -0.90389  -1.20901   0.20699
  17   27846.1    359.1   0.003615554   0.04275   0.00614   0.18295  -0.09611
  18   28528.0    350.5   0.006419815   0.07408  -0.22426  -0.15308   0.01898
  19   28814.5    347.0   0.066819365   0.76343  -0.39968  -0.14582   0.76316
  20   29089.6    343.8   0.120464674   1.36332   0.79731   0.75946  -0.38839
  21   29241.9    342.0   0.060496581   0.68108  -0.36573  -0.65555   0.34291
  22   29537.8    338.5   0.058492870   0.65193  -0.25713  -0.75861   0.10160
  23   29631.8    337.5   0.036841641   0.40931   0.34508   0.48970  -0.22457
  24   30120.6    332.0   0.030625521   0.33473  -0.34689   0.17883   0.42710
  25   30319.7    329.8   0.046135484   0.50094  -0.03338  -0.59225  -0.38608
  26   30442.3    328.5   0.063644485   0.68827  -0.54228  -0.41088   0.47474
  27   31296.4    319.5   0.006379010   0.06710  -0.08064   0.15702  -0.18959
  28   31668.1    315.8   0.021700999   0.22560   0.25713   0.39657   0.04703
  29   31772.1    314.7   0.006551358   0.06788   0.19691   0.14754   0.08569
  30   31895.7    313.5   0.000045972   0.00047   0.00141  -0.02153  -0.00299
  31   31988.5    312.6   0.035227671   0.36255  -0.03793  -0.41250  -0.43698
  32   32265.0    309.9   0.678107799   6.91898   0.77582   2.47399   0.44327
  33   32316.9    309.4   0.026703117   0.27202  -0.28878  -0.23235   0.36694
  34   32832.7    304.6   0.002118487   0.02124  -0.00779  -0.14070  -0.03723
  35   32945.1    303.5   0.079171485   0.79114  -0.32299   0.62256   0.54702
  36   33394.3    299.5   0.009689636   0.09552   0.25640   0.16167   0.06037
  37   33501.9    298.5   0.194578859   1.91206   0.47989   1.24580  -0.36021
  38   33763.5    296.2   0.175764941   1.71380   0.68074   1.07647  -0.30268
  39   33801.7    295.8   0.186047340   1.81201   0.41833   1.25202  -0.26354
  40   34076.2    293.5   0.082911650   0.80101   0.30129  -0.53681  -0.64967
  41   34157.3    292.8   0.016881442   0.16271   0.13853  -0.37045   0.07927
  42   34726.6    288.0   0.021268960   0.20163   0.18157   0.37271  -0.17249
  43   34732.3    287.9   0.044362974   0.42050  -0.26708  -0.51696   0.28621
  44   34941.3    286.2   0.037687807   0.35509  -0.15899   0.54681   0.17553
  45   35021.2    285.5   0.015150204   0.14242   0.28008  -0.24433  -0.06539
  46   35332.3    283.0   0.084577655   0.78806   0.00559   0.87289   0.16155
  47   35871.1    278.8   0.236637307   2.17177  -0.79529  -0.65512   1.05361
  48   35992.3    277.8   0.015039952   0.13757   0.11868   0.35099  -0.01707
  49   36215.3    276.1   0.098939073   0.89940  -0.21076  -0.92131  -0.07855
  50   36962.4    270.5   0.044298737   0.39455   0.27613   0.52575  -0.20469
  51   37011.7    270.2   0.149058480   1.32585  -0.56174  -0.90893   0.42910
  52   37193.0    268.9   0.015001731   0.13279   0.09548   0.01539  -0.35133
  53   37551.9    266.3   0.062963459   0.55199   0.50298  -0.44242   0.32136
  54   37722.6    265.1   0.007218588   0.06300   0.22380   0.07041   0.08919
  55   37902.5    263.8   0.057141798   0.49632  -0.40647   0.57136   0.06819
  56   38243.3    261.5   0.007437551   0.06403   0.21709   0.12883  -0.01738
  57   38436.5    260.2   0.056466259   0.48364  -0.57520   0.22372   0.32053
  58   38739.8    258.1   0.033677058   0.28619   0.38074  -0.26179  -0.26962
  59   38861.0    257.3   0.019750281   0.16732   0.15249   0.35176  -0.14256
  60   39074.3    255.9   0.058840890   0.49575   0.08790  -0.66371  -0.21798
  61   39190.0    255.2   0.042592283   0.35779  -0.01160  -0.02497   0.59752
  62   39607.6    252.5   0.185328228   1.54042   1.01656   0.31243  -0.63985
  63   39627.7    252.3   0.032398067   0.26915  -0.20643  -0.05420   0.47286
  64   39741.8    251.6   0.026203486   0.21706  -0.09201   0.43946   0.12441
  65   40083.1    249.5   0.031445783   0.25827  -0.48085   0.16391  -0.01358
  66   40182.7    248.9   0.004242909   0.03476   0.16996   0.07645   0.00552
  67   40210.8    248.7   0.152074495   1.24506  -1.03375  -0.41512   0.06395

FINAL SINGLE POINT ENERGY     -9861.349753918908

DIPOLE MOMENT
-------------
                                X             Y             Z
Electronic contribution:    136.10012     -83.16468     -84.03610
Nuclear contribution   :   -141.33331      87.17747      84.36870
                        -----------------------------------------
Total Dipole Moment    :     -5.23319       4.01278       0.33260
                        -----------------------------------------
Magnitude (a.u.)       :      6.60298
Magnitude (Debye)      :     16.78344

Rotational constants in cm-1:     0.000450     0.000255     0.000234
Rotational constants in MHz :    13.493892     7.639636     7.006894

                             ****ORCA TERMINATED NORMALLY****
TOTAL RUN TIME: 0 days 0 hours 14 minutes 11 seconds 713 msec
