                         Program Version 4.2.0 -  RELEASE  -
|  1> # ORCA input file
|  2> # SCF done       -206.302377804419          0.000550302527
|  3> ! CAM-B3LYP def2-SVP def2/J RIJCOSX Grid4 TightSCF
|  4> %maxcore 5000
|  5> %tddft
|  6>     Mode sTDDFT
|  7>     Ethresh 5.0
|  8>     maxcore 5000
|  9> end
| 10>
| 11> %pal
| 12>   nprocs 6
| 13>   end
| 14> * xyz 0 1
| 15>    C        0.94963        -4.86933        -3.04597
| 16>    C        1.75969        -3.78242        -3.22413
| 17>    F        3.08881        -3.93238        -3.26050
| 18>    C        1.20855        -2.49348        -3.37133
| 19>    F        2.02501        -1.44650        -3.54484
| 20>    C       -0.14552        -2.30930        -3.33798
| 21>    C       -1.00572        -3.40915        -3.15443
| 22>    C       -0.45008        -4.71305        -3.00617
| 23>    C       -1.29459        -5.83219        -2.81771
| 24>    C       -2.65112        -5.65242        -2.77414
| 25>    C       -3.19746        -4.34391        -2.91945
| 26>    C       -2.40785        -3.24581        -3.10805
| 27>    C       -4.65862        -4.42450        -2.81144
| 28>    O       -5.46645        -3.50439        -2.89328
| 29>    C       -4.97348        -5.83669        -2.56771
| 30>    C       -3.74717        -6.60189        -2.58187
| 31>    C       -3.61893        -7.95971        -2.45703
| 32>    C       -2.38639        -8.64465        -2.48433
| 33>    N       -1.41310        -9.25258        -2.50096
| 34>    C       -4.70874        -8.84118        -2.30132
| 35>    N       -5.57209        -9.58732        -2.17816
| 36>    C       -6.25779        -6.25022        -2.30969
| 37>    N       -7.26113        -5.36591        -2.32497
| 38>    C       -8.54905        -5.57043        -1.94724
| 39>    S       -9.10723        -7.09058        -1.32620
| 40>    C      -10.64367        -6.36141        -0.98756
| 41>    N      -11.63699        -7.18021        -0.42427
| 42>    O      -12.71589        -6.67694        -0.18738
| 43>    O      -11.32949        -8.33951        -0.21787
| 44>    C      -10.71060        -5.03429        -1.31603
| 45>    C       -9.51818        -4.56292        -1.89548
| 46>    C       -9.31447        -3.20455        -2.34165
| 47>    C       -8.61495        -2.86174        -3.44145
| 48>    C       -8.35527        -1.50675        -3.79734
| 49>    O       -7.78559        -1.22354        -4.99587
| 50>    C       -8.51663        -0.32481        -3.10283
| 51>    C       -9.01013         0.26212        -1.85380
| 52>    O       -9.54430        -0.24684        -0.90095
| 53>    N       -8.73495         1.61650        -1.99631
| 54>    C       -8.12328         1.97643        -3.19778
| 55>    O       -7.79181         3.09648        -3.49468
| 56>    C       -7.99687         0.71001        -3.91736
| 57>    C       -7.56008         0.11588        -5.09353
| 58>    C       -7.00893         0.64774        -6.28050
| 59>    C       -6.61619         1.95157        -6.37970
| 60>    C       -6.10868         2.58768        -7.52758
| 61>    C       -6.20913         2.20086        -8.84302
| 62>    C       -5.67929         2.92775        -9.94155
| 63>    C       -6.01175         2.42874       -11.16254
| 64>    C       -6.83506         1.28051       -11.10324
| 65>    S       -7.12236         0.82678        -9.44135
| 66>    C       -7.40499         0.60135       -12.16580
| 67>    C       -7.25388         0.88371       -13.54246
| 68>    C       -8.00478         0.09004       -14.35624
| 69>    C       -8.79022        -0.86469       -13.66446
| 70>    S       -8.51205        -0.73321       -11.94318
| 71>    C       -9.69764        -1.77932       -14.16419
| 72>    C      -10.00747        -1.87866       -15.52003
| 73>    C      -10.95110        -2.72854       -16.05706
| 74>    C      -11.31710        -2.82588       -17.44894
| 75>    C      -10.77225        -2.12894       -18.50318
| 76>    C      -11.18165        -2.27338       -19.84386
| 77>    N      -11.46627        -2.34240       -20.95438
| 78>    C       -9.73737        -1.17815       -18.41041
| 79>    N       -8.89929        -0.39101       -18.41703
| 80>    C      -12.39149        -3.80980       -17.55803
| 81>    C      -12.67352        -4.31990       -16.26713
| 82>    C      -11.78275        -3.67292       -15.28136
| 83>    O      -11.75704        -3.88643       -14.08575
| 84>    C      -13.64505        -5.26265       -16.03846
| 85>    C      -14.37753        -5.72537       -17.13736
| 86>    C      -14.08903        -5.21065       -18.42300
| 87>    C      -13.10420        -4.25731       -18.65406
| 88>    S      -15.11239        -5.91486       -19.63803
| 89>    C      -15.90349        -6.87771       -18.41845
| 90>    C      -15.42738        -6.68370       -17.16566
| 91>   Br      -17.28460        -8.04601       -18.91412
| 92>    H        1.38831        -5.84864        -2.93491
| 93>    H       -0.55160        -1.31625        -3.45087
| 94>    H       -0.84302        -6.80460        -2.70641
| 95>    H       -2.84671        -2.26543        -3.21548
| 96>    H       -6.50311        -7.27854        -2.07646
| 97>    H       -6.96942        -4.39308        -2.53823
| 98>    H      -11.59075        -4.43654        -1.16276
| 99>    H       -9.77748        -2.43292        -1.74090
|100>    H       -8.23238        -3.60027        -4.13191
|101>    H       -8.96183         2.29415        -1.28231
|102>    H       -6.88013        -0.04934        -7.09503
|103>    H       -6.67446         2.56336        -5.48888
|104>    H       -5.62001         3.54028        -7.36598
|105>    H       -5.07647         3.80529        -9.78852
|106>    H       -5.70851         2.86478       -12.09678
|107>    H       -6.60440         1.66320       -13.89742
|108>    H       -8.01257         0.17419       -15.42805
|109>    H      -10.20989        -2.42829       -13.46907
|110>    H       -9.48153        -1.22434       -16.19895
|111>    H      -13.83661        -5.63054       -15.04265
|112>    H      -12.92471        -3.89716       -19.65308
|113>    H      -15.80029        -7.19375       -16.29632
|114> *
|115>
|116>                          ****END OF INPUT****

CARTESIAN COORDINATES (ANGSTROEM)
---------------------------------
  C      0.949630   -4.869330   -3.045970
  C      1.759690   -3.782420   -3.224130
  F      3.088810   -3.932380   -3.260500
  C      1.208550   -2.493480   -3.371330
  F      2.025010   -1.446500   -3.544840
  C     -0.145520   -2.309300   -3.337980
  C     -1.005720   -3.409150   -3.154430
  C     -0.450080   -4.713050   -3.006170
  C     -1.294590   -5.832190   -2.817710
  C     -2.651120   -5.652420   -2.774140
  C     -3.197460   -4.343910   -2.919450
  C     -2.407850   -3.245810   -3.108050
  C     -4.658620   -4.424500   -2.811440
  O     -5.466450   -3.504390   -2.893280
  C     -4.973480   -5.836690   -2.567710
  C     -3.747170   -6.601890   -2.581870
  C     -3.618930   -7.959710   -2.457030
  C     -2.386390   -8.644650   -2.484330
  N     -1.413100   -9.252580   -2.500960
  C     -4.708740   -8.841180   -2.301320
  N     -5.572090   -9.587320   -2.178160
  C     -6.257790   -6.250220   -2.309690
  N     -7.261130   -5.365910   -2.324970
  C     -8.549050   -5.570430   -1.947240
  S     -9.107230   -7.090580   -1.326200
  C    -10.643670   -6.361410   -0.987560
  N    -11.636990   -7.180210   -0.424270
  O    -12.715890   -6.676940   -0.187380
  O    -11.329490   -8.339510   -0.217870
  C    -10.710600   -5.034290   -1.316030
  C     -9.518180   -4.562920   -1.895480
  C     -9.314470   -3.204550   -2.341650
  C     -8.614950   -2.861740   -3.441450
  C     -8.355270   -1.506750   -3.797340
  O     -7.785590   -1.223540   -4.995870
  C     -8.516630   -0.324810   -3.102830
  C     -9.010130    0.262120   -1.853800
  O     -9.544300   -0.246840   -0.900950
  N     -8.734950    1.616500   -1.996310
  C     -8.123280    1.976430   -3.197780
  O     -7.791810    3.096480   -3.494680
  C     -7.996870    0.710010   -3.917360
  C     -7.560080    0.115880   -5.093530
  C     -7.008930    0.647740   -6.280500
  C     -6.616190    1.951570   -6.379700
  C     -6.108680    2.587680   -7.527580
  C     -6.209130    2.200860   -8.843020
  C     -5.679290    2.927750   -9.941550
  C     -6.011750    2.428740  -11.162540
  C     -6.835060    1.280510  -11.103240
  S     -7.122360    0.826780   -9.441350
  C     -7.404990    0.601350  -12.165800
  C     -7.253880    0.883710  -13.542460
  C     -8.004780    0.090040  -14.356240
  C     -8.790220   -0.864690  -13.664460
  S     -8.512050   -0.733210  -11.943180
  C     -9.697640   -1.779320  -14.164190
  C    -10.007470   -1.878660  -15.520030
  C    -10.951100   -2.728540  -16.057060
  C    -11.317100   -2.825880  -17.448940
  C    -10.772250   -2.128940  -18.503180
  C    -11.181650   -2.273380  -19.843860
  N    -11.466270   -2.342400  -20.954380
  C     -9.737370   -1.178150  -18.410410
  N     -8.899290   -0.391010  -18.417030
  C    -12.391490   -3.809800  -17.558030
  C    -12.673520   -4.319900  -16.267130
  C    -11.782750   -3.672920  -15.281360
  O    -11.757040   -3.886430  -14.085750
  C    -13.645050   -5.262650  -16.038460
  C    -14.377530   -5.725370  -17.137360
  C    -14.089030   -5.210650  -18.423000
  C    -13.104200   -4.257310  -18.654060
  S    -15.112390   -5.914860  -19.638030
  C    -15.903490   -6.877710  -18.418450
  C    -15.427380   -6.683700  -17.165660
  Br   -17.284600   -8.046010  -18.914120
  H      1.388310   -5.848640   -2.934910
  H     -0.551600   -1.316250   -3.450870
  H     -0.843020   -6.804600   -2.706410
  H     -2.846710   -2.265430   -3.215480
  H     -6.503110   -7.278540   -2.076460
  H     -6.969420   -4.393080   -2.538230
  H    -11.590750   -4.436540   -1.162760
  H     -9.777480   -2.432920   -1.740900
  H     -8.232380   -3.600270   -4.131910
  H     -8.961830    2.294150   -1.282310
  H     -6.880130   -0.049340   -7.095030
  H     -6.674460    2.563360   -5.488880
  H     -5.620010    3.540280   -7.365980
  H     -5.076470    3.805290   -9.788520
  H     -5.708510    2.864780  -12.096780
  H     -6.604400    1.663200  -13.897420
  H     -8.012570    0.174190  -15.428050
  H    -10.209890   -2.428290  -13.469070
  H     -9.481530   -1.224340  -16.198950
  H    -13.836610   -5.630540  -15.042650
  H    -12.924710   -3.897160  -19.653080
  H    -15.800290   -7.193750  -16.296320

 Total Charge           Charge          ....    0
 Multiplicity           Mult            ....    1
 Number of Electrons    NEL             ....  580
 Basis Dimension        Dim             .... 1222

ORBITAL ENERGIES
----------------

  NO   OCC          E(Eh)            E(eV)
   0   2.0000    -482.881889    -13139.8842
   1   2.0000     -89.000084     -2421.8154
   2   2.0000     -88.974693     -2421.1245
   3   2.0000     -88.970937     -2421.0223
   4   2.0000     -88.970080     -2420.9990
   5   2.0000     -62.559611     -1702.3336
   6   2.0000     -56.393559     -1534.5468
   7   2.0000     -56.390847     -1534.4730
   8   2.0000     -56.390814     -1534.4721
   9   2.0000     -24.807398      -675.0436
  10   2.0000     -24.806351      -675.0151
  11   2.0000     -19.322153      -525.7825
  12   2.0000     -19.246086      -523.7126
  13   2.0000     -19.245756      -523.7036
  14   2.0000     -19.242342      -523.6108
  15   2.0000     -19.224146      -523.1156
  16   2.0000     -19.223846      -523.1074
  17   2.0000     -19.209256      -522.7104
  18   2.0000     -14.657910      -398.8620
  19   2.0000     -14.505569      -394.7166
  20   2.0000     -14.466255      -393.6468
  21   2.0000     -14.427700      -392.5977
  22   2.0000     -14.423117      -392.4730
  23   2.0000     -14.412980      -392.1971
  24   2.0000     -14.407112      -392.0374
  25   2.0000     -10.411898      -283.3221
  26   2.0000     -10.411661      -283.3157
  27   2.0000     -10.391112      -282.7565
  28   2.0000     -10.390416      -282.7376
  29   2.0000     -10.389750      -282.7195
  30   2.0000     -10.382629      -282.5257
  31   2.0000     -10.380389      -282.4647
  32   2.0000     -10.372493      -282.2499
  33   2.0000     -10.372292      -282.2444
  34   2.0000     -10.359517      -281.8968
  35   2.0000     -10.355936      -281.7993
  36   2.0000     -10.355348      -281.7833
  37   2.0000     -10.354432      -281.7584
  38   2.0000     -10.351187      -281.6701
  39   2.0000     -10.342732      -281.4400
  40   2.0000     -10.338057      -281.3128
  41   2.0000     -10.334983      -281.2292
  42   2.0000     -10.334665      -281.2205
  43   2.0000     -10.334136      -281.2061
  44   2.0000     -10.332416      -281.1593
  45   2.0000     -10.329941      -281.0920
  46   2.0000     -10.326190      -280.9899
  47   2.0000     -10.321057      -280.8502
  48   2.0000     -10.320748      -280.8418
  49   2.0000     -10.320657      -280.8394
  50   2.0000     -10.319970      -280.8207
  51   2.0000     -10.319130      -280.7978
  52   2.0000     -10.317170      -280.7445
  53   2.0000     -10.317150      -280.7439
  54   2.0000     -10.315913      -280.7103
  55   2.0000     -10.313812      -280.6531
  56   2.0000     -10.313119      -280.6342
  57   2.0000     -10.312302      -280.6120
  58   2.0000     -10.311891      -280.6008
  59   2.0000     -10.311665      -280.5947
  60   2.0000     -10.311248      -280.5833
  61   2.0000     -10.311118      -280.5798
  62   2.0000     -10.311077      -280.5787
  63   2.0000     -10.309817      -280.5444
  64   2.0000     -10.309774      -280.5432
  65   2.0000     -10.308378      -280.5052
  66   2.0000     -10.307304      -280.4760
  67   2.0000     -10.306476      -280.4535
  68   2.0000     -10.305717      -280.4328
  69   2.0000     -10.302704      -280.3508
  70   2.0000     -10.302264      -280.3389
  71   2.0000     -10.302107      -280.3346
  72   2.0000     -10.301749      -280.3248
  73   2.0000     -10.300199      -280.2827
  74   2.0000     -10.299817      -280.2723
  75   2.0000     -10.299416      -280.2614
  76   2.0000     -10.295103      -280.1440
  77   2.0000     -10.292331      -280.0686
  78   2.0000     -10.287767      -279.9444
  79   2.0000     -10.287643      -279.9410
  80   2.0000     -10.285616      -279.8858
  81   2.0000      -8.789044      -239.1621
  82   2.0000      -8.095199      -220.2816
  83   2.0000      -8.070638      -219.6132
  84   2.0000      -8.066903      -219.5116
  85   2.0000      -8.066537      -219.5016
  86   2.0000      -6.625344      -180.2848
  87   2.0000      -6.610784      -179.8886
  88   2.0000      -6.610581      -179.8831
  89   2.0000      -6.064807      -165.0318
  90   2.0000      -6.060405      -164.9120
  91   2.0000      -6.056809      -164.8141
  92   2.0000      -6.040333      -164.3658
  93   2.0000      -6.036612      -164.2646
  94   2.0000      -6.036215      -164.2538
  95   2.0000      -6.036200      -164.2534
  96   2.0000      -6.032298      -164.1472
  97   2.0000      -6.032047      -164.1403
  98   2.0000      -6.031721      -164.1315
  99   2.0000      -6.028139      -164.0340
 100   2.0000      -6.027640      -164.0204
 101   2.0000      -2.741170       -74.5910
 102   2.0000      -2.737118       -74.4808
 103   2.0000      -2.737030       -74.4784
 104   2.0000      -2.725419       -74.1624
 105   2.0000      -2.725401       -74.1619
 106   2.0000      -1.330177       -36.1960
 107   2.0000      -1.328604       -36.1532
 108   2.0000      -1.315278       -35.7905
 109   2.0000      -1.238024       -33.6883
 110   2.0000      -1.167635       -31.7730
 111   2.0000      -1.157414       -31.4948
 112   2.0000      -1.148105       -31.2415
 113   2.0000      -1.147321       -31.2202
 114   2.0000      -1.123051       -30.5598
 115   2.0000      -1.113641       -30.3037
 116   2.0000      -1.054636       -28.6981
 117   2.0000      -1.031118       -28.0581
 118   2.0000      -1.021619       -27.7997
 119   2.0000      -1.019981       -27.7551
 120   2.0000      -1.017118       -27.6772
 121   2.0000      -1.015399       -27.6304
 122   2.0000      -1.008519       -27.4432
 123   2.0000      -1.004201       -27.3257
 124   2.0000      -0.999093       -27.1867
 125   2.0000      -0.991944       -26.9922
 126   2.0000      -0.989204       -26.9176
 127   2.0000      -0.982956       -26.7476
 128   2.0000      -0.950781       -25.8721
 129   2.0000      -0.942995       -25.6602
 130   2.0000      -0.940489       -25.5920
 131   2.0000      -0.938273       -25.5317
 132   2.0000      -0.928019       -25.2527
 133   2.0000      -0.920114       -25.0376
 134   2.0000      -0.913816       -24.8662
 135   2.0000      -0.906397       -24.6643
 136   2.0000      -0.902730       -24.5645
 137   2.0000      -0.901893       -24.5418
 138   2.0000      -0.893664       -24.3178
 139   2.0000      -0.882254       -24.0074
 140   2.0000      -0.880235       -23.9524
 141   2.0000      -0.872293       -23.7363
 142   2.0000      -0.870590       -23.6900
 143   2.0000      -0.865880       -23.5618
 144   2.0000      -0.852481       -23.1972
 145   2.0000      -0.851741       -23.1770
 146   2.0000      -0.846489       -23.0341
 147   2.0000      -0.828115       -22.5341
 148   2.0000      -0.823934       -22.4204
 149   2.0000      -0.821544       -22.3554
 150   2.0000      -0.802584       -21.8394
 151   2.0000      -0.782823       -21.3017
 152   2.0000      -0.780971       -21.2513
 153   2.0000      -0.780542       -21.2396
 154   2.0000      -0.772553       -21.0222
 155   2.0000      -0.767023       -20.8718
 156   2.0000      -0.754681       -20.5359
 157   2.0000      -0.751088       -20.4382
 158   2.0000      -0.744366       -20.2552
 159   2.0000      -0.736466       -20.0403
 160   2.0000      -0.731416       -19.9029
 161   2.0000      -0.721837       -19.6422
 162   2.0000      -0.715837       -19.4789
 163   2.0000      -0.709524       -19.3071
 164   2.0000      -0.702612       -19.1190
 165   2.0000      -0.698431       -19.0053
 166   2.0000      -0.693983       -18.8842
 167   2.0000      -0.685716       -18.6593
 168   2.0000      -0.683374       -18.5955
 169   2.0000      -0.669566       -18.2198
 170   2.0000      -0.667761       -18.1707
 171   2.0000      -0.664713       -18.0878
 172   2.0000      -0.655260       -17.8305
 173   2.0000      -0.652841       -17.7647
 174   2.0000      -0.651999       -17.7418
 175   2.0000      -0.649226       -17.6663
 176   2.0000      -0.647592       -17.6219
 177   2.0000      -0.639560       -17.4033
 178   2.0000      -0.637820       -17.3560
 179   2.0000      -0.635666       -17.2973
 180   2.0000      -0.628356       -17.0984
 181   2.0000      -0.620452       -16.8834
 182   2.0000      -0.617895       -16.8138
 183   2.0000      -0.617307       -16.7978
 184   2.0000      -0.613761       -16.7013
 185   2.0000      -0.612497       -16.6669
 186   2.0000      -0.607234       -16.5237
 187   2.0000      -0.606586       -16.5060
 188   2.0000      -0.601169       -16.3586
 189   2.0000      -0.595747       -16.2111
 190   2.0000      -0.594595       -16.1797
 191   2.0000      -0.594263       -16.1707
 192   2.0000      -0.588751       -16.0207
 193   2.0000      -0.586723       -15.9655
 194   2.0000      -0.581149       -15.8139
 195   2.0000      -0.576545       -15.6886
 196   2.0000      -0.571423       -15.5492
 197   2.0000      -0.569462       -15.4959
 198   2.0000      -0.567463       -15.4414
 199   2.0000      -0.564001       -15.3473
 200   2.0000      -0.563260       -15.3271
 201   2.0000      -0.561155       -15.2698
 202   2.0000      -0.556004       -15.1296
 203   2.0000      -0.555230       -15.1086
 204   2.0000      -0.547848       -14.9077
 205   2.0000      -0.544069       -14.8049
 206   2.0000      -0.542591       -14.7646
 207   2.0000      -0.541097       -14.7240
 208   2.0000      -0.540285       -14.7019
 209   2.0000      -0.538352       -14.6493
 210   2.0000      -0.533938       -14.5292
 211   2.0000      -0.533713       -14.5231
 212   2.0000      -0.531702       -14.4684
 213   2.0000      -0.528593       -14.3838
 214   2.0000      -0.527101       -14.3431
 215   2.0000      -0.525170       -14.2906
 216   2.0000      -0.522406       -14.2154
 217   2.0000      -0.521170       -14.1818
 218   2.0000      -0.520373       -14.1601
 219   2.0000      -0.515210       -14.0196
 220   2.0000      -0.513576       -13.9751
 221   2.0000      -0.512227       -13.9384
 222   2.0000      -0.512046       -13.9335
 223   2.0000      -0.509323       -13.8594
 224   2.0000      -0.504233       -13.7209
 225   2.0000      -0.503854       -13.7106
 226   2.0000      -0.500390       -13.6163
 227   2.0000      -0.495271       -13.4770
 228   2.0000      -0.493411       -13.4264
 229   2.0000      -0.489733       -13.3263
 230   2.0000      -0.488304       -13.2874
 231   2.0000      -0.487386       -13.2625
 232   2.0000      -0.486444       -13.2368
 233   2.0000      -0.481760       -13.1094
 234   2.0000      -0.479941       -13.0599
 235   2.0000      -0.476798       -12.9743
 236   2.0000      -0.474515       -12.9122
 237   2.0000      -0.473203       -12.8765
 238   2.0000      -0.468783       -12.7562
 239   2.0000      -0.465904       -12.6779
 240   2.0000      -0.460548       -12.5322
 241   2.0000      -0.457465       -12.4483
 242   2.0000      -0.456640       -12.4258
 243   2.0000      -0.455480       -12.3943
 244   2.0000      -0.452865       -12.3231
 245   2.0000      -0.452185       -12.3046
 246   2.0000      -0.448904       -12.2153
 247   2.0000      -0.444682       -12.1004
 248   2.0000      -0.443837       -12.0774
 249   2.0000      -0.443162       -12.0590
 250   2.0000      -0.441030       -12.0010
 251   2.0000      -0.438027       -11.9193
 252   2.0000      -0.437124       -11.8947
 253   2.0000      -0.436905       -11.8888
 254   2.0000      -0.433985       -11.8093
 255   2.0000      -0.427239       -11.6258
 256   2.0000      -0.424776       -11.5587
 257   2.0000      -0.422239       -11.4897
 258   2.0000      -0.420056       -11.4303
 259   2.0000      -0.418616       -11.3911
 260   2.0000      -0.413921       -11.2634
 261   2.0000      -0.405792       -11.0421
 262   2.0000      -0.402436       -10.9508
 263   2.0000      -0.400257       -10.8915
 264   2.0000      -0.394317       -10.7299
 265   2.0000      -0.392841       -10.6898
 266   2.0000      -0.387572       -10.5464
 267   2.0000      -0.386067       -10.5054
 268   2.0000      -0.382409       -10.4059
 269   2.0000      -0.380577       -10.3560
 270   2.0000      -0.375779       -10.2255
 271   2.0000      -0.375023       -10.2049
 272   2.0000      -0.372034       -10.1236
 273   2.0000      -0.371409       -10.1065
 274   2.0000      -0.365447        -9.9443
 275   2.0000      -0.362176        -9.8553
 276   2.0000      -0.359697        -9.7879
 277   2.0000      -0.358090        -9.7441
 278   2.0000      -0.354838        -9.6556
 279   2.0000      -0.348515        -9.4836
 280   2.0000      -0.343005        -9.3336
 281   2.0000      -0.329877        -8.9764
 282   2.0000      -0.329382        -8.9629
 283   2.0000      -0.319844        -8.7034
 284   2.0000      -0.311924        -8.4879
 285   2.0000      -0.310312        -8.4440
 286   2.0000      -0.295209        -8.0330
 287   2.0000      -0.288617        -7.8537
 288   2.0000      -0.275667        -7.5013
 289   2.0000      -0.235903        -6.4192
 290   0.0000      -0.121134        -3.2962
 291   0.0000      -0.100235        -2.7275
 292   0.0000      -0.078112        -2.1255
 293   0.0000      -0.072949        -1.9850
 294   0.0000      -0.059137        -1.6092

MULLIKEN ATOMIC CHARGES
-----------------------
   0 C :   -0.106152
   1 C :    0.244477
   2 F :   -0.168118
   3 C :    0.238682
   4 F :   -0.169817
   5 C :   -0.103300
   6 C :    0.114012
   7 C :    0.111711
   8 C :   -0.080024
   9 C :    0.041653
  10 C :    0.005615
  11 C :   -0.077311
  12 C :    0.168141
  13 O :   -0.215610
  14 C :   -0.130535
  15 C :    0.329244
  16 C :   -0.338830
  17 C :   -0.182979
  18 N :    0.150120
  19 C :   -0.199116
  20 N :    0.149706
  21 C :    0.026393
  22 N :   -0.011878
  23 C :   -0.111130
  24 S :    0.186284
  25 C :    0.004854
  26 N :    0.273719
  27 O :   -0.241087
  28 O :   -0.254494
  29 C :    0.023325
  30 C :    0.096587
  31 C :   -0.026792
  32 C :   -0.003061
  33 C :    0.110678
  34 O :   -0.193367
  35 C :   -0.070532
  36 C :    0.184047
  37 O :   -0.153158
  38 N :   -0.158030
  39 C :    0.181587
  40 O :   -0.152387
  41 C :   -0.074444
  42 C :    0.121473
  43 C :   -0.009033
  44 C :   -0.001597
  45 C :    0.004994
  46 C :   -0.031834
  47 C :    0.048873
  48 C :    0.029478
  49 C :   -0.035690
  50 S :    0.097417
  51 C :   -0.056958
  52 C :    0.034798
  53 C :    0.022575
  54 C :   -0.032053
  55 S :    0.132762
  56 C :    0.027232
  57 C :   -0.030648
  58 C :   -0.080750
  59 C :    0.325237
  60 C :   -0.361014
  61 C :   -0.189256
  62 N :    0.143899
  63 C :   -0.189198
  64 N :    0.131927
  65 C :    0.012856
  66 C :   -0.012719
  67 C :    0.136560
  68 O :   -0.160470
  69 C :   -0.071078
  70 C :    0.116856
  71 C :   -0.091692
  72 C :   -0.021778
  73 S :    0.183314
  74 C :   -0.124692
  75 C :    0.039372
  76 Br:    0.019827
  77 H :    0.009662
  78 H :   -0.000873
  79 H :   -0.004037
  80 H :   -0.011567
  81 H :    0.047162
  82 H :    0.183445
  83 H :    0.018508
  84 H :    0.035401
  85 H :    0.004202
  86 H :    0.140753
  87 H :    0.003742
  88 H :    0.020414
  89 H :    0.003355
  90 H :    0.000696
  91 H :   -0.001276
  92 H :   -0.000570
  93 H :    0.022238
  94 H :    0.013929
  95 H :   -0.005845
  96 H :   -0.013397
  97 H :   -0.008492
  98 H :   -0.005127
Sum of atomic charges:   -0.0000000

LOEWDIN ATOMIC CHARGES
----------------------
   0 C :   -0.027775
   1 C :    0.068440
   2 F :   -0.045848
   3 C :    0.068331
   4 F :   -0.047516
   5 C :   -0.032665
   6 C :   -0.010078
   7 C :   -0.005648
   8 C :    0.020516
   9 C :   -0.020143
  10 C :   -0.053024
  11 C :    0.032271
  12 C :    0.094845
  13 O :   -0.175775
  14 C :   -0.144741
  15 C :    0.077814
  16 C :   -0.146200
  17 C :   -0.019395
  18 N :   -0.051714
  19 C :   -0.020973
  20 N :   -0.050858
  21 C :    0.113170
  22 N :    0.080215
  23 C :   -0.110839
  24 S :    0.479402
  25 C :   -0.199938
  26 N :    0.272396
  27 O :   -0.206683
  28 O :   -0.221123
  29 C :    0.006597
  30 C :   -0.087863
  31 C :    0.007891
  32 C :   -0.039734
  33 C :    0.069147
  34 O :    0.022482
  35 C :   -0.096605
  36 C :    0.088044
  37 O :   -0.160891
  38 N :   -0.000779
  39 C :    0.088661
  40 O :   -0.159985
  41 C :   -0.100386
  42 C :    0.069347
  43 C :   -0.047760
  44 C :   -0.003534
  45 C :   -0.042750
  46 C :   -0.138448
  47 C :   -0.014488
  48 C :   -0.031933
  49 C :   -0.157089
  50 S :    0.402455
  51 C :   -0.183463
  52 C :   -0.006611
  53 C :   -0.034186
  54 C :   -0.106162
  55 S :    0.408806
  56 C :   -0.061954
  57 C :    0.056662
  58 C :   -0.102894
  59 C :    0.075650
  60 C :   -0.154310
  61 C :   -0.019591
  62 N :   -0.062458
  63 C :   -0.015460
  64 N :   -0.071701
  65 C :   -0.019770
  66 C :   -0.049272
  67 C :    0.082173
  68 O :   -0.153389
  69 C :    0.019369
  70 C :   -0.034006
  71 C :   -0.145167
  72 C :   -0.011337
  73 S :    0.430502
  74 C :   -0.272948
  75 C :   -0.070542
  76 Br:    0.134001
  77 H :    0.048776
  78 H :    0.044684
  79 H :    0.041310
  80 H :    0.040212
  81 H :    0.037292
  82 H :    0.087226
  83 H :    0.051060
  84 H :    0.041183
  85 H :    0.037297
  86 H :    0.096489
  87 H :    0.025075
  88 H :    0.039322
  89 H :    0.041735
  90 H :    0.039015
  91 H :    0.036427
  92 H :    0.037851
  93 H :    0.043709
  94 H :    0.035268
  95 H :    0.036848
  96 H :    0.039720
  97 H :    0.040503
  98 H :    0.038212

  Mayer bond orders larger than 0.100000
B(  0-C ,  1-C ) :   1.4364 B(  0-C ,  5-C ) :   0.1075 B(  0-C ,  7-C ) :   1.1936
B(  0-C , 77-H ) :   1.0075 B(  1-C ,  2-F ) :   1.1378 B(  1-C ,  3-C ) :   1.1917
B(  3-C ,  4-F ) :   1.1361 B(  3-C ,  5-C ) :   1.4419 B(  5-C ,  6-C ) :   1.1907
B(  5-C , 78-H ) :   1.0075 B(  6-C ,  7-C ) :   1.2593 B(  6-C , 11-C ) :   1.1866
B(  7-C ,  8-C ) :   1.2069 B(  8-C ,  9-C ) :   1.4662 B(  8-C , 79-H ) :   0.9902
B(  9-C , 10-C ) :   1.2213 B(  9-C , 15-C ) :   0.9860 B( 10-C , 11-C ) :   1.4663
B( 10-C , 12-C ) :   0.9776 B( 11-C , 80-H ) :   1.0189 B( 12-C , 13-O ) :   2.0465
B( 12-C , 14-C ) :   1.0013 B( 13-O , 82-H ) :   0.1405 B( 14-C , 15-C ) :   1.0995
B( 14-C , 21-C ) :   1.4466 B( 15-C , 16-C ) :   1.6345 B( 16-C , 17-C ) :   1.1440
B( 16-C , 19-C ) :   1.1450 B( 17-C , 18-N ) :   2.9625 B( 19-C , 20-N ) :   2.9595
B( 21-C , 22-N ) :   1.3456 B( 21-C , 81-H ) :   0.9328 B( 22-N , 23-C ) :   1.1789
B( 22-N , 82-H ) :   0.8191 B( 23-C , 24-S ) :   1.1447 B( 23-C , 30-C ) :   1.4046
B( 24-S , 25-C ) :   1.0873 B( 25-C , 26-N ) :   0.9581 B( 25-C , 29-C ) :   1.4944
B( 26-N , 27-O ) :   1.5448 B( 26-N , 28-O ) :   1.5181 B( 27-O , 28-O ) :   0.2643
B( 29-C , 30-C ) :   1.2276 B( 29-C , 83-H ) :   1.0096 B( 30-C , 31-C ) :   1.0489
B( 31-C , 32-C ) :   1.6957 B( 31-C , 84-H ) :   0.9472 B( 32-C , 33-C ) :   1.1644
B( 32-C , 85-H ) :   0.9527 B( 33-C , 34-O ) :   1.1458 B( 33-C , 35-C ) :   1.4373
B( 34-O , 42-C ) :   1.1440 B( 35-C , 36-C ) :   0.8823 B( 35-C , 41-C ) :   1.2839
B( 36-C , 37-O ) :   2.1853 B( 36-C , 38-N ) :   1.1016 B( 38-N , 39-C ) :   1.0888
B( 38-N , 86-H ) :   0.9154 B( 39-C , 40-O ) :   2.1849 B( 39-C , 41-C ) :   0.8924
B( 41-C , 42-C ) :   1.3973 B( 42-C , 43-C ) :   1.2065 B( 43-C , 44-C ) :   1.5779
B( 43-C , 87-H ) :   0.9409 B( 44-C , 45-C ) :   1.2075 B( 44-C , 88-H ) :   0.9514
B( 45-C , 46-C ) :   1.5660 B( 45-C , 89-H ) :   0.9637 B( 46-C , 47-C ) :   1.1468
B( 46-C , 50-S ) :   1.0397 B( 47-C , 48-C ) :   1.5878 B( 47-C , 90-H ) :   0.9989
B( 48-C , 49-C ) :   1.1890 B( 48-C , 91-H ) :   0.9940 B( 49-C , 50-S ) :   1.0617
B( 49-C , 51-C ) :   1.4864 B( 51-C , 52-C ) :   1.1959 B( 51-C , 55-S ) :   1.0488
B( 52-C , 53-C ) :   1.5806 B( 52-C , 92-H ) :   0.9941 B( 53-C , 54-C ) :   1.1738
B( 53-C , 93-H ) :   0.9876 B( 54-C , 55-S ) :   1.0869 B( 54-C , 56-C ) :   1.4145
B( 56-C , 57-C ) :   1.2777 B( 56-C , 94-H ) :   0.9654 B( 57-C , 58-C ) :   1.4978
B( 57-C , 95-H ) :   0.9455 B( 58-C , 59-C ) :   1.1030 B( 58-C , 67-C ) :   0.9559
B( 59-C , 60-C ) :   1.5890 B( 59-C , 65-C ) :   0.9979 B( 60-C , 61-C ) :   1.1485
B( 60-C , 63-C ) :   1.1548 B( 61-C , 62-N ) :   2.9642 B( 63-C , 64-N ) :   2.9726
B( 65-C , 66-C ) :   1.2750 B( 65-C , 72-C ) :   1.4149 B( 66-C , 67-C ) :   0.9379
B( 66-C , 69-C ) :   1.4313 B( 67-C , 68-O ) :   2.1930 B( 69-C , 70-C ) :   1.2408
B( 69-C , 96-H ) :   1.0164 B( 70-C , 71-C ) :   1.3112 B( 70-C , 75-C ) :   1.1610
B( 71-C , 72-C ) :   1.3263 B( 71-C , 73-S ) :   1.0840 B( 72-C , 97-H ) :   0.9794
B( 73-S , 74-C ) :   1.0871 B( 74-C , 75-C ) :   1.6181 B( 74-C , 76-Br) :   1.0161
B( 75-C , 98-H ) :   1.0008

-----------------------------------------------------------------------------
         ABSORPTION SPECTRUM VIA TRANSITION ELECTRIC DIPOLE MOMENTS
-----------------------------------------------------------------------------
State   Energy  Wavelength   fosc         T2         TX        TY        TZ
        (cm-1)    (nm)                  (au**2)     (au)      (au)      (au)
-----------------------------------------------------------------------------
   0   11767.9    849.8   1.595930891  44.64671  -2.23670  -1.50090  -6.11483
   1   18928.2    528.3   0.188676012   3.28158   0.94511  -1.51105  -0.32416
   2   20488.3    488.1   0.072456941   1.16426  -0.15681   1.06362   0.09160
   3   21661.7    461.6   0.220099071   3.34504   0.92649   1.54413  -0.31986
   4   23276.4    429.6   0.569291662   8.05184   2.78127  -0.28458  -0.48515
   5   23661.8    422.6   0.083129416   1.15660  -1.02768   0.23725   0.21021
   6   23868.0    419.0   0.021257940   0.29321  -0.21018  -0.04310   0.49717
   7   25039.6    399.4   0.466894673   6.13857   1.91465   1.49381  -0.49114
   8   25982.7    384.9   0.150838419   1.91119   0.38090   1.32722  -0.06770
   9   26372.8    379.2   0.000746229   0.00932   0.06363   0.06807  -0.02516
  10   26694.5    374.6   0.328965752   4.05699   1.38163   1.38272  -0.48597
  11   27293.9    366.4   0.022402686   0.27022  -0.15561  -0.49554   0.02104
  12   27818.0    359.5   0.029591985   0.35021  -0.42395  -0.34652   0.22449
  13   28413.8    351.9   0.002253866   0.02611  -0.10477   0.12079  -0.02339
  14   28934.3    345.6   0.027222383   0.30973  -0.38737  -0.29527   0.26924
  15   29452.0    339.5   0.037423853   0.41832  -0.42920  -0.37896   0.30082
  16   29982.7    333.5   0.154983677   1.70173  -1.20023  -0.50353   0.08740
  17   30306.6    330.0   0.144628095   1.57105  -1.17804  -0.39116   0.17398
  18   30669.7    326.1   0.232161741   2.49205   1.12560   1.02974  -0.40586
  19   31156.5    321.0   0.167921556   1.77432  -0.71067  -1.08330   0.30940
  20   31457.3    317.9   0.349056655   3.65300  -1.05427  -1.33018   0.87872
  21   31897.2    313.5   0.435896118   4.49889   1.56832   1.42551  -0.08472
  22   31971.4    312.8   0.013150836   0.13541  -0.25706  -0.26144   0.03139
  23   32325.7    309.4   0.064983089   0.66180   0.48423   0.50076   0.42019
  24   32714.9    305.7   0.039016763   0.39263  -0.36748  -0.21441  -0.46001
  25   32960.5    303.4   0.037435058   0.37390  -0.51131  -0.30374   0.14217
  26   33287.2    300.4   0.241123869   2.38473  -0.90320  -1.23126   0.23011
  27   33571.8    297.9   0.030326071   0.29738   0.42247   0.17259  -0.29853
  28   34113.4    293.1   0.172300576   1.66279  -0.90617  -0.87501   0.27568
  29   34604.9    289.0   0.330911794   3.14812  -0.87396  -1.53595   0.15865
  30   34812.2    287.3   0.150324639   1.42159  -0.64216  -1.00145   0.07953
  31   34851.7    286.9   0.123076851   1.16259   0.62749   0.85897  -0.17613
  32   35029.3    285.5   0.013290452   0.12491   0.06006  -0.32790  -0.11738
  33   35178.8    284.3   0.006940067   0.06495  -0.16219  -0.17478  -0.08996
  34   35566.1    281.2   0.228917703   2.11894  -0.71890  -1.02941   0.73650
  35   35887.7    278.6   0.022828579   0.20942   0.10600   0.43172  -0.10862
  36   36241.0    275.9   0.041656945   0.37841  -0.22063  -0.57416  -0.00870
  37   36364.4    275.0   0.010641776   0.09634   0.16641  -0.26069   0.02628
  38   36429.8    274.5   0.060112001   0.54322   0.08519  -0.73105  -0.03912
  39   36474.8    274.2   0.033686943   0.30405  -0.14223  -0.52251  -0.10397
  40   36822.8    271.6   0.019353424   0.17303   0.37267   0.02487  -0.18310
  41   37291.2    268.2   0.103428753   0.91308   0.74934  -0.54339   0.23727
  42   37417.8    267.3   0.113373978   0.99749   0.99441  -0.08088  -0.04595
  43   37525.4    266.5   0.073134273   0.64161   0.52652  -0.11129  -0.59330
  44   37731.5    265.0   0.166567218   1.45332   0.37820   0.77004  -0.84695
  45   38175.8    261.9   0.104599907   0.90203  -0.09541  -0.11521   0.93790
  46   39258.7    254.7   0.010392182   0.08715   0.27873   0.02442  -0.09412
  47   39387.4    253.9   0.000089190   0.00075   0.00827  -0.02559  -0.00474
  48   39627.7    252.3   0.013462265   0.11184   0.19133   0.12376   0.24478
  49   39778.3    251.4   0.011854935   0.09811  -0.07950  -0.30161   0.02873
  50   39914.1    250.5   0.003852476   0.03178  -0.13076  -0.03727  -0.11527
  51   40183.6    248.9   0.042280698   0.34639   0.08410   0.24909  -0.52657
  52   40221.0    248.6   0.060984090   0.49916  -0.69644   0.11235  -0.03876

FINAL SINGLE POINT ENERGY     -7418.782278041142

DIPOLE MOMENT
-------------
                                X             Y             Z
Electronic contribution:    -81.49450     -69.55191     -97.54084
Nuclear contribution   :     83.13328      72.79265      98.70625
                        -----------------------------------------
Total Dipole Moment    :      1.63878       3.24074       1.16540
                        -----------------------------------------
Magnitude (a.u.)       :      3.81394
Magnitude (Debye)      :      9.69427

Rotational constants in cm-1:     0.000656     0.000211     0.000192
Rotational constants in MHz :    19.670383     6.316503     5.748536

                             ****ORCA TERMINATED NORMALLY****
TOTAL RUN TIME: 0 days 0 hours 14 minutes 41 seconds 646 msec
