                         Program Version 4.2.0 -  RELEASE  -
|  1> # ORCA input file
|  2> # SCF done       -150.937854023223          0.000704154097
|  3> ! CAM-B3LYP def2-SVP def2/J RIJCOSX Grid4 TightSCF
|  4> %maxcore 5000
|  5> %tddft
|  6>     Mode sTDDFT
|  7>     Ethresh 5.0
|  8>     maxcore 5000
|  9> end
| 10>
| 11> %pal
| 12>   nprocs 6
| 13>   end
| 14> * xyz 0 1
| 15>    C       -3.90468       -14.54343         1.37177
| 16>    C       -2.98889       -14.66683         0.40133
| 17>    C       -2.85322       -15.73349        -0.54893
| 18>    C       -1.82468       -15.58573        -1.41284
| 19>    C       -1.06219       -14.39995        -1.22263
| 20>    S       -1.71619       -13.46917         0.11312
| 21>    C        0.03687       -13.98454        -1.93342
| 22>    C        0.67530       -14.63110        -3.02120
| 23>    C        1.75425       -13.96163        -3.50202
| 24>    C        2.04339       -12.74398        -2.82894
| 25>    S        0.86629       -12.48422        -1.55297
| 26>    C        3.08333       -11.90036        -3.11753
| 27>    C        3.40872       -10.69368        -2.47515
| 28>    S        2.46539       -10.05735        -1.15613
| 29>    C        3.52399        -8.68313        -0.98911
| 30>    C        4.55551        -8.73742        -1.91806
| 31>    C        4.48528        -9.85229        -2.75892
| 32>    C        5.49103       -10.11303        -3.83736
| 33>    C        6.29623        -8.85389        -4.14669
| 34>    C        6.81717        -8.22032        -2.84824
| 35>    N        7.75813        -7.13085        -3.04518
| 36>    C        5.63029        -7.70246        -2.03334
| 37>    C        3.27105        -7.69252        -0.00388
| 38>    C        2.20808        -7.72936         0.83091
| 39>    C        1.94015        -6.74645         1.83095
| 40>    C        0.88137        -6.71770         2.66061
| 41>    C       -0.21808        -7.72910         2.69311
| 42>    C        0.77172        -5.63110         3.70523
| 43>    N        1.17158        -6.11638         5.01292
| 44>    C        0.35693        -6.72837         5.90574
| 45>    C       -0.99542        -6.76333         5.88112
| 46>    C       -1.79825        -7.40817         6.86533
| 47>    S       -3.52474        -7.38422         6.68204
| 48>    C       -3.78354        -8.31775         8.12079
| 49>    C       -2.56618        -8.64332         8.69650
| 50>    C       -1.44603        -8.12154         8.00054
| 51>    O       -0.14387        -8.26814         8.36739
| 52>    C       -2.44147        -9.49769         9.90951
| 53>    F       -2.35665        -8.76452        11.05102
| 54>    F       -3.46261       -10.34059        10.08516
| 55>    F       -1.32667       -10.25801         9.90175
| 56>    C       -5.12711        -8.65230         8.51044
| 57>    S       -6.23982        -9.25510         7.30595
| 58>    C       -7.50585        -9.35794         8.44025
| 59>    C       -7.11386        -8.94946         9.67996
| 60>    C       -5.75305        -8.53228         9.73179
| 61>    O       -5.24822        -8.04584        10.87736
| 62>    C       -8.00650        -8.90772        10.87557
| 63>    F       -9.24620        -9.34254        10.58571
| 64>    F       -7.56667        -9.67158        11.88440
| 65>    F       -8.15221        -7.66785        11.36903
| 66>    H       -4.65942       -15.29660         1.51333
| 67>    H       -3.91576       -13.69807         2.03465
| 68>    H       -3.53526       -16.56518        -0.53948
| 69>    H       -1.57803       -16.28927        -2.18833
| 70>    H        0.32021       -15.56766        -3.41240
| 71>    H        2.36347       -14.29936        -4.32244
| 72>    H        3.73397       -12.20134        -3.92825
| 73>    H        4.99009       -10.46410        -4.74294
| 74>    H        6.16941       -10.90795        -3.50808
| 75>    H        5.66367        -8.13018        -4.66818
| 76>    H        7.13355        -9.10608        -4.80293
| 77>    H        7.33974        -8.98986        -2.26674
| 78>    H        7.33704        -6.40273        -3.61395
| 79>    H        8.58709        -7.45894        -3.52863
| 80>    H        5.22528        -6.81149        -2.52602
| 81>    H        5.97907        -7.39708        -1.04586
| 82>    H        3.97933        -6.87669         0.05583
| 83>    H        1.52163        -8.55808         0.73218
| 84>    H        2.67051        -5.94814         1.90436
| 85>    H       -0.07825        -8.51521         1.95941
| 86>    H       -1.17422        -7.24265         2.49784
| 87>    H       -0.27918        -8.18410         3.68200
| 88>    H       -0.25228        -5.26118         3.77253
| 89>    H        1.42620        -4.79229         3.45071
| 90>    H        2.15339        -6.33320         5.08927
| 91>    H        0.87348        -7.19032         6.73303
| 92>    H       -1.55263        -6.30350         5.07990
| 93>    H       -0.05359        -8.89406         9.09519
| 94>    H       -8.47482        -9.71076         8.14910
| 95>    H       -4.33075        -7.76557        10.78610
| 96> *
| 97>
| 98>                          ****END OF INPUT****

CARTESIAN COORDINATES (ANGSTROEM)
---------------------------------
  C     -3.904680  -14.543430    1.371770
  C     -2.988890  -14.666830    0.401330
  C     -2.853220  -15.733490   -0.548930
  C     -1.824680  -15.585730   -1.412840
  C     -1.062190  -14.399950   -1.222630
  S     -1.716190  -13.469170    0.113120
  C      0.036870  -13.984540   -1.933420
  C      0.675300  -14.631100   -3.021200
  C      1.754250  -13.961630   -3.502020
  C      2.043390  -12.743980   -2.828940
  S      0.866290  -12.484220   -1.552970
  C      3.083330  -11.900360   -3.117530
  C      3.408720  -10.693680   -2.475150
  S      2.465390  -10.057350   -1.156130
  C      3.523990   -8.683130   -0.989110
  C      4.555510   -8.737420   -1.918060
  C      4.485280   -9.852290   -2.758920
  C      5.491030  -10.113030   -3.837360
  C      6.296230   -8.853890   -4.146690
  C      6.817170   -8.220320   -2.848240
  N      7.758130   -7.130850   -3.045180
  C      5.630290   -7.702460   -2.033340
  C      3.271050   -7.692520   -0.003880
  C      2.208080   -7.729360    0.830910
  C      1.940150   -6.746450    1.830950
  C      0.881370   -6.717700    2.660610
  C     -0.218080   -7.729100    2.693110
  C      0.771720   -5.631100    3.705230
  N      1.171580   -6.116380    5.012920
  C      0.356930   -6.728370    5.905740
  C     -0.995420   -6.763330    5.881120
  C     -1.798250   -7.408170    6.865330
  S     -3.524740   -7.384220    6.682040
  C     -3.783540   -8.317750    8.120790
  C     -2.566180   -8.643320    8.696500
  C     -1.446030   -8.121540    8.000540
  O     -0.143870   -8.268140    8.367390
  C     -2.441470   -9.497690    9.909510
  F     -2.356650   -8.764520   11.051020
  F     -3.462610  -10.340590   10.085160
  F     -1.326670  -10.258010    9.901750
  C     -5.127110   -8.652300    8.510440
  S     -6.239820   -9.255100    7.305950
  C     -7.505850   -9.357940    8.440250
  C     -7.113860   -8.949460    9.679960
  C     -5.753050   -8.532280    9.731790
  O     -5.248220   -8.045840   10.877360
  C     -8.006500   -8.907720   10.875570
  F     -9.246200   -9.342540   10.585710
  F     -7.566670   -9.671580   11.884400
  F     -8.152210   -7.667850   11.369030
  H     -4.659420  -15.296600    1.513330
  H     -3.915760  -13.698070    2.034650
  H     -3.535260  -16.565180   -0.539480
  H     -1.578030  -16.289270   -2.188330
  H      0.320210  -15.567660   -3.412400
  H      2.363470  -14.299360   -4.322440
  H      3.733970  -12.201340   -3.928250
  H      4.990090  -10.464100   -4.742940
  H      6.169410  -10.907950   -3.508080
  H      5.663670   -8.130180   -4.668180
  H      7.133550   -9.106080   -4.802930
  H      7.339740   -8.989860   -2.266740
  H      7.337040   -6.402730   -3.613950
  H      8.587090   -7.458940   -3.528630
  H      5.225280   -6.811490   -2.526020
  H      5.979070   -7.397080   -1.045860
  H      3.979330   -6.876690    0.055830
  H      1.521630   -8.558080    0.732180
  H      2.670510   -5.948140    1.904360
  H     -0.078250   -8.515210    1.959410
  H     -1.174220   -7.242650    2.497840
  H     -0.279180   -8.184100    3.682000
  H     -0.252280   -5.261180    3.772530
  H      1.426200   -4.792290    3.450710
  H      2.153390   -6.333200    5.089270
  H      0.873480   -7.190320    6.733030
  H     -1.552630   -6.303500    5.079900
  H     -0.053590   -8.894060    9.095190
  H     -8.474820   -9.710760    8.149100
  H     -4.330750   -7.765570   10.786100

 Total Charge           Charge          ....    0
 Multiplicity           Mult            ....    1
 Number of Electrons    NEL             ....  410
 Basis Dimension        Dim             ....  884

ORBITAL ENERGIES
----------------

  NO   OCC          E(Eh)            E(eV)
   0   2.0000     -88.959921     -2420.7225
   1   2.0000     -88.956335     -2420.6249
   2   2.0000     -88.938720     -2420.1456
   3   2.0000     -88.936863     -2420.0951
   4   2.0000     -88.931737     -2419.9556
   5   2.0000     -24.816308      -675.2861
   6   2.0000     -24.805952      -675.0043
   7   2.0000     -24.805626      -674.9954
   8   2.0000     -24.782267      -674.3598
   9   2.0000     -24.776968      -674.2156
  10   2.0000     -24.776042      -674.1904
  11   2.0000     -19.250085      -523.8214
  12   2.0000     -19.248285      -523.7725
  13   2.0000     -14.427141      -392.5825
  14   2.0000     -14.378452      -391.2576
  15   2.0000     -10.527888      -286.4784
  16   2.0000     -10.501777      -285.7679
  17   2.0000     -10.342708      -281.4394
  18   2.0000     -10.332165      -281.1525
  19   2.0000     -10.316905      -280.7373
  20   2.0000     -10.306485      -280.4537
  21   2.0000     -10.303305      -280.3672
  22   2.0000     -10.302881      -280.3557
  23   2.0000     -10.302724      -280.3514
  24   2.0000     -10.300797      -280.2989
  25   2.0000     -10.300580      -280.2930
  26   2.0000     -10.299895      -280.2744
  27   2.0000     -10.298918      -280.2478
  28   2.0000     -10.296370      -280.1785
  29   2.0000     -10.294486      -280.1272
  30   2.0000     -10.288329      -279.9597
  31   2.0000     -10.288092      -279.9532
  32   2.0000     -10.286097      -279.8989
  33   2.0000     -10.283823      -279.8370
  34   2.0000     -10.283525      -279.8289
  35   2.0000     -10.279359      -279.7156
  36   2.0000     -10.278776      -279.6997
  37   2.0000     -10.278070      -279.6805
  38   2.0000     -10.276821      -279.6465
  39   2.0000     -10.272211      -279.5211
  40   2.0000     -10.270479      -279.4739
  41   2.0000     -10.267327      -279.3882
  42   2.0000     -10.265199      -279.3303
  43   2.0000     -10.264734      -279.3176
  44   2.0000     -10.263898      -279.2949
  45   2.0000     -10.263484      -279.2836
  46   2.0000     -10.262236      -279.2496
  47   2.0000     -10.262179      -279.2481
  48   2.0000     -10.258983      -279.1611
  49   2.0000     -10.256315      -279.0885
  50   2.0000     -10.251897      -278.9683
  51   2.0000      -8.055767      -219.2086
  52   2.0000      -8.052128      -219.1096
  53   2.0000      -8.033817      -218.6113
  54   2.0000      -8.032761      -218.5825
  55   2.0000      -8.028484      -218.4662
  56   2.0000      -6.025112      -163.9516
  57   2.0000      -6.021353      -163.8494
  58   2.0000      -6.020916      -163.8375
  59   2.0000      -6.017756      -163.7515
  60   2.0000      -6.017442      -163.7429
  61   2.0000      -6.014065      -163.6510
  62   2.0000      -6.002990      -163.3497
  63   2.0000      -6.002600      -163.3391
  64   2.0000      -5.999156      -163.2453
  65   2.0000      -5.998455      -163.2263
  66   2.0000      -5.998311      -163.2224
  67   2.0000      -5.995903      -163.1568
  68   2.0000      -5.994410      -163.1162
  69   2.0000      -5.993582      -163.0937
  70   2.0000      -5.988976      -162.9683
  71   2.0000      -1.398039       -38.0426
  72   2.0000      -1.369249       -37.2592
  73   2.0000      -1.303566       -35.4718
  74   2.0000      -1.295859       -35.2621
  75   2.0000      -1.272189       -34.6180
  76   2.0000      -1.269072       -34.5332
  77   2.0000      -1.148157       -31.2429
  78   2.0000      -1.141697       -31.0672
  79   2.0000      -1.025598       -27.9080
  80   2.0000      -0.995391       -27.0860
  81   2.0000      -0.987179       -26.8625
  82   2.0000      -0.980402       -26.6781
  83   2.0000      -0.975506       -26.5449
  84   2.0000      -0.966440       -26.2982
  85   2.0000      -0.959337       -26.1049
  86   2.0000      -0.911119       -24.7928
  87   2.0000      -0.892260       -24.2796
  88   2.0000      -0.890024       -24.2188
  89   2.0000      -0.885779       -24.1033
  90   2.0000      -0.869683       -23.6653
  91   2.0000      -0.867235       -23.5987
  92   2.0000      -0.850824       -23.1521
  93   2.0000      -0.843358       -22.9489
  94   2.0000      -0.838496       -22.8166
  95   2.0000      -0.831815       -22.6348
  96   2.0000      -0.827713       -22.5232
  97   2.0000      -0.814440       -22.1620
  98   2.0000      -0.802022       -21.8241
  99   2.0000      -0.796347       -21.6697
 100   2.0000      -0.788112       -21.4456
 101   2.0000      -0.782510       -21.2932
 102   2.0000      -0.777384       -21.1537
 103   2.0000      -0.768309       -20.9068
 104   2.0000      -0.753030       -20.4910
 105   2.0000      -0.743630       -20.2352
 106   2.0000      -0.718969       -19.5641
 107   2.0000      -0.715122       -19.4595
 108   2.0000      -0.705234       -19.1904
 109   2.0000      -0.702859       -19.1258
 110   2.0000      -0.686007       -18.6672
 111   2.0000      -0.684374       -18.6228
 112   2.0000      -0.681342       -18.5403
 113   2.0000      -0.679943       -18.5022
 114   2.0000      -0.673873       -18.3370
 115   2.0000      -0.667736       -18.1700
 116   2.0000      -0.659558       -17.9475
 117   2.0000      -0.656790       -17.8722
 118   2.0000      -0.651675       -17.7330
 119   2.0000      -0.650469       -17.7002
 120   2.0000      -0.635009       -17.2795
 121   2.0000      -0.627789       -17.0830
 122   2.0000      -0.625144       -17.0110
 123   2.0000      -0.620883       -16.8951
 124   2.0000      -0.615540       -16.7497
 125   2.0000      -0.613776       -16.7017
 126   2.0000      -0.598169       -16.2770
 127   2.0000      -0.594592       -16.1797
 128   2.0000      -0.593030       -16.1372
 129   2.0000      -0.590646       -16.0723
 130   2.0000      -0.585774       -15.9397
 131   2.0000      -0.575105       -15.6494
 132   2.0000      -0.567905       -15.4535
 133   2.0000      -0.561221       -15.2716
 134   2.0000      -0.558160       -15.1883
 135   2.0000      -0.555260       -15.1094
 136   2.0000      -0.549214       -14.9449
 137   2.0000      -0.537470       -14.6253
 138   2.0000      -0.536134       -14.5889
 139   2.0000      -0.531379       -14.4596
 140   2.0000      -0.530750       -14.4424
 141   2.0000      -0.527434       -14.3522
 142   2.0000      -0.525030       -14.2868
 143   2.0000      -0.523319       -14.2402
 144   2.0000      -0.521260       -14.1842
 145   2.0000      -0.518252       -14.1024
 146   2.0000      -0.510982       -13.9045
 147   2.0000      -0.508582       -13.8392
 148   2.0000      -0.506129       -13.7725
 149   2.0000      -0.505317       -13.7504
 150   2.0000      -0.503466       -13.7000
 151   2.0000      -0.500699       -13.6247
 152   2.0000      -0.497419       -13.5355
 153   2.0000      -0.494952       -13.4683
 154   2.0000      -0.493861       -13.4386
 155   2.0000      -0.492637       -13.4053
 156   2.0000      -0.488988       -13.3060
 157   2.0000      -0.487675       -13.2703
 158   2.0000      -0.486700       -13.2438
 159   2.0000      -0.483732       -13.1630
 160   2.0000      -0.481761       -13.1094
 161   2.0000      -0.479066       -13.0361
 162   2.0000      -0.476730       -12.9725
 163   2.0000      -0.475259       -12.9325
 164   2.0000      -0.472313       -12.8523
 165   2.0000      -0.469626       -12.7792
 166   2.0000      -0.467060       -12.7093
 167   2.0000      -0.465118       -12.6565
 168   2.0000      -0.463861       -12.6223
 169   2.0000      -0.456211       -12.4141
 170   2.0000      -0.452956       -12.3256
 171   2.0000      -0.451689       -12.2911
 172   2.0000      -0.446968       -12.1626
 173   2.0000      -0.442309       -12.0358
 174   2.0000      -0.438785       -11.9400
 175   2.0000      -0.432131       -11.7589
 176   2.0000      -0.430424       -11.7124
 177   2.0000      -0.429966       -11.7000
 178   2.0000      -0.429304       -11.6820
 179   2.0000      -0.426460       -11.6046
 180   2.0000      -0.422772       -11.5042
 181   2.0000      -0.418158       -11.3787
 182   2.0000      -0.416583       -11.3358
 183   2.0000      -0.415823       -11.3151
 184   2.0000      -0.414616       -11.2823
 185   2.0000      -0.409263       -11.1366
 186   2.0000      -0.402339       -10.9482
 187   2.0000      -0.400469       -10.8973
 188   2.0000      -0.398455       -10.8425
 189   2.0000      -0.388907       -10.5827
 190   2.0000      -0.377932       -10.2841
 191   2.0000      -0.370159       -10.0725
 192   2.0000      -0.350031        -9.5248
 193   2.0000      -0.342468        -9.3190
 194   2.0000      -0.331838        -9.0298
 195   2.0000      -0.319695        -8.6993
 196   2.0000      -0.317380        -8.6364
 197   2.0000      -0.308911        -8.4059
 198   2.0000      -0.302112        -8.2209
 199   2.0000      -0.301293        -8.1986
 200   2.0000      -0.295074        -8.0294
 201   2.0000      -0.288063        -7.8386
 202   2.0000      -0.255137        -6.9426
 203   2.0000      -0.225250        -6.1294
 204   2.0000      -0.202906        -5.5213
 205   0.0000      -0.064842        -1.7644
 206   0.0000      -0.017369        -0.4726
 207   0.0000      -0.011001        -0.2994
 208   0.0000       0.021971         0.5979
 209   0.0000       0.026076         0.7096

MULLIKEN ATOMIC CHARGES
-----------------------
   0 C :   -0.033736
   1 C :   -0.061884
   2 C :    0.049162
   3 C :    0.029248
   4 C :   -0.067740
   5 S :    0.075234
   6 C :   -0.036699
   7 C :    0.030346
   8 C :    0.029402
   9 C :   -0.028594
  10 S :    0.060104
  11 C :   -0.040005
  12 C :   -0.077635
  13 S :    0.060212
  14 C :   -0.083077
  15 C :   -0.044711
  16 C :   -0.104766
  17 C :    0.140398
  18 C :    0.061966
  19 C :   -0.082000
  20 N :   -0.165724
  21 C :    0.179757
  22 C :   -0.016730
  23 C :   -0.004409
  24 C :    0.007749
  25 C :   -0.187597
  26 C :    0.103992
  27 C :    0.203080
  28 N :   -0.144031
  29 C :    0.046219
  30 C :   -0.029417
  31 C :   -0.133824
  32 S :    0.153809
  33 C :   -0.159911
  34 C :   -0.088879
  35 C :    0.101354
  36 O :   -0.199610
  37 C :    0.486430
  38 F :   -0.177026
  39 F :   -0.135490
  40 F :   -0.174137
  41 C :   -0.224580
  42 S :    0.151946
  43 C :   -0.085524
  44 C :   -0.139206
  45 C :    0.198786
  46 O :   -0.163946
  47 C :    0.534695
  48 F :   -0.168982
  49 F :   -0.158413
  50 F :   -0.162408
  51 H :    0.019067
  52 H :    0.021361
  53 H :   -0.012248
  54 H :   -0.013376
  55 H :   -0.018629
  56 H :   -0.017329
  57 H :   -0.019257
  58 H :    0.010562
  59 H :    0.010668
  60 H :   -0.008783
  61 H :   -0.015663
  62 H :   -0.002408
  63 H :    0.085110
  64 H :    0.086447
  65 H :   -0.000246
  66 H :    0.015887
  67 H :   -0.019250
  68 H :   -0.001470
  69 H :   -0.037074
  70 H :    0.008875
  71 H :    0.015881
  72 H :    0.043409
  73 H :    0.016424
  74 H :    0.006653
  75 H :    0.119463
  76 H :    0.019334
  77 H :   -0.044131
  78 H :    0.183625
  79 H :    0.038467
  80 H :    0.185432
Sum of atomic charges:    0.0000000

LOEWDIN ATOMIC CHARGES
----------------------
   0 C :   -0.080128
   1 C :   -0.139198
   2 C :   -0.033779
   3 C :   -0.027054
   4 C :   -0.178448
   5 S :    0.347542
   6 C :   -0.180770
   7 C :   -0.039806
   8 C :   -0.033494
   9 C :   -0.155089
  10 S :    0.362788
  11 C :   -0.074929
  12 C :   -0.175243
  13 S :    0.423208
  14 C :   -0.175403
  15 C :   -0.057400
  16 C :   -0.060563
  17 C :   -0.026867
  18 C :   -0.042470
  19 C :    0.011963
  20 N :   -0.103634
  21 C :   -0.023859
  22 C :   -0.041847
  23 C :   -0.035290
  24 C :   -0.053298
  25 C :   -0.037539
  26 C :   -0.049804
  27 C :    0.045320
  28 N :   -0.004829
  29 C :    0.043809
  30 C :   -0.158182
  31 C :   -0.184085
  32 S :    0.453007
  33 C :   -0.196707
  34 C :   -0.162875
  35 C :    0.000192
  36 O :   -0.055652
  37 C :    0.171023
  38 F :   -0.076642
  39 F :   -0.036704
  40 F :   -0.059733
  41 C :   -0.265469
  42 S :    0.452990
  43 C :   -0.156832
  44 C :   -0.142796
  45 C :    0.032360
  46 O :   -0.032736
  47 C :    0.168119
  48 F :   -0.067332
  49 F :   -0.058265
  50 F :   -0.061861
  51 H :    0.027997
  52 H :    0.025816
  53 H :    0.032696
  54 H :    0.031698
  55 H :    0.029677
  56 H :    0.031427
  57 H :    0.035316
  58 H :    0.028953
  59 H :    0.031074
  60 H :    0.018324
  61 H :    0.017195
  62 H :    0.019748
  63 H :    0.049576
  64 H :    0.051881
  65 H :    0.028233
  66 H :    0.032384
  67 H :    0.029402
  68 H :    0.017210
  69 H :    0.021599
  70 H :    0.028481
  71 H :    0.033627
  72 H :    0.039951
  73 H :    0.028655
  74 H :    0.026862
  75 H :    0.077588
  76 H :    0.028479
  77 H :    0.014827
  78 H :    0.079478
  79 H :    0.032353
  80 H :    0.083780

  Mayer bond orders larger than 0.100000
B(  0-C ,  1-C ) :   1.8618 B(  0-C , 51-H ) :   0.9507 B(  0-C , 52-H ) :   0.9420
B(  1-C ,  2-C ) :   1.0819 B(  1-C ,  5-S ) :   1.0082 B(  2-C ,  3-C ) :   1.6590
B(  2-C , 53-H ) :   0.9926 B(  3-C ,  4-C ) :   1.1528 B(  3-C , 54-H ) :   0.9919
B(  4-C ,  5-S ) :   1.0410 B(  4-C ,  6-C ) :   1.5611 B(  6-C ,  7-C ) :   1.1678
B(  6-C , 10-S ) :   1.0308 B(  7-C ,  8-C ) :   1.6071 B(  7-C , 55-H ) :   0.9915
B(  8-C ,  9-C ) :   1.1363 B(  8-C , 56-H ) :   0.9992 B(  9-C , 10-S ) :   1.0326
B(  9-C , 11-C ) :   1.5680 B( 11-C , 12-C ) :   1.1975 B( 11-C , 57-H ) :   0.9627
B( 12-C , 13-S ) :   1.0915 B( 12-C , 16-C ) :   1.4448 B( 13-S , 14-C ) :   1.1037
B( 14-C , 15-C ) :   1.4559 B( 14-C , 22-C ) :   1.1479 B( 15-C , 16-C ) :   1.3567
B( 15-C , 21-C ) :   1.0283 B( 16-C , 17-C ) :   1.0543 B( 17-C , 18-C ) :   1.0779
B( 17-C , 58-H ) :   0.9099 B( 17-C , 59-H ) :   0.9049 B( 18-C , 19-C ) :   1.0284
B( 18-C , 60-H ) :   0.9289 B( 18-C , 61-H ) :   0.9285 B( 19-C , 20-N ) :   1.1016
B( 19-C , 21-C ) :   1.0509 B( 19-C , 62-H ) :   0.9282 B( 20-N , 63-H ) :   0.9696
B( 20-N , 64-H ) :   0.9697 B( 21-C , 65-H ) :   0.9003 B( 21-C , 66-H ) :   0.9100
B( 22-C , 23-C ) :   1.6717 B( 22-C , 67-H ) :   0.9787 B( 23-C , 24-C ) :   1.1104
B( 23-C , 68-H ) :   0.9703 B( 24-C , 25-C ) :   1.7459 B( 24-C , 69-H ) :   0.9757
B( 25-C , 26-C ) :   1.0871 B( 25-C , 27-C ) :   1.0489 B( 26-C , 70-H ) :   0.9495
B( 26-C , 71-H ) :   0.9423 B( 26-C , 72-H ) :   0.9407 B( 27-C , 28-N ) :   1.0037
B( 27-C , 73-H ) :   0.9227 B( 27-C , 74-H ) :   0.9409 B( 28-N , 29-C ) :   1.2210
B( 28-N , 75-H ) :   0.9387 B( 29-C , 30-C ) :   1.6583 B( 29-C , 76-H ) :   0.9463
B( 30-C , 31-C ) :   1.1289 B( 30-C , 77-H ) :   0.9365 B( 31-C , 32-S ) :   1.1137
B( 31-C , 33-C ) :   0.1189 B( 31-C , 35-C ) :   1.5034 B( 32-S , 33-C ) :   1.1638
B( 33-C , 34-C ) :   1.5525 B( 33-C , 41-C ) :   1.0233 B( 34-C , 35-C ) :   1.1980
B( 34-C , 37-C ) :   0.9423 B( 35-C , 36-O ) :   1.2211 B( 36-O , 78-H ) :   0.9403
B( 37-C , 38-F ) :   1.1343 B( 37-C , 39-F ) :   1.1817 B( 37-C , 40-F ) :   1.1138
B( 41-C , 42-S ) :   1.1045 B( 41-C , 43-C ) :   0.1060 B( 41-C , 45-C ) :   1.4905
B( 42-S , 43-C ) :   1.1890 B( 43-C , 44-C ) :   1.5821 B( 43-C , 79-H ) :   0.9729
B( 44-C , 45-C ) :   1.2307 B( 44-C , 47-C ) :   0.9367 B( 45-C , 46-O ) :   1.3250
B( 46-O , 80-H ) :   0.9363 B( 47-C , 48-F ) :   1.1600 B( 47-C , 49-F ) :   1.1865
B( 47-C , 50-F ) :   1.1814

-----------------------------------------------------------------------------
         ABSORPTION SPECTRUM VIA TRANSITION ELECTRIC DIPOLE MOMENTS
-----------------------------------------------------------------------------
State   Energy  Wavelength   fosc         T2         TX        TY        TZ
        (cm-1)    (nm)                  (au**2)     (au)      (au)      (au)
-----------------------------------------------------------------------------
   0   16507.2    605.8   0.812183584  16.19776  -2.48051  -3.16528  -0.16065
   1   23454.8    426.4   0.201604155   2.82972   1.23210   0.26460  -1.11429
   2   24913.4    401.4   0.120193720   1.58827   0.93825   0.22470  -0.81084
   3   28070.2    356.2   1.322152240  15.50641   3.14537   0.51338  -2.31290
   4   29480.7    339.2   0.711285224   7.94296   1.16605  -1.33109  -2.19351
   5   31078.8    321.8   0.068011190   0.72043  -0.68569  -0.10423   0.48928
   6   31988.1    312.6   0.000405325   0.00417   0.04101  -0.01311   0.04815
   7   32167.6    310.9   0.004658189   0.04767   0.16098   0.14584  -0.02215
   8   32977.8    303.2   0.034475807   0.34417  -0.23241   0.04156   0.53705
   9   33319.2    300.1   0.046137091   0.45586  -0.53931   0.16725   0.37018
  10   34962.6    286.0   0.010430889   0.09822  -0.12826  -0.27105  -0.09110
  11   35729.0    279.9   0.075119243   0.69216   0.53125   0.38628  -0.51061
  12   37480.8    266.8   0.029628184   0.26024   0.42006   0.17736  -0.22875
  13   38266.4    261.3   0.038920511   0.33484  -0.46606  -0.29864   0.16863
  14   38596.7    259.1   0.230230810   1.96376   1.06053  -0.02422  -0.91567
  15   39497.5    253.2   0.028895861   0.24085  -0.38306  -0.04123   0.30399
  16   39705.9    251.9   0.003672839   0.03045   0.05150   0.15860   0.05143

FINAL SINGLE POINT ENERGY     -4236.517734294356

DIPOLE MOMENT
-------------
                                X             Y             Z
Electronic contribution:    -95.17961      -8.92988     117.70009
Nuclear contribution   :     97.46175       8.61597    -120.76286
                        -----------------------------------------
Total Dipole Moment    :      2.28214      -0.31391      -3.06277
                        -----------------------------------------
Magnitude (a.u.)       :      3.83240
Magnitude (Debye)      :      9.74118

Rotational constants in cm-1:     0.002041     0.000485     0.000412
Rotational constants in MHz :    61.179875    14.544697    12.338240

                             ****ORCA TERMINATED NORMALLY****
TOTAL RUN TIME: 0 days 0 hours 4 minutes 55 seconds 656 msec
