                         Program Version 4.2.0 -  RELEASE  -
|  1> # ORCA input file
|  2> # SCF done       -178.260166811375          0.000796009943
|  3> ! CAM-B3LYP def2-SVP def2/J RIJCOSX Grid4 TightSCF
|  4> %maxcore 5000
|  5> %tddft
|  6>     Mode sTDDFT
|  7>     Ethresh 5.0
|  8>     maxcore 5000
|  9> end
| 10>
| 11> %pal
| 12>   nprocs 6
| 13>   end
| 14> * xyz 0 1
| 15>    C       -1.52322         4.15847         2.04046
| 16>    C       -0.76962         4.58271         0.94422
| 17>    N       -0.08183         5.83372         1.07806
| 18>    O       -0.03383         6.33612         2.18279
| 19>    O        0.41706         6.33167         0.08600
| 20>    C       -0.70390         3.80304        -0.22014
| 21>    C        0.10714         4.18594        -1.42507
| 22>    O        0.15155         3.11534        -2.34047
| 23>    C       -1.42250         2.61769        -0.24566
| 24>    C       -2.18853         2.19258         0.83818
| 25>    C       -2.22231         2.97695         1.99776
| 26>    C       -2.93481         0.95717         0.76767
| 27>    C       -3.21526         0.07931         1.90461
| 28>    N       -3.90081        -0.98808         1.60468
| 29>    C       -4.13872        -0.90091         0.26871
| 30>    C       -3.51871         0.31287        -0.29551
| 31>    C       -3.86255         0.42575        -1.69759
| 32>    S       -3.55779         1.70358        -2.68824
| 33>    C       -4.63335        -0.75866        -1.98128
| 34>    C       -4.80377        -1.54143        -0.74318
| 35>    N       -5.59279        -2.62938        -0.96161
| 36>    C       -5.94368        -2.55415        -2.21299
| 37>    C       -5.39172        -1.40664        -2.93538
| 38>    C       -5.62117        -1.13819        -4.32792
| 39>    C       -6.77732        -1.59385        -4.93587
| 40>    C       -7.02070        -1.31294        -6.28991
| 41>    C       -8.09677        -1.62265        -7.12405
| 42>    C       -9.34949        -2.36177        -6.80370
| 43>    C       -9.05162        -3.80805        -6.37148
| 44>    N       -8.32625        -4.48594        -7.43091
| 45>    C      -10.18515        -1.61265        -5.74785
| 46>    N      -10.62793        -0.35151        -6.31308
| 47>    C       -7.78807        -1.07023        -8.41889
| 48>    C       -8.47929        -1.08312        -9.57531
| 49>    C       -7.96442        -0.40169       -10.79423
| 50>    C       -6.59811         0.18323       -10.65508
| 51>    C       -5.91852         0.18722        -9.49103
| 52>    C       -6.47604        -0.41689        -8.34074
| 53>    C       -6.02345        -0.56312        -7.04087
| 54>    C       -4.84445        -0.12664        -6.39915
| 55>    C       -4.65561        -0.40288        -5.08228
| 56>    C       -8.94677         0.70251       -11.11550
| 57>    C       -9.86544         0.61309       -12.08171
| 58>    C      -10.82246         1.62835       -12.39793
| 59>    C      -10.87961         3.00847       -11.91196
| 60>    N      -11.87198         3.70756       -12.38796
| 61>    C      -12.55345         2.86103       -13.21078
| 62>    C      -11.91092         1.53757       -13.23301
| 63>    C      -12.63387         0.64424       -14.09794
| 64>    S      -12.22658        -0.90903       -14.45243
| 65>    C      -13.73748         1.43871       -14.59393
| 66>    C      -13.64404         2.80844       -14.03895
| 67>    N      -14.64731         3.59010       -14.51703
| 68>    C      -15.32643         2.82831       -15.32746
| 69>    C      -14.82417         1.45711       -15.43555
| 70>    C      -15.42493         0.42165       -16.24468
| 71>    C      -15.29701        -0.92702       -15.89488
| 72>    C      -15.89265        -1.89368       -16.66840
| 73>    C      -16.63591        -1.54383       -17.79605
| 74>    C      -16.77045        -0.20165       -18.18015
| 75>    C      -16.15704         0.75485       -17.38711
| 76>    C      -17.55034         0.25344       -19.39648
| 77>    O      -18.93524         0.24683       -19.17551
| 78>    N      -17.23439        -2.62398       -18.52716
| 79>    O      -16.76190        -3.73050       -18.38262
| 80>    O      -18.19014        -2.38271       -19.24360
| 81>    H       -1.54535         4.78678         2.91807
| 82>    H        1.12294         4.46781        -1.11075
| 83>    H       -0.34743         5.07663        -1.88371
| 84>    H        0.61834         3.40928        -3.12837
| 85>    H       -1.36381         2.01337        -1.13549
| 86>    H       -2.81722         2.67063         2.84379
| 87>    H       -2.87568         0.24198         2.91238
| 88>    H       -6.55530        -3.32662        -2.64620
| 89>    H       -7.50840        -2.13367        -4.35452
| 90>    H       -9.96248        -2.40463        -7.70890
| 91>    H      -10.00626        -4.29517        -6.10752
| 92>    H       -8.41539        -3.81337        -5.48474
| 93>    H       -8.90859        -4.57656        -8.25689
| 94>    H       -8.05766        -5.41833        -7.13824
| 95>    H       -9.59904        -1.49741        -4.82336
| 96>    H      -11.07519        -2.20335        -5.51404
| 97>    H       -9.83374         0.26066        -6.47034
| 98>    H      -11.26955         0.11897        -5.68557
| 99>    H       -9.45304        -1.54384        -9.66151
|100>    H       -7.97912        -1.11502       -11.62917
|101>    H       -6.19021         0.64225       -11.54266
|102>    H       -4.93862         0.63681        -9.42582
|103>    H       -4.10259         0.42219        -6.95927
|104>    H       -3.75837        -0.07971        -4.58046
|105>    H       -8.87760         1.57297       -10.48008
|106>    H       -9.93859        -0.28570       -12.68202
|107>    H      -10.18311         3.45978       -11.22753
|108>    H      -16.20010         3.21106       -15.82477
|109>    H      -14.73997        -1.20583       -15.01571
|110>    H      -15.80646        -2.93923       -16.41311
|111>    H      -16.23807         1.79038       -17.67954
|112>    H      -17.28840        -0.36745       -20.26474
|113>    H      -17.28567         1.29022       -19.61980
|114>    H      -19.22787        -0.67732       -19.19475
|115> *
|116>
|117>                          ****END OF INPUT****

CARTESIAN COORDINATES (ANGSTROEM)
---------------------------------
  C     -1.523220    4.158470    2.040460
  C     -0.769620    4.582710    0.944220
  N     -0.081830    5.833720    1.078060
  O     -0.033830    6.336120    2.182790
  O      0.417060    6.331670    0.086000
  C     -0.703900    3.803040   -0.220140
  C      0.107140    4.185940   -1.425070
  O      0.151550    3.115340   -2.340470
  C     -1.422500    2.617690   -0.245660
  C     -2.188530    2.192580    0.838180
  C     -2.222310    2.976950    1.997760
  C     -2.934810    0.957170    0.767670
  C     -3.215260    0.079310    1.904610
  N     -3.900810   -0.988080    1.604680
  C     -4.138720   -0.900910    0.268710
  C     -3.518710    0.312870   -0.295510
  C     -3.862550    0.425750   -1.697590
  S     -3.557790    1.703580   -2.688240
  C     -4.633350   -0.758660   -1.981280
  C     -4.803770   -1.541430   -0.743180
  N     -5.592790   -2.629380   -0.961610
  C     -5.943680   -2.554150   -2.212990
  C     -5.391720   -1.406640   -2.935380
  C     -5.621170   -1.138190   -4.327920
  C     -6.777320   -1.593850   -4.935870
  C     -7.020700   -1.312940   -6.289910
  C     -8.096770   -1.622650   -7.124050
  C     -9.349490   -2.361770   -6.803700
  C     -9.051620   -3.808050   -6.371480
  N     -8.326250   -4.485940   -7.430910
  C    -10.185150   -1.612650   -5.747850
  N    -10.627930   -0.351510   -6.313080
  C     -7.788070   -1.070230   -8.418890
  C     -8.479290   -1.083120   -9.575310
  C     -7.964420   -0.401690  -10.794230
  C     -6.598110    0.183230  -10.655080
  C     -5.918520    0.187220   -9.491030
  C     -6.476040   -0.416890   -8.340740
  C     -6.023450   -0.563120   -7.040870
  C     -4.844450   -0.126640   -6.399150
  C     -4.655610   -0.402880   -5.082280
  C     -8.946770    0.702510  -11.115500
  C     -9.865440    0.613090  -12.081710
  C    -10.822460    1.628350  -12.397930
  C    -10.879610    3.008470  -11.911960
  N    -11.871980    3.707560  -12.387960
  C    -12.553450    2.861030  -13.210780
  C    -11.910920    1.537570  -13.233010
  C    -12.633870    0.644240  -14.097940
  S    -12.226580   -0.909030  -14.452430
  C    -13.737480    1.438710  -14.593930
  C    -13.644040    2.808440  -14.038950
  N    -14.647310    3.590100  -14.517030
  C    -15.326430    2.828310  -15.327460
  C    -14.824170    1.457110  -15.435550
  C    -15.424930    0.421650  -16.244680
  C    -15.297010   -0.927020  -15.894880
  C    -15.892650   -1.893680  -16.668400
  C    -16.635910   -1.543830  -17.796050
  C    -16.770450   -0.201650  -18.180150
  C    -16.157040    0.754850  -17.387110
  C    -17.550340    0.253440  -19.396480
  O    -18.935240    0.246830  -19.175510
  N    -17.234390   -2.623980  -18.527160
  O    -16.761900   -3.730500  -18.382620
  O    -18.190140   -2.382710  -19.243600
  H     -1.545350    4.786780    2.918070
  H      1.122940    4.467810   -1.110750
  H     -0.347430    5.076630   -1.883710
  H      0.618340    3.409280   -3.128370
  H     -1.363810    2.013370   -1.135490
  H     -2.817220    2.670630    2.843790
  H     -2.875680    0.241980    2.912380
  H     -6.555300   -3.326620   -2.646200
  H     -7.508400   -2.133670   -4.354520
  H     -9.962480   -2.404630   -7.708900
  H    -10.006260   -4.295170   -6.107520
  H     -8.415390   -3.813370   -5.484740
  H     -8.908590   -4.576560   -8.256890
  H     -8.057660   -5.418330   -7.138240
  H     -9.599040   -1.497410   -4.823360
  H    -11.075190   -2.203350   -5.514040
  H     -9.833740    0.260660   -6.470340
  H    -11.269550    0.118970   -5.685570
  H     -9.453040   -1.543840   -9.661510
  H     -7.979120   -1.115020  -11.629170
  H     -6.190210    0.642250  -11.542660
  H     -4.938620    0.636810   -9.425820
  H     -4.102590    0.422190   -6.959270
  H     -3.758370   -0.079710   -4.580460
  H     -8.877600    1.572970  -10.480080
  H     -9.938590   -0.285700  -12.682020
  H    -10.183110    3.459780  -11.227530
  H    -16.200100    3.211060  -15.824770
  H    -14.739970   -1.205830  -15.015710
  H    -15.806460   -2.939230  -16.413110
  H    -16.238070    1.790380  -17.679540
  H    -17.288400   -0.367450  -20.264740
  H    -17.285670    1.290220  -19.619800
  H    -19.227870   -0.677320  -19.194750

 Total Charge           Charge          ....    0
 Multiplicity           Mult            ....    1
 Number of Electrons    NEL             ....  470
 Basis Dimension        Dim             .... 1102

ORBITAL ENERGIES
----------------

  NO   OCC          E(Eh)            E(eV)
   0   2.0000     -88.912570     -2419.4340
   1   2.0000     -88.897690     -2419.0291
   2   2.0000     -19.256256      -523.9894
   3   2.0000     -19.254426      -523.9396
   4   2.0000     -19.239198      -523.5252
   5   2.0000     -19.236486      -523.4514
   6   2.0000     -19.211511      -522.7718
   7   2.0000     -19.196672      -522.3680
   8   2.0000     -14.659888      -398.9158
   9   2.0000     -14.644103      -398.4863
  10   2.0000     -14.427057      -392.5802
  11   2.0000     -14.425186      -392.5293
  12   2.0000     -14.416569      -392.2948
  13   2.0000     -14.413928      -392.2229
  14   2.0000     -14.383968      -391.4077
  15   2.0000     -14.381160      -391.3313
  16   2.0000     -10.355965      -281.8001
  17   2.0000     -10.347234      -281.5626
  18   2.0000     -10.344178      -281.4794
  19   2.0000     -10.343145      -281.4513
  20   2.0000     -10.342701      -281.4392
  21   2.0000     -10.341050      -281.3943
  22   2.0000     -10.337930      -281.3094
  23   2.0000     -10.336434      -281.2687
  24   2.0000     -10.332824      -281.1704
  25   2.0000     -10.332169      -281.1526
  26   2.0000     -10.327728      -281.0318
  27   2.0000     -10.326058      -280.9863
  28   2.0000     -10.320444      -280.8336
  29   2.0000     -10.319192      -280.7995
  30   2.0000     -10.318042      -280.7682
  31   2.0000     -10.315503      -280.6991
  32   2.0000     -10.314219      -280.6642
  33   2.0000     -10.311153      -280.5807
  34   2.0000     -10.310812      -280.5715
  35   2.0000     -10.309015      -280.5226
  36   2.0000     -10.306598      -280.4568
  37   2.0000     -10.305624      -280.4303
  38   2.0000     -10.304533      -280.4006
  39   2.0000     -10.304118      -280.3893
  40   2.0000     -10.302838      -280.3545
  41   2.0000     -10.302204      -280.3372
  42   2.0000     -10.301622      -280.3214
  43   2.0000     -10.301563      -280.3198
  44   2.0000     -10.299224      -280.2561
  45   2.0000     -10.297389      -280.2062
  46   2.0000     -10.294750      -280.1344
  47   2.0000     -10.293171      -280.0914
  48   2.0000     -10.293027      -280.0875
  49   2.0000     -10.291659      -280.0503
  50   2.0000     -10.290797      -280.0268
  51   2.0000     -10.290361      -280.0150
  52   2.0000     -10.288956      -279.9767
  53   2.0000     -10.288312      -279.9592
  54   2.0000     -10.284558      -279.8571
  55   2.0000     -10.279621      -279.7227
  56   2.0000     -10.279299      -279.7139
  57   2.0000     -10.277111      -279.6544
  58   2.0000     -10.276170      -279.6288
  59   2.0000     -10.272183      -279.5203
  60   2.0000     -10.271577      -279.5038
  61   2.0000     -10.271116      -279.4913
  62   2.0000     -10.270836      -279.4837
  63   2.0000     -10.268107      -279.4094
  64   2.0000     -10.266769      -279.3730
  65   2.0000     -10.266322      -279.3608
  66   2.0000      -8.008217      -217.9147
  67   2.0000      -7.993487      -217.5138
  68   2.0000      -5.977044      -162.6436
  69   2.0000      -5.976680      -162.6337
  70   2.0000      -5.967576      -162.3860
  71   2.0000      -5.962438      -162.2462
  72   2.0000      -5.962052      -162.2357
  73   2.0000      -5.952528      -161.9765
  74   2.0000      -1.334813       -36.3221
  75   2.0000      -1.318369       -35.8746
  76   2.0000      -1.153312       -31.3832
  77   2.0000      -1.135965       -30.9112
  78   2.0000      -1.101536       -29.9743
  79   2.0000      -1.094927       -29.7945
  80   2.0000      -1.089463       -29.6458
  81   2.0000      -1.084157       -29.5014
  82   2.0000      -1.075755       -29.2728
  83   2.0000      -1.065032       -28.9810
  84   2.0000      -0.993251       -27.0277
  85   2.0000      -0.991530       -26.9809
  86   2.0000      -0.982115       -26.7247
  87   2.0000      -0.974202       -26.5094
  88   2.0000      -0.970652       -26.4128
  89   2.0000      -0.962255       -26.1843
  90   2.0000      -0.957989       -26.0682
  91   2.0000      -0.955485       -26.0001
  92   2.0000      -0.930331       -25.3156
  93   2.0000      -0.929791       -25.3009
  94   2.0000      -0.918130       -24.9836
  95   2.0000      -0.908659       -24.7259
  96   2.0000      -0.880766       -23.9669
  97   2.0000      -0.879795       -23.9404
  98   2.0000      -0.874200       -23.7882
  99   2.0000      -0.871853       -23.7243
 100   2.0000      -0.867495       -23.6057
 101   2.0000      -0.864709       -23.5299
 102   2.0000      -0.860928       -23.4270
 103   2.0000      -0.849418       -23.1138
 104   2.0000      -0.843757       -22.9598
 105   2.0000      -0.839457       -22.8428
 106   2.0000      -0.833037       -22.6681
 107   2.0000      -0.810621       -22.0581
 108   2.0000      -0.801492       -21.8097
 109   2.0000      -0.795572       -21.6486
 110   2.0000      -0.781695       -21.2710
 111   2.0000      -0.776368       -21.1261
 112   2.0000      -0.766087       -20.8463
 113   2.0000      -0.765164       -20.8212
 114   2.0000      -0.756806       -20.5937
 115   2.0000      -0.748748       -20.3745
 116   2.0000      -0.741347       -20.1731
 117   2.0000      -0.726738       -19.7755
 118   2.0000      -0.721791       -19.6409
 119   2.0000      -0.721242       -19.6260
 120   2.0000      -0.708043       -19.2668
 121   2.0000      -0.706981       -19.2379
 122   2.0000      -0.696016       -18.9396
 123   2.0000      -0.692615       -18.8470
 124   2.0000      -0.687431       -18.7059
 125   2.0000      -0.686692       -18.6859
 126   2.0000      -0.679799       -18.4983
 127   2.0000      -0.676327       -18.4038
 128   2.0000      -0.664453       -18.0807
 129   2.0000      -0.658298       -17.9132
 130   2.0000      -0.652333       -17.7509
 131   2.0000      -0.650817       -17.7096
 132   2.0000      -0.642106       -17.4726
 133   2.0000      -0.640311       -17.4238
 134   2.0000      -0.634247       -17.2587
 135   2.0000      -0.627948       -17.0873
 136   2.0000      -0.627048       -17.0628
 137   2.0000      -0.623169       -16.9573
 138   2.0000      -0.619676       -16.8622
 139   2.0000      -0.608823       -16.5669
 140   2.0000      -0.605242       -16.4695
 141   2.0000      -0.600938       -16.3523
 142   2.0000      -0.596943       -16.2437
 143   2.0000      -0.593485       -16.1495
 144   2.0000      -0.588256       -16.0073
 145   2.0000      -0.586947       -15.9716
 146   2.0000      -0.584134       -15.8951
 147   2.0000      -0.579901       -15.7799
 148   2.0000      -0.577209       -15.7067
 149   2.0000      -0.571368       -15.5477
 150   2.0000      -0.567415       -15.4401
 151   2.0000      -0.563195       -15.3253
 152   2.0000      -0.558733       -15.2039
 153   2.0000      -0.555924       -15.1275
 154   2.0000      -0.552279       -15.0283
 155   2.0000      -0.550237       -14.9727
 156   2.0000      -0.548600       -14.9282
 157   2.0000      -0.545992       -14.8572
 158   2.0000      -0.543078       -14.7779
 159   2.0000      -0.539117       -14.6701
 160   2.0000      -0.536490       -14.5986
 161   2.0000      -0.534601       -14.5472
 162   2.0000      -0.530747       -14.4424
 163   2.0000      -0.529698       -14.4138
 164   2.0000      -0.526742       -14.3334
 165   2.0000      -0.524992       -14.2858
 166   2.0000      -0.523365       -14.2415
 167   2.0000      -0.522241       -14.2109
 168   2.0000      -0.518118       -14.0987
 169   2.0000      -0.515827       -14.0364
 170   2.0000      -0.509961       -13.8767
 171   2.0000      -0.506406       -13.7800
 172   2.0000      -0.504782       -13.7358
 173   2.0000      -0.503027       -13.6881
 174   2.0000      -0.502184       -13.6651
 175   2.0000      -0.498132       -13.5549
 176   2.0000      -0.497029       -13.5249
 177   2.0000      -0.494025       -13.4431
 178   2.0000      -0.491385       -13.3713
 179   2.0000      -0.485299       -13.2057
 180   2.0000      -0.483551       -13.1581
 181   2.0000      -0.480909       -13.0862
 182   2.0000      -0.477185       -12.9849
 183   2.0000      -0.473665       -12.8891
 184   2.0000      -0.471106       -12.8194
 185   2.0000      -0.467265       -12.7149
 186   2.0000      -0.464411       -12.6373
 187   2.0000      -0.461906       -12.5691
 188   2.0000      -0.456690       -12.4272
 189   2.0000      -0.451374       -12.2825
 190   2.0000      -0.448468       -12.2034
 191   2.0000      -0.444364       -12.0918
 192   2.0000      -0.440374       -11.9832
 193   2.0000      -0.438439       -11.9305
 194   2.0000      -0.437567       -11.9068
 195   2.0000      -0.433969       -11.8089
 196   2.0000      -0.432678       -11.7738
 197   2.0000      -0.424567       -11.5530
 198   2.0000      -0.419026       -11.4023
 199   2.0000      -0.418222       -11.3804
 200   2.0000      -0.416322       -11.3287
 201   2.0000      -0.413071       -11.2402
 202   2.0000      -0.408351       -11.1118
 203   2.0000      -0.398485       -10.8433
 204   2.0000      -0.396952       -10.8016
 205   2.0000      -0.394892       -10.7456
 206   2.0000      -0.393384       -10.7045
 207   2.0000      -0.383830       -10.4445
 208   2.0000      -0.381151       -10.3716
 209   2.0000      -0.379471       -10.3259
 210   2.0000      -0.375844       -10.2272
 211   2.0000      -0.375382       -10.2147
 212   2.0000      -0.372159       -10.1270
 213   2.0000      -0.365019        -9.9327
 214   2.0000      -0.363873        -9.9015
 215   2.0000      -0.361998        -9.8505
 216   2.0000      -0.357241        -9.7210
 217   2.0000      -0.354844        -9.6558
 218   2.0000      -0.352283        -9.5861
 219   2.0000      -0.349605        -9.5132
 220   2.0000      -0.349234        -9.5031
 221   2.0000      -0.338614        -9.2141
 222   2.0000      -0.335305        -9.1241
 223   2.0000      -0.329349        -8.9621
 224   2.0000      -0.327724        -8.9178
 225   2.0000      -0.317393        -8.6367
 226   2.0000      -0.314938        -8.5699
 227   2.0000      -0.307382        -8.3643
 228   2.0000      -0.306864        -8.3502
 229   2.0000      -0.302854        -8.2411
 230   2.0000      -0.301121        -8.1939
 231   2.0000      -0.297857        -8.1051
 232   2.0000      -0.288629        -7.8540
 233   2.0000      -0.280487        -7.6324
 234   2.0000      -0.226756        -6.1703
 235   0.0000      -0.122579        -3.3355
 236   0.0000      -0.113310        -3.0833
 237   0.0000      -0.094705        -2.5770
 238   0.0000      -0.086145        -2.3441
 239   0.0000      -0.065799        -1.7905

MULLIKEN ATOMIC CHARGES
-----------------------
   0 C :   -0.013654
   1 C :    0.125827
   2 N :    0.248591
   3 O :   -0.238302
   4 O :   -0.247489
   5 C :   -0.142451
   6 C :    0.301071
   7 O :   -0.290412
   8 C :   -0.051562
   9 C :    0.128565
  10 C :   -0.024886
  11 C :   -0.004498
  12 C :    0.049680
  13 N :   -0.025875
  14 C :    0.003780
  15 C :   -0.005218
  16 C :   -0.019902
  17 S :   -0.113069
  18 C :   -0.015712
  19 C :    0.009789
  20 N :   -0.026696
  21 C :    0.052661
  22 C :    0.001155
  23 C :    0.081644
  24 C :   -0.115047
  25 C :    0.052175
  26 C :   -0.000537
  27 C :   -0.064189
  28 C :    0.159299
  29 N :   -0.213044
  30 C :    0.151479
  31 N :   -0.228684
  32 C :    0.106156
  33 C :   -0.111539
  34 C :    0.120041
  35 C :   -0.054828
  36 C :    0.024525
  37 C :    0.009841
  38 C :    0.043661
  39 C :   -0.014781
  40 C :    0.020940
  41 C :   -0.033624
  42 C :    0.002038
  43 C :   -0.001542
  44 C :    0.064014
  45 N :   -0.024344
  46 C :    0.034259
  47 C :   -0.002815
  48 C :   -0.003396
  49 S :   -0.122177
  50 C :   -0.010300
  51 C :   -0.011699
  52 N :   -0.022458
  53 C :    0.052718
  54 C :   -0.001848
  55 C :    0.119214
  56 C :    0.016569
  57 C :   -0.008456
  58 C :    0.112455
  59 C :   -0.080704
  60 C :   -0.106225
  61 C :    0.328710
  62 O :   -0.323058
  63 N :    0.261669
  64 O :   -0.220175
  65 O :   -0.262709
  66 H :    0.008502
  67 H :    0.012792
  68 H :    0.020834
  69 H :    0.173091
  70 H :   -0.003106
  71 H :   -0.016258
  72 H :    0.007795
  73 H :    0.009170
  74 H :   -0.031013
  75 H :   -0.024177
  76 H :   -0.013850
  77 H :   -0.019734
  78 H :    0.084978
  79 H :    0.092091
  80 H :   -0.019891
  81 H :   -0.008183
  82 H :    0.098312
  83 H :    0.092912
  84 H :   -0.002121
  85 H :    0.034517
  86 H :   -0.009120
  87 H :   -0.033035
  88 H :   -0.035588
  89 H :   -0.029078
  90 H :    0.013057
  91 H :   -0.002716
  92 H :    0.014812
  93 H :    0.016766
  94 H :   -0.016196
  95 H :    0.010530
  96 H :   -0.020653
  97 H :    0.005352
  98 H :   -0.007467
  99 H :    0.172054
Sum of atomic charges:   -0.0000000

LOEWDIN ATOMIC CHARGES
----------------------
   0 C :    0.002955
   1 C :   -0.036000
   2 N :    0.285892
   3 O :   -0.205051
   4 O :   -0.201957
   5 C :   -0.005301
   6 C :    0.069969
   7 O :   -0.134484
   8 C :    0.007041
   9 C :   -0.004824
  10 C :   -0.019857
  11 C :   -0.033475
  12 C :    0.080982
  13 N :   -0.081381
  14 C :    0.029155
  15 C :   -0.026896
  16 C :   -0.138967
  17 S :    0.083033
  18 C :   -0.049868
  19 C :    0.045675
  20 N :   -0.080452
  21 C :    0.089928
  22 C :   -0.021203
  23 C :   -0.028318
  24 C :   -0.001541
  25 C :   -0.021647
  26 C :   -0.011415
  27 C :   -0.041877
  28 C :    0.027070
  29 N :   -0.115331
  30 C :    0.029101
  31 N :   -0.120587
  32 C :   -0.015510
  33 C :    0.077068
  34 C :   -0.028080
  35 C :   -0.040121
  36 C :   -0.010790
  37 C :   -0.041148
  38 C :   -0.024379
  39 C :   -0.007364
  40 C :   -0.017498
  41 C :    0.026052
  42 C :   -0.035492
  43 C :   -0.028902
  44 C :    0.097507
  45 N :   -0.077608
  46 C :    0.045730
  47 C :   -0.042017
  48 C :   -0.137245
  49 S :    0.063438
  50 C :   -0.026799
  51 C :    0.034486
  52 N :   -0.075969
  53 C :    0.086003
  54 C :   -0.031460
  55 C :   -0.004968
  56 C :    0.001778
  57 C :    0.008356
  58 C :   -0.031736
  59 C :   -0.015409
  60 C :   -0.008126
  61 C :    0.074333
  62 O :   -0.139669
  63 N :    0.291425
  64 O :   -0.185925
  65 O :   -0.204459
  66 H :    0.041123
  67 H :    0.018580
  68 H :    0.024841
  69 H :    0.083596
  70 H :    0.027053
  71 H :    0.031053
  72 H :    0.024701
  73 H :    0.024872
  74 H :    0.018942
  75 H :    0.023345
  76 H :   -0.001034
  77 H :    0.013085
  78 H :    0.050519
  79 H :    0.055692
  80 H :   -0.001146
  81 H :    0.015702
  82 H :    0.052590
  83 H :    0.055035
  84 H :    0.032172
  85 H :    0.057067
  86 H :    0.025405
  87 H :    0.031267
  88 H :    0.028547
  89 H :    0.016341
  90 H :    0.028981
  91 H :    0.029234
  92 H :    0.027087
  93 H :    0.027903
  94 H :    0.021377
  95 H :    0.042984
  96 H :    0.031341
  97 H :    0.013534
  98 H :    0.022263
  99 H :    0.060078

  Mayer bond orders larger than 0.100000
B(  0-C ,  1-C ) :   1.3663 B(  0-C , 10-C ) :   1.3713 B(  0-C , 66-H ) :   0.9850
B(  1-C ,  2-N ) :   0.9008 B(  1-C ,  5-C ) :   1.3752 B(  2-N ,  3-O ) :   1.5630
B(  2-N ,  4-O ) :   1.5156 B(  3-O ,  4-O ) :   0.2604 B(  5-C ,  6-C ) :   1.0267
B(  5-C ,  8-C ) :   1.4032 B(  6-C ,  7-O ) :   1.0948 B(  6-C , 67-H ) :   0.9187
B(  6-C , 68-H ) :   0.9132 B(  7-O , 69-H ) :   0.9712 B(  8-C ,  9-C ) :   1.3070
B(  8-C , 70-H ) :   0.9867 B(  9-C , 10-C ) :   1.3156 B(  9-C , 11-C ) :   0.9936
B( 10-C , 71-H ) :   0.9974 B( 11-C , 12-C ) :   1.0487 B( 11-C , 15-C ) :   1.5684
B( 12-C , 13-N ) :   1.7108 B( 12-C , 72-H ) :   0.9895 B( 13-N , 14-C ) :   1.2797
B( 14-C , 15-C ) :   1.0619 B( 14-C , 19-C ) :   1.5094 B( 15-C , 16-C ) :   1.0218
B( 16-C , 17-S ) :   1.7045 B( 16-C , 18-C ) :   1.0333 B( 18-C , 19-C ) :   1.0640
B( 18-C , 22-C ) :   1.5239 B( 19-C , 20-N ) :   1.2663 B( 20-N , 21-C ) :   1.7198
B( 21-C , 22-C ) :   1.0410 B( 21-C , 73-H ) :   0.9861 B( 22-C , 23-C ) :   1.0183
B( 23-C , 24-C ) :   1.4887 B( 23-C , 40-C ) :   1.1502 B( 24-C , 25-C ) :   1.1395
B( 24-C , 74-H ) :   0.9852 B( 25-C , 26-C ) :   1.4409 B( 25-C , 38-C ) :   1.1306
B( 26-C , 27-C ) :   1.0203 B( 26-C , 32-C ) :   1.1168 B( 27-C , 28-C ) :   1.0442
B( 27-C , 30-C ) :   1.0337 B( 27-C , 75-H ) :   0.8845 B( 28-C , 29-N ) :   1.0894
B( 28-C , 76-H ) :   0.9379 B( 28-C , 77-H ) :   0.9322 B( 29-N , 78-H ) :   0.9718
B( 29-N , 79-H ) :   0.9682 B( 30-C , 31-N ) :   1.0966 B( 30-C , 80-H ) :   0.9379
B( 30-C , 81-H ) :   0.9339 B( 31-N , 82-H ) :   0.9711 B( 31-N , 83-H ) :   0.9672
B( 32-C , 33-C ) :   1.6402 B( 32-C , 37-C ) :   1.0499 B( 33-C , 34-C ) :   0.9807
B( 33-C , 84-H ) :   0.9699 B( 34-C , 35-C ) :   0.9802 B( 34-C , 41-C ) :   0.9545
B( 34-C , 85-H ) :   0.8779 B( 35-C , 36-C ) :   1.7078 B( 35-C , 86-H ) :   0.9775
B( 36-C , 37-C ) :   1.1350 B( 36-C , 87-H ) :   0.9897 B( 37-C , 38-C ) :   1.4264
B( 38-C , 39-C ) :   1.1398 B( 39-C , 40-C ) :   1.6021 B( 39-C , 88-H ) :   0.9945
B( 40-C , 89-H ) :   0.9710 B( 41-C , 42-C ) :   1.7585 B( 41-C , 90-H ) :   0.9656
B( 42-C , 43-C ) :   1.0877 B( 42-C , 91-H ) :   0.9664 B( 43-C , 44-C ) :   1.0146
B( 43-C , 47-C ) :   1.5333 B( 44-C , 45-N ) :   1.7199 B( 44-C , 92-H ) :   0.9898
B( 45-N , 46-C ) :   1.2673 B( 46-C , 47-C ) :   1.0582 B( 46-C , 51-C ) :   1.5177
B( 47-C , 48-C ) :   1.0344 B( 48-C , 49-S ) :   1.6905 B( 48-C , 50-C ) :   1.0235
B( 50-C , 51-C ) :   1.0655 B( 50-C , 54-C ) :   1.5634 B( 51-C , 52-N ) :   1.2768
B( 52-N , 53-C ) :   1.7115 B( 53-C , 54-C ) :   1.0456 B( 53-C , 93-H ) :   0.9885
B( 54-C , 55-C ) :   1.0018 B( 55-C , 56-C ) :   1.3443 B( 55-C , 60-C ) :   1.3151
B( 56-C , 57-C ) :   1.3726 B( 56-C , 94-H ) :   0.9803 B( 57-C , 58-C ) :   1.3650
B( 57-C , 95-H ) :   0.9905 B( 58-C , 59-C ) :   1.3867 B( 58-C , 63-N ) :   0.8967
B( 59-C , 60-C ) :   1.4060 B( 59-C , 61-C ) :   1.0053 B( 60-C , 96-H ) :   0.9953
B( 61-C , 62-O ) :   1.0906 B( 61-C , 97-H ) :   0.9304 B( 61-C , 98-H ) :   0.9234
B( 62-O , 99-H ) :   0.9647 B( 63-N , 64-O ) :   1.5820 B( 63-N , 65-O ) :   1.4840
B( 64-O , 65-O ) :   0.2578

-----------------------------------------------------------------------------
         ABSORPTION SPECTRUM VIA TRANSITION ELECTRIC DIPOLE MOMENTS
-----------------------------------------------------------------------------
State   Energy  Wavelength   fosc         T2         TX        TY        TZ
        (cm-1)    (nm)                  (au**2)     (au)      (au)      (au)
-----------------------------------------------------------------------------
   0    9740.8   1026.6   0.152920889   5.16831   1.42205   0.35373   1.73809
   1   11060.3    904.1   0.011113778   0.33081  -0.45455   0.31538  -0.15726
   2   13562.7    737.3   0.027277529   0.66212  -0.34000  -0.34713   0.65270
   3   15387.6    649.9   0.021713773   0.46456   0.18628  -0.02545   0.65514
   4   16520.8    605.3   0.001446041   0.02882   0.03042   0.15832   0.05315
   5   16714.2    598.3   0.003666473   0.07222   0.20321  -0.08160  -0.15577
   6   17411.5    574.3   0.081358637   1.53830   0.27422  -0.24731   1.18404
   7   18471.7    541.4   0.134443112   2.39611  -0.50171   0.08981  -1.46162
   8   18618.2    537.1   0.003183460   0.05629  -0.08194  -0.01109  -0.22238
   9   18796.0    532.0   0.116493781   2.04039  -1.05138  -0.21971  -0.94166
  10   18900.7    529.1   0.050964305   0.88770   0.42258   0.47852   0.69292
  11   21600.3    463.0   0.009235825   0.14076  -0.15972  -0.26940  -0.20658
  12   21802.1    458.7   0.009500563   0.14346   0.16175  -0.19410   0.28217
  13   24962.7    400.6   0.396669718   5.23134   1.31102   0.71301   1.73326
  14   25111.4    398.2   0.026086520   0.34200  -0.33666  -0.01724  -0.47787
  15   25455.4    392.8   0.142640221   1.84475  -0.84551   0.01678  -1.06281
  16   25670.9    389.5   0.005445714   0.06984  -0.08160   0.02345  -0.25026
  17   25733.2    388.6   0.042404265   0.54249   0.44802   0.12440   0.57122
  18   26252.1    380.9   0.190379009   2.38743  -0.94408  -0.29100  -1.18805
  19   26486.4    377.6   0.002275385   0.02828  -0.12982  -0.10469  -0.02162
  20   26830.8    372.7   0.108262869   1.32838   0.59067   0.20178   0.96890
  21   27045.9    369.7   0.011111220   0.13525  -0.24392   0.07000  -0.26618
  22   27242.0    367.1   0.277734195   3.35634   0.97633   0.41265   1.49427
  23   27327.5    365.9   0.136043465   1.63890   0.78238   0.27308   0.97581
  24   27915.5    358.2   0.049312031   0.58154   0.31353   0.20185   0.66521
  25   28559.3    350.1   0.020478380   0.23606   0.33072  -0.28160   0.21769
  26   28869.5    346.4   1.196481477  13.64401   2.29552   1.57887   2.42524
  27   29168.0    342.8   0.042987697   0.48519   0.29843  -0.45894   0.43071
  28   29441.9    339.7   0.176342506   1.97182  -1.19092   0.31013  -0.67628
  29   29571.4    338.2   0.085448565   0.95128  -0.72627   0.14831  -0.63389
  30   29768.0    335.9   0.022176676   0.24526   0.38231  -0.06936   0.30707
  31   29853.7    335.0   0.003392977   0.03742  -0.07246   0.16866  -0.06098
  32   30107.4    332.1   0.031778956   0.34749   0.46494   0.12752   0.33920
  33   30294.4    330.1   0.033699114   0.36621   0.43472   0.42091  -0.00796
  34   30471.6    328.2   0.169846449   1.83500  -1.06956  -0.08573  -0.82685
  35   31021.6    322.4   0.131810233   1.39881  -0.58635  -0.34248  -0.96836
  36   31292.8    319.6   0.015058418   0.15842  -0.26951  -0.06717  -0.28508
  37   31595.5    316.5   0.000217465   0.00227   0.03233   0.01172   0.03291
  38   31970.3    312.8   0.095402000   0.98240   0.72509   0.27777   0.61603
  39   32198.4    310.6   0.004438737   0.04538   0.12430   0.09265   0.14611
  40   32451.4    308.2   0.014379433   0.14588  -0.10452  -0.15874  -0.33129
  41   32560.2    307.1   0.003257785   0.03294  -0.03690   0.02829  -0.17543
  42   32627.9    306.5   0.003175305   0.03204   0.04834   0.02713   0.17019
  43   33556.3    298.0   0.056901645   0.55825   0.09745  -0.09626   0.73450
  44   33684.0    296.9   0.054591069   0.53355  -0.14073   0.07197  -0.71314
  45   33999.7    294.1   0.001043589   0.01010  -0.02329  -0.05021   0.08391
  46   34011.4    294.0   0.013151630   0.12730  -0.04321   0.33593   0.11218
  47   34125.4    293.0   0.006896254   0.06653   0.02495  -0.00264  -0.25671
  48   34379.7    290.9   0.016074197   0.15392  -0.15721  -0.20504  -0.29524
  49   34418.3    290.5   0.113604157   1.08663   0.67921   0.29493   0.73371
  50   34840.0    287.0   0.010474470   0.09898  -0.20243  -0.12065  -0.20843
  51   34977.5    285.9   0.001303738   0.01227  -0.07984  -0.07533  -0.01490
  52   35006.6    285.7   0.020401634   0.19186   0.03579  -0.28760   0.32843
  53   35190.8    284.2   0.071346583   0.66745  -0.09190  -0.33443   0.73971
  54   35234.5    283.8   0.002265806   0.02117  -0.03988   0.09176  -0.10564
  55   35489.9    281.8   0.006092194   0.05651   0.20411  -0.11895   0.02651
  56   35518.9    281.5   0.018920372   0.17537   0.12302  -0.36092   0.17311
  57   35634.4    280.6   0.221289117   2.04440   0.74420   0.08775   1.21773
  58   35742.9    279.8   0.205981242   1.89720   0.14748  -1.23069  -0.60072
  59   35807.0    279.3   0.024572219   0.22592   0.28488   0.25431   0.28300
  60   36043.6    277.4   0.041609663   0.38005  -0.25384   0.24541  -0.50536
  61   36181.4    276.4   0.000720540   0.00656   0.02075  -0.05930  -0.05108
  62   36343.9    275.1   0.013286496   0.12035   0.09551  -0.31127   0.11977
  63   36563.8    273.5   0.014273853   0.12852  -0.11806  -0.09005   0.32630
  64   36679.7    272.6   0.021626483   0.19410   0.06510   0.38786  -0.19858
  65   37010.7    270.2   0.205402638   1.82707  -0.00535   1.00156  -0.90769
  66   37236.0    268.6   0.038186012   0.33761  -0.00585   0.42589  -0.39522
  67   37303.9    268.1   0.035641855   0.31454  -0.09533  -0.45527   0.31335
  68   37446.6    267.0   0.066952366   0.58861  -0.25287  -0.51359  -0.51078
  69   37562.8    266.2   0.046588485   0.40832   0.20632   0.59556  -0.10513
  70   37776.5    264.7   0.103732582   0.90400   0.66325   0.24155   0.63699
  71   37995.0    263.2   0.083066521   0.71974  -0.44444  -0.71796  -0.08216
  72   38122.5    262.3   0.013084350   0.11299   0.14185   0.29719  -0.06745
  73   38400.1    260.4   0.091505185   0.78449  -0.28657  -0.81716   0.18606
  74   38720.9    258.3   0.000081795   0.00070   0.00271   0.01160   0.02352
  75   38964.3    256.6   0.157121231   1.32753  -0.57772  -0.97260  -0.21870
  76   39156.5    255.4   0.122158145   1.02706   0.56735   0.82803  -0.13977
  77   39417.6    253.7   0.140397605   1.17259  -0.16321  -1.06829  -0.06854
  78   39632.7    252.3   0.021244173   0.17647   0.29213   0.18851   0.23578
  79   40005.7    250.0   0.388329022   3.19561  -0.00457   1.72980   0.45097

FINAL SINGLE POINT ENERGY     -3607.357001005445

DIPOLE MOMENT
-------------
                                X             Y             Z
Electronic contribution:      5.63911      15.88864       3.51978
Nuclear contribution   :     -5.45161     -16.78589      -4.17145
                        -----------------------------------------
Total Dipole Moment    :      0.18750      -0.89724      -0.65167
                        -----------------------------------------
Magnitude (a.u.)       :      1.12467
Magnitude (Debye)      :      2.85868

Rotational constants in cm-1:     0.002586     0.000236     0.000225
Rotational constants in MHz :    77.538269     7.084768     6.734707

                             ****ORCA TERMINATED NORMALLY****
TOTAL RUN TIME: 0 days 0 hours 13 minutes 16 seconds 270 msec
