                         Program Version 4.2.0 -  RELEASE  -
|  1> # ORCA input file
|  2> # SCF done       -200.484215794945          0.000711772801
|  3> ! CAM-B3LYP def2-SVP def2/J RIJCOSX Grid4 TightSCF
|  4> %maxcore 5000
|  5> %tddft
|  6>     Mode sTDDFT
|  7>     Ethresh 5.0
|  8>     maxcore 5000
|  9> end
| 10>
| 11> %pal
| 12>   nprocs 6
| 13>   end
| 14> * xyz 0 1
| 15>    C        1.16020        -6.54010        -1.61413
| 16>    C        0.02510        -7.49749        -1.45659
| 17>    O       -1.13052        -7.20090        -1.24546
| 18>    C        0.61622        -8.83153        -1.65970
| 19>    C        2.00119        -8.71054        -1.77942
| 20>    C        2.38139        -7.31488        -1.59109
| 21>    C        3.62015        -6.87253        -1.21324
| 22>    C        3.88560        -5.55395        -0.79255
| 23>    N        4.14710        -4.50258        -0.41210
| 24>    C        4.76272        -7.69241        -1.11322
| 25>    N        5.73198        -8.30008        -1.01782
| 26>    C        2.79827        -9.83636        -2.02181
| 27>    C        2.19221       -11.06099        -2.12708
| 28>    C        0.79593       -11.22175        -1.98752
| 29>    C       -0.02616       -10.08189        -1.74982
| 30>    C       -1.41961       -10.24725        -1.61465
| 31>    C       -1.97621       -11.49304        -1.70712
| 32>    C       -1.17114       -12.61956        -1.94029
| 33>    C        0.18334       -12.48811        -2.07870
| 34>    C        0.89550        -5.22763        -1.82559
| 35>    C        1.74920        -4.19332        -2.31913
| 36>    C        2.88644        -4.42643        -3.13741
| 37>    N        3.36564        -5.53874        -3.65664
| 38>    O        4.43249        -5.18466        -4.37832
| 39>    N        4.66502        -3.87450        -4.34513
| 40>    C        3.72808        -3.34200        -3.58642
| 41>    C        3.45986        -1.98808        -3.23140
| 42>    C        2.30865        -1.80996        -2.48053
| 43>    C        1.48440        -2.85712        -2.06172
| 44>    C        4.34753        -0.90627        -3.60709
| 45>    C        5.66325        -1.17067        -3.92025
| 46>    C        6.55027        -0.11829        -4.20886
| 47>    C        7.90501        -0.13258        -4.51605
| 48>    C        8.75036        -1.34892        -4.67199
| 49>    C        9.26573        -1.48892        -6.11425
| 50>    N        8.13890        -1.54249        -7.03042
| 51>    C        9.91243        -1.39158        -3.66447
| 52>    N       10.56105        -2.69076        -3.71921
| 53>    C        8.30825         1.24554        -4.67240
| 54>    C        9.50099         1.81301        -4.93238
| 55>    C        9.67643         3.29092        -4.98619
| 56>    C        8.41826         4.07926        -4.78677
| 57>    C        7.22818         3.49932        -4.54546
| 58>    C        7.12136         2.09211        -4.45723
| 59>    C        6.06252         1.25235        -4.18194
| 60>    C        4.69777         1.49239        -3.90057
| 61>    C        3.87661         0.44977        -3.62005
| 62>    C       10.27444         3.71028        -6.30250
| 63>    C       11.35035         4.49753        -6.39500
| 64>    C       11.90799         5.00160        -7.62272
| 65>    C       11.39306         4.68465        -8.90970
| 66>    N       10.41343         3.89205        -9.29898
| 67>    O       10.37970         3.96137       -10.62705
| 68>    N       11.30041         4.77460       -11.13146
| 69>    C       11.96895         5.25531       -10.10276
| 70>    C       13.03684         6.18814       -10.04221
| 71>    C       13.53312         6.43411        -8.77534
| 72>    C       12.99614         5.85498        -7.61920
| 73>    C       13.56304         6.76808       -11.24486
| 74>    C       14.11975         7.99062       -11.40012
| 75>    C       14.96093         8.28410       -12.60054
| 76>    O       15.02345         7.61270       -13.60486
| 77>    C       15.71122         9.50408       -12.25401
| 78>    C       15.26084         9.99636       -11.02773
| 79>    C       14.16446         9.16349       -10.54597
| 80>    C       13.21786         9.54342        -9.63314
| 81>    C       12.03903         8.81779        -9.36014
| 82>    N       11.04240         8.30485        -9.11358
| 83>    C       13.26193        10.74819        -8.90040
| 84>    N       13.25117        11.70167        -8.26155
| 85>    C       15.83986        11.14027       -10.46187
| 86>    C       16.85009        11.77054       -11.13973
| 87>    C       17.31896        11.30757       -12.38900
| 88>    C       16.74296        10.14077       -12.97139
| 89>    C       17.21709         9.68024       -14.21653
| 90>    C       18.21983        10.35160       -14.86047
| 91>    C       18.78956        11.50226       -14.29220
| 92>    C       18.35062        11.97032       -13.08398
| 93>    H        3.86533        -9.74007        -2.13942
| 94>    H        2.79032       -11.93969        -2.32155
| 95>    H       -2.02782        -9.37452        -1.43642
| 96>    H       -3.04338       -11.61937        -1.60098
| 97>    H       -1.63184       -13.59394        -2.01017
| 98>    H        0.80490       -13.35358        -2.25815
| 99>    H       -0.13302        -4.93379        -1.63649
|100>    H        2.03993        -0.81547        -2.16062
|101>    H        0.62076        -2.61561        -1.45892
|102>    H        6.01754        -2.18848        -3.91653
|103>    H        8.11937        -2.22209        -4.47180
|104>    H        9.91682        -2.37669        -6.14859
|105>    H        9.86399        -0.61592        -6.38542
|106>    H        7.54735        -2.33862        -6.81485
|107>    H        8.46515        -1.64786        -7.98447
|108>    H        9.51363        -1.14250        -2.66574
|109>    H       10.66311        -0.64104        -3.92165
|110>    H        9.91168        -3.41906        -3.43917
|111>    H       11.34949        -2.72096        -3.08247
|112>    H       10.39291         1.22928        -5.10879
|113>    H       10.38779         3.56537        -4.19103
|114>    H        8.51994         5.15102        -4.85946
|115>    H        6.34268         4.10166        -4.40308
|116>    H        4.31994         2.50419        -3.91462
|117>    H        2.83111         0.63608        -3.42990
|118>    H        9.75062         3.38556        -7.18889
|119>    H       11.85994         4.82403        -5.49588
|120>    H       14.38618         7.08916        -8.66775
|121>    H       13.44789         6.11064        -6.67151
|122>    H       13.54886         6.13242       -12.12405
|123>    H       15.50704        11.51284        -9.50676
|124>    H       17.31024        12.65136       -10.71571
|125>    H       16.77239         8.79534       -14.64361
|126>    H       18.58157         9.99938       -15.81480
|127>    H       19.58019        12.01646       -14.81825
|128>    H       18.78692        12.85577       -12.64477
|129> *
|130>
|131>                          ****END OF INPUT****

CARTESIAN COORDINATES (ANGSTROEM)
---------------------------------
  C      1.160200   -6.540100   -1.614130
  C      0.025100   -7.497490   -1.456590
  O     -1.130520   -7.200900   -1.245460
  C      0.616220   -8.831530   -1.659700
  C      2.001190   -8.710540   -1.779420
  C      2.381390   -7.314880   -1.591090
  C      3.620150   -6.872530   -1.213240
  C      3.885600   -5.553950   -0.792550
  N      4.147100   -4.502580   -0.412100
  C      4.762720   -7.692410   -1.113220
  N      5.731980   -8.300080   -1.017820
  C      2.798270   -9.836360   -2.021810
  C      2.192210  -11.060990   -2.127080
  C      0.795930  -11.221750   -1.987520
  C     -0.026160  -10.081890   -1.749820
  C     -1.419610  -10.247250   -1.614650
  C     -1.976210  -11.493040   -1.707120
  C     -1.171140  -12.619560   -1.940290
  C      0.183340  -12.488110   -2.078700
  C      0.895500   -5.227630   -1.825590
  C      1.749200   -4.193320   -2.319130
  C      2.886440   -4.426430   -3.137410
  N      3.365640   -5.538740   -3.656640
  O      4.432490   -5.184660   -4.378320
  N      4.665020   -3.874500   -4.345130
  C      3.728080   -3.342000   -3.586420
  C      3.459860   -1.988080   -3.231400
  C      2.308650   -1.809960   -2.480530
  C      1.484400   -2.857120   -2.061720
  C      4.347530   -0.906270   -3.607090
  C      5.663250   -1.170670   -3.920250
  C      6.550270   -0.118290   -4.208860
  C      7.905010   -0.132580   -4.516050
  C      8.750360   -1.348920   -4.671990
  C      9.265730   -1.488920   -6.114250
  N      8.138900   -1.542490   -7.030420
  C      9.912430   -1.391580   -3.664470
  N     10.561050   -2.690760   -3.719210
  C      8.308250    1.245540   -4.672400
  C      9.500990    1.813010   -4.932380
  C      9.676430    3.290920   -4.986190
  C      8.418260    4.079260   -4.786770
  C      7.228180    3.499320   -4.545460
  C      7.121360    2.092110   -4.457230
  C      6.062520    1.252350   -4.181940
  C      4.697770    1.492390   -3.900570
  C      3.876610    0.449770   -3.620050
  C     10.274440    3.710280   -6.302500
  C     11.350350    4.497530   -6.395000
  C     11.907990    5.001600   -7.622720
  C     11.393060    4.684650   -8.909700
  N     10.413430    3.892050   -9.298980
  O     10.379700    3.961370  -10.627050
  N     11.300410    4.774600  -11.131460
  C     11.968950    5.255310  -10.102760
  C     13.036840    6.188140  -10.042210
  C     13.533120    6.434110   -8.775340
  C     12.996140    5.854980   -7.619200
  C     13.563040    6.768080  -11.244860
  C     14.119750    7.990620  -11.400120
  C     14.960930    8.284100  -12.600540
  O     15.023450    7.612700  -13.604860
  C     15.711220    9.504080  -12.254010
  C     15.260840    9.996360  -11.027730
  C     14.164460    9.163490  -10.545970
  C     13.217860    9.543420   -9.633140
  C     12.039030    8.817790   -9.360140
  N     11.042400    8.304850   -9.113580
  C     13.261930   10.748190   -8.900400
  N     13.251170   11.701670   -8.261550
  C     15.839860   11.140270  -10.461870
  C     16.850090   11.770540  -11.139730
  C     17.318960   11.307570  -12.389000
  C     16.742960   10.140770  -12.971390
  C     17.217090    9.680240  -14.216530
  C     18.219830   10.351600  -14.860470
  C     18.789560   11.502260  -14.292200
  C     18.350620   11.970320  -13.083980
  H      3.865330   -9.740070   -2.139420
  H      2.790320  -11.939690   -2.321550
  H     -2.027820   -9.374520   -1.436420
  H     -3.043380  -11.619370   -1.600980
  H     -1.631840  -13.593940   -2.010170
  H      0.804900  -13.353580   -2.258150
  H     -0.133020   -4.933790   -1.636490
  H      2.039930   -0.815470   -2.160620
  H      0.620760   -2.615610   -1.458920
  H      6.017540   -2.188480   -3.916530
  H      8.119370   -2.222090   -4.471800
  H      9.916820   -2.376690   -6.148590
  H      9.863990   -0.615920   -6.385420
  H      7.547350   -2.338620   -6.814850
  H      8.465150   -1.647860   -7.984470
  H      9.513630   -1.142500   -2.665740
  H     10.663110   -0.641040   -3.921650
  H      9.911680   -3.419060   -3.439170
  H     11.349490   -2.720960   -3.082470
  H     10.392910    1.229280   -5.108790
  H     10.387790    3.565370   -4.191030
  H      8.519940    5.151020   -4.859460
  H      6.342680    4.101660   -4.403080
  H      4.319940    2.504190   -3.914620
  H      2.831110    0.636080   -3.429900
  H      9.750620    3.385560   -7.188890
  H     11.859940    4.824030   -5.495880
  H     14.386180    7.089160   -8.667750
  H     13.447890    6.110640   -6.671510
  H     13.548860    6.132420  -12.124050
  H     15.507040   11.512840   -9.506760
  H     17.310240   12.651360  -10.715710
  H     16.772390    8.795340  -14.643610
  H     18.581570    9.999380  -15.814800
  H     19.580190   12.016460  -14.818250
  H     18.786920   12.855770  -12.644770

 Total Charge           Charge          ....    0
 Multiplicity           Mult            ....    1
 Number of Electrons    NEL             ....  522
 Basis Dimension        Dim             .... 1272

ORBITAL ENERGIES
----------------

  NO   OCC          E(Eh)            E(eV)
   0   2.0000     -19.357110      -526.7337
   1   2.0000     -19.351654      -526.5853
   2   2.0000     -19.223805      -523.1063
   3   2.0000     -19.213643      -522.8298
   4   2.0000     -14.482635      -394.0925
   5   2.0000     -14.481346      -394.0575
   6   2.0000     -14.479998      -394.0208
   7   2.0000     -14.474514      -393.8715
   8   2.0000     -14.421936      -392.4408
   9   2.0000     -14.421102      -392.4181
  10   2.0000     -14.409374      -392.0990
  11   2.0000     -14.408220      -392.0676
  12   2.0000     -14.376492      -391.2042
  13   2.0000     -14.363163      -390.8415
  14   2.0000     -10.374463      -282.3035
  15   2.0000     -10.363583      -282.0074
  16   2.0000     -10.352218      -281.6982
  17   2.0000     -10.349453      -281.6229
  18   2.0000     -10.335798      -281.2514
  19   2.0000     -10.332178      -281.1529
  20   2.0000     -10.327697      -281.0309
  21   2.0000     -10.327460      -281.0245
  22   2.0000     -10.324372      -280.9404
  23   2.0000     -10.323341      -280.9124
  24   2.0000     -10.322907      -280.9006
  25   2.0000     -10.322623      -280.8929
  26   2.0000     -10.320540      -280.8362
  27   2.0000     -10.315930      -280.7107
  28   2.0000     -10.315232      -280.6917
  29   2.0000     -10.312859      -280.6272
  30   2.0000     -10.311459      -280.5891
  31   2.0000     -10.310912      -280.5742
  32   2.0000     -10.310499      -280.5629
  33   2.0000     -10.309529      -280.5365
  34   2.0000     -10.308945      -280.5207
  35   2.0000     -10.305862      -280.4368
  36   2.0000     -10.303234      -280.3653
  37   2.0000     -10.302924      -280.3568
  38   2.0000     -10.302806      -280.3536
  39   2.0000     -10.302241      -280.3382
  40   2.0000     -10.301907      -280.3291
  41   2.0000     -10.301532      -280.3189
  42   2.0000     -10.300715      -280.2967
  43   2.0000     -10.300702      -280.2964
  44   2.0000     -10.299424      -280.2616
  45   2.0000     -10.297310      -280.2040
  46   2.0000     -10.294418      -280.1254
  47   2.0000     -10.292277      -280.0671
  48   2.0000     -10.291277      -280.0399
  49   2.0000     -10.290306      -280.0135
  50   2.0000     -10.289681      -279.9965
  51   2.0000     -10.289671      -279.9962
  52   2.0000     -10.289443      -279.9900
  53   2.0000     -10.288987      -279.9776
  54   2.0000     -10.288594      -279.9669
  55   2.0000     -10.288086      -279.9531
  56   2.0000     -10.286068      -279.8981
  57   2.0000     -10.285794      -279.8907
  58   2.0000     -10.285198      -279.8745
  59   2.0000     -10.282332      -279.7965
  60   2.0000     -10.281204      -279.7658
  61   2.0000     -10.280549      -279.7480
  62   2.0000     -10.279002      -279.7059
  63   2.0000     -10.278450      -279.6909
  64   2.0000     -10.276747      -279.6445
  65   2.0000     -10.273152      -279.5467
  66   2.0000     -10.272637      -279.5327
  67   2.0000     -10.270456      -279.4733
  68   2.0000     -10.269509      -279.4476
  69   2.0000     -10.267824      -279.4017
  70   2.0000     -10.267533      -279.3938
  71   2.0000     -10.267356      -279.3890
  72   2.0000     -10.266561      -279.3673
  73   2.0000     -10.262173      -279.2479
  74   2.0000     -10.261894      -279.2403
  75   2.0000     -10.259023      -279.1622
  76   2.0000     -10.258999      -279.1615
  77   2.0000     -10.258120      -279.1376
  78   2.0000      -1.311088       -35.6765
  79   2.0000      -1.303819       -35.4787
  80   2.0000      -1.139039       -30.9948
  81   2.0000      -1.128009       -30.6947
  82   2.0000      -1.026401       -27.9298
  83   2.0000      -1.016594       -27.6629
  84   2.0000      -1.014383       -27.6028
  85   2.0000      -1.007515       -27.4159
  86   2.0000      -1.006292       -27.3826
  87   2.0000      -1.005443       -27.3595
  88   2.0000      -0.999354       -27.1938
  89   2.0000      -0.998521       -27.1711
  90   2.0000      -0.993293       -27.0289
  91   2.0000      -0.986336       -26.8396
  92   2.0000      -0.980397       -26.6780
  93   2.0000      -0.974486       -26.5171
  94   2.0000      -0.962611       -26.1940
  95   2.0000      -0.961227       -26.1563
  96   2.0000      -0.945165       -25.7193
  97   2.0000      -0.941226       -25.6121
  98   2.0000      -0.932863       -25.3845
  99   2.0000      -0.925812       -25.1926
 100   2.0000      -0.922702       -25.1080
 101   2.0000      -0.921813       -25.0838
 102   2.0000      -0.915873       -24.9222
 103   2.0000      -0.911337       -24.7988
 104   2.0000      -0.904640       -24.6165
 105   2.0000      -0.895830       -24.3768
 106   2.0000      -0.887289       -24.1444
 107   2.0000      -0.879165       -23.9233
 108   2.0000      -0.869134       -23.6503
 109   2.0000      -0.863452       -23.4957
 110   2.0000      -0.856314       -23.3015
 111   2.0000      -0.848208       -23.0809
 112   2.0000      -0.842149       -22.9160
 113   2.0000      -0.835278       -22.7291
 114   2.0000      -0.831660       -22.6306
 115   2.0000      -0.827649       -22.5215
 116   2.0000      -0.820859       -22.3367
 117   2.0000      -0.801442       -21.8084
 118   2.0000      -0.785172       -21.3656
 119   2.0000      -0.779057       -21.1992
 120   2.0000      -0.771166       -20.9845
 121   2.0000      -0.766489       -20.8572
 122   2.0000      -0.763857       -20.7856
 123   2.0000      -0.757647       -20.6166
 124   2.0000      -0.755687       -20.5633
 125   2.0000      -0.754351       -20.5269
 126   2.0000      -0.743929       -20.2433
 127   2.0000      -0.731427       -19.9031
 128   2.0000      -0.719377       -19.5753
 129   2.0000      -0.715082       -19.4584
 130   2.0000      -0.714064       -19.4307
 131   2.0000      -0.708607       -19.2822
 132   2.0000      -0.705886       -19.2081
 133   2.0000      -0.701276       -19.0827
 134   2.0000      -0.692967       -18.8566
 135   2.0000      -0.685039       -18.6409
 136   2.0000      -0.681299       -18.5391
 137   2.0000      -0.673671       -18.3315
 138   2.0000      -0.670074       -18.2336
 139   2.0000      -0.668874       -18.2010
 140   2.0000      -0.659272       -17.9397
 141   2.0000      -0.657919       -17.9029
 142   2.0000      -0.647493       -17.6192
 143   2.0000      -0.645908       -17.5760
 144   2.0000      -0.635665       -17.2973
 145   2.0000      -0.635296       -17.2873
 146   2.0000      -0.630757       -17.1638
 147   2.0000      -0.623049       -16.9540
 148   2.0000      -0.619835       -16.8666
 149   2.0000      -0.617795       -16.8111
 150   2.0000      -0.613116       -16.6837
 151   2.0000      -0.607808       -16.5393
 152   2.0000      -0.604771       -16.4567
 153   2.0000      -0.598967       -16.2987
 154   2.0000      -0.595210       -16.1965
 155   2.0000      -0.593862       -16.1598
 156   2.0000      -0.593665       -16.1544
 157   2.0000      -0.587859       -15.9965
 158   2.0000      -0.582840       -15.8599
 159   2.0000      -0.582506       -15.8508
 160   2.0000      -0.579818       -15.7776
 161   2.0000      -0.573092       -15.5946
 162   2.0000      -0.570061       -15.5121
 163   2.0000      -0.567598       -15.4451
 164   2.0000      -0.565853       -15.3976
 165   2.0000      -0.559938       -15.2367
 166   2.0000      -0.557086       -15.1591
 167   2.0000      -0.552027       -15.0214
 168   2.0000      -0.543614       -14.7925
 169   2.0000      -0.541468       -14.7341
 170   2.0000      -0.537820       -14.6348
 171   2.0000      -0.534860       -14.5543
 172   2.0000      -0.530786       -14.4434
 173   2.0000      -0.530292       -14.4300
 174   2.0000      -0.528418       -14.3790
 175   2.0000      -0.527263       -14.3476
 176   2.0000      -0.525802       -14.3078
 177   2.0000      -0.521310       -14.1856
 178   2.0000      -0.518691       -14.1143
 179   2.0000      -0.516647       -14.0587
 180   2.0000      -0.515970       -14.0403
 181   2.0000      -0.513827       -13.9819
 182   2.0000      -0.511226       -13.9112
 183   2.0000      -0.510818       -13.9001
 184   2.0000      -0.509178       -13.8554
 185   2.0000      -0.507098       -13.7988
 186   2.0000      -0.506252       -13.7758
 187   2.0000      -0.503489       -13.7006
 188   2.0000      -0.501548       -13.6478
 189   2.0000      -0.498559       -13.5665
 190   2.0000      -0.496256       -13.5038
 191   2.0000      -0.493434       -13.4270
 192   2.0000      -0.490813       -13.3557
 193   2.0000      -0.489181       -13.3113
 194   2.0000      -0.484861       -13.1937
 195   2.0000      -0.482797       -13.1376
 196   2.0000      -0.481804       -13.1105
 197   2.0000      -0.479574       -13.0499
 198   2.0000      -0.478616       -13.0238
 199   2.0000      -0.475534       -12.9399
 200   2.0000      -0.473151       -12.8751
 201   2.0000      -0.470052       -12.7908
 202   2.0000      -0.468868       -12.7586
 203   2.0000      -0.466744       -12.7008
 204   2.0000      -0.466667       -12.6987
 205   2.0000      -0.459487       -12.5033
 206   2.0000      -0.456585       -12.4243
 207   2.0000      -0.456216       -12.4143
 208   2.0000      -0.451032       -12.2732
 209   2.0000      -0.448595       -12.2069
 210   2.0000      -0.446083       -12.1385
 211   2.0000      -0.445872       -12.1328
 212   2.0000      -0.443779       -12.0758
 213   2.0000      -0.441424       -12.0117
 214   2.0000      -0.439405       -11.9568
 215   2.0000      -0.438924       -11.9437
 216   2.0000      -0.436309       -11.8726
 217   2.0000      -0.434952       -11.8356
 218   2.0000      -0.434848       -11.8328
 219   2.0000      -0.434059       -11.8114
 220   2.0000      -0.432439       -11.7673
 221   2.0000      -0.432313       -11.7638
 222   2.0000      -0.427550       -11.6342
 223   2.0000      -0.424935       -11.5631
 224   2.0000      -0.424591       -11.5537
 225   2.0000      -0.421272       -11.4634
 226   2.0000      -0.418511       -11.3883
 227   2.0000      -0.413258       -11.2453
 228   2.0000      -0.412269       -11.2184
 229   2.0000      -0.409019       -11.1300
 230   2.0000      -0.405441       -11.0326
 231   2.0000      -0.403548       -10.9811
 232   2.0000      -0.402520       -10.9531
 233   2.0000      -0.400240       -10.8911
 234   2.0000      -0.399465       -10.8700
 235   2.0000      -0.397736       -10.8229
 236   2.0000      -0.391600       -10.6560
 237   2.0000      -0.385568       -10.4918
 238   2.0000      -0.383734       -10.4419
 239   2.0000      -0.380081       -10.3425
 240   2.0000      -0.378125       -10.2893
 241   2.0000      -0.372337       -10.1318
 242   2.0000      -0.368173       -10.0185
 243   2.0000      -0.365566        -9.9476
 244   2.0000      -0.361485        -9.8365
 245   2.0000      -0.360387        -9.8066
 246   2.0000      -0.349336        -9.5059
 247   2.0000      -0.345754        -9.4084
 248   2.0000      -0.339124        -9.2280
 249   2.0000      -0.332440        -9.0461
 250   2.0000      -0.328330        -8.9343
 251   2.0000      -0.321266        -8.7421
 252   2.0000      -0.317461        -8.6386
 253   2.0000      -0.306954        -8.3527
 254   2.0000      -0.305584        -8.3154
 255   2.0000      -0.299411        -8.1474
 256   2.0000      -0.288003        -7.8370
 257   2.0000      -0.282585        -7.6895
 258   2.0000      -0.279193        -7.5972
 259   2.0000      -0.274640        -7.4733
 260   2.0000      -0.218957        -5.9581
 261   0.0000      -0.098843        -2.6897
 262   0.0000      -0.093089        -2.5331
 263   0.0000      -0.078727        -2.1423
 264   0.0000      -0.067953        -1.8491
 265   0.0000      -0.058262        -1.5854

MULLIKEN ATOMIC CHARGES
-----------------------
   0 C :   -0.103927
   1 C :    0.112827
   2 O :   -0.151103
   3 C :    0.013310
   4 C :   -0.012164
   5 C :    0.304050
   6 C :   -0.317902
   7 C :   -0.212411
   8 N :    0.168416
   9 C :   -0.192481
  10 N :    0.158462
  11 C :   -0.020512
  12 C :    0.006919
  13 C :    0.078075
  14 C :    0.034192
  15 C :   -0.024486
  16 C :    0.034651
  17 C :    0.038151
  18 C :   -0.019815
  19 C :   -0.009977
  20 C :    0.099597
  21 C :   -0.069422
  22 N :    0.044430
  23 O :   -0.097037
  24 N :    0.038563
  25 C :   -0.016376
  26 C :    0.127280
  27 C :   -0.055650
  28 C :    0.001000
  29 C :    0.072619
  30 C :   -0.088366
  31 C :    0.041923
  32 C :    0.058237
  33 C :   -0.092028
  34 C :    0.149541
  35 N :   -0.217051
  36 C :    0.148454
  37 N :   -0.215989
  38 C :    0.102928
  39 C :   -0.141989
  40 C :    0.131021
  41 C :   -0.038934
  42 C :    0.028717
  43 C :    0.006461
  44 C :    0.040591
  45 C :    0.000045
  46 C :   -0.029876
  47 C :   -0.028672
  48 C :   -0.029020
  49 C :    0.126934
  50 C :   -0.019336
  51 N :    0.042598
  52 O :   -0.090949
  53 N :    0.064578
  54 C :   -0.014395
  55 C :    0.012973
  56 C :   -0.001534
  57 C :   -0.042034
  58 C :    0.017730
  59 C :   -0.102545
  60 C :    0.116274
  61 O :   -0.140173
  62 C :    0.012345
  63 C :   -0.010397
  64 C :    0.261304
  65 C :   -0.341673
  66 C :   -0.186876
  67 N :    0.176633
  68 C :   -0.183928
  69 N :    0.163650
  70 C :   -0.019856
  71 C :    0.007609
  72 C :    0.076752
  73 C :    0.033085
  74 C :   -0.023391
  75 C :    0.039788
  76 C :    0.037002
  77 C :   -0.017491
  78 H :    0.003922
  79 H :   -0.014223
  80 H :   -0.001518
  81 H :   -0.007081
  82 H :   -0.008754
  83 H :   -0.021946
  84 H :    0.015924
  85 H :   -0.011163
  86 H :   -0.006460
  87 H :   -0.014345
  88 H :   -0.024740
  89 H :    0.000263
  90 H :   -0.025332
  91 H :    0.089872
  92 H :    0.089666
  93 H :   -0.002667
  94 H :   -0.025354
  95 H :    0.094285
  96 H :    0.091387
  97 H :    0.001691
  98 H :    0.032423
  99 H :   -0.007923
 100 H :   -0.033739
 101 H :   -0.037640
 102 H :   -0.029773
 103 H :    0.041865
 104 H :   -0.028796
 105 H :    0.000392
 106 H :   -0.012931
 107 H :    0.038858
 108 H :    0.000821
 109 H :   -0.011249
 110 H :    0.002352
 111 H :   -0.004554
 112 H :   -0.003548
 113 H :   -0.019937
Sum of atomic charges:   -0.0000000

LOEWDIN ATOMIC CHARGES
----------------------
   0 C :   -0.077177
   1 C :    0.089752
   2 O :   -0.142845
   3 C :   -0.035427
   4 C :    0.002524
   5 C :    0.075750
   6 C :   -0.129761
   7 C :   -0.018189
   8 N :   -0.055103
   9 C :   -0.018153
  10 N :   -0.052984
  11 C :   -0.015453
  12 C :    0.019282
  13 C :   -0.010312
  14 C :   -0.002611
  15 C :   -0.002918
  16 C :   -0.013592
  17 C :   -0.014418
  18 C :   -0.012663
  19 C :    0.060696
  20 C :   -0.054039
  21 C :   -0.045600
  22 N :   -0.027914
  23 O :    0.071603
  24 N :   -0.015488
  25 C :   -0.038831
  26 C :    0.020490
  27 C :   -0.022971
  28 C :    0.036790
  29 C :   -0.036251
  30 C :    0.023321
  31 C :   -0.020551
  32 C :    0.001004
  33 C :   -0.041129
  34 C :    0.025408
  35 N :   -0.119870
  36 C :    0.027125
  37 N :   -0.116980
  38 C :   -0.008249
  39 C :    0.066874
  40 C :   -0.029515
  41 C :   -0.032695
  42 C :   -0.011748
  43 C :   -0.033976
  44 C :   -0.028209
  45 C :   -0.005731
  46 C :   -0.029549
  47 C :    0.029856
  48 C :   -0.044213
  49 C :    0.005149
  50 C :   -0.041765
  51 N :   -0.017595
  52 O :    0.082302
  53 N :   -0.019076
  54 C :   -0.043320
  55 C :   -0.047088
  56 C :    0.020023
  57 C :   -0.014681
  58 C :    0.075438
  59 C :   -0.075377
  60 C :    0.087572
  61 O :   -0.133091
  62 C :   -0.031779
  63 C :   -0.005903
  64 C :    0.066157
  65 C :   -0.132248
  66 C :   -0.017005
  67 N :   -0.040840
  68 C :   -0.021396
  69 N :   -0.046118
  70 C :   -0.018154
  71 C :    0.020949
  72 C :   -0.008658
  73 C :   -0.003002
  74 C :   -0.000801
  75 C :   -0.010284
  76 C :   -0.010459
  77 C :   -0.011721
  78 H :    0.040539
  79 H :    0.035111
  80 H :    0.034892
  81 H :    0.032127
  82 H :    0.031175
  83 H :    0.029914
  84 H :    0.046315
  85 H :    0.034739
  86 H :    0.039134
  87 H :    0.025061
  88 H :    0.024018
  89 H :    0.001937
  90 H :    0.009804
  91 H :    0.052287
  92 H :    0.054375
  93 H :    0.003956
  94 H :    0.011754
  95 H :    0.054187
  96 H :    0.055531
  97 H :    0.027882
  98 H :    0.056028
  99 H :    0.026576
 100 H :    0.030992
 101 H :    0.027609
 102 H :    0.024036
 103 H :    0.035078
 104 H :    0.027718
 105 H :    0.036444
 106 H :    0.035150
 107 H :    0.053245
 108 H :    0.039591
 109 H :    0.036388
 110 H :    0.036287
 111 H :    0.033569
 112 H :    0.033043
 113 H :    0.030921

  Mayer bond orders larger than 0.100000
B(  0-C ,  1-C ) :   0.9520 B(  0-C ,  5-C ) :   1.0223 B(  0-C , 19-C ) :   1.6956
B(  1-C ,  2-O ) :   2.1932 B(  1-C ,  3-C ) :   0.9414 B(  3-C ,  4-C ) :   1.4147
B(  3-C , 14-C ) :   1.2343 B(  4-C ,  5-C ) :   1.0086 B(  4-C , 11-C ) :   1.2613
B(  5-C ,  6-C ) :   1.6531 B(  6-C ,  7-C ) :   1.1658 B(  6-C ,  9-C ) :   1.1387
B(  7-C ,  8-N ) :   3.0062 B(  9-C , 10-N ) :   2.9991 B( 11-C , 12-C ) :   1.4682
B( 11-C , 78-H ) :   0.9860 B( 12-C , 13-C ) :   1.2239 B( 12-C , 79-H ) :   0.9933
B( 13-C , 14-C ) :   1.2423 B( 13-C , 18-C ) :   1.2397 B( 14-C , 15-C ) :   1.2767
B( 15-C , 16-C ) :   1.4751 B( 15-C , 80-H ) :   0.9861 B( 16-C , 17-C ) :   1.2548
B( 16-C , 81-H ) :   0.9876 B( 17-C , 18-C ) :   1.4964 B( 17-C , 82-H ) :   0.9893
B( 18-C , 83-H ) :   0.9971 B( 19-C , 20-C ) :   1.0726 B( 19-C , 84-H ) :   0.9431
B( 20-C , 21-C ) :   1.1311 B( 20-C , 26-C ) :   0.1002 B( 20-C , 28-C ) :   1.4406
B( 21-C , 22-N ) :   1.6015 B( 21-C , 25-C ) :   1.1401 B( 22-N , 23-O ) :   1.0503
B( 22-N , 24-N ) :   0.1721 B( 23-O , 24-N ) :   1.0696 B( 24-N , 25-C ) :   1.5897
B( 25-C , 26-C ) :   1.1338 B( 26-C , 27-C ) :   1.4748 B( 26-C , 29-C ) :   1.0442
B( 27-C , 28-C ) :   1.2199 B( 27-C , 85-H ) :   0.9886 B( 28-C , 86-H ) :   0.9932
B( 29-C , 30-C ) :   1.5260 B( 29-C , 46-C ) :   1.1122 B( 30-C , 31-C ) :   1.1437
B( 30-C , 87-H ) :   0.9764 B( 31-C , 32-C ) :   1.4880 B( 31-C , 44-C ) :   1.1189
B( 32-C , 33-C ) :   1.0080 B( 32-C , 38-C ) :   1.0900 B( 33-C , 34-C ) :   1.0380
B( 33-C , 36-C ) :   1.0437 B( 33-C , 88-H ) :   0.8932 B( 34-C , 35-N ) :   1.0782
B( 34-C , 89-H ) :   0.9355 B( 34-C , 90-H ) :   0.9338 B( 35-N , 91-H ) :   0.9706
B( 35-N , 92-H ) :   0.9698 B( 36-C , 37-N ) :   1.0860 B( 36-C , 93-H ) :   0.9468
B( 36-C , 94-H ) :   0.9268 B( 37-N , 95-H ) :   0.9694 B( 37-N , 96-H ) :   0.9672
B( 38-C , 39-C ) :   1.6442 B( 38-C , 43-C ) :   1.0484 B( 39-C , 40-C ) :   0.9627
B( 39-C , 97-H ) :   0.9739 B( 40-C , 41-C ) :   0.9869 B( 40-C , 47-C ) :   0.9478
B( 40-C , 98-H ) :   0.8686 B( 41-C , 42-C ) :   1.7049 B( 41-C , 99-H ) :   0.9744
B( 42-C , 43-C ) :   1.1332 B( 42-C ,100-H ) :   0.9886 B( 43-C , 44-C ) :   1.4472
B( 44-C , 45-C ) :   1.1371 B( 45-C , 46-C ) :   1.6228 B( 45-C ,101-H ) :   0.9900
B( 46-C ,102-H ) :   0.9802 B( 47-C , 48-C ) :   1.7711 B( 47-C ,103-H ) :   0.9472
B( 48-C , 49-C ) :   1.0992 B( 48-C ,104-H ) :   0.9719 B( 49-C , 50-C ) :   1.1117
B( 49-C , 55-C ) :   0.1114 B( 49-C , 57-C ) :   1.4793 B( 50-C , 51-N ) :   1.5902
B( 50-C , 54-C ) :   1.1503 B( 51-N , 52-O ) :   1.0659 B( 51-N , 53-N ) :   0.1814
B( 52-O , 53-N ) :   1.0654 B( 53-N , 54-C ) :   1.6369 B( 54-C , 55-C ) :   1.1531
B( 55-C , 56-C ) :   1.4823 B( 55-C , 58-C ) :   1.0385 B( 56-C , 57-C ) :   1.2070
B( 56-C ,105-H ) :   0.9928 B( 57-C ,106-H ) :   0.9981 B( 58-C , 59-C ) :   1.7227
B( 58-C ,107-H ) :   0.9460 B( 59-C , 60-C ) :   0.9444 B( 59-C , 64-C ) :   1.0062
B( 60-C , 61-O ) :   2.2094 B( 60-C , 62-C ) :   0.9387 B( 62-C , 63-C ) :   1.4124
B( 62-C , 73-C ) :   1.2352 B( 63-C , 64-C ) :   1.0075 B( 63-C , 70-C ) :   1.2574
B( 64-C , 65-C ) :   1.6630 B( 65-C , 66-C ) :   1.1644 B( 65-C , 68-C ) :   1.1288
B( 66-C , 67-N ) :   3.0019 B( 68-C , 69-N ) :   2.9963 B( 70-C , 71-C ) :   1.4727
B( 70-C ,108-H ) :   0.9859 B( 71-C , 72-C ) :   1.2209 B( 71-C ,109-H ) :   0.9940
B( 72-C , 73-C ) :   1.2439 B( 72-C , 77-C ) :   1.2421 B( 73-C , 74-C ) :   1.2747
B( 74-C , 75-C ) :   1.4752 B( 74-C ,110-H ) :   0.9871 B( 75-C , 76-C ) :   1.2568
B( 75-C ,111-H ) :   0.9871 B( 76-C , 77-C ) :   1.4931 B( 76-C ,112-H ) :   0.9894
B( 77-C ,113-H ) :   0.9980

-----------------------------------------------------------------------------
         ABSORPTION SPECTRUM VIA TRANSITION ELECTRIC DIPOLE MOMENTS
-----------------------------------------------------------------------------
State   Energy  Wavelength   fosc         T2         TX        TY        TZ
        (cm-1)    (nm)                  (au**2)     (au)      (au)      (au)
-----------------------------------------------------------------------------
   0   12003.9    833.1   0.183140526   5.02272   1.64409   1.29055  -0.80880
   1   14867.6    672.6   0.036328569   0.80442  -0.50338  -0.42489   0.60868
   2   16685.2    599.3   0.526480675  10.38788  -1.22349  -2.85789   0.85053
   3   21294.8    469.6   0.020620293   0.31878  -0.18328  -0.48513   0.22325
   4   21645.6    462.0   0.023733778   0.36097  -0.03610  -0.51729   0.30344
   5   22137.6    451.7   0.765003810  11.37650  -1.66887  -2.49999   1.53016
   6   22933.2    436.0   0.398553094   5.72133   1.25835   1.94154  -0.60689
   7   23898.7    418.4   0.036978162   0.50939  -0.28807  -0.64066   0.12633
   8   25697.0    389.2   0.098938463   1.26753  -0.73609  -0.83097  -0.18762
   9   26273.3    380.6   0.027642949   0.34637   0.06207  -0.57892   0.08588
  10   26679.6    374.8   0.023861011   0.29443  -0.09694  -0.47107   0.25124
  11   27227.9    367.3   0.038572780   0.46638  -0.56736  -0.17766   0.33604
  12   27688.4    361.2   0.579033245   6.88465  -1.82170  -1.24257   1.42200
  13   28106.4    355.8   0.029650941   0.34730  -0.39637  -0.30716  -0.30959
  14   28413.3    351.9   0.000332215   0.00385   0.04237   0.04476  -0.00709
  15   29163.3    342.9   0.003540523   0.03997  -0.17842  -0.06692  -0.06046
  16   29196.5    342.5   0.027774229   0.31318  -0.10195  -0.39963  -0.37826
  17   29615.9    337.7   0.029544780   0.32842   0.44822  -0.35442   0.04365
  18   29867.9    334.8   0.015298015   0.16862  -0.35849   0.19460   0.04722
  19   29912.7    334.3   0.030529147   0.33600  -0.49112  -0.19466   0.23854
  20   30183.2    331.3   0.147367311   1.60736  -1.26189   0.08400  -0.08911
  21   30323.4    329.8   0.073027822   0.79284  -0.04882  -0.88901  -0.01067
  22   30691.9    325.8   0.024815021   0.26617   0.45819  -0.15861  -0.17629
  23   30766.6    325.0   0.003217954   0.03443   0.10252  -0.09912  -0.11874
  24   31441.2    318.1   0.269655971   2.82349  -0.80158   0.30094   1.44582
  25   31615.1    316.3   0.100683223   1.04843  -0.75381  -0.68936   0.07053
  26   31921.3    313.3   0.576359813   5.94413  -1.96672  -0.68005   1.27031
  27   32004.4    312.5   0.219406624   2.25692   1.43941   0.33026   0.27559
  28   32914.6    303.8   0.433970369   4.34058  -1.03625  -1.80565  -0.07988
  29   33024.8    302.8   0.019777877   0.19716  -0.27854  -0.25702   0.23133
  30   33663.0    297.1   0.013539202   0.13241  -0.17884  -0.04101  -0.31423
  31   34176.6    292.6   0.179145563   1.72565   1.04315   0.32519  -0.72921
  32   34278.5    291.7   0.006118146   0.05876   0.22400  -0.09117   0.01640
  33   34584.1    289.2   0.145729737   1.38723   0.90830   0.64558  -0.38137
  34   34923.9    286.3   0.072236420   0.68094  -0.47624  -0.65891   0.14130
  35   34955.9    286.1   0.000065179   0.00061   0.01743   0.01614  -0.00705
  36   35389.5    282.6   0.000971843   0.00904  -0.00295  -0.09331  -0.01802
  37   35631.2    280.7   0.003694010   0.03413   0.17265  -0.03548  -0.05535
  38   35888.7    278.6   0.041075319   0.37679  -0.57043   0.03668   0.22374
  39   36044.6    277.4   0.001302129   0.01189   0.03902  -0.05415   0.08625
  40   36191.0    276.3   0.003774182   0.03433   0.15259  -0.06488  -0.08269
  41   36232.1    276.0   0.118521837   1.07691   0.39281   0.94156   0.18996
  42   36641.8    272.9   0.171780436   1.54338   0.52977   1.01903   0.47360
  43   36724.0    272.3   0.261097005   2.34060  -1.13488  -1.01994  -0.11122
  44   36854.5    271.3   0.006369187   0.05689  -0.01584   0.22515   0.07713
  45   37619.5    265.8   0.021704873   0.18994  -0.06891   0.42961   0.02512
  46   38014.6    263.1   0.268917214   2.32886   1.39591   0.38507  -0.48169
  47   38029.9    263.0   0.060378661   0.52268   0.16549   0.69523  -0.10928
  48   38292.9    261.1   0.042680899   0.36694  -0.54252  -0.12932  -0.23639
  49   38645.2    258.8   0.012444857   0.10602   0.19479  -0.04214  -0.25748
  50   38892.2    257.1   0.128988294   1.09185  -0.26029   0.41189   0.92436
  51   39260.3    254.7   0.013557361   0.11368  -0.23403  -0.23411   0.06407
  52   39547.1    252.9   0.013726299   0.11427   0.13540  -0.16214  -0.26390
  53   39550.6    252.8   0.006183069   0.05147   0.15481   0.12074  -0.11368
  54   39700.3    251.9   0.032881037   0.27266  -0.07702   0.43149   0.28381
  55   40154.0    249.0   0.011127430   0.09123  -0.18775  -0.10568  -0.21169
  56   40249.0    248.5   0.040162208   0.32850  -0.52580  -0.12232  -0.19254

FINAL SINGLE POINT ENERGY     -3304.404933166479

DIPOLE MOMENT
-------------
                                X             Y             Z
Electronic contribution:    -13.99051       8.31555      -6.98118
Nuclear contribution   :     16.16993      -7.40419       6.70648
                        -----------------------------------------
Total Dipole Moment    :      2.17941       0.91137      -0.27470
                        -----------------------------------------
Magnitude (a.u.)       :      2.37821
Magnitude (Debye)      :      6.04494

Rotational constants in cm-1:     0.003376     0.000171     0.000169
Rotational constants in MHz :   101.217029     5.137882     5.053152

                             ****ORCA TERMINATED NORMALLY****
TOTAL RUN TIME: 0 days 0 hours 13 minutes 29 seconds 492 msec
