                         Program Version 4.2.0 -  RELEASE  -
|  1> # ORCA input file
|  2> # SCF done       -201.039525935968          0.000484876714
|  3> ! CAM-B3LYP def2-SVP def2/J RIJCOSX Grid4 TightSCF
|  4> %maxcore 5000
|  5> %tddft
|  6>     Mode sTDDFT
|  7>     Ethresh 5.0
|  8>     maxcore 5000
|  9> end
| 10>
| 11> %pal
| 12>   nprocs 6
| 13>   end
| 14> * xyz 0 1
| 15>    C      -20.30438         4.67903        -0.44290
| 16>    C      -21.09284         4.85379         0.67211
| 17>    C      -22.45872         5.19692         0.62905
| 18>    N      -23.57321         5.47263         0.67571
| 19>    C      -20.68193         4.72223         2.01173
| 20>    N      -20.42991         4.63789         3.13156
| 21>    C      -20.77190         4.82633        -1.81897
| 22>    C      -19.68538         4.56374        -2.68883
| 23>    C      -19.79710         4.62308        -4.05608
| 24>    C      -21.04376         4.95908        -4.59451
| 25>    C      -22.12288         5.21926        -3.71949
| 26>    C      -22.00871         5.15840        -2.33411
| 27>    S      -23.56510         5.61500        -4.60114
| 28>    C      -22.72642         5.43234        -6.10318
| 29>    C      -21.42751         5.09099        -5.95906
| 30>    C      -18.49355         4.24073        -1.88947
| 31>    O      -17.39212         3.96035        -2.35759
| 32>    C      -18.90279         4.32650        -0.48888
| 33>    C      -18.12378         4.12606         0.63877
| 34>    C      -16.78203         3.80101         0.77705
| 35>    N      -15.86329         3.57755        -0.23445
| 36>    C      -14.64636         3.30106         0.25115
| 37>    C      -14.70810         3.32853         1.64175
| 38>    C      -16.04883         3.63898         1.97320
| 39>    N      -16.16001         3.68913         3.31825
| 40>    C      -14.93019         3.42470         3.86194
| 41>    C      -13.98920         3.19439         2.87580
| 42>    C      -12.59102         2.90611         2.99926
| 43>    C      -11.90215         2.91017         4.15615
| 44>    C      -10.48714         2.68213         4.31852
| 45>    C       -9.90423         2.96709         5.53146
| 46>    C       -8.51115         2.83576         5.70869
| 47>    C       -7.69686         3.11790         6.79330
| 48>    C       -8.15456         3.59272         8.13464
| 49>    C       -7.60873         2.72296         9.27713
| 50>    N       -7.74266         1.31396         8.94310
| 51>    C       -7.80499         5.07513         8.34967
| 52>    N       -8.64192         5.88871         7.48504
| 53>    C       -6.33921         2.87060         6.37128
| 54>    C       -5.15328         3.08064         6.97181
| 55>    C       -3.85988         2.72519         6.31942
| 56>    C       -3.98919         2.19101         4.92868
| 57>    C       -5.17734         2.03457         4.31816
| 58>    C       -6.37956         2.37173         4.98588
| 59>    C       -7.69949         2.37010         4.59097
| 60>    C       -8.33199         2.03336         3.36986
| 61>    C       -9.67194         2.18944         3.24264
| 62>    C       -3.19291         1.70829         7.21314
| 63>    C       -2.07871         1.94760         7.91058
| 64>    C       -1.43389         1.02770         8.79483
| 65>    N       -0.28036         1.35744         9.46945
| 66>    C        0.15762         0.35631        10.27277
| 67>    C       -0.73051        -0.68918        10.13583
| 68>    C       -1.72389        -0.26682         9.20561
| 69>    N       -2.60450        -1.29881         9.02073
| 70>    C       -2.20465        -2.34749         9.77991
| 71>    C       -1.05866        -2.04121        10.50686
| 72>    C       -0.39688        -2.90809        11.40319
| 73>    C        0.62161        -2.54072        12.23585
| 74>    C        1.23019        -3.46830        13.09341
| 75>    C        2.17589        -3.30519        14.07478
| 76>    C        2.96895        -2.19582        14.54098
| 77>    C        3.36162        -1.06810        13.85856
| 78>    C        4.15441        -0.04123        14.41119
| 79>    N        4.77534         0.84983        14.78653
| 80>    C        3.13225        -0.77903        12.50312
| 81>    N        3.04246        -0.45048        11.40440
| 82>    C        3.46197        -2.54339        15.87588
| 83>    C        3.15204        -3.90039        16.14031
| 84>    C        2.37962        -4.44127        15.00749
| 85>    O        1.95877        -5.57175        14.87368
| 86>    C        3.52000        -4.53246        17.30238
| 87>    C        4.21813        -3.78787        18.25874
| 88>    C        4.50667        -2.42942        17.99489
| 89>    C        4.14105        -1.79163        16.81462
| 90>    S        5.36086        -1.69967        19.31927
| 91>    C        5.32903        -3.19240        20.19378
| 92>    C        4.70792        -4.19303        19.53292
| 93>    H      -18.94910         4.41765        -4.69105
| 94>    H      -22.86332         5.36687        -1.71285
| 95>    H      -23.26769         5.59483        -7.01492
| 96>    H      -20.75137         4.93469        -6.78023
| 97>    H      -18.62707         4.24625         1.58779
| 98>    H      -16.16345         3.64486        -1.21601
| 99>    H      -13.81860         3.10421        -0.40242
|100>    H      -16.99796         3.88179         3.84324
|101>    H      -14.80677         3.41348         4.92677
|102>    H      -12.08961         2.70666         2.06276
|103>    H      -12.43152         3.15245         5.06877
|104>    H      -10.51254         3.33766         6.34462
|105>    H       -9.24717         3.52523         8.15552
|106>    H       -8.13721         3.00382        10.20537
|107>    H       -6.54508         2.91901         9.43466
|108>    H       -8.70514         1.10503         8.69838
|109>    H       -7.49259         0.73897         9.74049
|110>    H       -6.72530         5.22299         8.18057
|111>    H       -8.02728         5.35595         9.38434
|112>    H       -8.50321         5.61470         6.51713
|113>    H       -8.39903         6.86939         7.57145
|114>    H       -5.07185         3.48849         7.96910
|115>    H       -3.22165         3.62064         6.29858
|116>    H       -3.06365         1.92943         4.43789
|117>    H       -5.23089         1.65451         3.30763
|118>    H       -7.73643         1.66177         2.54813
|119>    H      -10.15302         1.92911         2.31269
|120>    H       -3.70244         0.75908         7.27687
|121>    H       -1.59513         2.91368         7.82223
|122>    H        0.18873         2.24262         9.36498
|123>    H        1.06986         0.44417        10.82726
|124>    H       -3.41742        -1.28902         8.42751
|125>    H       -2.75997        -3.26669         9.78436
|126>    H       -0.74611        -3.93358        11.42699
|127>    H        0.93046        -1.50954        12.24669
|128>    H        0.84875        -4.48512        13.03941
|129>    H        3.27507        -5.56999        17.46911
|130>    H        4.38104        -0.75194        16.66836
|131>    H        5.78490        -3.22654        21.16420
|132>    H        4.59178        -5.18925        19.92007
|133> *
|134>
|135>                          ****END OF INPUT****

CARTESIAN COORDINATES (ANGSTROEM)
---------------------------------
  C    -20.304380    4.679030   -0.442900
  C    -21.092840    4.853790    0.672110
  C    -22.458720    5.196920    0.629050
  N    -23.573210    5.472630    0.675710
  C    -20.681930    4.722230    2.011730
  N    -20.429910    4.637890    3.131560
  C    -20.771900    4.826330   -1.818970
  C    -19.685380    4.563740   -2.688830
  C    -19.797100    4.623080   -4.056080
  C    -21.043760    4.959080   -4.594510
  C    -22.122880    5.219260   -3.719490
  C    -22.008710    5.158400   -2.334110
  S    -23.565100    5.615000   -4.601140
  C    -22.726420    5.432340   -6.103180
  C    -21.427510    5.090990   -5.959060
  C    -18.493550    4.240730   -1.889470
  O    -17.392120    3.960350   -2.357590
  C    -18.902790    4.326500   -0.488880
  C    -18.123780    4.126060    0.638770
  C    -16.782030    3.801010    0.777050
  N    -15.863290    3.577550   -0.234450
  C    -14.646360    3.301060    0.251150
  C    -14.708100    3.328530    1.641750
  C    -16.048830    3.638980    1.973200
  N    -16.160010    3.689130    3.318250
  C    -14.930190    3.424700    3.861940
  C    -13.989200    3.194390    2.875800
  C    -12.591020    2.906110    2.999260
  C    -11.902150    2.910170    4.156150
  C    -10.487140    2.682130    4.318520
  C     -9.904230    2.967090    5.531460
  C     -8.511150    2.835760    5.708690
  C     -7.696860    3.117900    6.793300
  C     -8.154560    3.592720    8.134640
  C     -7.608730    2.722960    9.277130
  N     -7.742660    1.313960    8.943100
  C     -7.804990    5.075130    8.349670
  N     -8.641920    5.888710    7.485040
  C     -6.339210    2.870600    6.371280
  C     -5.153280    3.080640    6.971810
  C     -3.859880    2.725190    6.319420
  C     -3.989190    2.191010    4.928680
  C     -5.177340    2.034570    4.318160
  C     -6.379560    2.371730    4.985880
  C     -7.699490    2.370100    4.590970
  C     -8.331990    2.033360    3.369860
  C     -9.671940    2.189440    3.242640
  C     -3.192910    1.708290    7.213140
  C     -2.078710    1.947600    7.910580
  C     -1.433890    1.027700    8.794830
  N     -0.280360    1.357440    9.469450
  C      0.157620    0.356310   10.272770
  C     -0.730510   -0.689180   10.135830
  C     -1.723890   -0.266820    9.205610
  N     -2.604500   -1.298810    9.020730
  C     -2.204650   -2.347490    9.779910
  C     -1.058660   -2.041210   10.506860
  C     -0.396880   -2.908090   11.403190
  C      0.621610   -2.540720   12.235850
  C      1.230190   -3.468300   13.093410
  C      2.175890   -3.305190   14.074780
  C      2.968950   -2.195820   14.540980
  C      3.361620   -1.068100   13.858560
  C      4.154410   -0.041230   14.411190
  N      4.775340    0.849830   14.786530
  C      3.132250   -0.779030   12.503120
  N      3.042460   -0.450480   11.404400
  C      3.461970   -2.543390   15.875880
  C      3.152040   -3.900390   16.140310
  C      2.379620   -4.441270   15.007490
  O      1.958770   -5.571750   14.873680
  C      3.520000   -4.532460   17.302380
  C      4.218130   -3.787870   18.258740
  C      4.506670   -2.429420   17.994890
  C      4.141050   -1.791630   16.814620
  S      5.360860   -1.699670   19.319270
  C      5.329030   -3.192400   20.193780
  C      4.707920   -4.193030   19.532920
  H    -18.949100    4.417650   -4.691050
  H    -22.863320    5.366870   -1.712850
  H    -23.267690    5.594830   -7.014920
  H    -20.751370    4.934690   -6.780230
  H    -18.627070    4.246250    1.587790
  H    -16.163450    3.644860   -1.216010
  H    -13.818600    3.104210   -0.402420
  H    -16.997960    3.881790    3.843240
  H    -14.806770    3.413480    4.926770
  H    -12.089610    2.706660    2.062760
  H    -12.431520    3.152450    5.068770
  H    -10.512540    3.337660    6.344620
  H     -9.247170    3.525230    8.155520
  H     -8.137210    3.003820   10.205370
  H     -6.545080    2.919010    9.434660
  H     -8.705140    1.105030    8.698380
  H     -7.492590    0.738970    9.740490
  H     -6.725300    5.222990    8.180570
  H     -8.027280    5.355950    9.384340
  H     -8.503210    5.614700    6.517130
  H     -8.399030    6.869390    7.571450
  H     -5.071850    3.488490    7.969100
  H     -3.221650    3.620640    6.298580
  H     -3.063650    1.929430    4.437890
  H     -5.230890    1.654510    3.307630
  H     -7.736430    1.661770    2.548130
  H    -10.153020    1.929110    2.312690
  H     -3.702440    0.759080    7.276870
  H     -1.595130    2.913680    7.822230
  H      0.188730    2.242620    9.364980
  H      1.069860    0.444170   10.827260
  H     -3.417420   -1.289020    8.427510
  H     -2.759970   -3.266690    9.784360
  H     -0.746110   -3.933580   11.426990
  H      0.930460   -1.509540   12.246690
  H      0.848750   -4.485120   13.039410
  H      3.275070   -5.569990   17.469110
  H      4.381040   -0.751940   16.668360
  H      5.784900   -3.226540   21.164200
  H      4.591780   -5.189250   19.920070

 Total Charge           Charge          ....    0
 Multiplicity           Mult            ....    1
 Number of Electrons    NEL             ....  542
 Basis Dimension        Dim             .... 1300

ORBITAL ENERGIES
----------------

  NO   OCC          E(Eh)            E(eV)
   0   2.0000     -88.959195     -2420.7028
   1   2.0000     -88.956593     -2420.6320
   2   2.0000     -19.214667      -522.8577
   3   2.0000     -19.196574      -522.3653
   4   2.0000     -14.476438      -393.9239
   5   2.0000     -14.473053      -393.8318
   6   2.0000     -14.463449      -393.5705
   7   2.0000     -14.461271      -393.5112
   8   2.0000     -14.408019      -392.0621
   9   2.0000     -14.406223      -392.0133
  10   2.0000     -14.402425      -391.9099
  11   2.0000     -14.400211      -391.8497
  12   2.0000     -14.377775      -391.2391
  13   2.0000     -14.371118      -391.0580
  14   2.0000     -10.362873      -281.9881
  15   2.0000     -10.346896      -281.5534
  16   2.0000     -10.329327      -281.0753
  17   2.0000     -10.328954      -281.0651
  18   2.0000     -10.327916      -281.0369
  19   2.0000     -10.326443      -280.9968
  20   2.0000     -10.325298      -280.9656
  21   2.0000     -10.324163      -280.9348
  22   2.0000     -10.313400      -280.6419
  23   2.0000     -10.313160      -280.6353
  24   2.0000     -10.312097      -280.6064
  25   2.0000     -10.311506      -280.5903
  26   2.0000     -10.310952      -280.5753
  27   2.0000     -10.309682      -280.5407
  28   2.0000     -10.309089      -280.5246
  29   2.0000     -10.306750      -280.4609
  30   2.0000     -10.306631      -280.4577
  31   2.0000     -10.305213      -280.4191
  32   2.0000     -10.304973      -280.4126
  33   2.0000     -10.304466      -280.3988
  34   2.0000     -10.299599      -280.2663
  35   2.0000     -10.298519      -280.2369
  36   2.0000     -10.298260      -280.2299
  37   2.0000     -10.295462      -280.1538
  38   2.0000     -10.294118      -280.1172
  39   2.0000     -10.293671      -280.1050
  40   2.0000     -10.293350      -280.0963
  41   2.0000     -10.292827      -280.0821
  42   2.0000     -10.292108      -280.0625
  43   2.0000     -10.290749      -280.0255
  44   2.0000     -10.290727      -280.0249
  45   2.0000     -10.290066      -280.0069
  46   2.0000     -10.289435      -279.9898
  47   2.0000     -10.289224      -279.9840
  48   2.0000     -10.286707      -279.9155
  49   2.0000     -10.284302      -279.8501
  50   2.0000     -10.282825      -279.8099
  51   2.0000     -10.282399      -279.7983
  52   2.0000     -10.281126      -279.7637
  53   2.0000     -10.279845      -279.7288
  54   2.0000     -10.279770      -279.7268
  55   2.0000     -10.279543      -279.7206
  56   2.0000     -10.277626      -279.6684
  57   2.0000     -10.276719      -279.6438
  58   2.0000     -10.276250      -279.6310
  59   2.0000     -10.274257      -279.5767
  60   2.0000     -10.273318      -279.5512
  61   2.0000     -10.270028      -279.4617
  62   2.0000     -10.269617      -279.4505
  63   2.0000     -10.268521      -279.4207
  64   2.0000     -10.268017      -279.4070
  65   2.0000     -10.266459      -279.3646
  66   2.0000     -10.265642      -279.3423
  67   2.0000     -10.265448      -279.3370
  68   2.0000     -10.264497      -279.3112
  69   2.0000     -10.264421      -279.3091
  70   2.0000     -10.262400      -279.2541
  71   2.0000     -10.261143      -279.2199
  72   2.0000     -10.258743      -279.1546
  73   2.0000     -10.257399      -279.1180
  74   2.0000     -10.256439      -279.0919
  75   2.0000     -10.255811      -279.0748
  76   2.0000     -10.255283      -279.0604
  77   2.0000     -10.252485      -278.9843
  78   2.0000      -8.055444      -219.1998
  79   2.0000      -8.052845      -219.1290
  80   2.0000      -6.024923      -163.9465
  81   2.0000      -6.022364      -163.8768
  82   2.0000      -6.020672      -163.8308
  83   2.0000      -6.018078      -163.7602
  84   2.0000      -6.017135      -163.7346
  85   2.0000      -6.014498      -163.6628
  86   2.0000      -1.126530       -30.6544
  87   2.0000      -1.110840       -30.2275
  88   2.0000      -1.098909       -29.9028
  89   2.0000      -1.094612       -29.7859
  90   2.0000      -1.067437       -29.0464
  91   2.0000      -1.063882       -28.9497
  92   2.0000      -1.009804       -27.4782
  93   2.0000      -1.008221       -27.4351
  94   2.0000      -0.999676       -27.2026
  95   2.0000      -0.998039       -27.1580
  96   2.0000      -0.983437       -26.7607
  97   2.0000      -0.983027       -26.7495
  98   2.0000      -0.978825       -26.6352
  99   2.0000      -0.974820       -26.5262
 100   2.0000      -0.971325       -26.4311
 101   2.0000      -0.960789       -26.1444
 102   2.0000      -0.949123       -25.8270
 103   2.0000      -0.939472       -25.5643
 104   2.0000      -0.924655       -25.1611
 105   2.0000      -0.922434       -25.1007
 106   2.0000      -0.915406       -24.9095
 107   2.0000      -0.912870       -24.8405
 108   2.0000      -0.902267       -24.5519
 109   2.0000      -0.892728       -24.2924
 110   2.0000      -0.889191       -24.1961
 111   2.0000      -0.879688       -23.9375
 112   2.0000      -0.872829       -23.7509
 113   2.0000      -0.870761       -23.6946
 114   2.0000      -0.870369       -23.6840
 115   2.0000      -0.869196       -23.6520
 116   2.0000      -0.867716       -23.6117
 117   2.0000      -0.857289       -23.3280
 118   2.0000      -0.850465       -23.1423
 119   2.0000      -0.835493       -22.7349
 120   2.0000      -0.830011       -22.5858
 121   2.0000      -0.824779       -22.4434
 122   2.0000      -0.817346       -22.2411
 123   2.0000      -0.814708       -22.1693
 124   2.0000      -0.811992       -22.0954
 125   2.0000      -0.811424       -22.0800
 126   2.0000      -0.800389       -21.7797
 127   2.0000      -0.774023       -21.0622
 128   2.0000      -0.769630       -20.9427
 129   2.0000      -0.767092       -20.8736
 130   2.0000      -0.754207       -20.5230
 131   2.0000      -0.749460       -20.3939
 132   2.0000      -0.744980       -20.2719
 133   2.0000      -0.736068       -20.0294
 134   2.0000      -0.732298       -19.9268
 135   2.0000      -0.730324       -19.8731
 136   2.0000      -0.716608       -19.4999
 137   2.0000      -0.712216       -19.3804
 138   2.0000      -0.707378       -19.2487
 139   2.0000      -0.696380       -18.9495
 140   2.0000      -0.689700       -18.7677
 141   2.0000      -0.686719       -18.6866
 142   2.0000      -0.680974       -18.5302
 143   2.0000      -0.677085       -18.4244
 144   2.0000      -0.676092       -18.3974
 145   2.0000      -0.674003       -18.3406
 146   2.0000      -0.667747       -18.1703
 147   2.0000      -0.657849       -17.9010
 148   2.0000      -0.654631       -17.8134
 149   2.0000      -0.652278       -17.7494
 150   2.0000      -0.652033       -17.7427
 151   2.0000      -0.648896       -17.6574
 152   2.0000      -0.643314       -17.5055
 153   2.0000      -0.636080       -17.3086
 154   2.0000      -0.631375       -17.1806
 155   2.0000      -0.626661       -17.0523
 156   2.0000      -0.617643       -16.8069
 157   2.0000      -0.613288       -16.6884
 158   2.0000      -0.606559       -16.5053
 159   2.0000      -0.602710       -16.4006
 160   2.0000      -0.600605       -16.3433
 161   2.0000      -0.595678       -16.2092
 162   2.0000      -0.591844       -16.1049
 163   2.0000      -0.588630       -16.0174
 164   2.0000      -0.587445       -15.9852
 165   2.0000      -0.583508       -15.8781
 166   2.0000      -0.580250       -15.7894
 167   2.0000      -0.574403       -15.6303
 168   2.0000      -0.568267       -15.4633
 169   2.0000      -0.565687       -15.3931
 170   2.0000      -0.563194       -15.3253
 171   2.0000      -0.556415       -15.1408
 172   2.0000      -0.554699       -15.0941
 173   2.0000      -0.548997       -14.9390
 174   2.0000      -0.546253       -14.8643
 175   2.0000      -0.544737       -14.8231
 176   2.0000      -0.541369       -14.7314
 177   2.0000      -0.538682       -14.6583
 178   2.0000      -0.536750       -14.6057
 179   2.0000      -0.535665       -14.5762
 180   2.0000      -0.535314       -14.5666
 181   2.0000      -0.528250       -14.3744
 182   2.0000      -0.527666       -14.3585
 183   2.0000      -0.525964       -14.3122
 184   2.0000      -0.524196       -14.2641
 185   2.0000      -0.523255       -14.2385
 186   2.0000      -0.522016       -14.2048
 187   2.0000      -0.520783       -14.1712
 188   2.0000      -0.518897       -14.1199
 189   2.0000      -0.517010       -14.0685
 190   2.0000      -0.515357       -14.0236
 191   2.0000      -0.512696       -13.9512
 192   2.0000      -0.509588       -13.8666
 193   2.0000      -0.506800       -13.7907
 194   2.0000      -0.506270       -13.7763
 195   2.0000      -0.501380       -13.6433
 196   2.0000      -0.498088       -13.5537
 197   2.0000      -0.492407       -13.3991
 198   2.0000      -0.492279       -13.3956
 199   2.0000      -0.490708       -13.3528
 200   2.0000      -0.488107       -13.2821
 201   2.0000      -0.486564       -13.2401
 202   2.0000      -0.483286       -13.1509
 203   2.0000      -0.482305       -13.1242
 204   2.0000      -0.479804       -13.0561
 205   2.0000      -0.478342       -13.0163
 206   2.0000      -0.477622       -12.9968
 207   2.0000      -0.477185       -12.9849
 208   2.0000      -0.475681       -12.9439
 209   2.0000      -0.472562       -12.8591
 210   2.0000      -0.470104       -12.7922
 211   2.0000      -0.468883       -12.7590
 212   2.0000      -0.465769       -12.6742
 213   2.0000      -0.464842       -12.6490
 214   2.0000      -0.463685       -12.6175
 215   2.0000      -0.456708       -12.4277
 216   2.0000      -0.448123       -12.1940
 217   2.0000      -0.445959       -12.1352
 218   2.0000      -0.444784       -12.1032
 219   2.0000      -0.444330       -12.0908
 220   2.0000      -0.442883       -12.0514
 221   2.0000      -0.442021       -12.0280
 222   2.0000      -0.440373       -11.9832
 223   2.0000      -0.432218       -11.7613
 224   2.0000      -0.430792       -11.7224
 225   2.0000      -0.430708       -11.7202
 226   2.0000      -0.428395       -11.6572
 227   2.0000      -0.427893       -11.6436
 228   2.0000      -0.427381       -11.6296
 229   2.0000      -0.425178       -11.5697
 230   2.0000      -0.424529       -11.5520
 231   2.0000      -0.423184       -11.5154
 232   2.0000      -0.421953       -11.4819
 233   2.0000      -0.421300       -11.4642
 234   2.0000      -0.420470       -11.4416
 235   2.0000      -0.416973       -11.3464
 236   2.0000      -0.414711       -11.2848
 237   2.0000      -0.414220       -11.2715
 238   2.0000      -0.412382       -11.2215
 239   2.0000      -0.410080       -11.1588
 240   2.0000      -0.405410       -11.0318
 241   2.0000      -0.404483       -11.0066
 242   2.0000      -0.395995       -10.7756
 243   2.0000      -0.395366       -10.7585
 244   2.0000      -0.391625       -10.6567
 245   2.0000      -0.386151       -10.5077
 246   2.0000      -0.385252       -10.4833
 247   2.0000      -0.383783       -10.4433
 248   2.0000      -0.372316       -10.1312
 249   2.0000      -0.370931       -10.0936
 250   2.0000      -0.363903        -9.9023
 251   2.0000      -0.358860        -9.7651
 252   2.0000      -0.352019        -9.5789
 253   2.0000      -0.341702        -9.2982
 254   2.0000      -0.339977        -9.2512
 255   2.0000      -0.330470        -8.9926
 256   2.0000      -0.321617        -8.7516
 257   2.0000      -0.318354        -8.6629
 258   2.0000      -0.307384        -8.3643
 259   2.0000      -0.303782        -8.2663
 260   2.0000      -0.302872        -8.2416
 261   2.0000      -0.301474        -8.2035
 262   2.0000      -0.300503        -8.1771
 263   2.0000      -0.295767        -8.0482
 264   2.0000      -0.288178        -7.8417
 265   2.0000      -0.285649        -7.7729
 266   2.0000      -0.274663        -7.4740
 267   2.0000      -0.273166        -7.4332
 268   2.0000      -0.242798        -6.6069
 269   2.0000      -0.234052        -6.3689
 270   2.0000      -0.213234        -5.8024
 271   0.0000      -0.077842        -2.1182
 272   0.0000      -0.073290        -1.9943
 273   0.0000      -0.060841        -1.6556
 274   0.0000      -0.050823        -1.3830
 275   0.0000      -0.042938        -1.1684

MULLIKEN ATOMIC CHARGES
-----------------------
   0 C :    0.331611
   1 C :   -0.384207
   2 C :   -0.187253
   3 N :    0.139786
   4 C :   -0.167198
   5 N :    0.112962
   6 C :    0.011787
   7 C :   -0.008955
   8 C :   -0.073450
   9 C :    0.114296
  10 C :   -0.099090
  11 C :   -0.022740
  12 S :    0.136602
  13 C :   -0.052517
  14 C :    0.024883
  15 C :    0.175115
  16 O :   -0.234782
  17 C :   -0.120507
  18 C :   -0.020643
  19 C :   -0.034785
  20 N :   -0.025584
  21 C :    0.015508
  22 C :    0.026857
  23 C :    0.062071
  24 N :   -0.010919
  25 C :    0.003173
  26 C :    0.048386
  27 C :    0.010714
  28 C :   -0.003991
  29 C :    0.128342
  30 C :   -0.119056
  31 C :    0.047617
  32 C :   -0.032039
  33 C :   -0.091010
  34 C :    0.153318
  35 N :   -0.212999
  36 C :    0.166509
  37 N :   -0.225900
  38 C :    0.133452
  39 C :   -0.141656
  40 C :    0.128275
  41 C :   -0.045712
  42 C :    0.018231
  43 C :    0.004841
  44 C :    0.033739
  45 C :    0.001965
  46 C :   -0.010634
  47 C :   -0.090538
  48 C :    0.068443
  49 C :   -0.027483
  50 N :   -0.033236
  51 C :   -0.035096
  52 C :    0.066512
  53 C :    0.027480
  54 N :   -0.024703
  55 C :    0.047238
  56 C :    0.035408
  57 C :    0.017722
  58 C :    0.004439
  59 C :    0.022737
  60 C :   -0.118766
  61 C :    0.325546
  62 C :   -0.367481
  63 C :   -0.190575
  64 N :    0.135592
  65 C :   -0.165431
  66 N :    0.131060
  67 C :   -0.005994
  68 C :    0.002723
  69 C :    0.131099
  70 O :   -0.161133
  71 C :   -0.072656
  72 C :    0.110767
  73 C :   -0.094619
  74 C :   -0.025400
  75 S :    0.132026
  76 C :   -0.051467
  77 C :    0.025912
  78 H :   -0.017808
  79 H :   -0.008842
  80 H :    0.035430
  81 H :   -0.010134
  82 H :   -0.032993
  83 H :    0.150116
  84 H :    0.010899
  85 H :    0.140927
  86 H :    0.000782
  87 H :   -0.032229
  88 H :   -0.035317
  89 H :   -0.039821
  90 H :   -0.013589
  91 H :   -0.013488
  92 H :   -0.017973
  93 H :    0.091763
  94 H :    0.085613
  95 H :   -0.029515
  96 H :   -0.012055
  97 H :    0.098853
  98 H :    0.088451
  99 H :   -0.010937
 100 H :    0.019470
 101 H :   -0.015007
 102 H :   -0.038874
 103 H :   -0.042572
 104 H :   -0.035698
 105 H :   -0.027287
 106 H :   -0.044700
 107 H :    0.123929
 108 H :   -0.009380
 109 H :    0.134028
 110 H :    0.002602
 111 H :   -0.015371
 112 H :   -0.010408
 113 H :    0.008199
 114 H :   -0.016190
 115 H :   -0.009127
 116 H :    0.033956
 117 H :   -0.010236
Sum of atomic charges:   -0.0000000

LOEWDIN ATOMIC CHARGES
----------------------
   0 C :    0.082710
   1 C :   -0.165879
   2 C :   -0.019610
   3 N :   -0.068956
   4 C :   -0.015272
   5 N :   -0.083135
   6 C :   -0.020504
   7 C :   -0.050833
   8 C :    0.019444
   9 C :   -0.039044
  10 C :   -0.147672
  11 C :   -0.010036
  12 S :    0.426430
  13 C :   -0.153922
  14 C :   -0.058965
  15 C :    0.097708
  16 O :   -0.181096
  17 C :   -0.141760
  18 C :    0.055303
  19 C :   -0.058253
  20 N :    0.113397
  21 C :    0.055791
  22 C :   -0.088261
  23 C :    0.010467
  24 N :    0.091131
  25 C :    0.012989
  26 C :   -0.067979
  27 C :   -0.026186
  28 C :   -0.018545
  29 C :   -0.025332
  30 C :   -0.023968
  31 C :   -0.022673
  32 C :   -0.038253
  33 C :   -0.040414
  34 C :    0.024464
  35 N :   -0.119112
  36 C :    0.028837
  37 N :   -0.121988
  38 C :   -0.011567
  39 C :    0.057513
  40 C :   -0.027750
  41 C :   -0.034952
  42 C :   -0.019797
  43 C :   -0.031608
  44 C :   -0.033477
  45 C :   -0.009516
  46 C :   -0.027819
  47 C :   -0.028603
  48 C :   -0.040665
  49 C :   -0.061878
  50 N :    0.109054
  51 C :   -0.007125
  52 C :   -0.075522
  53 C :   -0.022566
  54 N :    0.086247
  55 C :    0.052006
  56 C :   -0.088867
  57 C :    0.054985
  58 C :   -0.064113
  59 C :    0.073736
  60 C :   -0.120621
  61 C :    0.078803
  62 C :   -0.158494
  63 C :   -0.019004
  64 N :   -0.067248
  65 C :   -0.006709
  66 N :   -0.069256
  67 C :   -0.019186
  68 C :   -0.052867
  69 C :    0.080800
  70 O :   -0.159834
  71 C :    0.019691
  72 C :   -0.038320
  73 C :   -0.146718
  74 C :   -0.014335
  75 S :    0.422270
  76 C :   -0.153669
  77 C :   -0.058887
  78 H :    0.037805
  79 H :    0.040315
  80 H :    0.027939
  81 H :    0.033765
  82 H :    0.045548
  83 H :    0.068699
  84 H :    0.029974
  85 H :    0.100284
  86 H :    0.022373
  87 H :    0.023824
  88 H :    0.023964
  89 H :    0.022609
  90 H :    0.026150
  91 H :    0.000315
  92 H :    0.009545
  93 H :    0.053533
  94 H :    0.052076
  95 H :   -0.004163
  96 H :    0.012825
  97 H :    0.053073
  98 H :    0.053524
  99 H :    0.024250
 100 H :    0.050905
 101 H :    0.023677
 102 H :    0.028239
 103 H :    0.025251
 104 H :    0.022164
 105 H :    0.017479
 106 H :    0.025306
 107 H :    0.092528
 108 H :    0.017798
 109 H :    0.093231
 110 H :    0.026722
 111 H :    0.033348
 112 H :    0.029637
 113 H :    0.041026
 114 H :    0.038755
 115 H :    0.039129
 116 H :    0.027551
 117 H :    0.033874

  Mayer bond orders larger than 0.100000
B(  0-C ,  1-C ) :   1.5758 B(  0-C ,  6-C ) :   0.9865 B(  0-C , 17-C ) :   1.1282
B(  1-C ,  2-C ) :   1.1505 B(  1-C ,  4-C ) :   1.1553 B(  2-C ,  3-N ) :   2.9633
B(  4-C ,  5-N ) :   2.9408 B(  6-C ,  7-C ) :   1.2718 B(  6-C , 11-C ) :   1.4274
B(  7-C ,  8-C ) :   1.4288 B(  7-C , 15-C ) :   0.9769 B(  8-C ,  9-C ) :   1.2346
B(  8-C , 78-H ) :   1.0168 B(  9-C , 10-C ) :   1.3147 B(  9-C , 14-C ) :   1.1718
B( 10-C , 11-C ) :   1.3085 B( 10-C , 12-S ) :   1.0984 B( 11-C , 79-H ) :   0.9814
B( 12-S , 13-C ) :   1.1271 B( 13-C , 14-C ) :   1.6261 B( 13-C , 80-H ) :   0.9693
B( 14-C , 81-H ) :   0.9994 B( 15-C , 16-O ) :   2.0175 B( 15-C , 17-C ) :   1.0092
B( 16-O , 83-H ) :   0.1568 B( 17-C , 18-C ) :   1.3553 B( 18-C , 19-C ) :   1.3920
B( 18-C , 82-H ) :   0.9220 B( 19-C , 20-N ) :   1.1968 B( 19-C , 23-C ) :   1.1322
B( 20-N , 21-C ) :   1.3662 B( 20-N , 83-H ) :   0.8435 B( 21-C , 22-C ) :   1.2694
B( 21-C , 84-H ) :   0.9946 B( 22-C , 23-C ) :   1.3419 B( 22-C , 26-C ) :   1.1197
B( 23-C , 24-N ) :   1.2567 B( 24-N , 25-C ) :   1.1719 B( 24-N , 85-H ) :   0.9298
B( 25-C , 26-C ) :   1.5184 B( 25-C , 86-H ) :   0.9828 B( 26-C , 27-C ) :   1.0934
B( 27-C , 28-C ) :   1.6992 B( 27-C , 87-H ) :   0.9707 B( 28-C , 29-C ) :   1.0801
B( 28-C , 88-H ) :   0.9825 B( 29-C , 30-C ) :   1.5070 B( 29-C , 46-C ) :   1.1187
B( 30-C , 31-C ) :   1.1162 B( 30-C , 89-H ) :   1.0011 B( 31-C , 32-C ) :   1.4983
B( 31-C , 44-C ) :   1.1177 B( 32-C , 33-C ) :   1.0308 B( 32-C , 38-C ) :   1.0830
B( 33-C , 34-C ) :   1.0470 B( 33-C , 36-C ) :   1.0470 B( 33-C , 90-H ) :   0.8855
B( 34-C , 35-N ) :   1.0946 B( 34-C , 91-H ) :   0.9371 B( 34-C , 92-H ) :   0.9294
B( 35-N , 93-H ) :   0.9686 B( 35-N , 94-H ) :   0.9687 B( 36-C , 37-N ) :   1.0930
B( 36-C , 95-H ) :   0.9308 B( 36-C , 96-H ) :   0.9348 B( 37-N , 97-H ) :   0.9676
B( 37-N , 98-H ) :   0.9663 B( 38-C , 39-C ) :   1.6312 B( 38-C , 43-C ) :   1.0557
B( 39-C , 40-C ) :   0.9840 B( 39-C , 99-H ) :   0.9704 B( 40-C , 41-C ) :   0.9835
B( 40-C , 47-C ) :   0.9611 B( 40-C ,100-H ) :   0.8747 B( 41-C , 42-C ) :   1.7122
B( 41-C ,101-H ) :   0.9781 B( 42-C , 43-C ) :   1.1229 B( 42-C ,102-H ) :   0.9882
B( 43-C , 44-C ) :   1.4485 B( 44-C , 45-C ) :   1.1310 B( 45-C , 46-C ) :   1.6255
B( 45-C ,103-H ) :   0.9877 B( 46-C ,104-H ) :   0.9802 B( 47-C , 48-C ) :   1.7697
B( 47-C ,105-H ) :   0.9691 B( 48-C , 49-C ) :   1.0970 B( 48-C ,106-H ) :   0.9429
B( 49-C , 50-N ) :   1.2108 B( 49-C , 51-C ) :   0.1188 B( 49-C , 53-C ) :   1.3040
B( 50-N , 51-C ) :   1.2605 B( 50-N ,107-H ) :   0.9333 B( 51-C , 52-C ) :   1.3935
B( 51-C ,108-H ) :   0.9680 B( 52-C , 53-C ) :   1.3227 B( 52-C , 56-C ) :   1.0743
B( 53-C , 54-N ) :   1.1431 B( 54-N , 55-C ) :   1.2470 B( 54-N ,109-H ) :   0.9380
B( 55-C , 56-C ) :   1.4087 B( 55-C ,110-H ) :   0.9871 B( 56-C , 57-C ) :   1.1585
B( 57-C , 58-C ) :   1.5536 B( 57-C ,111-H ) :   0.9805 B( 58-C , 59-C ) :   1.2053
B( 58-C ,112-H ) :   0.9638 B( 59-C , 60-C ) :   1.5176 B( 59-C ,113-H ) :   0.9465
B( 60-C , 61-C ) :   1.0650 B( 60-C , 69-C ) :   0.9615 B( 61-C , 62-C ) :   1.5880
B( 61-C , 67-C ) :   1.0076 B( 62-C , 63-C ) :   1.1284 B( 62-C , 65-C ) :   1.1934
B( 63-C , 64-N ) :   2.9749 B( 65-C , 66-N ) :   2.8958 B( 67-C , 68-C ) :   1.2745
B( 67-C , 74-C ) :   1.4175 B( 68-C , 69-C ) :   0.9261 B( 68-C , 71-C ) :   1.4335
B( 69-C , 70-O ) :   2.2325 B( 71-C , 72-C ) :   1.2430 B( 71-C ,114-H ) :   1.0162
B( 72-C , 73-C ) :   1.3135 B( 72-C , 77-C ) :   1.1704 B( 73-C , 74-C ) :   1.3181
B( 73-C , 75-S ) :   1.0948 B( 74-C ,115-H ) :   0.9817 B( 75-S , 76-C ) :   1.1257
B( 76-C , 77-C ) :   1.6286 B( 76-C ,116-H ) :   0.9688 B( 77-C ,117-H ) :   0.9992

-----------------------------------------------------------------------------
         ABSORPTION SPECTRUM VIA TRANSITION ELECTRIC DIPOLE MOMENTS
-----------------------------------------------------------------------------
State   Energy  Wavelength   fosc         T2         TX        TY        TZ
        (cm-1)    (nm)                  (au**2)     (au)      (au)      (au)
-----------------------------------------------------------------------------
   0   15123.3    661.2   0.097959645   2.13244  -0.39880  -0.13183  -1.39858
   1   17400.8    574.7   0.930481417  17.60407  -3.08916   0.80307  -2.72328
   2   19017.2    525.8   0.749797787  12.97998  -3.34606   0.66804  -1.15655
   3   21384.4    467.6   0.067134746   1.03354   0.66823   0.06966   0.76299
   4   22695.0    440.6   0.214664664   3.11391   1.69677  -0.42255   0.23735
   5   22953.8    435.7   0.071468872   1.02503  -0.70703   0.40306  -0.60223
   6   23335.5    428.5   0.451916566   6.37554  -1.99819   0.25563  -1.52231
   7   25282.7    395.5   0.010894165   0.14186  -0.08654  -0.04258  -0.36408
   8   25565.8    391.1   0.125009047   1.60975  -0.12706   1.14685  -0.52758
   9   26934.2    371.3   0.368031087   4.49838  -1.75511  -0.43304  -1.10926
  10   27776.5    360.0   0.007530235   0.08925  -0.21814  -0.08261   0.18666
  11   28717.0    348.2   0.562613288   6.44981  -1.74940   0.53645  -1.76114
  12   28829.1    346.9   0.115106873   1.31446  -0.73169   0.06939   0.87993
  13   29649.4    337.3   0.185462621   2.05929   1.28101  -0.33013   0.55616
  14   29814.2    335.4   0.269831758   2.97951   1.23653  -0.25712   1.17660
  15   29855.0    335.0   0.032827070   0.36199   0.37445  -0.09490   0.46127
  16   30051.7    332.8   0.239826929   2.62727   0.95412  -0.09047   1.30719
  17   30485.8    328.0   0.129486692   1.39831  -0.07809  -0.27724   1.14689
  18   30615.4    326.6   0.048789011   0.52464  -0.56485   0.39757  -0.21798
  19   30783.5    324.8   0.126960446   1.35777  -1.13788   0.08242  -0.23705
  20   31317.0    319.3   0.053825984   0.56583  -0.10572   0.39787  -0.62956
  21   31381.1    318.7   0.016191141   0.16986   0.13819   0.38702  -0.03122
  22   31547.9    317.0   0.006018250   0.06280  -0.09750  -0.17505  -0.15051
  23   31595.5    316.5   0.086687236   0.90325   0.31584  -0.13853   0.88560
  24   32120.5    311.3   0.077749429   0.79688   0.20054  -0.52566   0.69307
  25   32616.9    306.6   0.037366881   0.37715  -0.40160   0.46323  -0.03594
  26   32749.8    305.3   0.036426075   0.36617  -0.45007   0.05394  -0.40086
  27   33788.5    296.0   0.000316020   0.00308   0.01979  -0.01371   0.04999
  28   34099.9    293.3   0.251421724   2.42731   0.94298  -0.44736   1.15670
  29   34229.6    292.1   0.475595146   4.57416  -1.75921   0.34680  -1.16580
  30   34432.7    290.4   0.310763718   2.97122   0.61265  -0.41986   1.55551
  31   34511.5    289.8   0.190005914   1.81250   0.93671  -0.47989  -0.83951
  32   34572.2    289.2   0.859462212   8.18418   0.57725  -0.74891   2.70002
  33   34702.2    288.2   0.132001526   1.25227  -0.65403  -0.37377   0.82753
  34   34806.1    287.3   0.176281158   1.66735  -1.21979  -0.31551  -0.28269
  35   35909.1    278.5   0.000262643   0.00241  -0.02946   0.02890  -0.02655
  36   36461.2    274.3   0.005900186   0.05327   0.15257  -0.06866   0.15900
  37   36800.6    271.7   0.050440148   0.45123  -0.25964   0.32876  -0.52511
  38   37366.7    267.6   0.076441206   0.67347   0.28375  -0.07397  -0.76648
  39   37494.0    266.7   0.024142828   0.21198  -0.40278  -0.22055   0.03338
  40   38109.4    262.4   0.013062750   0.11284   0.30860  -0.10981   0.07452
  41   38248.9    261.4   0.001778583   0.01531  -0.09046   0.02425  -0.08086
  42   38333.8    260.9   0.020660366   0.17743  -0.23677   0.28200  -0.20456
  43   38481.7    259.9   0.131479607   1.12481   0.90307  -0.47933  -0.28197
  44   38738.5    258.1   0.299968095   2.54922   1.51776  -0.18795   0.45859
  45   38822.3    257.6   0.005977584   0.05069   0.19232   0.02204   0.11496
  46   38907.9    257.0   0.014706029   0.12443   0.22993  -0.04314  -0.26401
  47   39260.6    254.7   0.064049428   0.53707  -0.55046   0.02819   0.48298
  48   39633.9    252.3   0.089704565   0.74511  -0.40445  -0.73575  -0.20050
  49   39724.3    251.7   0.029926769   0.24802   0.35018   0.27410   0.22418
  50   39925.9    250.5   0.003649123   0.03009  -0.11281  -0.12771  -0.03243
  51   40068.9    249.6   0.011950093   0.09818   0.31067  -0.02425  -0.03284

FINAL SINGLE POINT ENERGY     -3952.835327791614

DIPOLE MOMENT
-------------
                                X             Y             Z
Electronic contribution:    -20.23124      -9.16397      -7.67369
Nuclear contribution   :     20.74575       8.76942       6.61688
                        -----------------------------------------
Total Dipole Moment    :      0.51451      -0.39455      -1.05681
                        -----------------------------------------
Magnitude (a.u.)       :      1.23986
Magnitude (Debye)      :      3.15147

Rotational constants in cm-1:     0.002970     0.000110     0.000109
Rotational constants in MHz :    89.044022     3.295388     3.261250

                             ****ORCA TERMINATED NORMALLY****
TOTAL RUN TIME: 0 days 0 hours 13 minutes 0 seconds 969 msec
