                         Program Version 4.2.0 -  RELEASE  -
|  1> # ORCA input file
|  2> # SCF done       -162.044800757721          0.001721828874
|  3> ! CAM-B3LYP def2-SVP def2/J RIJCOSX Grid4 TightSCF
|  4> %maxcore 5000
|  5> %tddft
|  6>     Mode sTDDFT
|  7>     Ethresh 5.0
|  8>     maxcore 5000
|  9> end
| 10>
| 11> %pal
| 12>   nprocs 6
| 13>   end
| 14> * xyz 0 1
| 15>    C        4.78635        -3.93333        10.63911
| 16>    S        5.78194        -4.40117        12.00873
| 17>    C        4.35008        -4.54888        13.07400
| 18>    O        4.39422        -4.83113        14.23328
| 19>    N        3.22096        -4.30112        12.34070
| 20>    C        3.35104        -3.99803        10.99791
| 21>    O        2.41159        -3.86637        10.25594
| 22>    C        1.91925        -4.39902        12.96615
| 23>    C        5.27518        -3.61379         9.43585
| 24>    C        4.45113        -3.11856         8.32596
| 25>    N        3.69549        -2.04927         8.55712
| 26>    C        2.96546        -1.61225         7.54569
| 27>    C        2.97587        -2.22019         6.30152
| 28>    C        3.82947        -3.31864         6.14749
| 29>    N        4.57286        -3.75101         7.17194
| 30>    C        3.94749        -4.02014         4.88935
| 31>    C        4.74856        -5.08798         4.73663
| 32>    N        4.86651        -5.75234         3.54872
| 33>    C        5.63235        -6.83242         3.28685
| 34>    S        6.57793        -7.60020         4.51367
| 35>    C        7.11549        -8.77363         3.34321
| 36>    N        8.00184        -9.76017         3.78474
| 37>    O        8.37745       -10.58895         2.97608
| 38>    O        8.33179        -9.71071         4.95823
| 39>    C        6.59731        -8.58039         2.09342
| 40>    C        5.73959        -7.46368         2.02665
| 41>    C        5.05164        -6.97698         0.87968
| 42>    C        5.01212        -7.52121        -0.36677
| 43>    C        4.28214        -6.99134        -1.45341
| 44>    C        3.44431        -5.90168        -1.49613
| 45>    C        2.74099        -5.45338        -2.64511
| 46>    C        1.95566        -4.35617        -2.45100
| 47>    C        1.98718        -3.86021        -1.13028
| 48>    S        3.04567        -4.84058        -0.15128
| 49>    C        1.33629        -2.77612        -0.57091
| 50>    C        0.44879        -1.86108        -1.17325
| 51>    C       -0.01600        -0.89850        -0.32395
| 52>    C        0.48355        -1.00187         0.99560
| 53>    S        1.56282        -2.37013         1.11790
| 54>    C        0.24278        -0.21614         2.10690
| 55>    C       -0.61412         0.88009         2.11022
| 56>    C       -0.85785         1.67716         3.21128
| 57>    C       -1.75123         2.80714         3.26403
| 58>    C       -2.54504         3.28878         2.24819
| 59>    C       -3.39905         4.40280         2.37074
| 60>    N       -4.11290         5.30200         2.40614
| 61>    C       -2.62892         2.75279         0.94868
| 62>    N       -2.75791         2.37800        -0.13044
| 63>    C       -1.68011         3.36707         4.61180
| 64>    C       -0.76612         2.59935         5.37397
| 65>    C       -0.22538         1.51037         4.53421
| 66>    O        0.57535         0.66368         4.88631
| 67>    C       -0.47628         2.88122         6.68581
| 68>    C       -1.12118         3.97331         7.27768
| 69>    C       -2.03687         4.73000         6.51078
| 70>    C       -2.32886         4.44542         5.18182
| 71>    S       -2.72474         6.03069         7.43622
| 72>    C       -1.78303         5.54745         8.82114
| 73>    C       -0.99444         4.46809         8.60473
| 74>   Br       -1.93147         6.51303        10.42274
| 75>    H        1.79985        -5.38125        13.42279
| 76>    H        1.17422        -4.24962        12.18673
| 77>    H        1.81761        -3.63502        13.73686
| 78>    H        6.33328        -3.71151         9.23743
| 79>    H        2.35592        -0.74084         7.74332
| 80>    H        2.36511        -1.85350         5.49336
| 81>    H        3.35410        -3.64732         4.06534
| 82>    H        5.33489        -5.45724         5.56520
| 83>    H        4.31035        -5.38790         2.78203
| 84>    H        6.84039        -9.22054         1.26570
| 85>    H        4.50714        -6.06022         1.03349
| 86>    H        5.56641        -8.42664        -0.56717
| 87>    H        4.37912        -7.52197        -2.39241
| 88>    H        2.83909        -5.96315        -3.58759
| 89>    H        1.35925        -3.89477        -3.21735
| 90>    H        0.17611        -1.93338        -2.21102
| 91>    H       -0.69989        -0.12239        -0.61764
| 92>    H        0.74769        -0.47172         3.02689
| 93>    H       -1.12311         1.12142         1.18870
| 94>    H        0.22632         2.27959         7.24061
| 95>    H       -3.03297         5.05465         4.64111
| 96>    H       -0.34877         4.03799         9.34840
| 97> *
| 98>
| 99>                          ****END OF INPUT****

CARTESIAN COORDINATES (ANGSTROEM)
---------------------------------
  C      4.786350   -3.933330   10.639110
  S      5.781940   -4.401170   12.008730
  C      4.350080   -4.548880   13.074000
  O      4.394220   -4.831130   14.233280
  N      3.220960   -4.301120   12.340700
  C      3.351040   -3.998030   10.997910
  O      2.411590   -3.866370   10.255940
  C      1.919250   -4.399020   12.966150
  C      5.275180   -3.613790    9.435850
  C      4.451130   -3.118560    8.325960
  N      3.695490   -2.049270    8.557120
  C      2.965460   -1.612250    7.545690
  C      2.975870   -2.220190    6.301520
  C      3.829470   -3.318640    6.147490
  N      4.572860   -3.751010    7.171940
  C      3.947490   -4.020140    4.889350
  C      4.748560   -5.087980    4.736630
  N      4.866510   -5.752340    3.548720
  C      5.632350   -6.832420    3.286850
  S      6.577930   -7.600200    4.513670
  C      7.115490   -8.773630    3.343210
  N      8.001840   -9.760170    3.784740
  O      8.377450  -10.588950    2.976080
  O      8.331790   -9.710710    4.958230
  C      6.597310   -8.580390    2.093420
  C      5.739590   -7.463680    2.026650
  C      5.051640   -6.976980    0.879680
  C      5.012120   -7.521210   -0.366770
  C      4.282140   -6.991340   -1.453410
  C      3.444310   -5.901680   -1.496130
  C      2.740990   -5.453380   -2.645110
  C      1.955660   -4.356170   -2.451000
  C      1.987180   -3.860210   -1.130280
  S      3.045670   -4.840580   -0.151280
  C      1.336290   -2.776120   -0.570910
  C      0.448790   -1.861080   -1.173250
  C     -0.016000   -0.898500   -0.323950
  C      0.483550   -1.001870    0.995600
  S      1.562820   -2.370130    1.117900
  C      0.242780   -0.216140    2.106900
  C     -0.614120    0.880090    2.110220
  C     -0.857850    1.677160    3.211280
  C     -1.751230    2.807140    3.264030
  C     -2.545040    3.288780    2.248190
  C     -3.399050    4.402800    2.370740
  N     -4.112900    5.302000    2.406140
  C     -2.628920    2.752790    0.948680
  N     -2.757910    2.378000   -0.130440
  C     -1.680110    3.367070    4.611800
  C     -0.766120    2.599350    5.373970
  C     -0.225380    1.510370    4.534210
  O      0.575350    0.663680    4.886310
  C     -0.476280    2.881220    6.685810
  C     -1.121180    3.973310    7.277680
  C     -2.036870    4.730000    6.510780
  C     -2.328860    4.445420    5.181820
  S     -2.724740    6.030690    7.436220
  C     -1.783030    5.547450    8.821140
  C     -0.994440    4.468090    8.604730
  Br    -1.931470    6.513030   10.422740
  H      1.799850   -5.381250   13.422790
  H      1.174220   -4.249620   12.186730
  H      1.817610   -3.635020   13.736860
  H      6.333280   -3.711510    9.237430
  H      2.355920   -0.740840    7.743320
  H      2.365110   -1.853500    5.493360
  H      3.354100   -3.647320    4.065340
  H      5.334890   -5.457240    5.565200
  H      4.310350   -5.387900    2.782030
  H      6.840390   -9.220540    1.265700
  H      4.507140   -6.060220    1.033490
  H      5.566410   -8.426640   -0.567170
  H      4.379120   -7.521970   -2.392410
  H      2.839090   -5.963150   -3.587590
  H      1.359250   -3.894770   -3.217350
  H      0.176110   -1.933380   -2.211020
  H     -0.699890   -0.122390   -0.617640
  H      0.747690   -0.471720    3.026890
  H     -1.123110    1.121420    1.188700
  H      0.226320    2.279590    7.240610
  H     -3.032970    5.054650    4.641110
  H     -0.348770    4.037990    9.348400

 Total Charge           Charge          ....    0
 Multiplicity           Mult            ....    1
 Number of Electrons    NEL             ....  478
 Basis Dimension        Dim             ....  988

ORBITAL ENERGIES
----------------

  NO   OCC          E(Eh)            E(eV)
   0   2.0000    -482.881773    -13139.8811
   1   2.0000     -88.994550     -2421.6648
   2   2.0000     -88.979686     -2421.2603
   3   2.0000     -88.972340     -2421.0605
   4   2.0000     -88.970631     -2421.0139
   5   2.0000     -88.949867     -2420.4489
   6   2.0000     -62.559489     -1702.3302
   7   2.0000     -56.393435     -1534.5434
   8   2.0000     -56.390728     -1534.4697
   9   2.0000     -56.390691     -1534.4687
  10   2.0000     -19.241208      -523.5799
  11   2.0000     -19.240303      -523.5553
  12   2.0000     -19.214915      -522.8644
  13   2.0000     -19.211675      -522.7762
  14   2.0000     -19.209528      -522.7178
  15   2.0000     -14.652820      -398.7235
  16   2.0000     -14.498366      -394.5206
  17   2.0000     -14.468525      -393.7086
  18   2.0000     -14.411380      -392.1536
  19   2.0000     -14.410871      -392.1397
  20   2.0000     -14.405858      -392.0033
  21   2.0000     -14.403063      -391.9273
  22   2.0000     -10.409481      -283.2564
  23   2.0000     -10.397675      -282.9351
  24   2.0000     -10.385040      -282.5913
  25   2.0000     -10.361302      -281.9454
  26   2.0000     -10.354188      -281.7518
  27   2.0000     -10.349313      -281.6191
  28   2.0000     -10.346303      -281.5372
  29   2.0000     -10.346144      -281.5329
  30   2.0000     -10.343057      -281.4489
  31   2.0000     -10.339111      -281.3415
  32   2.0000     -10.333201      -281.1807
  33   2.0000     -10.332875      -281.1718
  34   2.0000     -10.332690      -281.1668
  35   2.0000     -10.331879      -281.1447
  36   2.0000     -10.330839      -281.1164
  37   2.0000     -10.320524      -280.8357
  38   2.0000     -10.319787      -280.8157
  39   2.0000     -10.319357      -280.8040
  40   2.0000     -10.316301      -280.7208
  41   2.0000     -10.316073      -280.7146
  42   2.0000     -10.315598      -280.7017
  43   2.0000     -10.315370      -280.6955
  44   2.0000     -10.314638      -280.6756
  45   2.0000     -10.314457      -280.6706
  46   2.0000     -10.310874      -280.5731
  47   2.0000     -10.310344      -280.5587
  48   2.0000     -10.310009      -280.5496
  49   2.0000     -10.307761      -280.4884
  50   2.0000     -10.306748      -280.4609
  51   2.0000     -10.302079      -280.3338
  52   2.0000     -10.301979      -280.3311
  53   2.0000     -10.301452      -280.3167
  54   2.0000     -10.301145      -280.3084
  55   2.0000     -10.299837      -280.2728
  56   2.0000     -10.299114      -280.2531
  57   2.0000     -10.295706      -280.1604
  58   2.0000     -10.292378      -280.0698
  59   2.0000     -10.287459      -279.9360
  60   2.0000     -10.286010      -279.8966
  61   2.0000     -10.285888      -279.8932
  62   2.0000     -10.285458      -279.8816
  63   2.0000     -10.282004      -279.7876
  64   2.0000      -8.788918      -239.1586
  65   2.0000      -8.089972      -220.1393
  66   2.0000      -8.075249      -219.7387
  67   2.0000      -8.068715      -219.5609
  68   2.0000      -8.066714      -219.5064
  69   2.0000      -8.047737      -218.9901
  70   2.0000      -6.625212      -180.2812
  71   2.0000      -6.610642      -179.8847
  72   2.0000      -6.610473      -179.8801
  73   2.0000      -6.059712      -164.8932
  74   2.0000      -6.055247      -164.7717
  75   2.0000      -6.051286      -164.6639
  76   2.0000      -6.044934      -164.4910
  77   2.0000      -6.040981      -164.3834
  78   2.0000      -6.038390      -164.3129
  79   2.0000      -6.036403      -164.2589
  80   2.0000      -6.036385      -164.2584
  81   2.0000      -6.034281      -164.2011
  82   2.0000      -6.032126      -164.1425
  83   2.0000      -6.029834      -164.0801
  84   2.0000      -6.027911      -164.0278
  85   2.0000      -6.017357      -163.7406
  86   2.0000      -6.013837      -163.6448
  87   2.0000      -6.007881      -163.4828
  88   2.0000      -2.741060       -74.5880
  89   2.0000      -2.737035       -74.4785
  90   2.0000      -2.736836       -74.4731
  91   2.0000      -2.725293       -74.1590
  92   2.0000      -2.725274       -74.1585
  93   2.0000      -1.321848       -35.9693
  94   2.0000      -1.166700       -31.7475
  95   2.0000      -1.141697       -31.0671
  96   2.0000      -1.141153       -31.0523
  97   2.0000      -1.124079       -30.5877
  98   2.0000      -1.104891       -30.0656
  99   2.0000      -1.082592       -29.4588
 100   2.0000      -1.053028       -28.6543
 101   2.0000      -1.023710       -27.8566
 102   2.0000      -1.016739       -27.6669
 103   2.0000      -1.013496       -27.5786
 104   2.0000      -1.007592       -27.4180
 105   2.0000      -0.999996       -27.2113
 106   2.0000      -0.987937       -26.8831
 107   2.0000      -0.982465       -26.7342
 108   2.0000      -0.980860       -26.6906
 109   2.0000      -0.944315       -25.6961
 110   2.0000      -0.942624       -25.6501
 111   2.0000      -0.937773       -25.5181
 112   2.0000      -0.920393       -25.0452
 113   2.0000      -0.913024       -24.8447
 114   2.0000      -0.902621       -24.5616
 115   2.0000      -0.901858       -24.5408
 116   2.0000      -0.890385       -24.2286
 117   2.0000      -0.880241       -23.9526
 118   2.0000      -0.877829       -23.8869
 119   2.0000      -0.872421       -23.7398
 120   2.0000      -0.866810       -23.5871
 121   2.0000      -0.855893       -23.2900
 122   2.0000      -0.850344       -23.1390
 123   2.0000      -0.841060       -22.8864
 124   2.0000      -0.832524       -22.6541
 125   2.0000      -0.823701       -22.4141
 126   2.0000      -0.807437       -21.9715
 127   2.0000      -0.803892       -21.8750
 128   2.0000      -0.792674       -21.5697
 129   2.0000      -0.772454       -21.0195
 130   2.0000      -0.767705       -20.8903
 131   2.0000      -0.754345       -20.5268
 132   2.0000      -0.747836       -20.3496
 133   2.0000      -0.738916       -20.1069
 134   2.0000      -0.730104       -19.8671
 135   2.0000      -0.727783       -19.8040
 136   2.0000      -0.712799       -19.3962
 137   2.0000      -0.702293       -19.1104
 138   2.0000      -0.696466       -18.9518
 139   2.0000      -0.688326       -18.7303
 140   2.0000      -0.684034       -18.6135
 141   2.0000      -0.677785       -18.4435
 142   2.0000      -0.669211       -18.2102
 143   2.0000      -0.660372       -17.9696
 144   2.0000      -0.653466       -17.7817
 145   2.0000      -0.651355       -17.7243
 146   2.0000      -0.644957       -17.5502
 147   2.0000      -0.639840       -17.4109
 148   2.0000      -0.634166       -17.2565
 149   2.0000      -0.633588       -17.2408
 150   2.0000      -0.624599       -16.9962
 151   2.0000      -0.620324       -16.8799
 152   2.0000      -0.618065       -16.8184
 153   2.0000      -0.616541       -16.7769
 154   2.0000      -0.602724       -16.4009
 155   2.0000      -0.600383       -16.3373
 156   2.0000      -0.591658       -16.0998
 157   2.0000      -0.588749       -16.0207
 158   2.0000      -0.585203       -15.9242
 159   2.0000      -0.582201       -15.8425
 160   2.0000      -0.581902       -15.8344
 161   2.0000      -0.575932       -15.6719
 162   2.0000      -0.572034       -15.5658
 163   2.0000      -0.564188       -15.3523
 164   2.0000      -0.559074       -15.2132
 165   2.0000      -0.553530       -15.0623
 166   2.0000      -0.549486       -14.9523
 167   2.0000      -0.544161       -14.8074
 168   2.0000      -0.542507       -14.7624
 169   2.0000      -0.541588       -14.7374
 170   2.0000      -0.533772       -14.5247
 171   2.0000      -0.532514       -14.4905
 172   2.0000      -0.528911       -14.3924
 173   2.0000      -0.524074       -14.2608
 174   2.0000      -0.523516       -14.2456
 175   2.0000      -0.520943       -14.1756
 176   2.0000      -0.519769       -14.1436
 177   2.0000      -0.518084       -14.0978
 178   2.0000      -0.512264       -13.9394
 179   2.0000      -0.511131       -13.9086
 180   2.0000      -0.506157       -13.7732
 181   2.0000      -0.505351       -13.7513
 182   2.0000      -0.503666       -13.7055
 183   2.0000      -0.500252       -13.6125
 184   2.0000      -0.495633       -13.4869
 185   2.0000      -0.492322       -13.3968
 186   2.0000      -0.490835       -13.3563
 187   2.0000      -0.490130       -13.3371
 188   2.0000      -0.488419       -13.2905
 189   2.0000      -0.487140       -13.2558
 190   2.0000      -0.486132       -13.2283
 191   2.0000      -0.483608       -13.1597
 192   2.0000      -0.482168       -13.1205
 193   2.0000      -0.480747       -13.0818
 194   2.0000      -0.474077       -12.9003
 195   2.0000      -0.469168       -12.7667
 196   2.0000      -0.465859       -12.6767
 197   2.0000      -0.457393       -12.4463
 198   2.0000      -0.454437       -12.3659
 199   2.0000      -0.453188       -12.3319
 200   2.0000      -0.448850       -12.2138
 201   2.0000      -0.447132       -12.1671
 202   2.0000      -0.444228       -12.0881
 203   2.0000      -0.443624       -12.0716
 204   2.0000      -0.440114       -11.9761
 205   2.0000      -0.436986       -11.8910
 206   2.0000      -0.433811       -11.8046
 207   2.0000      -0.423754       -11.5309
 208   2.0000      -0.421408       -11.4671
 209   2.0000      -0.419178       -11.4064
 210   2.0000      -0.417823       -11.3696
 211   2.0000      -0.415324       -11.3016
 212   2.0000      -0.404940       -11.0190
 213   2.0000      -0.402392       -10.9497
 214   2.0000      -0.401292       -10.9197
 215   2.0000      -0.388620       -10.5749
 216   2.0000      -0.385306       -10.4847
 217   2.0000      -0.383701       -10.4410
 218   2.0000      -0.381421       -10.3790
 219   2.0000      -0.377113       -10.2618
 220   2.0000      -0.371272       -10.1028
 221   2.0000      -0.370211       -10.0739
 222   2.0000      -0.369827       -10.0635
 223   2.0000      -0.364695        -9.9239
 224   2.0000      -0.363913        -9.9026
 225   2.0000      -0.358792        -9.7632
 226   2.0000      -0.352391        -9.5890
 227   2.0000      -0.349498        -9.5103
 228   2.0000      -0.348246        -9.4763
 229   2.0000      -0.340277        -9.2594
 230   2.0000      -0.332740        -9.0543
 231   2.0000      -0.331433        -9.0188
 232   2.0000      -0.323519        -8.8034
 233   2.0000      -0.310631        -8.4527
 234   2.0000      -0.305694        -8.3183
 235   2.0000      -0.299892        -8.1605
 236   2.0000      -0.288604        -7.8533
 237   2.0000      -0.273605        -7.4452
 238   2.0000      -0.234936        -6.3929
 239   0.0000      -0.118938        -3.2365
 240   0.0000      -0.069447        -1.8898
 241   0.0000      -0.064354        -1.7512
 242   0.0000      -0.052045        -1.4162
 243   0.0000      -0.040441        -1.1005

MULLIKEN ATOMIC CHARGES
-----------------------
   0 C :   -0.143748
   1 S :    0.056357
   2 C :    0.137265
   3 O :   -0.174774
   4 N :   -0.273898
   5 C :    0.242395
   6 O :   -0.166819
   7 C :    0.125428
   8 C :    0.050965
   9 C :   -0.031860
  10 N :   -0.074581
  11 C :    0.088387
  12 C :   -0.046695
  13 C :    0.052448
  14 N :   -0.089382
  15 C :   -0.033393
  16 C :    0.105244
  17 N :   -0.015002
  18 C :   -0.104600
  19 S :    0.174802
  20 C :   -0.009974
  21 N :    0.277852
  22 O :   -0.251985
  23 O :   -0.263881
  24 C :    0.010751
  25 C :    0.122948
  26 C :   -0.004340
  27 C :    0.005880
  28 C :    0.014512
  29 C :   -0.022435
  30 C :    0.052423
  31 C :    0.023642
  32 C :    0.003458
  33 S :    0.010967
  34 C :   -0.056245
  35 C :    0.038527
  36 C :    0.014322
  37 C :   -0.017585
  38 S :    0.100012
  39 C :    0.017511
  40 C :   -0.022466
  41 C :   -0.092989
  42 C :    0.327468
  43 C :   -0.361034
  44 C :   -0.189240
  45 N :    0.141320
  46 C :   -0.191605
  47 N :    0.131936
  48 C :    0.012990
  49 C :   -0.005421
  50 C :    0.144664
  51 O :   -0.178044
  52 C :   -0.078466
  53 C :    0.117632
  54 C :   -0.090413
  55 C :   -0.025384
  56 S :    0.183547
  57 C :   -0.122818
  58 C :    0.036385
  59 Br:    0.019689
  60 H :    0.045679
  61 H :    0.057291
  62 H :    0.047030
  63 H :    0.027529
  64 H :    0.009119
  65 H :    0.002595
  66 H :   -0.022578
  67 H :    0.040891
  68 H :    0.140978
  69 H :    0.012156
  70 H :   -0.037393
  71 H :   -0.012737
  72 H :   -0.002096
  73 H :    0.000492
  74 H :   -0.002996
  75 H :    0.000361
  76 H :    0.020304
  77 H :    0.005454
  78 H :   -0.004528
  79 H :   -0.017443
  80 H :   -0.007835
  81 H :   -0.004922
Sum of atomic charges:   -0.0000000

LOEWDIN ATOMIC CHARGES
----------------------
   0 C :   -0.185132
   1 S :    0.328542
   2 C :   -0.049080
   3 O :   -0.162876
   4 N :   -0.047187
   5 C :    0.074836
   6 O :   -0.153698
   7 C :    0.041211
   8 C :    0.002763
   9 C :    0.025063
  10 N :   -0.083006
  11 C :    0.061101
  12 C :   -0.058523
  13 C :    0.036889
  14 N :   -0.097325
  15 C :   -0.085370
  16 C :    0.057008
  17 N :    0.051016
  18 C :   -0.086460
  19 S :    0.467585
  20 C :   -0.207892
  21 N :    0.273523
  22 O :   -0.217849
  23 O :   -0.230335
  24 C :    0.009847
  25 C :   -0.112906
  26 C :   -0.007982
  27 C :   -0.047666
  28 C :   -0.022069
  29 C :   -0.157257
  30 C :   -0.004291
  31 C :   -0.047114
  32 C :   -0.146992
  33 S :    0.384244
  34 C :   -0.193361
  35 C :   -0.002958
  36 C :   -0.040941
  37 C :   -0.103096
  38 S :    0.389451
  39 C :   -0.074127
  40 C :    0.057901
  41 C :   -0.109065
  42 C :    0.075309
  43 C :   -0.155797
  44 C :   -0.019483
  45 N :   -0.064169
  46 C :   -0.016630
  47 N :   -0.071882
  48 C :   -0.018944
  49 C :   -0.049504
  50 C :    0.085934
  51 O :   -0.168392
  52 C :    0.017521
  53 C :   -0.034608
  54 C :   -0.144965
  55 C :   -0.011512
  56 S :    0.430672
  57 C :   -0.273356
  58 C :   -0.070800
  59 Br:    0.133599
  60 H :    0.034378
  61 H :    0.038055
  62 H :    0.034489
  63 H :    0.043302
  64 H :    0.028416
  65 H :    0.037307
  66 H :    0.026347
  67 H :    0.031744
  68 H :    0.096274
  69 H :    0.045934
  70 H :   -0.002503
  71 H :    0.032315
  72 H :    0.041424
  73 H :    0.039352
  74 H :    0.036583
  75 H :    0.038852
  76 H :    0.043472
  77 H :    0.030623
  78 H :    0.037414
  79 H :    0.037959
  80 H :    0.040681
  81 H :    0.038167

  Mayer bond orders larger than 0.100000
B(  0-C ,  1-S ) :   1.0227 B(  0-C ,  5-C ) :   0.9179 B(  0-C ,  8-C ) :   1.8825
B(  1-S ,  2-C ) :   0.9884 B(  2-C ,  3-O ) :   2.1386 B(  2-C ,  4-N ) :   1.0605
B(  4-N ,  5-C ) :   1.0685 B(  4-N ,  7-C ) :   0.9308 B(  5-C ,  6-O ) :   2.1561
B(  7-C , 60-H ) :   0.9762 B(  7-C , 61-H ) :   0.9583 B(  7-C , 62-H ) :   0.9779
B(  8-C ,  9-C ) :   0.9774 B(  8-C , 63-H ) :   0.9527 B(  9-C , 10-N ) :   1.4863
B(  9-C , 14-N ) :   1.5130 B( 10-N , 11-C ) :   1.5347 B( 11-C , 12-C ) :   1.3856
B( 11-C , 64-H ) :   0.9781 B( 12-C , 13-C ) :   1.3334 B( 12-C , 65-H ) :   0.9789
B( 13-C , 14-N ) :   1.4989 B( 13-C , 15-C ) :   1.1070 B( 15-C , 16-C ) :   1.7028
B( 15-C , 66-H ) :   0.9657 B( 16-C , 17-N ) :   1.1080 B( 16-C , 67-H ) :   0.9435
B( 17-N , 18-C ) :   1.2646 B( 17-N , 68-H ) :   0.9112 B( 18-C , 19-S ) :   1.1476
B( 18-C , 25-C ) :   1.2973 B( 19-S , 20-C ) :   1.0560 B( 20-C , 21-N ) :   0.9750
B( 20-C , 24-C ) :   1.5134 B( 21-N , 22-O ) :   1.5309 B( 21-N , 23-O ) :   1.5083
B( 22-O , 23-O ) :   0.2571 B( 24-C , 25-C ) :   1.2133 B( 24-C , 69-H ) :   1.0011
B( 25-C , 26-C ) :   1.1565 B( 26-C , 27-C ) :   1.6362 B( 26-C , 70-H ) :   0.9371
B( 27-C , 28-C ) :   1.2040 B( 27-C , 71-H ) :   0.9736 B( 28-C , 29-C ) :   1.5632
B( 28-C , 72-H ) :   0.9627 B( 29-C , 30-C ) :   1.1628 B( 29-C , 33-S ) :   1.0188
B( 30-C , 31-C ) :   1.5724 B( 30-C , 73-H ) :   0.9982 B( 31-C , 32-C ) :   1.2031
B( 31-C , 74-H ) :   0.9932 B( 32-C , 33-S ) :   1.0680 B( 32-C , 34-C ) :   1.4677
B( 34-C , 35-C ) :   1.2149 B( 34-C , 38-S ) :   1.0393 B( 35-C , 36-C ) :   1.5603
B( 35-C , 75-H ) :   0.9945 B( 36-C , 37-C ) :   1.1905 B( 36-C , 76-H ) :   0.9898
B( 37-C , 38-S ) :   1.0923 B( 37-C , 39-C ) :   1.3937 B( 39-C , 40-C ) :   1.2991
B( 39-C , 77-H ) :   0.9648 B( 40-C , 41-C ) :   1.4756 B( 40-C , 78-H ) :   0.9475
B( 41-C , 42-C ) :   1.1064 B( 41-C , 50-C ) :   0.9673 B( 42-C , 43-C ) :   1.5876
B( 42-C , 48-C ) :   0.9924 B( 43-C , 44-C ) :   1.1479 B( 43-C , 46-C ) :   1.1539
B( 44-C , 45-N ) :   2.9641 B( 46-C , 47-N ) :   2.9714 B( 48-C , 49-C ) :   1.2771
B( 48-C , 55-C ) :   1.4176 B( 49-C , 50-C ) :   0.9420 B( 49-C , 52-C ) :   1.4237
B( 50-C , 51-O ) :   2.1643 B( 52-C , 53-C ) :   1.2413 B( 52-C , 79-H ) :   1.0179
B( 53-C , 54-C ) :   1.3136 B( 53-C , 58-C ) :   1.1619 B( 54-C , 55-C ) :   1.3198
B( 54-C , 56-S ) :   1.0853 B( 55-C , 80-H ) :   0.9805 B( 56-S , 57-C ) :   1.0868
B( 57-C , 58-C ) :   1.6181 B( 57-C , 59-Br) :   1.0161 B( 58-C , 81-H ) :   1.0006

-----------------------------------------------------------------------------
         ABSORPTION SPECTRUM VIA TRANSITION ELECTRIC DIPOLE MOMENTS
-----------------------------------------------------------------------------
State   Energy  Wavelength   fosc         T2         TX        TY        TZ
        (cm-1)    (nm)                  (au**2)     (au)      (au)      (au)
-----------------------------------------------------------------------------
   0   11450.5    873.3   1.136146832  32.66522  -3.28614   4.62289   0.70386
   1   19638.0    509.2   0.471850272   7.91013   0.50135  -1.54947  -2.29301
   2   21541.6    464.2   0.192437222   2.94094  -0.32517   0.94206   1.39561
   3   23461.1    426.2   0.321159083   4.50657   0.97971  -1.61646  -0.96632
   4   24108.0    414.8   0.076349822   1.04261  -0.44649   0.23264  -0.88834
   5   24619.3    406.2   0.220613909   2.95007  -0.11031   0.85355   1.48639
   6   26973.8    370.7   0.431329101   5.26432  -0.54258  -0.24654  -2.21566
   7   27105.0    368.9   0.018537191   0.22515   0.10400   0.05976   0.45909
   8   28186.7    354.8   0.015873696   0.18540   0.13551   0.01865   0.40828
   9   29497.1    339.0   0.320481972   3.57685  -1.14262   1.48730   0.24333
  10   29620.5    337.6   0.130493170   1.45034   0.57992  -0.94702  -0.46604
  11   30226.7    330.8   0.120779463   1.31546   0.45227  -0.78499  -0.70335
  12   31041.6    322.1   0.030356020   0.32194  -0.31839   0.38075  -0.27495
  13   31134.2    321.2   0.489895409   5.18013   0.19042   0.71031   2.15391
  14   31488.1    317.6   0.058109194   0.60754   0.10683  -0.39988  -0.66047
  15   31930.3    313.2   0.248634251   2.56350  -0.47968  -0.23975  -1.50862
  16   32189.6    310.7   0.015578656   0.15933   0.08323  -0.04340   0.38796
  17   32339.2    309.2   0.000107108   0.00109  -0.00084   0.00415   0.03275
  18   32671.6    306.1   0.004120188   0.04152  -0.04226   0.12449  -0.15567
  19   33425.9    299.2   0.000188315   0.00185  -0.00904   0.04089   0.01007
  20   33455.2    298.9   0.001644855   0.01619  -0.01669   0.02246   0.12411
  21   34212.9    292.3   0.090082985   0.86682  -0.23660   0.55413   0.70977
  22   34327.7    291.3   0.004101147   0.03933   0.12428  -0.06591  -0.13979
  23   34544.9    289.5   0.011415970   0.10879  -0.15504   0.19647   0.21484
  24   35144.9    284.5   0.005720245   0.05358  -0.05110   0.12418   0.18855
  25   35566.8    281.2   0.038916619   0.36022  -0.43468   0.20913  -0.35712
  26   35635.4    280.6   0.216696224   2.00191  -0.59843   0.64909  -1.10565
  27   35877.6    278.7   0.014233534   0.13061   0.18292   0.30454   0.06633
  28   36050.8    277.4   0.057336131   0.52359   0.10220  -0.09796   0.70961
  29   37212.3    268.7   0.010415945   0.09215  -0.01221   0.07767   0.29320
  30   37559.1    266.2   0.074433579   0.65242  -0.45100   0.63801  -0.20483
  31   37847.7    264.2   0.017318953   0.15065  -0.08024   0.22293   0.30743
  32   38126.4    262.3   0.030101898   0.25992  -0.28541   0.26654   0.32775
  33   38457.2    260.0   0.452070481   3.86994   0.94895  -0.50984   1.64606
  34   38641.0    258.8   0.008501722   0.07243  -0.01748  -0.09954   0.24944
  35   39219.5    255.0   0.018110141   0.15202   0.00947   0.01965  -0.38928
  36   39247.3    254.8   0.078549936   0.65889  -0.21746   0.29551   0.72407
  37   39431.2    253.6   0.147313394   1.22992  -0.45688   0.03894   1.00979
  38   39972.8    250.2   0.160101603   1.31858   0.35257  -1.05816   0.27306
  39   40151.8    249.1   0.000738642   0.00606  -0.03771   0.06635   0.01522

FINAL SINGLE POINT ENERGY     -6934.307087335774

DIPOLE MOMENT
-------------
                                X             Y             Z
Electronic contribution:    -42.63892     102.51889      68.86046
Nuclear contribution   :     43.08049    -103.63169     -71.44950
                        -----------------------------------------
Total Dipole Moment    :      0.44156      -1.11280      -2.58904
                        -----------------------------------------
Magnitude (a.u.)       :      2.85244
Magnitude (Debye)      :      7.25034

Rotational constants in cm-1:     0.000939     0.000488     0.000326
Rotational constants in MHz :    28.138639    14.619132     9.771755

                             ****ORCA TERMINATED NORMALLY****
TOTAL RUN TIME: 0 days 0 hours 6 minutes 54 seconds 831 msec
