                         Program Version 4.2.0 -  RELEASE  -
|  1> # ORCA input file
|  2> # SCF done       -180.099200663515          0.000554732064
|  3> ! CAM-B3LYP def2-SVP def2/J RIJCOSX Grid4 TightSCF
|  4> %maxcore 5000
|  5> %tddft
|  6>     Mode sTDDFT
|  7>     Ethresh 5.0
|  8>     maxcore 5000
|  9> end
| 10>
| 11> %pal
| 12>   nprocs 6
| 13>   end
| 14> * xyz 0 1
| 15>    C       -4.34681        -2.85498        -2.39804
| 16>    C       -5.10429        -3.94238        -2.05927
| 17>    C       -4.66554        -5.27726        -2.19690
| 18>    N       -4.35601        -6.37870        -2.28194
| 19>    C       -6.44337        -3.89218        -1.61041
| 20>    N       -7.54350        -3.93826        -1.28870
| 21>    C       -3.03467        -2.89319        -3.02662
| 22>    C       -2.70332        -1.58607        -3.46020
| 23>    C       -1.52771        -1.30073        -4.11278
| 24>    C       -0.63308        -2.35170        -4.33749
| 25>    C       -0.96963        -3.65347        -3.89117
| 26>    C       -2.16110        -3.94387        -3.23927
| 27>    S        0.28027        -4.80011        -4.26252
| 28>    C        1.22500        -3.53621        -5.00453
| 29>    C        0.63637        -2.31626        -4.97560
| 30>   Br        2.89913        -3.94448        -5.74312
| 31>    C       -3.78596        -0.64853        -3.09908
| 32>    O       -3.84152         0.52156        -3.40394
| 33>    C       -4.74981        -1.45773        -2.29821
| 34>    C       -5.73705        -1.01009        -1.47382
| 35>    C       -6.20279         0.31114        -1.28061
| 36>    O       -5.81862         1.36351        -2.04344
| 37>    C       -7.11513         0.77430        -0.34411
| 38>    C       -7.95185         0.38208         0.80299
| 39>    O       -8.09111        -0.67702         1.35011
| 40>    N       -8.57726         1.57151         1.16616
| 41>    C       -8.23174         2.68985         0.40624
| 42>    O       -8.65910         3.80047         0.57179
| 43>    C       -7.27327         2.15716        -0.56938
| 44>    C       -6.44688         2.48543        -1.63450
| 45>    C       -6.19201         3.72291        -2.28511
| 46>    C       -5.27894         3.83206        -3.27673
| 47>    C       -5.00912         5.06182        -3.95035
| 48>    C       -4.09162         5.24978        -4.91565
| 49>    C       -3.18179         4.19724        -5.45593
| 50>    C       -3.91564         6.61400        -5.53054
| 51>    N       -4.27083         6.58121        -6.93183
| 52>    C       -3.75837         7.42621        -7.84616
| 53>    C       -4.23263         7.58193        -9.10596
| 54>    C       -3.67297         8.47623       -10.04612
| 55>    S       -2.28906         9.48748        -9.72508
| 56>    C       -2.36562        10.30335       -11.28004
| 57>    C       -3.40765         9.74931       -12.02340
| 58>    C       -4.12111         8.74028       -11.32712
| 59>    S       -5.39147         8.12263       -12.33239
| 60>    C       -4.84342         9.22819       -13.57230
| 61>    N       -3.84474         9.97423       -13.29076
| 62>    C       -1.42723        11.29253       -11.58941
| 63>    C       -1.43975        12.20796       -12.61007
| 64>    C       -0.16083        12.83322       -13.02617
| 65>    O        0.89910        12.78508       -12.43972
| 66>    C       -0.44698        13.47602       -14.32503
| 67>    C        0.40857        14.10723       -15.17974
| 68>    C       -0.09064        14.62801       -16.39548
| 69>    C       -1.47379        14.47709       -16.70271
| 70>    C       -1.96270        14.99126       -17.91927
| 71>    C       -1.10448        15.62504       -18.77390
| 72>    C        0.25762        15.78615       -18.48894
| 73>    C        0.74930        15.29094       -17.31299
| 74>    F       -1.57132        16.11821       -19.93755
| 75>    C       -2.33934        13.82581       -15.79196
| 76>    C       -1.83425        13.33828       -14.61826
| 77>    C       -2.47994        12.67129       -13.48890
| 78>    C       -3.82591        12.71215       -13.21748
| 79>    C       -4.38084        12.35079       -11.97677
| 80>    N       -4.86984        12.10306       -10.96687
| 81>    C       -4.79748        13.19961       -14.11080
| 82>    N       -5.63900        13.56008       -14.80488
| 83>    H       -1.30268        -0.29690        -4.43753
| 84>    H       -2.37203        -4.94885        -2.91419
| 85>    H        1.07972        -1.42769        -5.38632
| 86>    H       -6.24463        -1.72301        -0.83575
| 87>    H       -9.23055         1.62340         1.93516
| 88>    H       -6.76375         4.56825        -1.93130
| 89>    H       -4.72973         2.94540        -3.55953
| 90>    H       -5.60580         5.90808        -3.63161
| 91>    H       -3.56865         3.19601        -5.29654
| 92>    H       -2.21202         4.26701        -4.96089
| 93>    H       -3.02001         4.35434        -6.52093
| 94>    H       -2.86702         6.91996        -5.45825
| 95>    H       -4.52611         7.35215        -4.99214
| 96>    H       -5.14498         6.12749        -7.15671
| 97>    H       -2.88819         7.98632        -7.52961
| 98>    H       -5.10243         7.03092        -9.43678
| 99>    H       -5.34673         9.25611       -14.51917
|100>    H       -0.52758        11.30054       -10.98133
|101>    H        1.45485        14.20980       -14.93322
|102>    H       -3.00698        14.88875       -18.17006
|103>    H        0.88701        16.29584       -19.20115
|104>    H        1.79560        15.40248       -17.07079
|105>    H       -3.38111        13.72158       -16.05076
|106> *
|107>
|108>                          ****END OF INPUT****

CARTESIAN COORDINATES (ANGSTROEM)
---------------------------------
  C     -4.346810   -2.854980   -2.398040
  C     -5.104290   -3.942380   -2.059270
  C     -4.665540   -5.277260   -2.196900
  N     -4.356010   -6.378700   -2.281940
  C     -6.443370   -3.892180   -1.610410
  N     -7.543500   -3.938260   -1.288700
  C     -3.034670   -2.893190   -3.026620
  C     -2.703320   -1.586070   -3.460200
  C     -1.527710   -1.300730   -4.112780
  C     -0.633080   -2.351700   -4.337490
  C     -0.969630   -3.653470   -3.891170
  C     -2.161100   -3.943870   -3.239270
  S      0.280270   -4.800110   -4.262520
  C      1.225000   -3.536210   -5.004530
  C      0.636370   -2.316260   -4.975600
  Br     2.899130   -3.944480   -5.743120
  C     -3.785960   -0.648530   -3.099080
  O     -3.841520    0.521560   -3.403940
  C     -4.749810   -1.457730   -2.298210
  C     -5.737050   -1.010090   -1.473820
  C     -6.202790    0.311140   -1.280610
  O     -5.818620    1.363510   -2.043440
  C     -7.115130    0.774300   -0.344110
  C     -7.951850    0.382080    0.802990
  O     -8.091110   -0.677020    1.350110
  N     -8.577260    1.571510    1.166160
  C     -8.231740    2.689850    0.406240
  O     -8.659100    3.800470    0.571790
  C     -7.273270    2.157160   -0.569380
  C     -6.446880    2.485430   -1.634500
  C     -6.192010    3.722910   -2.285110
  C     -5.278940    3.832060   -3.276730
  C     -5.009120    5.061820   -3.950350
  C     -4.091620    5.249780   -4.915650
  C     -3.181790    4.197240   -5.455930
  C     -3.915640    6.614000   -5.530540
  N     -4.270830    6.581210   -6.931830
  C     -3.758370    7.426210   -7.846160
  C     -4.232630    7.581930   -9.105960
  C     -3.672970    8.476230  -10.046120
  S     -2.289060    9.487480   -9.725080
  C     -2.365620   10.303350  -11.280040
  C     -3.407650    9.749310  -12.023400
  C     -4.121110    8.740280  -11.327120
  S     -5.391470    8.122630  -12.332390
  C     -4.843420    9.228190  -13.572300
  N     -3.844740    9.974230  -13.290760
  C     -1.427230   11.292530  -11.589410
  C     -1.439750   12.207960  -12.610070
  C     -0.160830   12.833220  -13.026170
  O      0.899100   12.785080  -12.439720
  C     -0.446980   13.476020  -14.325030
  C      0.408570   14.107230  -15.179740
  C     -0.090640   14.628010  -16.395480
  C     -1.473790   14.477090  -16.702710
  C     -1.962700   14.991260  -17.919270
  C     -1.104480   15.625040  -18.773900
  C      0.257620   15.786150  -18.488940
  C      0.749300   15.290940  -17.312990
  F     -1.571320   16.118210  -19.937550
  C     -2.339340   13.825810  -15.791960
  C     -1.834250   13.338280  -14.618260
  C     -2.479940   12.671290  -13.488900
  C     -3.825910   12.712150  -13.217480
  C     -4.380840   12.350790  -11.976770
  N     -4.869840   12.103060  -10.966870
  C     -4.797480   13.199610  -14.110800
  N     -5.639000   13.560080  -14.804880
  H     -1.302680   -0.296900   -4.437530
  H     -2.372030   -4.948850   -2.914190
  H      1.079720   -1.427690   -5.386320
  H     -6.244630   -1.723010   -0.835750
  H     -9.230550    1.623400    1.935160
  H     -6.763750    4.568250   -1.931300
  H     -4.729730    2.945400   -3.559530
  H     -5.605800    5.908080   -3.631610
  H     -3.568650    3.196010   -5.296540
  H     -2.212020    4.267010   -4.960890
  H     -3.020010    4.354340   -6.520930
  H     -2.867020    6.919960   -5.458250
  H     -4.526110    7.352150   -4.992140
  H     -5.144980    6.127490   -7.156710
  H     -2.888190    7.986320   -7.529610
  H     -5.102430    7.030920   -9.436780
  H     -5.346730    9.256110  -14.519170
  H     -0.527580   11.300540  -10.981330
  H      1.454850   14.209800  -14.933220
  H     -3.006980   14.888750  -18.170060
  H      0.887010   16.295840  -19.201150
  H      1.795600   15.402480  -17.070790
  H     -3.381110   13.721580  -16.050760

 Total Charge           Charge          ....    0
 Multiplicity           Mult            ....    1
 Number of Electrons    NEL             ....  510
 Basis Dimension        Dim             .... 1097

ORBITAL ENERGIES
----------------

  NO   OCC          E(Eh)            E(eV)
   0   2.0000    -482.894015    -13140.2142
   1   2.0000     -88.985079     -2421.4071
   2   2.0000     -88.970251     -2421.0036
   3   2.0000     -88.967500     -2420.9288
   4   2.0000     -62.571720     -1702.6631
   5   2.0000     -56.405678     -1534.8765
   6   2.0000     -56.402947     -1534.8022
   7   2.0000     -56.402917     -1534.8014
   8   2.0000     -24.774296      -674.1429
   9   2.0000     -19.322040      -525.7794
  10   2.0000     -19.230826      -523.2974
  11   2.0000     -19.224428      -523.1233
  12   2.0000     -19.221956      -523.0560
  13   2.0000     -19.195470      -522.3353
  14   2.0000     -14.465404      -393.6237
  15   2.0000     -14.462891      -393.5553
  16   2.0000     -14.424820      -392.5193
  17   2.0000     -14.422826      -392.4651
  18   2.0000     -14.421545      -392.4302
  19   2.0000     -14.397336      -391.7714
  20   2.0000     -14.396199      -391.7405
  21   2.0000     -10.413326      -283.3610
  22   2.0000     -10.411688      -283.3164
  23   2.0000     -10.384088      -282.5654
  24   2.0000     -10.381135      -282.4850
  25   2.0000     -10.376321      -282.3541
  26   2.0000     -10.368659      -282.1455
  27   2.0000     -10.356641      -281.8185
  28   2.0000     -10.354718      -281.7662
  29   2.0000     -10.351994      -281.6921
  30   2.0000     -10.350847      -281.6609
  31   2.0000     -10.346828      -281.5515
  32   2.0000     -10.343697      -281.4663
  33   2.0000     -10.336575      -281.2725
  34   2.0000     -10.336293      -281.2648
  35   2.0000     -10.336166      -281.2614
  36   2.0000     -10.332668      -281.1662
  37   2.0000     -10.326930      -281.0100
  38   2.0000     -10.324318      -280.9390
  39   2.0000     -10.320605      -280.8379
  40   2.0000     -10.319460      -280.8068
  41   2.0000     -10.319034      -280.7952
  42   2.0000     -10.318531      -280.7815
  43   2.0000     -10.318486      -280.7803
  44   2.0000     -10.316570      -280.7281
  45   2.0000     -10.316182      -280.7176
  46   2.0000     -10.314926      -280.6834
  47   2.0000     -10.312791      -280.6253
  48   2.0000     -10.311450      -280.5888
  49   2.0000     -10.307367      -280.4777
  50   2.0000     -10.306343      -280.4498
  51   2.0000     -10.305906      -280.4380
  52   2.0000     -10.305692      -280.4321
  53   2.0000     -10.305227      -280.4195
  54   2.0000     -10.304861      -280.4095
  55   2.0000     -10.304303      -280.3944
  56   2.0000     -10.304037      -280.3871
  57   2.0000     -10.301212      -280.3102
  58   2.0000     -10.298765      -280.2437
  59   2.0000     -10.294936      -280.1395
  60   2.0000     -10.291432      -280.0441
  61   2.0000     -10.288308      -279.9591
  62   2.0000     -10.286273      -279.9037
  63   2.0000     -10.285237      -279.8755
  64   2.0000     -10.285058      -279.8707
  65   2.0000     -10.284319      -279.8506
  66   2.0000     -10.283121      -279.8179
  67   2.0000     -10.281690      -279.7790
  68   2.0000     -10.280492      -279.7464
  69   2.0000     -10.276105      -279.6270
  70   2.0000     -10.275319      -279.6057
  71   2.0000     -10.273045      -279.5438
  72   2.0000      -8.801151      -239.4915
  73   2.0000      -8.081128      -219.8987
  74   2.0000      -8.066506      -219.5008
  75   2.0000      -8.062775      -219.3993
  76   2.0000      -6.637478      -180.6150
  77   2.0000      -6.622885      -180.2179
  78   2.0000      -6.622655      -180.2116
  79   2.0000      -6.050808      -164.6509
  80   2.0000      -6.046526      -164.5343
  81   2.0000      -6.042342      -164.4205
  82   2.0000      -6.035864      -164.2442
  83   2.0000      -6.032189      -164.1442
  84   2.0000      -6.031866      -164.1354
  85   2.0000      -6.028227      -164.0364
  86   2.0000      -6.028122      -164.0335
  87   2.0000      -6.024500      -163.9350
  88   2.0000      -2.753357       -74.9227
  89   2.0000      -2.749243       -74.8107
  90   2.0000      -2.749084       -74.8064
  91   2.0000      -2.737470       -74.4903
  92   2.0000      -2.737465       -74.4902
  93   2.0000      -1.288576       -35.0639
  94   2.0000      -1.245392       -33.8888
  95   2.0000      -1.168020       -31.7834
  96   2.0000      -1.147788       -31.2329
  97   2.0000      -1.146173       -31.1889
  98   2.0000      -1.110047       -30.2059
  99   2.0000      -1.079178       -29.3659
 100   2.0000      -1.063746       -28.9460
 101   2.0000      -1.055126       -28.7114
 102   2.0000      -1.033638       -28.1267
 103   2.0000      -1.022642       -27.8275
 104   2.0000      -1.002487       -27.2791
 105   2.0000      -1.000584       -27.2273
 106   2.0000      -0.999604       -27.2006
 107   2.0000      -0.986861       -26.8538
 108   2.0000      -0.983813       -26.7709
 109   2.0000      -0.975726       -26.5509
 110   2.0000      -0.959701       -26.1148
 111   2.0000      -0.958629       -26.0856
 112   2.0000      -0.949920       -25.8486
 113   2.0000      -0.939683       -25.5701
 114   2.0000      -0.933724       -25.4079
 115   2.0000      -0.920902       -25.0590
 116   2.0000      -0.918483       -24.9932
 117   2.0000      -0.908484       -24.7211
 118   2.0000      -0.904417       -24.6104
 119   2.0000      -0.896465       -24.3941
 120   2.0000      -0.889795       -24.2126
 121   2.0000      -0.882329       -24.0094
 122   2.0000      -0.876696       -23.8561
 123   2.0000      -0.870416       -23.6852
 124   2.0000      -0.856279       -23.3005
 125   2.0000      -0.845496       -23.0071
 126   2.0000      -0.839239       -22.8369
 127   2.0000      -0.830131       -22.5890
 128   2.0000      -0.820883       -22.3373
 129   2.0000      -0.815759       -22.1979
 130   2.0000      -0.808360       -21.9966
 131   2.0000      -0.794922       -21.6309
 132   2.0000      -0.786732       -21.4081
 133   2.0000      -0.777366       -21.1532
 134   2.0000      -0.771128       -20.9835
 135   2.0000      -0.768642       -20.9158
 136   2.0000      -0.762065       -20.7369
 137   2.0000      -0.744326       -20.2541
 138   2.0000      -0.729431       -19.8488
 139   2.0000      -0.726673       -19.7738
 140   2.0000      -0.718719       -19.5573
 141   2.0000      -0.712343       -19.3838
 142   2.0000      -0.706673       -19.2296
 143   2.0000      -0.704699       -19.1758
 144   2.0000      -0.699765       -19.0416
 145   2.0000      -0.694128       -18.8882
 146   2.0000      -0.687410       -18.7054
 147   2.0000      -0.683204       -18.5909
 148   2.0000      -0.668610       -18.1938
 149   2.0000      -0.663820       -18.0635
 150   2.0000      -0.652514       -17.7558
 151   2.0000      -0.648388       -17.6435
 152   2.0000      -0.644257       -17.5311
 153   2.0000      -0.637715       -17.3531
 154   2.0000      -0.629729       -17.1358
 155   2.0000      -0.621079       -16.9004
 156   2.0000      -0.617641       -16.8069
 157   2.0000      -0.617153       -16.7936
 158   2.0000      -0.612288       -16.6612
 159   2.0000      -0.609491       -16.5851
 160   2.0000      -0.606486       -16.5033
 161   2.0000      -0.600820       -16.3491
 162   2.0000      -0.597281       -16.2528
 163   2.0000      -0.593800       -16.1581
 164   2.0000      -0.591693       -16.1008
 165   2.0000      -0.589964       -16.0537
 166   2.0000      -0.580470       -15.7954
 167   2.0000      -0.574731       -15.6392
 168   2.0000      -0.567199       -15.4343
 169   2.0000      -0.565489       -15.3877
 170   2.0000      -0.558071       -15.1859
 171   2.0000      -0.557242       -15.1633
 172   2.0000      -0.554786       -15.0965
 173   2.0000      -0.553111       -15.0509
 174   2.0000      -0.549925       -14.9642
 175   2.0000      -0.548750       -14.9323
 176   2.0000      -0.546458       -14.8699
 177   2.0000      -0.544535       -14.8176
 178   2.0000      -0.542491       -14.7619
 179   2.0000      -0.538053       -14.6412
 180   2.0000      -0.536358       -14.5951
 181   2.0000      -0.533713       -14.5231
 182   2.0000      -0.532809       -14.4985
 183   2.0000      -0.531167       -14.4538
 184   2.0000      -0.527768       -14.3613
 185   2.0000      -0.526528       -14.3276
 186   2.0000      -0.519537       -14.1373
 187   2.0000      -0.517923       -14.0934
 188   2.0000      -0.514751       -14.0071
 189   2.0000      -0.514121       -13.9900
 190   2.0000      -0.512521       -13.9464
 191   2.0000      -0.509768       -13.8715
 192   2.0000      -0.507411       -13.8073
 193   2.0000      -0.504633       -13.7318
 194   2.0000      -0.504053       -13.7160
 195   2.0000      -0.499871       -13.6022
 196   2.0000      -0.497698       -13.5430
 197   2.0000      -0.494468       -13.4552
 198   2.0000      -0.492914       -13.4129
 199   2.0000      -0.490463       -13.3462
 200   2.0000      -0.485096       -13.2001
 201   2.0000      -0.478838       -13.0298
 202   2.0000      -0.477915       -13.0047
 203   2.0000      -0.477575       -12.9955
 204   2.0000      -0.468993       -12.7620
 205   2.0000      -0.468433       -12.7467
 206   2.0000      -0.467186       -12.7128
 207   2.0000      -0.466218       -12.6864
 208   2.0000      -0.462466       -12.5844
 209   2.0000      -0.457991       -12.4626
 210   2.0000      -0.456266       -12.4156
 211   2.0000      -0.456057       -12.4100
 212   2.0000      -0.451258       -12.2793
 213   2.0000      -0.448294       -12.1987
 214   2.0000      -0.447075       -12.1655
 215   2.0000      -0.446031       -12.1371
 216   2.0000      -0.443031       -12.0555
 217   2.0000      -0.440235       -11.9794
 218   2.0000      -0.435464       -11.8496
 219   2.0000      -0.434823       -11.8321
 220   2.0000      -0.432600       -11.7716
 221   2.0000      -0.432257       -11.7623
 222   2.0000      -0.427676       -11.6377
 223   2.0000      -0.425616       -11.5816
 224   2.0000      -0.423194       -11.5157
 225   2.0000      -0.420891       -11.4530
 226   2.0000      -0.417480       -11.3602
 227   2.0000      -0.414718       -11.2851
 228   2.0000      -0.410167       -11.1612
 229   2.0000      -0.408194       -11.1075
 230   2.0000      -0.403152       -10.9703
 231   2.0000      -0.400208       -10.8902
 232   2.0000      -0.397131       -10.8065
 233   2.0000      -0.389348       -10.5947
 234   2.0000      -0.389166       -10.5897
 235   2.0000      -0.383259       -10.4290
 236   2.0000      -0.381860       -10.3909
 237   2.0000      -0.374043       -10.1782
 238   2.0000      -0.372768       -10.1435
 239   2.0000      -0.368224       -10.0199
 240   2.0000      -0.366656        -9.9772
 241   2.0000      -0.357957        -9.7405
 242   2.0000      -0.357285        -9.7222
 243   2.0000      -0.350273        -9.5314
 244   2.0000      -0.341550        -9.2940
 245   2.0000      -0.335555        -9.1309
 246   2.0000      -0.325887        -8.8678
 247   2.0000      -0.321621        -8.7518
 248   2.0000      -0.318287        -8.6610
 249   2.0000      -0.312415        -8.5013
 250   2.0000      -0.303624        -8.2620
 251   2.0000      -0.294326        -8.0090
 252   2.0000      -0.282679        -7.6921
 253   2.0000      -0.281330        -7.6554
 254   2.0000      -0.241565        -6.5733
 255   0.0000      -0.109170        -2.9707
 256   0.0000      -0.082483        -2.2445
 257   0.0000      -0.073000        -1.9864
 258   0.0000      -0.062784        -1.7084
 259   0.0000      -0.041208        -1.1213

MULLIKEN ATOMIC CHARGES
-----------------------
   0 C :    0.283934
   1 C :   -0.327609
   2 C :   -0.183628
   3 N :    0.152745
   4 C :   -0.205000
   5 N :    0.179526
   6 C :    0.023294
   7 C :   -0.012853
   8 C :   -0.076498
   9 C :    0.121509
  10 C :   -0.088403
  11 C :   -0.020959
  12 S :    0.192782
  13 C :   -0.125057
  14 C :    0.039852
  15 Br:    0.030509
  16 C :    0.143791
  17 O :   -0.130929
  18 C :   -0.060277
  19 C :   -0.047837
  20 C :    0.076827
  21 O :   -0.171342
  22 C :   -0.022439
  23 C :    0.176734
  24 O :   -0.123631
  25 N :   -0.169142
  26 C :    0.171978
  27 O :   -0.133623
  28 C :   -0.045317
  29 C :    0.101791
  30 C :   -0.043869
  31 C :    0.032039
  32 C :    0.016238
  33 C :   -0.216390
  34 C :    0.103108
  35 C :    0.227350
  36 N :   -0.163863
  37 C :    0.075176
  38 C :   -0.038922
  39 C :   -0.115738
  40 S :    0.123316
  41 C :   -0.167575
  42 C :    0.094489
  43 C :   -0.032418
  44 S :    0.105751
  45 C :    0.041839
  46 N :   -0.054543
  47 C :    0.063438
  48 C :   -0.148800
  49 C :    0.132338
  50 O :   -0.158238
  51 C :    0.012069
  52 C :   -0.088699
  53 C :    0.102307
  54 C :    0.106259
  55 C :   -0.101795
  56 C :    0.300333
  57 C :   -0.033271
  58 C :   -0.012600
  59 F :   -0.195921
  60 C :   -0.098630
  61 C :    0.044393
  62 C :    0.313132
  63 C :   -0.321184
  64 C :   -0.218445
  65 N :    0.155096
  66 C :   -0.187069
  67 N :    0.134928
  68 H :   -0.014800
  69 H :   -0.002765
  70 H :   -0.004141
  71 H :    0.039750
  72 H :    0.143641
  73 H :    0.011669
  74 H :    0.029511
  75 H :   -0.015997
  76 H :    0.036952
  77 H :    0.033123
  78 H :    0.021014
  79 H :    0.024364
  80 H :    0.020131
  81 H :    0.127240
  82 H :    0.019080
  83 H :   -0.021068
  84 H :    0.054499
  85 H :    0.009557
  86 H :   -0.017566
  87 H :   -0.006072
  88 H :   -0.001154
  89 H :   -0.013064
  90 H :   -0.010261
Sum of atomic charges:   -0.0000000

LOEWDIN ATOMIC CHARGES
----------------------
   0 C :    0.070937
   1 C :   -0.129314
   2 C :   -0.017747
   3 N :   -0.045435
   4 C :   -0.029911
   5 N :   -0.033227
   6 C :   -0.020619
   7 C :   -0.052496
   8 C :    0.020723
   9 C :   -0.031430
  10 C :   -0.142455
  11 C :   -0.008301
  12 S :    0.437710
  13 C :   -0.269721
  14 C :   -0.071076
  15 Br:    0.141989
  16 C :    0.082831
  17 O :   -0.140963
  18 C :   -0.075260
  19 C :    0.046424
  20 C :    0.040617
  21 O :    0.046521
  22 C :   -0.058011
  23 C :    0.084495
  24 O :   -0.139120
  25 N :   -0.005012
  26 C :    0.085970
  27 O :   -0.151937
  28 C :   -0.105103
  29 C :    0.089770
  30 C :   -0.047990
  31 C :    0.024504
  32 C :   -0.048302
  33 C :   -0.017291
  34 C :   -0.049980
  35 C :    0.050818
  36 N :    0.004365
  37 C :    0.060440
  38 C :   -0.140621
  39 C :   -0.134541
  40 S :    0.441173
  41 C :   -0.197461
  42 C :   -0.033136
  43 C :   -0.223657
  44 S :    0.391950
  45 C :   -0.073685
  46 N :   -0.081169
  47 C :    0.041042
  48 C :   -0.103781
  49 C :    0.080592
  50 O :   -0.159555
  51 C :   -0.058064
  52 C :    0.028788
  53 C :   -0.021918
  54 C :    0.002812
  55 C :   -0.044704
  56 C :    0.090335
  57 C :   -0.043282
  58 C :    0.002514
  59 F :   -0.069872
  60 C :    0.003129
  61 C :   -0.010329
  62 C :    0.069660
  63 C :   -0.140597
  64 C :   -0.017156
  65 N :   -0.067575
  66 C :   -0.017194
  67 N :   -0.071936
  68 H :    0.038847
  69 H :    0.041987
  70 H :    0.038605
  71 H :    0.061163
  72 H :    0.097591
  73 H :    0.044647
  74 H :    0.038130
  75 H :    0.029071
  76 H :    0.037023
  77 H :    0.044150
  78 H :    0.032281
  79 H :    0.035175
  80 H :    0.023495
  81 H :    0.084382
  82 H :    0.027446
  83 H :    0.028317
  84 H :    0.026303
  85 H :    0.042565
  86 H :    0.037132
  87 H :    0.041566
  88 H :    0.039633
  89 H :    0.033925
  90 H :    0.037385

  Mayer bond orders larger than 0.100000
B(  0-C ,  1-C ) :   1.6602 B(  0-C ,  6-C ) :   1.0102 B(  0-C , 18-C ) :   1.0434
B(  1-C ,  2-C ) :   1.1375 B(  1-C ,  4-C ) :   1.1318 B(  2-C ,  3-N ) :   2.9763
B(  4-C ,  5-N ) :   3.0059 B(  6-C ,  7-C ) :   1.2730 B(  6-C , 11-C ) :   1.4050
B(  7-C ,  8-C ) :   1.4188 B(  7-C , 16-C ) :   0.9440 B(  8-C ,  9-C ) :   1.2518
B(  8-C , 68-H ) :   1.0161 B(  9-C , 10-C ) :   1.2993 B(  9-C , 14-C ) :   1.1637
B( 10-C , 11-C ) :   1.3340 B( 10-C , 12-S ) :   1.0878 B( 11-C , 69-H ) :   0.9813
B( 12-S , 13-C ) :   1.0879 B( 13-C , 14-C ) :   1.6176 B( 13-C , 15-Br) :   1.0233
B( 14-C , 70-H ) :   1.0004 B( 16-C , 17-O ) :   2.2240 B( 16-C , 18-C ) :   0.9215
B( 18-C , 19-C ) :   1.5788 B( 19-C , 20-C ) :   1.2074 B( 19-C , 71-H ) :   0.9360
B( 20-C , 21-O ) :   1.1500 B( 20-C , 22-C ) :   1.3837 B( 21-O , 29-C ) :   1.2027
B( 22-C , 23-C ) :   0.8631 B( 22-C , 28-C ) :   1.3180 B( 23-C , 24-O ) :   2.2674
B( 23-C , 25-N ) :   1.0871 B( 25-N , 26-C ) :   1.0710 B( 25-N , 72-H ) :   0.9131
B( 26-C , 27-O ) :   2.2793 B( 26-C , 28-C ) :   0.8759 B( 28-C , 29-C ) :   1.3475
B( 29-C , 30-C ) :   1.1526 B( 30-C , 31-C ) :   1.6516 B( 30-C , 73-H ) :   0.9728
B( 31-C , 32-C ) :   1.0895 B( 31-C , 74-H ) :   0.9740 B( 32-C , 33-C ) :   1.7464
B( 32-C , 75-H ) :   0.9766 B( 33-C , 34-C ) :   1.0791 B( 33-C , 35-C ) :   1.0427
B( 34-C , 76-H ) :   0.9492 B( 34-C , 77-H ) :   0.9400 B( 34-C , 78-H ) :   0.9449
B( 35-C , 36-N ) :   0.9723 B( 35-C , 79-H ) :   0.9273 B( 35-C , 80-H ) :   0.9369
B( 36-N , 37-C ) :   1.2509 B( 36-N , 81-H ) :   0.9371 B( 37-C , 38-C ) :   1.5795
B( 37-C , 82-H ) :   0.9640 B( 38-C , 39-C ) :   1.2126 B( 38-C , 83-H ) :   0.9647
B( 39-C , 40-S ) :   1.1415 B( 39-C , 43-C ) :   1.4741 B( 40-S , 41-C ) :   1.0708
B( 41-C , 42-C ) :   1.3695 B( 41-C , 47-C ) :   1.2348 B( 42-C , 43-C ) :   1.2693
B( 42-C , 46-N ) :   1.3122 B( 43-C , 44-S ) :   1.0345 B( 44-S , 45-C ) :   1.1294
B( 44-S , 46-N ) :   0.1089 B( 45-C , 46-N ) :   1.7273 B( 45-C , 84-H ) :   0.9620
B( 47-C , 48-C ) :   1.5637 B( 47-C , 85-H ) :   0.9284 B( 48-C , 49-C ) :   0.9595
B( 48-C , 62-C ) :   1.0872 B( 49-C , 50-O ) :   2.2572 B( 49-C , 51-C ) :   0.9167
B( 51-C , 52-C ) :   1.4759 B( 51-C , 61-C ) :   1.2184 B( 52-C , 53-C ) :   1.1833
B( 52-C , 86-H ) :   1.0155 B( 53-C , 54-C ) :   1.2624 B( 53-C , 58-C ) :   1.2365
B( 54-C , 55-C ) :   1.2022 B( 54-C , 60-C ) :   1.1947 B( 55-C , 56-C ) :   1.4391
B( 55-C , 87-H ) :   1.0072 B( 56-C , 57-C ) :   1.2593 B( 56-C , 59-F ) :   1.0825
B( 57-C , 58-C ) :   1.4559 B( 57-C , 88-H ) :   0.9924 B( 58-C , 89-H ) :   0.9969
B( 60-C , 61-C ) :   1.4673 B( 60-C , 90-H ) :   0.9949 B( 61-C , 62-C ) :   0.9950
B( 62-C , 63-C ) :   1.6115 B( 63-C , 64-C ) :   1.1697 B( 63-C , 66-C ) :   1.1502
B( 64-C , 65-N ) :   3.0019 B( 66-C , 67-N ) :   2.9760

-----------------------------------------------------------------------------
         ABSORPTION SPECTRUM VIA TRANSITION ELECTRIC DIPOLE MOMENTS
-----------------------------------------------------------------------------
State   Energy  Wavelength   fosc         T2         TX        TY        TZ
        (cm-1)    (nm)                  (au**2)     (au)      (au)      (au)
-----------------------------------------------------------------------------
   0   17683.1    565.5   0.960908791  17.88958  -0.76452  -3.33140   2.49135
   1   20166.6    495.9   0.020215443   0.33001   0.19981  -0.53832  -0.01705
   2   21317.0    469.1   0.639457308   9.87556   1.03691  -2.95292  -0.28395
   3   25494.8    392.2   0.000968090   0.01250  -0.06336  -0.06491  -0.06537
   4   25942.1    385.5   0.129672875   1.64558  -1.21873   0.03356   0.39895
   5   27393.7    365.0   0.367565411   4.41732  -1.33031  -0.88170   1.36755
   6   27429.5    364.6   0.004718219   0.05663   0.22425  -0.04411  -0.06630
   7   27611.2    362.2   0.127392099   1.51891   0.92850   0.48307  -0.65072
   8   28219.7    354.4   0.085145936   0.99332   0.93356   0.01498  -0.34864
   9   28454.4    351.4   0.009442596   0.10925  -0.32181  -0.04607  -0.05969
  10   29003.7    344.8   0.004963485   0.05634  -0.01157  -0.19056   0.14103
  11   29078.5    343.9   0.009782005   0.11075  -0.25928  -0.19707   0.06842
  12   29584.4    338.0   0.058927062   0.65573   0.48435   0.34336  -0.55068
  13   31250.0    320.0   0.352355897   3.71199   0.47009   1.12679  -1.49042
  14   31731.1    315.1   0.001005741   0.01043  -0.03703  -0.00849   0.09482
  15   31902.3    313.5   0.069422357   0.71640   0.58206  -0.05509  -0.61202
  16   32418.5    308.5   0.097500364   0.99012  -0.31556  -0.03074   0.94319
  17   32508.7    307.6   0.594292683   6.01834   2.11850   0.74388  -0.98840
  18   32708.1    305.7   0.187513586   1.88735  -1.09491  -0.47955   0.67716
  19   32944.0    303.5   0.200355716   2.00217   1.10721   0.16324  -0.86580
  20   33044.7    302.6   0.001420245   0.01415   0.11771   0.01256  -0.01163
  21   34091.9    293.3   0.019041045   0.18387  -0.04873   0.01123   0.42588
  22   34255.7    291.9   0.350097032   3.36459  -1.28331   0.57669   1.17691
  23   34429.1    290.5   0.358395900   3.42699   0.99241   0.63402  -1.42833
  24   34785.5    287.5   0.191129774   1.80887  -0.62179  -0.62798   1.01385
  25   34797.9    287.4   0.006096941   0.05768  -0.01205  -0.20299   0.12780
  26   36158.1    276.6   0.373697846   3.40245  -1.09962  -0.54849   1.37566
  27   36596.7    273.2   0.001681047   0.01512  -0.01343   0.12033  -0.02151
  28   36947.6    270.7   0.254580816   2.26838  -0.63388   1.32145   0.34691
  29   37180.3    269.0   0.075763035   0.67084   0.81136   0.06272   0.09277
  30   37330.8    267.9   0.107986646   0.95231   0.14911  -0.62210   0.73693
  31   37884.4    264.0   0.000083585   0.00073   0.01518  -0.01975   0.01028
  32   38076.5    262.6   0.003076291   0.02660  -0.05762  -0.13652   0.06812
  33   38902.8    257.1   0.019644991   0.16624   0.18825   0.07391   0.35404
  34   39113.0    255.7   0.152498005   1.28357  -0.07506  -0.95413   0.60628
  35   39337.9    254.2   0.212417438   1.77768  -0.64690   0.13919  -1.15751
  36   39475.8    253.3   0.001428384   0.01191   0.05526   0.07509  -0.05674
  37   39582.9    252.6   0.005212613   0.04335   0.20695   0.00595   0.02214
  38   39941.7    250.4   0.043096539   0.35521   0.30382  -0.22103   0.46266
  39   39955.1    250.3   0.089591051   0.73819  -0.71040   0.37191  -0.30856
  40   39988.3    250.1   0.091075490   0.74980   0.24047   0.05758  -0.82985
  41   40129.5    249.2   0.177691151   1.45773  -0.93687  -0.13462   0.74958
  42   40224.0    248.6   0.006944476   0.05684  -0.12068   0.03601   0.20242
  43   40254.6    248.4   0.029827112   0.24393  -0.40813  -0.13765  -0.24170

FINAL SINGLE POINT ENERGY     -6581.088287910816

DIPOLE MOMENT
-------------
                                X             Y             Z
Electronic contribution:     61.48012    -108.67816      13.86720
Nuclear contribution   :    -59.21726     107.28919     -12.99826
                        -----------------------------------------
Total Dipole Moment    :      2.26287      -1.38898       0.86894
                        -----------------------------------------
Magnitude (a.u.)       :      2.79372
Magnitude (Debye)      :      7.10108

Rotational constants in cm-1:     0.001151     0.000210     0.000184
Rotational constants in MHz :    34.516228     6.308621     5.528540

                             ****ORCA TERMINATED NORMALLY****
TOTAL RUN TIME: 0 days 0 hours 8 minutes 24 seconds 594 msec
