                         Program Version 4.2.0 -  RELEASE  -
|  1> # ORCA input file
|  2> # SCF done       -166.014303024440          0.000672844549
|  3> ! CAM-B3LYP def2-SVP def2/J RIJCOSX Grid4 TightSCF
|  4> %maxcore 5000
|  5> %tddft
|  6>     Mode sTDDFT
|  7>     Ethresh 5.0
|  8>     maxcore 5000
|  9> end
| 10>
| 11> %pal
| 12>   nprocs 6
| 13>   end
| 14> * xyz 0 1
| 15>    C       -7.82601         6.68486        -9.67471
| 16>    C       -6.90296         5.82270       -10.22229
| 17>    C       -6.60570         5.75370       -11.59747
| 18>    N       -6.31414         5.64482       -12.70356
| 19>    C       -6.11524         4.89674        -9.51234
| 20>    N       -5.43298         4.11761        -9.01135
| 21>    C       -8.61199         7.65641       -10.42716
| 22>    C       -9.42058         8.38583        -9.52097
| 23>    C      -10.27639         9.38079        -9.92281
| 24>    C      -10.34050         9.67288       -11.29000
| 25>    C       -9.53156         8.93924       -12.18859
| 26>    C       -8.66480         7.93258       -11.78095
| 27>    S       -9.76752         9.45890       -13.83070
| 28>    C      -10.93278        10.63944       -13.29282
| 29>    C      -11.13667        10.64569       -11.95442
| 30>   Br      -11.77199        11.75146       -14.54973
| 31>    C       -9.17348         7.89302        -8.15234
| 32>    O       -9.70549         8.30436        -7.13557
| 33>    C       -8.18330         6.82110        -8.27900
| 34>    C       -7.68344         6.05117        -7.25515
| 35>    C       -7.91895         6.09225        -5.87721
| 36>    S       -8.95848         7.21521        -5.04157
| 37>    C       -8.55565         6.51283        -3.50769
| 38>    C       -7.68303         5.43300        -3.64074
| 39>    C       -7.31706         5.20588        -4.96622
| 40>    C       -6.39305         4.10086        -5.37101
| 41>    C       -5.68007         3.49818        -4.16441
| 42>    C       -6.67581         3.21964        -3.04121
| 43>    N       -5.99894         2.54885        -1.94145
| 44>    C       -7.22125         4.55324        -2.52275
| 45>    C       -9.14933         7.12020        -2.35872
| 46>    C       -8.73608         7.00486        -1.08011
| 47>    C       -9.30749         7.64065         0.07934
| 48>    C      -10.02628         8.77001         0.17305
| 49>    C      -10.37132         9.68834        -0.95559
| 50>    C      -10.49072         9.24471         1.52650
| 51>    N       -9.84834        10.49855         1.84890
| 52>    C      -10.29489        11.36051         2.78867
| 53>    C       -9.59584        12.44613         3.20917
| 54>    C      -10.06127        13.35586         4.17703
| 55>    C       -9.36932        14.46387         4.58505
| 56>    C       -9.74418        15.40446         5.57588
| 57>    C       -8.85087        16.41308         5.76392
| 58>    C       -7.71507        16.34266         4.92272
| 59>    S       -7.81254        14.92819         3.89544
| 60>    C       -6.65955        17.22333         4.84020
| 61>    C       -6.44820        18.41133         5.57912
| 62>    C       -5.32629        19.08934         5.22704
| 63>    C       -4.58286        18.49685         4.16626
| 64>    S       -5.35191        16.98998         3.69278
| 65>    C       -3.42721        18.98829         3.63930
| 66>    C       -2.69351        18.50092         2.51843
| 67>    S       -0.94410        18.53665         2.63256
| 68>    C       -0.79364        17.85583         1.06483
| 69>    C       -1.99834        17.64327         0.46810
| 70>    C       -3.09364        18.02237         1.28749
| 71>    C       -4.50781        18.00761         0.78227
| 72>    C       -5.24519        19.25977         1.16395
| 73>    C       -6.50982        19.29272         1.53843
| 74>    C       -4.51937        17.86368        -0.74828
| 75>    C       -3.61168        16.71941        -1.18157
| 76>    C       -2.15844        17.09962        -0.91844
| 77>    H      -10.87722         9.91873        -9.20633
| 78>    H       -8.07076         7.40343       -12.50685
| 79>    H      -11.82005        11.30764       -11.45450
| 80>    H       -6.98795         5.27663        -7.54724
| 81>    H       -5.65088         4.46086        -6.08669
| 82>    H       -6.97572         3.32363        -5.87742
| 83>    H       -4.91978         4.18497        -3.79037
| 84>    H       -5.18058         2.57475        -4.46129
| 85>    H       -7.51467         2.62654        -3.45398
| 86>    H       -6.65485         2.33236        -1.19858
| 87>    H       -5.58708         1.67723        -2.25567
| 88>    H       -6.41437         5.03984        -1.96685
| 89>    H       -8.04837         4.37293        -1.83131
| 90>    H      -10.00100         7.74180        -2.59009
| 91>    H       -7.89179         6.36981        -0.85802
| 92>    H       -9.07586         7.12917         1.00751
| 93>    H       -9.58235         9.70526        -1.70386
| 94>    H      -10.52505        10.69787        -0.57882
| 95>    H      -11.29474         9.37046        -1.44043
| 96>    H      -10.27500         8.48417         2.29122
| 97>    H      -11.57364         9.41205         1.51063
| 98>    H       -8.88514        10.59197         1.56105
| 99>    H      -11.28439        11.15557         3.17459
|100>    H       -8.61616        12.63330         2.78881
|101>    H      -11.02175        13.16740         4.63878
|102>    H      -10.66709        15.30086         6.11986
|103>    H       -8.97667        17.20935         6.47571
|104>    H       -7.13334        18.72948         6.34482
|105>    H       -5.00737        20.01503         5.67302
|106>    H       -2.97042        19.81304         4.17382
|107>    H        0.18238        17.65466         0.66913
|108>    H       -5.03476        17.14259         1.20364
|109>    H       -4.67627        20.17641         1.07159
|110>    H       -7.09665        18.39338         1.63406
|111>    H       -7.01218        20.21593         1.77302
|112>    H       -4.17541        18.79433        -1.20627
|113>    H       -5.54546        17.68745        -1.07519
|114>    H       -3.86844        15.82038        -0.61725
|115>    H       -3.75058        16.50512        -2.24288
|116>    H       -1.84727        17.86581        -1.63643
|117>    H       -1.50045        16.23848        -1.05753
|118> *
|119>
|120>                          ****END OF INPUT****

CARTESIAN COORDINATES (ANGSTROEM)
---------------------------------
  C     -7.826010    6.684860   -9.674710
  C     -6.902960    5.822700  -10.222290
  C     -6.605700    5.753700  -11.597470
  N     -6.314140    5.644820  -12.703560
  C     -6.115240    4.896740   -9.512340
  N     -5.432980    4.117610   -9.011350
  C     -8.611990    7.656410  -10.427160
  C     -9.420580    8.385830   -9.520970
  C    -10.276390    9.380790   -9.922810
  C    -10.340500    9.672880  -11.290000
  C     -9.531560    8.939240  -12.188590
  C     -8.664800    7.932580  -11.780950
  S     -9.767520    9.458900  -13.830700
  C    -10.932780   10.639440  -13.292820
  C    -11.136670   10.645690  -11.954420
  Br   -11.771990   11.751460  -14.549730
  C     -9.173480    7.893020   -8.152340
  O     -9.705490    8.304360   -7.135570
  C     -8.183300    6.821100   -8.279000
  C     -7.683440    6.051170   -7.255150
  C     -7.918950    6.092250   -5.877210
  S     -8.958480    7.215210   -5.041570
  C     -8.555650    6.512830   -3.507690
  C     -7.683030    5.433000   -3.640740
  C     -7.317060    5.205880   -4.966220
  C     -6.393050    4.100860   -5.371010
  C     -5.680070    3.498180   -4.164410
  C     -6.675810    3.219640   -3.041210
  N     -5.998940    2.548850   -1.941450
  C     -7.221250    4.553240   -2.522750
  C     -9.149330    7.120200   -2.358720
  C     -8.736080    7.004860   -1.080110
  C     -9.307490    7.640650    0.079340
  C    -10.026280    8.770010    0.173050
  C    -10.371320    9.688340   -0.955590
  C    -10.490720    9.244710    1.526500
  N     -9.848340   10.498550    1.848900
  C    -10.294890   11.360510    2.788670
  C     -9.595840   12.446130    3.209170
  C    -10.061270   13.355860    4.177030
  C     -9.369320   14.463870    4.585050
  C     -9.744180   15.404460    5.575880
  C     -8.850870   16.413080    5.763920
  C     -7.715070   16.342660    4.922720
  S     -7.812540   14.928190    3.895440
  C     -6.659550   17.223330    4.840200
  C     -6.448200   18.411330    5.579120
  C     -5.326290   19.089340    5.227040
  C     -4.582860   18.496850    4.166260
  S     -5.351910   16.989980    3.692780
  C     -3.427210   18.988290    3.639300
  C     -2.693510   18.500920    2.518430
  S     -0.944100   18.536650    2.632560
  C     -0.793640   17.855830    1.064830
  C     -1.998340   17.643270    0.468100
  C     -3.093640   18.022370    1.287490
  C     -4.507810   18.007610    0.782270
  C     -5.245190   19.259770    1.163950
  C     -6.509820   19.292720    1.538430
  C     -4.519370   17.863680   -0.748280
  C     -3.611680   16.719410   -1.181570
  C     -2.158440   17.099620   -0.918440
  H    -10.877220    9.918730   -9.206330
  H     -8.070760    7.403430  -12.506850
  H    -11.820050   11.307640  -11.454500
  H     -6.987950    5.276630   -7.547240
  H     -5.650880    4.460860   -6.086690
  H     -6.975720    3.323630   -5.877420
  H     -4.919780    4.184970   -3.790370
  H     -5.180580    2.574750   -4.461290
  H     -7.514670    2.626540   -3.453980
  H     -6.654850    2.332360   -1.198580
  H     -5.587080    1.677230   -2.255670
  H     -6.414370    5.039840   -1.966850
  H     -8.048370    4.372930   -1.831310
  H    -10.001000    7.741800   -2.590090
  H     -7.891790    6.369810   -0.858020
  H     -9.075860    7.129170    1.007510
  H     -9.582350    9.705260   -1.703860
  H    -10.525050   10.697870   -0.578820
  H    -11.294740    9.370460   -1.440430
  H    -10.275000    8.484170    2.291220
  H    -11.573640    9.412050    1.510630
  H     -8.885140   10.591970    1.561050
  H    -11.284390   11.155570    3.174590
  H     -8.616160   12.633300    2.788810
  H    -11.021750   13.167400    4.638780
  H    -10.667090   15.300860    6.119860
  H     -8.976670   17.209350    6.475710
  H     -7.133340   18.729480    6.344820
  H     -5.007370   20.015030    5.673020
  H     -2.970420   19.813040    4.173820
  H      0.182380   17.654660    0.669130
  H     -5.034760   17.142590    1.203640
  H     -4.676270   20.176410    1.071590
  H     -7.096650   18.393380    1.634060
  H     -7.012180   20.215930    1.773020
  H     -4.175410   18.794330   -1.206270
  H     -5.545460   17.687450   -1.075190
  H     -3.868440   15.820380   -0.617250
  H     -3.750580   16.505120   -2.242880
  H     -1.847270   17.865810   -1.636430
  H     -1.500450   16.238480   -1.057530

 Total Charge           Charge          ....    0
 Multiplicity           Mult            ....    1
 Number of Electrons    NEL             ....  498
 Basis Dimension        Dim             .... 1111

ORBITAL ENERGIES
----------------

  NO   OCC          E(Eh)            E(eV)
   0   2.0000    -482.884041    -13139.9428
   1   2.0000     -88.973317     -2421.0870
   2   2.0000     -88.957048     -2420.6443
   3   2.0000     -88.925132     -2419.7759
   4   2.0000     -88.923493     -2419.7312
   5   2.0000     -88.920488     -2419.6495
   6   2.0000     -62.561742     -1702.3915
   7   2.0000     -56.395691     -1534.6048
   8   2.0000     -56.392980     -1534.5310
   9   2.0000     -56.392945     -1534.5300
  10   2.0000     -19.215950      -522.8926
  11   2.0000     -14.436636      -392.8408
  12   2.0000     -14.415128      -392.2556
  13   2.0000     -14.409727      -392.1086
  14   2.0000     -14.386958      -391.4890
  15   2.0000     -10.364461      -282.0313
  16   2.0000     -10.356890      -281.8253
  17   2.0000     -10.337967      -281.3104
  18   2.0000     -10.335579      -281.2454
  19   2.0000     -10.322648      -280.8935
  20   2.0000     -10.318864      -280.7906
  21   2.0000     -10.318772      -280.7881
  22   2.0000     -10.317147      -280.7439
  23   2.0000     -10.315255      -280.6924
  24   2.0000     -10.313536      -280.6456
  25   2.0000     -10.308571      -280.5105
  26   2.0000     -10.305552      -280.4283
  27   2.0000     -10.304990      -280.4130
  28   2.0000     -10.304422      -280.3976
  29   2.0000     -10.302565      -280.3470
  30   2.0000     -10.298505      -280.2366
  31   2.0000     -10.296870      -280.1921
  32   2.0000     -10.294820      -280.1363
  33   2.0000     -10.294688      -280.1327
  34   2.0000     -10.294225      -280.1201
  35   2.0000     -10.291337      -280.0415
  36   2.0000     -10.291099      -280.0350
  37   2.0000     -10.290387      -280.0157
  38   2.0000     -10.290020      -280.0057
  39   2.0000     -10.288995      -279.9778
  40   2.0000     -10.284569      -279.8574
  41   2.0000     -10.282978      -279.8141
  42   2.0000     -10.282762      -279.8082
  43   2.0000     -10.281385      -279.7707
  44   2.0000     -10.281022      -279.7608
  45   2.0000     -10.275844      -279.6199
  46   2.0000     -10.273790      -279.5640
  47   2.0000     -10.273103      -279.5453
  48   2.0000     -10.272758      -279.5360
  49   2.0000     -10.270312      -279.4694
  50   2.0000     -10.268796      -279.4281
  51   2.0000     -10.266428      -279.3637
  52   2.0000     -10.265938      -279.3504
  53   2.0000     -10.264981      -279.3243
  54   2.0000     -10.262725      -279.2629
  55   2.0000     -10.260673      -279.2071
  56   2.0000     -10.257534      -279.1217
  57   2.0000     -10.253360      -279.0081
  58   2.0000     -10.252054      -278.9726
  59   2.0000     -10.251792      -278.9655
  60   2.0000     -10.250207      -278.9223
  61   2.0000     -10.249943      -278.9151
  62   2.0000     -10.246857      -278.8312
  63   2.0000     -10.245348      -278.7901
  64   2.0000     -10.242569      -278.7145
  65   2.0000     -10.231304      -278.4079
  66   2.0000      -8.791157      -239.2195
  67   2.0000      -8.069299      -219.5768
  68   2.0000      -8.050809      -219.0737
  69   2.0000      -8.021324      -218.2713
  70   2.0000      -8.019684      -218.2267
  71   2.0000      -8.016097      -218.1291
  72   2.0000      -6.627445      -180.3420
  73   2.0000      -6.612901      -179.9462
  74   2.0000      -6.612699      -179.9407
  75   2.0000      -6.039000      -164.3295
  76   2.0000      -6.034703      -164.2126
  77   2.0000      -6.030520      -164.0988
  78   2.0000      -6.020111      -163.8155
  79   2.0000      -6.015689      -163.6952
  80   2.0000      -6.013117      -163.6252
  81   2.0000      -5.990600      -163.0125
  82   2.0000      -5.989423      -162.9805
  83   2.0000      -5.986438      -162.8992
  84   2.0000      -5.985928      -162.8854
  85   2.0000      -5.985552      -162.8751
  86   2.0000      -5.983470      -162.8185
  87   2.0000      -5.981907      -162.7760
  88   2.0000      -5.980502      -162.7377
  89   2.0000      -5.976921      -162.6403
  90   2.0000      -2.743320       -74.6495
  91   2.0000      -2.739222       -74.5380
  92   2.0000      -2.739100       -74.5347
  93   2.0000      -2.727523       -74.2197
  94   2.0000      -2.727509       -74.2193
  95   2.0000      -1.130690       -30.7676
  96   2.0000      -1.038667       -28.2636
  97   2.0000      -1.020109       -27.7586
  98   2.0000      -1.010968       -27.5098
  99   2.0000      -0.998433       -27.1687
 100   2.0000      -0.991236       -26.9729
 101   2.0000      -0.986189       -26.8356
 102   2.0000      -0.974839       -26.5267
 103   2.0000      -0.972827       -26.4720
 104   2.0000      -0.961723       -26.1698
 105   2.0000      -0.948218       -25.8023
 106   2.0000      -0.940336       -25.5878
 107   2.0000      -0.930921       -25.3316
 108   2.0000      -0.907938       -24.7062
 109   2.0000      -0.905630       -24.6434
 110   2.0000      -0.901356       -24.5271
 111   2.0000      -0.898354       -24.4455
 112   2.0000      -0.887872       -24.1602
 113   2.0000      -0.883145       -24.0316
 114   2.0000      -0.878803       -23.9135
 115   2.0000      -0.868463       -23.6321
 116   2.0000      -0.860510       -23.4157
 117   2.0000      -0.846973       -23.0473
 118   2.0000      -0.838640       -22.8206
 119   2.0000      -0.827909       -22.5285
 120   2.0000      -0.826936       -22.5021
 121   2.0000      -0.822961       -22.3939
 122   2.0000      -0.816940       -22.2301
 123   2.0000      -0.803864       -21.8743
 124   2.0000      -0.801865       -21.8199
 125   2.0000      -0.797689       -21.7062
 126   2.0000      -0.796682       -21.6788
 127   2.0000      -0.788577       -21.4583
 128   2.0000      -0.782543       -21.2941
 129   2.0000      -0.765065       -20.8185
 130   2.0000      -0.758265       -20.6334
 131   2.0000      -0.746117       -20.3029
 132   2.0000      -0.735450       -20.0126
 133   2.0000      -0.720940       -19.6178
 134   2.0000      -0.711502       -19.3609
 135   2.0000      -0.708292       -19.2736
 136   2.0000      -0.696648       -18.9568
 137   2.0000      -0.695812       -18.9340
 138   2.0000      -0.688929       -18.7467
 139   2.0000      -0.681935       -18.5564
 140   2.0000      -0.679192       -18.4818
 141   2.0000      -0.659716       -17.9518
 142   2.0000      -0.656882       -17.8747
 143   2.0000      -0.652735       -17.7618
 144   2.0000      -0.651287       -17.7224
 145   2.0000      -0.640342       -17.4246
 146   2.0000      -0.632457       -17.2100
 147   2.0000      -0.623746       -16.9730
 148   2.0000      -0.620468       -16.8838
 149   2.0000      -0.619484       -16.8570
 150   2.0000      -0.610718       -16.6185
 151   2.0000      -0.608128       -16.5480
 152   2.0000      -0.605383       -16.4733
 153   2.0000      -0.596852       -16.2412
 154   2.0000      -0.596088       -16.2204
 155   2.0000      -0.592293       -16.1171
 156   2.0000      -0.590511       -16.0686
 157   2.0000      -0.586931       -15.9712
 158   2.0000      -0.577119       -15.7042
 159   2.0000      -0.576174       -15.6785
 160   2.0000      -0.568131       -15.4596
 161   2.0000      -0.565434       -15.3862
 162   2.0000      -0.564690       -15.3660
 163   2.0000      -0.559193       -15.2164
 164   2.0000      -0.551327       -15.0024
 165   2.0000      -0.547449       -14.8969
 166   2.0000      -0.542299       -14.7567
 167   2.0000      -0.538678       -14.6582
 168   2.0000      -0.535393       -14.5688
 169   2.0000      -0.532258       -14.4835
 170   2.0000      -0.524861       -14.2822
 171   2.0000      -0.524069       -14.2606
 172   2.0000      -0.517756       -14.0889
 173   2.0000      -0.517131       -14.0719
 174   2.0000      -0.513253       -13.9663
 175   2.0000      -0.507827       -13.8187
 176   2.0000      -0.505819       -13.7640
 177   2.0000      -0.505309       -13.7502
 178   2.0000      -0.502580       -13.6759
 179   2.0000      -0.501083       -13.6352
 180   2.0000      -0.499952       -13.6044
 181   2.0000      -0.495646       -13.4872
 182   2.0000      -0.494183       -13.4474
 183   2.0000      -0.493618       -13.4320
 184   2.0000      -0.492005       -13.3881
 185   2.0000      -0.491651       -13.3785
 186   2.0000      -0.489368       -13.3164
 187   2.0000      -0.482941       -13.1415
 188   2.0000      -0.481012       -13.0890
 189   2.0000      -0.476998       -12.9798
 190   2.0000      -0.475525       -12.9397
 191   2.0000      -0.474508       -12.9120
 192   2.0000      -0.470120       -12.7926
 193   2.0000      -0.469415       -12.7734
 194   2.0000      -0.465542       -12.6681
 195   2.0000      -0.464665       -12.6442
 196   2.0000      -0.457553       -12.4506
 197   2.0000      -0.456107       -12.4113
 198   2.0000      -0.454076       -12.3560
 199   2.0000      -0.452404       -12.3105
 200   2.0000      -0.451143       -12.2762
 201   2.0000      -0.448233       -12.1971
 202   2.0000      -0.446460       -12.1488
 203   2.0000      -0.442353       -12.0370
 204   2.0000      -0.440609       -11.9896
 205   2.0000      -0.440380       -11.9833
 206   2.0000      -0.439058       -11.9474
 207   2.0000      -0.436897       -11.8886
 208   2.0000      -0.435877       -11.8608
 209   2.0000      -0.429795       -11.6953
 210   2.0000      -0.428646       -11.6641
 211   2.0000      -0.424297       -11.5457
 212   2.0000      -0.423811       -11.5325
 213   2.0000      -0.422882       -11.5072
 214   2.0000      -0.420480       -11.4418
 215   2.0000      -0.416894       -11.3443
 216   2.0000      -0.413092       -11.2408
 217   2.0000      -0.412864       -11.2346
 218   2.0000      -0.406103       -11.0506
 219   2.0000      -0.403554       -10.9813
 220   2.0000      -0.403136       -10.9699
 221   2.0000      -0.401763       -10.9325
 222   2.0000      -0.398659       -10.8481
 223   2.0000      -0.391244       -10.6463
 224   2.0000      -0.391083       -10.6419
 225   2.0000      -0.386922       -10.5287
 226   2.0000      -0.385450       -10.4886
 227   2.0000      -0.379156       -10.3174
 228   2.0000      -0.376493       -10.2449
 229   2.0000      -0.374014       -10.1774
 230   2.0000      -0.373426       -10.1614
 231   2.0000      -0.370570       -10.0837
 232   2.0000      -0.366675        -9.9777
 233   2.0000      -0.350572        -9.5395
 234   2.0000      -0.334300        -9.0968
 235   2.0000      -0.330754        -9.0003
 236   2.0000      -0.319500        -8.6940
 237   2.0000      -0.317316        -8.6346
 238   2.0000      -0.316766        -8.6196
 239   2.0000      -0.312631        -8.5071
 240   2.0000      -0.309855        -8.4316
 241   2.0000      -0.304801        -8.2941
 242   2.0000      -0.295653        -8.0451
 243   2.0000      -0.291480        -7.9316
 244   2.0000      -0.285233        -7.7616
 245   2.0000      -0.281888        -7.6706
 246   2.0000      -0.260638        -7.0923
 247   2.0000      -0.249104        -6.7785
 248   2.0000      -0.187957        -5.1146
 249   0.0000      -0.091265        -2.4835
 250   0.0000      -0.059329        -1.6144
 251   0.0000      -0.046378        -1.2620
 252   0.0000      -0.025697        -0.6992
 253   0.0000       0.000401         0.0109

MULLIKEN ATOMIC CHARGES
-----------------------
   0 C :    0.325425
   1 C :   -0.362793
   2 C :   -0.187832
   3 N :    0.145703
   4 C :   -0.178857
   5 N :    0.133117
   6 C :    0.006661
   7 C :   -0.009927
   8 C :   -0.073221
   9 C :    0.117801
  10 C :   -0.093902
  11 C :   -0.018000
  12 S :    0.185120
  13 C :   -0.124148
  14 C :    0.038602
  15 Br:    0.021360
  16 C :    0.148977
  17 O :   -0.177008
  18 C :   -0.086929
  19 C :   -0.052679
  20 C :   -0.086958
  21 S :    0.183987
  22 C :   -0.115291
  23 C :   -0.051997
  24 C :   -0.105902
  25 C :    0.119559
  26 C :    0.082566
  27 C :   -0.067268
  28 N :   -0.168320
  29 C :    0.156363
  30 C :    0.029313
  31 C :    0.006538
  32 C :    0.010920
  33 C :   -0.228268
  34 C :    0.087252
  35 C :    0.230584
  36 N :   -0.176107
  37 C :    0.063766
  38 C :   -0.028721
  39 C :   -0.005586
  40 C :   -0.039996
  41 C :    0.042156
  42 C :    0.010631
  43 C :   -0.038259
  44 S :    0.043926
  45 C :   -0.068886
  46 C :    0.028857
  47 C :    0.027878
  48 C :    0.001859
  49 S :    0.068107
  50 C :   -0.037471
  51 C :   -0.184311
  52 S :    0.095023
  53 C :   -0.135472
  54 C :   -0.072776
  55 C :    0.027790
  56 C :    0.019667
  57 C :   -0.018529
  58 C :   -0.010041
  59 C :    0.060925
  60 C :    0.042923
  61 C :    0.129127
  62 H :   -0.011774
  63 H :   -0.008225
  64 H :   -0.003574
  65 H :   -0.007348
  66 H :    0.044841
  67 H :    0.025816
  68 H :    0.007747
  69 H :   -0.002081
  70 H :   -0.011673
  71 H :    0.088306
  72 H :    0.090157
  73 H :    0.026498
  74 H :    0.006984
  75 H :   -0.013896
  76 H :   -0.004236
  77 H :   -0.016376
  78 H :    0.034769
  79 H :    0.021882
  80 H :    0.039107
  81 H :    0.008087
  82 H :    0.018746
  83 H :    0.123951
  84 H :   -0.002826
  85 H :   -0.015567
  86 H :   -0.027179
  87 H :   -0.023378
  88 H :   -0.022155
  89 H :   -0.022699
  90 H :   -0.023372
  91 H :   -0.012247
  92 H :   -0.000251
  93 H :    0.011519
  94 H :   -0.009633
  95 H :    0.010540
  96 H :    0.006229
  97 H :   -0.009322
  98 H :   -0.008410
  99 H :   -0.000999
 100 H :   -0.005906
 101 H :    0.008225
 102 H :    0.002693
Sum of atomic charges:   -0.0000000

LOEWDIN ATOMIC CHARGES
----------------------
   0 C :    0.080135
   1 C :   -0.152748
   2 C :   -0.018758
   3 N :   -0.060557
   4 C :   -0.018628
   5 N :   -0.063517
   6 C :   -0.021070
   7 C :   -0.049111
   8 C :    0.019879
   9 C :   -0.033561
  10 C :   -0.144930
  11 C :   -0.009351
  12 S :    0.431568
  13 C :   -0.272026
  14 C :   -0.070925
  15 Br:    0.134864
  16 C :    0.081817
  17 O :   -0.168326
  18 C :   -0.117486
  19 C :    0.058425
  20 C :   -0.199123
  21 S :    0.504213
  22 C :   -0.149301
  23 C :   -0.064683
  24 C :   -0.009046
  25 C :   -0.028419
  26 C :   -0.024385
  27 C :    0.015823
  28 N :   -0.110599
  29 C :   -0.031467
  30 C :   -0.043388
  31 C :   -0.014968
  32 C :   -0.052983
  33 C :   -0.023298
  34 C :   -0.054945
  35 C :    0.048458
  36 N :   -0.010848
  37 C :    0.043383
  38 C :   -0.121166
  39 C :   -0.038975
  40 C :   -0.174973
  41 C :   -0.030546
  42 C :   -0.051663
  43 C :   -0.171885
  44 S :    0.345867
  45 C :   -0.196167
  46 C :   -0.034765
  47 C :   -0.042369
  48 C :   -0.135270
  49 S :    0.388924
  50 C :   -0.095272
  51 C :   -0.178785
  52 S :    0.411931
  53 C :   -0.201306
  54 C :   -0.065638
  55 C :   -0.062850
  56 C :   -0.036501
  57 C :   -0.010750
  58 C :   -0.064993
  59 C :   -0.016682
  60 C :   -0.031715
  61 C :   -0.025658
  62 H :    0.040095
  63 H :    0.040741
  64 H :    0.038498
  65 H :    0.047187
  66 H :    0.041516
  67 H :    0.039737
  68 H :    0.026373
  69 H :    0.024647
  70 H :    0.001999
  71 H :    0.053208
  72 H :    0.054489
  73 H :    0.033562
  74 H :    0.027891
  75 H :    0.028161
  76 H :    0.032122
  77 H :    0.028195
  78 H :    0.037175
  79 H :    0.031134
  80 H :    0.039971
  81 H :    0.017156
  82 H :    0.030156
  83 H :    0.080058
  84 H :    0.026331
  85 H :    0.017321
  86 H :    0.028334
  87 H :    0.029321
  88 H :    0.027910
  89 H :    0.028392
  90 H :    0.028827
  91 H :    0.028970
  92 H :    0.016275
  93 H :    0.016312
  94 H :    0.022068
  95 H :    0.016179
  96 H :    0.018749
  97 H :    0.018992
  98 H :    0.022499
  99 H :    0.021053
 100 H :    0.021186
 101 H :    0.029457
 102 H :    0.028839

  Mayer bond orders larger than 0.100000
B(  0-C ,  1-C ) :   1.5989 B(  0-C ,  6-C ) :   0.9967 B(  0-C , 18-C ) :   1.0989
B(  1-C ,  2-C ) :   1.1497 B(  1-C ,  4-C ) :   1.1557 B(  2-C ,  3-N ) :   2.9635
B(  4-C ,  5-N ) :   2.9494 B(  6-C ,  7-C ) :   1.2764 B(  6-C , 11-C ) :   1.4168
B(  7-C ,  8-C ) :   1.4267 B(  7-C , 16-C ) :   0.9543 B(  8-C ,  9-C ) :   1.2417
B(  8-C , 62-H ) :   1.0167 B(  9-C , 10-C ) :   1.3116 B(  9-C , 14-C ) :   1.1624
B( 10-C , 11-C ) :   1.3263 B( 10-C , 12-S ) :   1.0847 B( 11-C , 63-H ) :   0.9792
B( 12-S , 13-C ) :   1.0871 B( 13-C , 14-C ) :   1.6179 B( 13-C , 15-Br) :   1.0175
B( 14-C , 64-H ) :   1.0001 B( 16-C , 17-O ) :   2.1484 B( 16-C , 18-C ) :   0.9739
B( 18-C , 19-C ) :   1.4775 B( 19-C , 20-C ) :   1.2967 B( 19-C , 65-H ) :   0.9279
B( 20-C , 21-S ) :   1.0805 B( 20-C , 24-C ) :   1.3539 B( 21-S , 22-C ) :   1.1417
B( 22-C , 23-C ) :   1.4110 B( 22-C , 30-C ) :   1.1181 B( 23-C , 24-C ) :   1.4053
B( 23-C , 29-C ) :   1.0437 B( 24-C , 25-C ) :   1.0529 B( 25-C , 26-C ) :   1.0817
B( 25-C , 66-H ) :   0.9023 B( 25-C , 67-H ) :   0.8999 B( 26-C , 27-C ) :   1.0359
B( 26-C , 68-H ) :   0.9327 B( 26-C , 69-H ) :   0.9287 B( 27-C , 28-N ) :   1.0836
B( 27-C , 29-C ) :   1.0315 B( 27-C , 70-H ) :   0.9346 B( 28-N , 71-H ) :   0.9615
B( 28-N , 72-H ) :   0.9603 B( 29-C , 73-H ) :   0.8872 B( 29-C , 74-H ) :   0.9111
B( 30-C , 31-C ) :   1.7274 B( 30-C , 75-H ) :   0.9435 B( 31-C , 32-C ) :   1.1018
B( 31-C , 76-H ) :   0.9549 B( 32-C , 33-C ) :   1.8202 B( 32-C , 77-H ) :   0.9488
B( 33-C , 34-C ) :   1.0766 B( 33-C , 35-C ) :   1.0494 B( 34-C , 78-H ) :   0.9462
B( 34-C , 79-H ) :   0.9444 B( 34-C , 80-H ) :   0.9376 B( 35-C , 36-N ) :   0.9718
B( 35-C , 81-H ) :   0.9356 B( 35-C , 82-H ) :   0.9282 B( 36-N , 37-C ) :   1.2120
B( 36-N , 83-H ) :   0.9375 B( 37-C , 38-C ) :   1.6122 B( 37-C , 84-H ) :   0.9690
B( 38-C , 39-C ) :   1.1648 B( 38-C , 85-H ) :   0.9638 B( 39-C , 40-C ) :   1.5989
B( 39-C , 86-H ) :   0.9773 B( 40-C , 41-C ) :   1.1404 B( 40-C , 44-S ) :   1.0056
B( 41-C , 42-C ) :   1.5979 B( 41-C , 87-H ) :   0.9970 B( 42-C , 43-C ) :   1.1809
B( 42-C , 88-H ) :   0.9933 B( 43-C , 44-S ) :   1.0450 B( 43-C , 45-C ) :   1.5290
B( 45-C , 46-C ) :   1.1744 B( 45-C , 49-S ) :   1.0302 B( 46-C , 47-C ) :   1.6115
B( 46-C , 89-H ) :   0.9926 B( 47-C , 48-C ) :   1.1204 B( 47-C , 90-H ) :   0.9977
B( 48-C , 49-S ) :   1.0357 B( 48-C , 50-C ) :   1.6697 B( 50-C , 51-C ) :   1.0738
B( 50-C , 91-H ) :   0.9493 B( 51-C , 52-S ) :   1.1256 B( 51-C , 55-C ) :   1.5299
B( 52-S , 53-C ) :   1.1443 B( 53-C , 54-C ) :   1.5830 B( 53-C , 92-H ) :   0.9710
B( 54-C , 55-C ) :   1.2974 B( 54-C , 61-C ) :   1.0205 B( 55-C , 56-C ) :   0.9775
B( 56-C , 57-C ) :   1.0206 B( 56-C , 59-C ) :   1.0666 B( 56-C , 93-H ) :   0.8703
B( 57-C , 58-C ) :   2.0086 B( 57-C , 94-H ) :   0.9596 B( 58-C , 95-H ) :   0.9498
B( 58-C , 96-H ) :   0.9501 B( 59-C , 60-C ) :   1.0699 B( 59-C , 97-H ) :   0.9355
B( 59-C , 98-H ) :   0.9320 B( 60-C , 61-C ) :   1.0993 B( 60-C , 99-H ) :   0.9392
B( 60-C ,100-H ) :   0.9343 B( 61-C ,101-H ) :   0.9186 B( 61-C ,102-H ) :   0.9236

-----------------------------------------------------------------------------
         ABSORPTION SPECTRUM VIA TRANSITION ELECTRIC DIPOLE MOMENTS
-----------------------------------------------------------------------------
State   Energy  Wavelength   fosc         T2         TX        TY        TZ
        (cm-1)    (nm)                  (au**2)     (au)      (au)      (au)
-----------------------------------------------------------------------------
   0   13052.7    766.1   0.000911851   0.02300  -0.03649  -0.10336  -0.10480
   1   17273.4    578.9   1.287916485  24.54620   3.52321   3.44884   0.48859
   2   20642.2    484.4   0.019768175   0.31527   0.14829   0.03189  -0.54062
   3   20828.3    480.1   1.284128354  20.29696  -0.87198  -0.25779   4.41250
   4   25502.6    392.1   0.001279222   0.01651   0.06509  -0.06074  -0.09266
   5   25995.1    384.7   0.073525748   0.93116   0.02028   0.05094  -0.96341
   6   26563.1    376.5   0.011969937   0.14835  -0.22537   0.15837   0.26922
   7   26854.8    372.4   0.000621046   0.00761   0.05200  -0.02919  -0.06370
   8   28151.9    355.2   0.425152389   4.97179   1.09755  -1.26649   1.47077
   9   28675.9    348.7   0.035424291   0.40669  -0.19267   0.42441  -0.43525
  10   29671.5    337.0   0.004043923   0.04487  -0.01505   0.08688  -0.19260
  11   30847.2    324.2   0.660691232   7.05113   0.90355  -1.56187  -1.94815
  12   30868.9    324.0   0.128766039   1.37327   0.55375  -0.83383  -0.60939
  13   31813.9    314.3   0.000935930   0.00969  -0.06385  -0.00424   0.07477
  14   32447.6    308.2   0.005723077   0.05807   0.07246   0.19443   0.12252
  15   32721.4    305.6   0.000398686   0.00401  -0.01955   0.03253  -0.05070
  16   33137.7    301.8   0.076130009   0.75633   0.52733  -0.65361   0.22592
  17   33141.1    301.7   0.435537897   4.32648  -1.33269   1.50660  -0.52969
  18   33773.0    296.1   0.001265471   0.01234   0.02866  -0.10134   0.03527
  19   33861.1    295.3   0.004371872   0.04251  -0.12212   0.10786   0.12633
  20   33953.7    294.5   0.019845692   0.19242   0.25730  -0.11539  -0.33601
  21   34317.9    291.4   0.035098733   0.33670   0.35139  -0.28269  -0.36512
  22   34524.1    289.7   0.000971360   0.00926  -0.04206   0.04458   0.07420
  23   34909.0    286.5   0.000655457   0.00618  -0.05793   0.04594   0.02674
  24   35270.0    283.5   0.036765066   0.34317   0.24420   0.28409   0.45037
  25   35689.0    280.2   0.475581720   4.38699  -1.09012   1.47272   1.01475
  26   36788.8    271.8   0.101019581   0.90399   0.02356  -0.27865   0.90873
  27   36994.3    270.3   0.013331011   0.11863   0.32838   0.08813   0.05507
  28   37559.1    266.2   0.000030063   0.00026   0.00750  -0.01439   0.00050
  29   37848.1    264.2   0.000634528   0.00552  -0.00428   0.06117   0.04194
  30   38084.7    262.6   0.008160098   0.07054   0.06715  -0.12621   0.22383
  31   38695.9    258.4   0.114974563   0.97817   0.16730   0.01846  -0.97460
  32   39041.6    256.1   0.000052481   0.00044  -0.00483   0.02040   0.00177
  33   39279.2    254.6   0.000202210   0.00169  -0.00098  -0.02935   0.02885
  34   39954.8    250.3   0.001050955   0.00866   0.06643   0.06456  -0.00888
  35   40116.2    249.3   0.041195423   0.33807   0.22239   0.53628  -0.03185
  36   40222.8    248.6   0.156178949   1.27828  -0.78101   0.80529   0.14077

FINAL SINGLE POINT ENERGY     -6823.619883816752

DIPOLE MOMENT
-------------
                                X             Y             Z
Electronic contribution:    -57.59188      -0.39226    -205.39451
Nuclear contribution   :     54.73626      -0.82919     206.83026
                        -----------------------------------------
Total Dipole Moment    :     -2.85562      -1.22145       1.43575
                        -----------------------------------------
Magnitude (a.u.)       :      3.42168
Magnitude (Debye)      :      8.69722

Rotational constants in cm-1:     0.000901     0.000271     0.000241
Rotational constants in MHz :    27.002250     8.112377     7.218874

                             ****ORCA TERMINATED NORMALLY****
TOTAL RUN TIME: 0 days 0 hours 11 minutes 30 seconds 410 msec
