                         Program Version 4.2.0 -  RELEASE  -
|  1> # ORCA input file
|  2> # SCF done       -190.468532945199          0.000633113180
|  3> ! CAM-B3LYP def2-SVP def2/J RIJCOSX Grid4 TightSCF
|  4> %maxcore 5000
|  5> %tddft
|  6>     Mode sTDDFT
|  7>     Ethresh 5.0
|  8>     maxcore 5000
|  9> end
| 10>
| 11> %pal
| 12>   nprocs 6
| 13>   end
| 14> * xyz 0 1
| 15>    C       -5.54641       -11.96810         2.93328
| 16>    C       -6.34506       -11.93016         4.08771
| 17>    C       -7.24198       -12.95913         4.30726
| 18>    C       -7.35961       -14.02128         3.40372
| 19>    C       -6.54428       -14.04256         2.25292
| 20>    C       -5.63822       -13.00212         2.03312
| 21>    N       -6.65960       -15.08438         1.37852
| 22>    C       -7.51735       -16.16384         1.49264
| 23>    O       -7.52616       -17.03102         0.64729
| 24>    C       -8.35850       -16.11726         2.69604
| 25>    C       -8.27296       -15.09669         3.59070
| 26>    C       -9.27046       -17.17610         2.90166
| 27>    N      -10.01895       -18.02170         3.09648
| 28>    C       -6.21610       -10.81736         5.04015
| 29>    C       -6.23715       -11.07527         6.42058
| 30>    C       -6.10192       -10.07869         7.36166
| 31>    C       -5.94592        -8.77825         6.89773
| 32>    C       -5.93325        -8.51995         5.50952
| 33>    C       -6.06197        -9.51768         4.56681
| 34>    O       -5.76947        -7.18552         5.34498
| 35>    C       -5.68249        -6.69229         6.61423
| 36>    N       -5.78197        -7.58612         7.54933
| 37>    C       -5.47722        -5.27688         6.81847
| 38>    C       -5.42231        -4.41013         5.71224
| 39>    C       -5.20806        -3.05934         5.85921
| 40>    C       -5.04163        -2.57479         7.15277
| 41>    C       -5.10359        -3.45500         8.26060
| 42>    C       -5.32169        -4.80659         8.12266
| 43>    O       -4.89985        -2.71458         9.37699
| 44>    C       -4.72173        -1.44717         8.91596
| 45>    N       -4.79810        -1.31587         7.62399
| 46>    C       -4.45089        -0.39160         9.83523
| 47>    C       -4.22676         0.91658         9.52012
| 48>    C       -3.94832         1.71939        10.65163
| 49>    C       -3.69870         3.10709        10.68809
| 50>    C       -3.60190         3.88251         9.46832
| 51>    C       -2.97130         3.54247         8.30573
| 52>    C       -3.07424         4.54628         7.31877
| 53>    C       -3.78136         5.64808         7.70494
| 54>    S       -4.33074         5.45944         9.33525
| 55>    C       -4.09091         6.87498         6.92926
| 56>   Cl       -2.35958         4.37705         5.76102
| 57>    C       -3.53507         3.67400        11.94527
| 58>    C       -3.58401         2.92827        13.15047
| 59>    C       -3.82661         1.54056        13.11538
| 60>    C       -3.99265         0.97080        11.85503
| 61>    S       -4.33998        -0.70899        11.54525
| 62>    C       -3.92635         0.73569        14.31574
| 63>    C       -3.48732        -0.54299        14.50885
| 64>    C       -3.81126        -1.04567        15.78752
| 65>    C       -4.50782        -0.17814        16.57734
| 66>    S       -4.76364         1.31105        15.73376
| 67>    C       -5.00168        -0.37119        17.96394
| 68>   Cl       -3.36063        -2.62839        16.29307
| 69>    C       -3.31034         3.73897        14.27777
| 70>    C       -3.07473         5.04769        13.96851
| 71>    S       -3.18140         5.35271        12.24815
| 72>    C       -2.76019         6.10900        14.86210
| 73>    C       -2.51841         7.42996        14.54847
| 74>    C       -2.22642         8.19093        15.68399
| 75>    C       -2.24829         7.43806        16.86404
| 76>    S       -2.62978         5.79835        16.58604
| 77>    C       -1.93132         8.29906        17.95543
| 78>    C       -1.71183         9.58783        17.45808
| 79>    C       -1.89038         9.56964        16.01692
| 80>    C       -1.77071        10.61780        15.15240
| 81>    C       -1.97174        10.47493        13.76324
| 82>    N       -2.13601        10.36689        12.63353
| 83>    C       -1.43842        11.91768        15.58859
| 84>    N       -1.16538        12.97511        15.93851
| 85>    C       -1.38740        10.50788        18.47366
| 86>    C       -1.36789         9.90907        19.69638
| 87>    S       -1.74202         8.21777        19.64933
| 88>    H       -4.83048       -11.17842         2.76396
| 89>    H       -7.88269       -12.94531         5.17609
| 90>    H       -5.01064       -13.02167         1.15429
| 91>    H       -6.06807       -15.09133         0.55505
| 92>    H       -8.90700       -15.09313         4.46693
| 93>    H       -6.33766       -12.09867         6.74975
| 94>    H       -6.10990       -10.28863         8.41830
| 95>    H       -6.06565        -9.29366         3.51218
| 96>    H       -5.55152        -4.83078         4.72694
| 97>    H       -5.16364        -2.39240         5.01441
| 98>    H       -5.36666        -5.48360         8.95849
| 99>    H       -4.28612         1.27534         8.51052
|100>    H       -2.41674         2.63345         8.16425
|101>    H       -3.65438         6.80108         5.93641
|102>    H       -3.68909         7.75532         7.42955
|103>    H       -5.16819         7.00684         6.83376
|104>    H       -2.92190        -1.10297        13.78793
|105>    H       -4.92079        -1.41984        18.23842
|106>    H       -6.04038        -0.05743        18.04891
|107>    H       -4.41373         0.21960        18.66669
|108>    H       -3.26973         3.37175        15.28681
|109>    H       -2.55605         7.80224        13.54050
|110>    H       -1.17928        11.55027        18.31612
|111>    H       -1.15331        10.35881        20.64500
|112> *
|113>
|114>                          ****END OF INPUT****

CARTESIAN COORDINATES (ANGSTROEM)
---------------------------------
  C     -5.546410  -11.968100    2.933280
  C     -6.345060  -11.930160    4.087710
  C     -7.241980  -12.959130    4.307260
  C     -7.359610  -14.021280    3.403720
  C     -6.544280  -14.042560    2.252920
  C     -5.638220  -13.002120    2.033120
  N     -6.659600  -15.084380    1.378520
  C     -7.517350  -16.163840    1.492640
  O     -7.526160  -17.031020    0.647290
  C     -8.358500  -16.117260    2.696040
  C     -8.272960  -15.096690    3.590700
  C     -9.270460  -17.176100    2.901660
  N    -10.018950  -18.021700    3.096480
  C     -6.216100  -10.817360    5.040150
  C     -6.237150  -11.075270    6.420580
  C     -6.101920  -10.078690    7.361660
  C     -5.945920   -8.778250    6.897730
  C     -5.933250   -8.519950    5.509520
  C     -6.061970   -9.517680    4.566810
  O     -5.769470   -7.185520    5.344980
  C     -5.682490   -6.692290    6.614230
  N     -5.781970   -7.586120    7.549330
  C     -5.477220   -5.276880    6.818470
  C     -5.422310   -4.410130    5.712240
  C     -5.208060   -3.059340    5.859210
  C     -5.041630   -2.574790    7.152770
  C     -5.103590   -3.455000    8.260600
  C     -5.321690   -4.806590    8.122660
  O     -4.899850   -2.714580    9.376990
  C     -4.721730   -1.447170    8.915960
  N     -4.798100   -1.315870    7.623990
  C     -4.450890   -0.391600    9.835230
  C     -4.226760    0.916580    9.520120
  C     -3.948320    1.719390   10.651630
  C     -3.698700    3.107090   10.688090
  C     -3.601900    3.882510    9.468320
  C     -2.971300    3.542470    8.305730
  C     -3.074240    4.546280    7.318770
  C     -3.781360    5.648080    7.704940
  S     -4.330740    5.459440    9.335250
  C     -4.090910    6.874980    6.929260
  Cl    -2.359580    4.377050    5.761020
  C     -3.535070    3.674000   11.945270
  C     -3.584010    2.928270   13.150470
  C     -3.826610    1.540560   13.115380
  C     -3.992650    0.970800   11.855030
  S     -4.339980   -0.708990   11.545250
  C     -3.926350    0.735690   14.315740
  C     -3.487320   -0.542990   14.508850
  C     -3.811260   -1.045670   15.787520
  C     -4.507820   -0.178140   16.577340
  S     -4.763640    1.311050   15.733760
  C     -5.001680   -0.371190   17.963940
  Cl    -3.360630   -2.628390   16.293070
  C     -3.310340    3.738970   14.277770
  C     -3.074730    5.047690   13.968510
  S     -3.181400    5.352710   12.248150
  C     -2.760190    6.109000   14.862100
  C     -2.518410    7.429960   14.548470
  C     -2.226420    8.190930   15.683990
  C     -2.248290    7.438060   16.864040
  S     -2.629780    5.798350   16.586040
  C     -1.931320    8.299060   17.955430
  C     -1.711830    9.587830   17.458080
  C     -1.890380    9.569640   16.016920
  C     -1.770710   10.617800   15.152400
  C     -1.971740   10.474930   13.763240
  N     -2.136010   10.366890   12.633530
  C     -1.438420   11.917680   15.588590
  N     -1.165380   12.975110   15.938510
  C     -1.387400   10.507880   18.473660
  C     -1.367890    9.909070   19.696380
  S     -1.742020    8.217770   19.649330
  H     -4.830480  -11.178420    2.763960
  H     -7.882690  -12.945310    5.176090
  H     -5.010640  -13.021670    1.154290
  H     -6.068070  -15.091330    0.555050
  H     -8.907000  -15.093130    4.466930
  H     -6.337660  -12.098670    6.749750
  H     -6.109900  -10.288630    8.418300
  H     -6.065650   -9.293660    3.512180
  H     -5.551520   -4.830780    4.726940
  H     -5.163640   -2.392400    5.014410
  H     -5.366660   -5.483600    8.958490
  H     -4.286120    1.275340    8.510520
  H     -2.416740    2.633450    8.164250
  H     -3.654380    6.801080    5.936410
  H     -3.689090    7.755320    7.429550
  H     -5.168190    7.006840    6.833760
  H     -2.921900   -1.102970   13.787930
  H     -4.920790   -1.419840   18.238420
  H     -6.040380   -0.057430   18.048910
  H     -4.413730    0.219600   18.666690
  H     -3.269730    3.371750   15.286810
  H     -2.556050    7.802240   13.540500
  H     -1.179280   11.550270   18.316120
  H     -1.153310   10.358810   20.645000

 Total Charge           Charge          ....    0
 Multiplicity           Mult            ....    1
 Number of Electrons    NEL             ....  556
 Basis Dimension        Dim             .... 1174

ORBITAL ENERGIES
----------------

  NO   OCC          E(Eh)            E(eV)
   0   2.0000    -101.586602     -2764.3120
   1   2.0000    -101.583786     -2764.2354
   2   2.0000     -88.990587     -2421.5570
   3   2.0000     -88.988530     -2421.5010
   4   2.0000     -88.962896     -2420.8035
   5   2.0000     -88.961400     -2420.7628
   6   2.0000     -88.960111     -2420.7277
   7   2.0000     -88.959371     -2420.7076
   8   2.0000     -19.306025      -525.3436
   9   2.0000     -19.301164      -525.2114
  10   2.0000     -19.188179      -522.1369
  11   2.0000     -14.471963      -393.8021
  12   2.0000     -14.429418      -392.6444
  13   2.0000     -14.429048      -392.6344
  14   2.0000     -14.412237      -392.1769
  15   2.0000     -14.407316      -392.0430
  16   2.0000     -14.398532      -391.8040
  17   2.0000     -10.389616      -282.7158
  18   2.0000     -10.382636      -282.5259
  19   2.0000     -10.373166      -282.2682
  20   2.0000     -10.363202      -281.9971
  21   2.0000     -10.350907      -281.6625
  22   2.0000     -10.346223      -281.5350
  23   2.0000     -10.340164      -281.3702
  24   2.0000     -10.336968      -281.2832
  25   2.0000     -10.332239      -281.1545
  26   2.0000     -10.329893      -281.0907
  27   2.0000     -10.329843      -281.0893
  28   2.0000     -10.329411      -281.0776
  29   2.0000     -10.326245      -280.9914
  30   2.0000     -10.323130      -280.9066
  31   2.0000     -10.322216      -280.8818
  32   2.0000     -10.321592      -280.8648
  33   2.0000     -10.319345      -280.8036
  34   2.0000     -10.319226      -280.8004
  35   2.0000     -10.315769      -280.7064
  36   2.0000     -10.313940      -280.6566
  37   2.0000     -10.312947      -280.6295
  38   2.0000     -10.312618      -280.6206
  39   2.0000     -10.311693      -280.5954
  40   2.0000     -10.310572      -280.5649
  41   2.0000     -10.308594      -280.5111
  42   2.0000     -10.308176      -280.4997
  43   2.0000     -10.305913      -280.4381
  44   2.0000     -10.305118      -280.4165
  45   2.0000     -10.304567      -280.4015
  46   2.0000     -10.304346      -280.3955
  47   2.0000     -10.302382      -280.3421
  48   2.0000     -10.302040      -280.3328
  49   2.0000     -10.301467      -280.3172
  50   2.0000     -10.299926      -280.2752
  51   2.0000     -10.299011      -280.2503
  52   2.0000     -10.298158      -280.2271
  53   2.0000     -10.297970      -280.2220
  54   2.0000     -10.297964      -280.2219
  55   2.0000     -10.296986      -280.1952
  56   2.0000     -10.296958      -280.1945
  57   2.0000     -10.295229      -280.1474
  58   2.0000     -10.295215      -280.1470
  59   2.0000     -10.293985      -280.1136
  60   2.0000     -10.291883      -280.0564
  61   2.0000     -10.291033      -280.0332
  62   2.0000     -10.288370      -279.9608
  63   2.0000     -10.287799      -279.9452
  64   2.0000     -10.284393      -279.8526
  65   2.0000     -10.284224      -279.8480
  66   2.0000     -10.283407      -279.8257
  67   2.0000     -10.282697      -279.8064
  68   2.0000     -10.281594      -279.7764
  69   2.0000     -10.281007      -279.7604
  70   2.0000     -10.280913      -279.7579
  71   2.0000     -10.279101      -279.7086
  72   2.0000     -10.275381      -279.6073
  73   2.0000      -9.541393      -259.6345
  74   2.0000      -9.538520      -259.5563
  75   2.0000      -8.085086      -220.0064
  76   2.0000      -8.083536      -219.9642
  77   2.0000      -8.058513      -219.2833
  78   2.0000      -8.056400      -219.2258
  79   2.0000      -8.055384      -219.1981
  80   2.0000      -8.055131      -219.1913
  81   2.0000      -7.311607      -198.9590
  82   2.0000      -7.308789      -198.8823
  83   2.0000      -7.301509      -198.6842
  84   2.0000      -7.301371      -198.6804
  85   2.0000      -7.298581      -198.6045
  86   2.0000      -7.298512      -198.6026
  87   2.0000      -6.054362      -164.7476
  88   2.0000      -6.052786      -164.7047
  89   2.0000      -6.050181      -164.6338
  90   2.0000      -6.048347      -164.5839
  91   2.0000      -6.047421      -164.5587
  92   2.0000      -6.046156      -164.5243
  93   2.0000      -6.027818      -164.0253
  94   2.0000      -6.026069      -163.9777
  95   2.0000      -6.025129      -163.9521
  96   2.0000      -6.024445      -163.9335
  97   2.0000      -6.023661      -163.9122
  98   2.0000      -6.021829      -163.8623
  99   2.0000      -6.020893      -163.8368
 100   2.0000      -6.020585      -163.8284
 101   2.0000      -6.020205      -163.8181
 102   2.0000      -6.017789      -163.7524
 103   2.0000      -6.017227      -163.7371
 104   2.0000      -6.016560      -163.7189
 105   2.0000      -1.235486       -33.6193
 106   2.0000      -1.229593       -33.4589
 107   2.0000      -1.137071       -30.9413
 108   2.0000      -1.058801       -28.8115
 109   2.0000      -1.043394       -28.3922
 110   2.0000      -1.027068       -27.9480
 111   2.0000      -1.021657       -27.8007
 112   2.0000      -1.021433       -27.7946
 113   2.0000      -1.018968       -27.7275
 114   2.0000      -1.006820       -27.3970
 115   2.0000      -1.005262       -27.3546
 116   2.0000      -1.000903       -27.2360
 117   2.0000      -0.997188       -27.1349
 118   2.0000      -0.984881       -26.8000
 119   2.0000      -0.984760       -26.7967
 120   2.0000      -0.977793       -26.6071
 121   2.0000      -0.965793       -26.2806
 122   2.0000      -0.956479       -26.0271
 123   2.0000      -0.950104       -25.8537
 124   2.0000      -0.947705       -25.7884
 125   2.0000      -0.942806       -25.6551
 126   2.0000      -0.931161       -25.3382
 127   2.0000      -0.924302       -25.1515
 128   2.0000      -0.906054       -24.6550
 129   2.0000      -0.903850       -24.5950
 130   2.0000      -0.887402       -24.1474
 131   2.0000      -0.870997       -23.7010
 132   2.0000      -0.867618       -23.6091
 133   2.0000      -0.862822       -23.4786
 134   2.0000      -0.861174       -23.4337
 135   2.0000      -0.856905       -23.3176
 136   2.0000      -0.855350       -23.2752
 137   2.0000      -0.851244       -23.1635
 138   2.0000      -0.850115       -23.1328
 139   2.0000      -0.844653       -22.9842
 140   2.0000      -0.835635       -22.7388
 141   2.0000      -0.817242       -22.2383
 142   2.0000      -0.813778       -22.1440
 143   2.0000      -0.810184       -22.0462
 144   2.0000      -0.802240       -21.8301
 145   2.0000      -0.795837       -21.6558
 146   2.0000      -0.782674       -21.2976
 147   2.0000      -0.775435       -21.1007
 148   2.0000      -0.769202       -20.9310
 149   2.0000      -0.762405       -20.7461
 150   2.0000      -0.750638       -20.4259
 151   2.0000      -0.749211       -20.3871
 152   2.0000      -0.742601       -20.2072
 153   2.0000      -0.734213       -19.9790
 154   2.0000      -0.728017       -19.8103
 155   2.0000      -0.711185       -19.3523
 156   2.0000      -0.704237       -19.1633
 157   2.0000      -0.702515       -19.1164
 158   2.0000      -0.700755       -19.0685
 159   2.0000      -0.692389       -18.8409
 160   2.0000      -0.685023       -18.6404
 161   2.0000      -0.680976       -18.5303
 162   2.0000      -0.672929       -18.3113
 163   2.0000      -0.663102       -18.0439
 164   2.0000      -0.658027       -17.9058
 165   2.0000      -0.654476       -17.8092
 166   2.0000      -0.653801       -17.7908
 167   2.0000      -0.648322       -17.6417
 168   2.0000      -0.642258       -17.4767
 169   2.0000      -0.634564       -17.2674
 170   2.0000      -0.626453       -17.0467
 171   2.0000      -0.623173       -16.9574
 172   2.0000      -0.616533       -16.7767
 173   2.0000      -0.614140       -16.7116
 174   2.0000      -0.611444       -16.6382
 175   2.0000      -0.609175       -16.5765
 176   2.0000      -0.605138       -16.4666
 177   2.0000      -0.599675       -16.3180
 178   2.0000      -0.594743       -16.1838
 179   2.0000      -0.588630       -16.0174
 180   2.0000      -0.586920       -15.9709
 181   2.0000      -0.584993       -15.9185
 182   2.0000      -0.584332       -15.9005
 183   2.0000      -0.581551       -15.8248
 184   2.0000      -0.577912       -15.7258
 185   2.0000      -0.573928       -15.6174
 186   2.0000      -0.565785       -15.3958
 187   2.0000      -0.555441       -15.1143
 188   2.0000      -0.551607       -15.0100
 189   2.0000      -0.547354       -14.8943
 190   2.0000      -0.545730       -14.8501
 191   2.0000      -0.543704       -14.7949
 192   2.0000      -0.540103       -14.6970
 193   2.0000      -0.538221       -14.6457
 194   2.0000      -0.534175       -14.5357
 195   2.0000      -0.531511       -14.4631
 196   2.0000      -0.530148       -14.4261
 197   2.0000      -0.525552       -14.3010
 198   2.0000      -0.523195       -14.2369
 199   2.0000      -0.521895       -14.2015
 200   2.0000      -0.519746       -14.1430
 201   2.0000      -0.517071       -14.0702
 202   2.0000      -0.516488       -14.0544
 203   2.0000      -0.514896       -14.0110
 204   2.0000      -0.512208       -13.9379
 205   2.0000      -0.506588       -13.7850
 206   2.0000      -0.504249       -13.7213
 207   2.0000      -0.503992       -13.7143
 208   2.0000      -0.499166       -13.5830
 209   2.0000      -0.496665       -13.5149
 210   2.0000      -0.493600       -13.4315
 211   2.0000      -0.492475       -13.4009
 212   2.0000      -0.490335       -13.3427
 213   2.0000      -0.484101       -13.1731
 214   2.0000      -0.482388       -13.1264
 215   2.0000      -0.481593       -13.1048
 216   2.0000      -0.480989       -13.0884
 217   2.0000      -0.476645       -12.9702
 218   2.0000      -0.476200       -12.9581
 219   2.0000      -0.475021       -12.9260
 220   2.0000      -0.472259       -12.8508
 221   2.0000      -0.467977       -12.7343
 222   2.0000      -0.465820       -12.6756
 223   2.0000      -0.464645       -12.6436
 224   2.0000      -0.462480       -12.5847
 225   2.0000      -0.462028       -12.5724
 226   2.0000      -0.460583       -12.5331
 227   2.0000      -0.456677       -12.4268
 228   2.0000      -0.453540       -12.3415
 229   2.0000      -0.453383       -12.3372
 230   2.0000      -0.452644       -12.3171
 231   2.0000      -0.451597       -12.2886
 232   2.0000      -0.448692       -12.2095
 233   2.0000      -0.447146       -12.1675
 234   2.0000      -0.444906       -12.1065
 235   2.0000      -0.442335       -12.0365
 236   2.0000      -0.439703       -11.9649
 237   2.0000      -0.439441       -11.9578
 238   2.0000      -0.438455       -11.9310
 239   2.0000      -0.434007       -11.8099
 240   2.0000      -0.432797       -11.7770
 241   2.0000      -0.431567       -11.7435
 242   2.0000      -0.427526       -11.6336
 243   2.0000      -0.425833       -11.5875
 244   2.0000      -0.425324       -11.5736
 245   2.0000      -0.423700       -11.5295
 246   2.0000      -0.421558       -11.4712
 247   2.0000      -0.417154       -11.3513
 248   2.0000      -0.413614       -11.2550
 249   2.0000      -0.410266       -11.1639
 250   2.0000      -0.404620       -11.0103
 251   2.0000      -0.404046       -10.9946
 252   2.0000      -0.401500       -10.9254
 253   2.0000      -0.393965       -10.7203
 254   2.0000      -0.390387       -10.6230
 255   2.0000      -0.384530       -10.4636
 256   2.0000      -0.380498       -10.3539
 257   2.0000      -0.378680       -10.3044
 258   2.0000      -0.373017       -10.1503
 259   2.0000      -0.366991        -9.9863
 260   2.0000      -0.365824        -9.9546
 261   2.0000      -0.348022        -9.4702
 262   2.0000      -0.345082        -9.3902
 263   2.0000      -0.344687        -9.3794
 264   2.0000      -0.333190        -9.0665
 265   2.0000      -0.327741        -8.9183
 266   2.0000      -0.323904        -8.8139
 267   2.0000      -0.322295        -8.7701
 268   2.0000      -0.321295        -8.7429
 269   2.0000      -0.320268        -8.7149
 270   2.0000      -0.317137        -8.6297
 271   2.0000      -0.311793        -8.4843
 272   2.0000      -0.304964        -8.2985
 273   2.0000      -0.298637        -8.1263
 274   2.0000      -0.290964        -7.9175
 275   2.0000      -0.270187        -7.3522
 276   2.0000      -0.266928        -7.2635
 277   2.0000      -0.245163        -6.6712
 278   0.0000      -0.102382        -2.7860
 279   0.0000      -0.066857        -1.8193
 280   0.0000      -0.052733        -1.4349
 281   0.0000      -0.036308        -0.9880
 282   0.0000      -0.020814        -0.5664

MULLIKEN ATOMIC CHARGES
-----------------------
   0 C :   -0.001724
   1 C :    0.089638
   2 C :   -0.075884
   3 C :    0.033524
   4 C :    0.095409
   5 C :   -0.021140
   6 N :   -0.029094
   7 C :    0.126861
   8 O :   -0.167702
   9 C :   -0.231512
  10 C :    0.092922
  11 C :   -0.139413
  12 N :    0.121530
  13 C :    0.080473
  14 C :   -0.014290
  15 C :   -0.047600
  16 C :    0.033189
  17 C :    0.238700
  18 C :   -0.139443
  19 O :   -0.205697
  20 C :    0.110852
  21 N :   -0.045952
  22 C :    0.021318
  23 C :    0.005188
  24 C :   -0.040885
  25 C :    0.039455
  26 C :    0.257435
  27 C :   -0.127502
  28 O :   -0.196669
  29 C :    0.141961
  30 N :   -0.046952
  31 C :   -0.092638
  32 C :   -0.060565
  33 C :    0.083632
  34 C :    0.142841
  35 C :   -0.213908
  36 C :    0.035857
  37 C :    0.082199
  38 C :   -0.261539
  39 S :    0.148092
  40 C :    0.121749
  41 Cl:   -0.087665
  42 C :   -0.144167
  43 C :    0.089502
  44 C :    0.143353
  45 C :   -0.136130
  46 S :    0.156865
  47 C :   -0.210592
  48 C :    0.029547
  49 C :    0.089255
  50 C :   -0.268642
  51 S :    0.133442
  52 C :    0.122483
  53 Cl:   -0.086540
  54 C :   -0.096721
  55 C :   -0.007981
  56 S :    0.128299
  57 C :   -0.049841
  58 C :   -0.058186
  59 C :    0.015113
  60 C :   -0.098807
  61 S :    0.184021
  62 C :   -0.119257
  63 C :   -0.029676
  64 C :    0.297533
  65 C :   -0.295719
  66 C :   -0.189271
  67 N :    0.170311
  68 C :   -0.189793
  69 N :    0.174490
  70 C :    0.036663
  71 C :   -0.081878
  72 S :    0.181374
  73 H :   -0.007292
  74 H :   -0.018947
  75 H :   -0.028936
  76 H :    0.133666
  77 H :    0.009326
  78 H :   -0.018942
  79 H :   -0.019281
  80 H :   -0.019726
  81 H :   -0.004828
  82 H :   -0.015784
  83 H :    0.003834
  84 H :    0.006441
  85 H :   -0.007898
  86 H :    0.023890
  87 H :    0.039914
  88 H :    0.036493
  89 H :   -0.004788
  90 H :    0.027705
  91 H :    0.030346
  92 H :    0.037997
  93 H :   -0.011754
  94 H :    0.015401
  95 H :    0.013235
  96 H :    0.035829
Sum of atomic charges:   -0.0000000

LOEWDIN ATOMIC CHARGES
----------------------
   0 C :    0.011672
   1 C :   -0.029765
   2 C :    0.009759
   3 C :   -0.061785
   4 C :    0.050295
   5 C :   -0.047394
   6 N :    0.047251
   7 C :    0.069759
   8 O :   -0.193562
   9 C :   -0.113158
  10 C :    0.068000
  11 C :   -0.024419
  12 N :   -0.045111
  13 C :   -0.020146
  14 C :   -0.026672
  15 C :   -0.017377
  16 C :   -0.030271
  17 C :    0.033108
  18 C :   -0.041388
  19 O :   -0.008716
  20 C :    0.076559
  21 N :   -0.108665
  22 C :   -0.055253
  23 C :   -0.009327
  24 C :   -0.020488
  25 C :   -0.020191
  26 C :    0.030867
  27 C :   -0.005601
  28 O :   -0.007652
  29 C :    0.055076
  30 N :   -0.104493
  31 C :   -0.191138
  32 C :   -0.012287
  33 C :   -0.041448
  34 C :   -0.047794
  35 C :   -0.178019
  36 C :   -0.063840
  37 C :   -0.177700
  38 C :   -0.194521
  39 S :    0.439626
  40 C :   -0.060955
  41 Cl:    0.129300
  42 C :   -0.150218
  43 C :   -0.034759
  44 C :   -0.057484
  45 C :   -0.139267
  46 S :    0.437570
  47 C :   -0.172528
  48 C :   -0.075182
  49 C :   -0.176798
  50 C :   -0.198523
  51 S :    0.445365
  52 C :   -0.060905
  53 Cl:    0.129966
  54 C :   -0.075861
  55 C :   -0.163411
  56 S :    0.411978
  57 C :   -0.179908
  58 C :   -0.030546
  59 C :   -0.071675
  60 C :   -0.177185
  61 S :    0.480410
  62 C :   -0.185259
  63 C :   -0.075728
  64 C :    0.083314
  65 C :   -0.103295
  66 C :   -0.016694
  67 N :   -0.033916
  68 C :   -0.016772
  69 N :   -0.033375
  70 C :   -0.033931
  71 C :   -0.177398
  72 S :    0.477332
  73 H :    0.034810
  74 H :    0.033380
  75 H :    0.031798
  76 H :    0.099176
  77 H :    0.047244
  78 H :    0.028198
  79 H :    0.036719
  80 H :    0.034264
  81 H :    0.032718
  82 H :    0.038010
  83 H :    0.044969
  84 H :    0.040631
  85 H :    0.035074
  86 H :    0.034086
  87 H :    0.041494
  88 H :    0.039927
  89 H :    0.027105
  90 H :    0.035320
  91 H :    0.037751
  92 H :    0.039944
  93 H :    0.011674
  94 H :    0.037759
  95 H :    0.042818
  96 H :    0.027683

  Mayer bond orders larger than 0.100000
B(  0-C ,  1-C ) :   1.3205 B(  0-C ,  5-C ) :   1.4207 B(  0-C , 73-H ) :   0.9882
B(  1-C ,  2-C ) :   1.4140 B(  1-C , 13-C ) :   0.9571 B(  2-C ,  3-C ) :   1.2644
B(  2-C , 74-H ) :   1.0037 B(  3-C ,  4-C ) :   1.3023 B(  3-C , 10-C ) :   1.1318
B(  4-C ,  5-C ) :   1.2963 B(  4-C ,  6-N ) :   1.1960 B(  5-C , 75-H ) :   0.9941
B(  6-N ,  7-C ) :   1.0890 B(  6-N , 76-H ) :   0.9023 B(  7-C ,  8-O ) :   2.2437
B(  7-C ,  9-C ) :   0.9498 B(  9-C , 10-C ) :   1.6422 B(  9-C , 11-C ) :   1.1117
B( 10-C , 77-H ) :   0.9857 B( 11-C , 12-N ) :   3.0430 B( 13-C , 14-C ) :   1.3545
B( 13-C , 18-C ) :   1.3556 B( 14-C , 15-C ) :   1.3866 B( 14-C , 78-H ) :   0.9885
B( 15-C , 16-C ) :   1.3025 B( 15-C , 18-C ) :   0.1046 B( 15-C , 79-H ) :   1.0207
B( 16-C , 17-C ) :   1.2808 B( 16-C , 21-N ) :   1.2842 B( 17-C , 18-C ) :   1.3203
B( 17-C , 19-O ) :   1.0969 B( 18-C , 80-H ) :   1.0192 B( 19-O , 20-C ) :   1.1546
B( 20-C , 21-N ) :   1.7796 B( 20-C , 22-C ) :   1.0251 B( 22-C , 23-C ) :   1.3138
B( 22-C , 27-C ) :   1.3363 B( 23-C , 24-C ) :   1.3843 B( 23-C , 81-H ) :   0.9907
B( 24-C , 25-C ) :   1.2948 B( 24-C , 27-C ) :   0.1009 B( 24-C , 82-H ) :   1.0207
B( 25-C , 26-C ) :   1.2580 B( 25-C , 30-N ) :   1.2965 B( 26-C , 27-C ) :   1.3014
B( 26-C , 28-O ) :   1.0897 B( 27-C , 83-H ) :   1.0307 B( 28-O , 29-C ) :   1.1939
B( 29-C , 30-N ) :   1.7726 B( 29-C , 31-C ) :   1.0392 B( 31-C , 32-C ) :   1.5880
B( 31-C , 46-S ) :   1.0582 B( 32-C , 33-C ) :   1.1597 B( 32-C , 84-H ) :   1.0043
B( 33-C , 34-C ) :   1.3049 B( 33-C , 45-C ) :   1.2758 B( 34-C , 35-C ) :   0.9876
B( 34-C , 42-C ) :   1.4079 B( 35-C , 36-C ) :   1.5451 B( 35-C , 39-S ) :   1.1336
B( 36-C , 37-C ) :   1.2173 B( 36-C , 85-H ) :   1.0086 B( 37-C , 38-C ) :   1.5998
B( 37-C , 41-Cl) :   1.0065 B( 38-C , 39-S ) :   1.1316 B( 38-C , 40-C ) :   1.0838
B( 40-C , 86-H ) :   0.9440 B( 40-C , 87-H ) :   0.9477 B( 40-C , 88-H ) :   0.9484
B( 42-C , 43-C ) :   1.2685 B( 42-C , 56-S ) :   1.0560 B( 43-C , 44-C ) :   1.3065
B( 43-C , 54-C ) :   1.1862 B( 44-C , 45-C ) :   1.4069 B( 44-C , 47-C ) :   0.9895
B( 45-C , 46-S ) :   1.0641 B( 47-C , 48-C ) :   1.5523 B( 47-C , 51-S ) :   1.1287
B( 48-C , 49-C ) :   1.2221 B( 48-C , 89-H ) :   0.9943 B( 49-C , 50-C ) :   1.6022
B( 49-C , 53-Cl) :   1.0105 B( 50-C , 51-S ) :   1.1289 B( 50-C , 52-C ) :   1.0839
B( 52-C , 90-H ) :   0.9443 B( 52-C , 91-H ) :   0.9479 B( 52-C , 92-H ) :   0.9488
B( 54-C , 55-C ) :   1.5728 B( 54-C , 93-H ) :   0.9694 B( 55-C , 56-S ) :   1.0731
B( 55-C , 57-C ) :   1.1520 B( 57-C , 58-C ) :   1.4744 B( 57-C , 61-S ) :   1.1039
B( 58-C , 59-C ) :   1.2797 B( 58-C , 94-H ) :   0.9919 B( 59-C , 60-C ) :   1.4664
B( 59-C , 64-C ) :   0.9931 B( 60-C , 61-S ) :   1.1281 B( 60-C , 62-C ) :   1.1778
B( 62-C , 63-C ) :   1.4600 B( 62-C , 72-S ) :   1.1357 B( 63-C , 64-C ) :   1.0153
B( 63-C , 70-C ) :   1.2777 B( 64-C , 65-C ) :   1.7116 B( 65-C , 66-C ) :   1.1321
B( 65-C , 68-C ) :   1.1302 B( 66-C , 67-N ) :   2.9928 B( 68-C , 69-N ) :   3.0028
B( 70-C , 71-C ) :   1.5480 B( 70-C , 95-H ) :   0.9957 B( 71-C , 72-S ) :   1.1508
B( 71-C , 96-H ) :   0.9646

-----------------------------------------------------------------------------
         ABSORPTION SPECTRUM VIA TRANSITION ELECTRIC DIPOLE MOMENTS
-----------------------------------------------------------------------------
State   Energy  Wavelength   fosc         T2         TX        TY        TZ
        (cm-1)    (nm)                  (au**2)     (au)      (au)      (au)
-----------------------------------------------------------------------------
   0   14507.7    689.3   0.100502029   2.28061  -0.33159  -1.13570  -0.93853
   1   20756.1    481.8   0.056223462   0.89176   0.17679   0.92173  -0.10446
   2   23747.1    421.1   1.616573511  22.41095  -0.99252  -4.47621  -1.17872
   3   26721.0    374.2   1.028763573  12.67473  -0.66950  -2.31382  -2.62159
   4   28282.5    353.6   0.052344973   0.60930   0.17393   0.44832   0.61486
   5   29769.7    335.9   0.209422132   2.31592   0.20746   1.19673   0.91690
   6   30475.7    328.1   0.624619616   6.74742  -0.67883  -1.80207  -1.74332
   7   30796.8    324.7   0.210880737   2.25427  -0.63852  -0.24062   1.33741
   8   31154.9    321.0   0.067302432   0.71118  -0.30479  -0.26401  -0.74066
   9   31601.8    316.4   0.139535487   1.45361  -0.12494  -1.10264   0.47136
  10   31931.8    313.2   0.039848759   0.41083   0.12296   0.53564   0.32985
  11   32273.5    309.9   0.296491045   3.02441  -0.20173  -1.51340   0.83267
  12   32572.4    307.0   0.685268725   6.92607  -0.14160   0.67718  -2.53918
  13   33928.8    294.7   0.143327058   1.39070   0.27720   1.14087   0.11079
  14   34302.7    291.5   0.010619138   0.10191   0.02704   0.31095   0.06706
  15   34530.9    289.6   0.007457632   0.07110  -0.02427   0.05285  -0.26023
  16   35031.4    285.5   0.021117376   0.19845  -0.04204   0.41934  -0.14437
  17   35421.3    282.3   0.094570047   0.87895   0.16342   0.82593  -0.41242
  18   36185.5    276.4   0.038571950   0.35092  -0.22239  -0.50164  -0.22321
  19   36265.3    275.7   0.099182628   0.90037  -0.33915  -0.88459   0.05332
  20   36453.3    274.3   0.335558279   3.03044   0.05815   1.73982  -0.00916
  21   36945.3    270.7   0.051395048   0.45797   0.08822   0.56111   0.36789
  22   37432.1    267.2   0.051110869   0.44952   0.21406   0.56365   0.29325
  23   37587.5    266.0   0.000984408   0.00862  -0.05359   0.06104  -0.04500
  24   37961.3    263.4   0.109577058   0.95028  -0.22481  -0.86266   0.39442
  25   38012.3    263.1   0.057970699   0.50207   0.12196   0.64754   0.26054
  26   39031.4    256.2   0.008709228   0.07346  -0.00248   0.24716  -0.11120
  27   39361.9    254.1   0.338156871   2.82825  -0.23147  -1.61394  -0.41216
  28   39462.0    253.4   0.059354868   0.49517  -0.07136   0.22867   0.66166
  29   39707.8    251.8   0.106430865   0.88240  -0.57363  -0.74289  -0.03841
  30   39837.2    251.0   0.056894089   0.47017   0.33338   0.27254   0.53362

FINAL SINGLE POINT ENERGY     -6007.782683237975

DIPOLE MOMENT
-------------
                                X             Y             Z
Electronic contribution:     14.28021      43.71494      28.09782
Nuclear contribution   :    -13.05781     -41.38184     -25.62769
                        -----------------------------------------
Total Dipole Moment    :      1.22240       2.33310       2.47013
                        -----------------------------------------
Magnitude (a.u.)       :      3.61098
Magnitude (Debye)      :      9.17838

Rotational constants in cm-1:     0.001781     0.000170     0.000157
Rotational constants in MHz :    53.400678     5.104167     4.695107

                             ****ORCA TERMINATED NORMALLY****
TOTAL RUN TIME: 0 days 0 hours 9 minutes 29 seconds 321 msec
