                         Program Version 4.2.0 -  RELEASE  -
|  1> # ORCA input file
|  2> # SCF done       -187.344150848081          0.000873301529
|  3> ! CAM-B3LYP def2-SVP def2/J RIJCOSX Grid4 TightSCF
|  4> %maxcore 5000
|  5> %tddft
|  6>     Mode sTDDFT
|  7>     Ethresh 5.0
|  8>     maxcore 5000
|  9> end
| 10>
| 11> %pal
| 12>   nprocs 6
| 13>   end
| 14> * xyz 0 1
| 15>    C       -2.64593        -1.97503         1.05251
| 16>    C       -1.83866        -2.07849        -0.02197
| 17>    C       -0.60677        -1.37793         0.13906
| 18>    C        0.47741        -1.31310        -0.75338
| 19>    C        0.39900        -1.90755        -2.07410
| 20>    C       -0.63614        -1.83986        -2.96034
| 21>    C       -0.36964        -2.53329        -4.16147
| 22>    C        0.85280        -3.13667        -4.20572
| 23>    S        1.71429        -2.84056        -2.73265
| 24>    C        1.45551        -3.94289        -5.29701
| 25>   Cl       -1.50722        -2.59894        -5.45442
| 26>    C        1.60954        -0.63964        -0.30790
| 27>    C        1.69323        -0.00724         0.95770
| 28>    C        0.60217        -0.06117         1.84645
| 29>    C       -0.52561        -0.74841         1.40299
| 30>    S       -1.97784        -1.02038         2.32898
| 31>    C        0.63913         0.53448         3.16614
| 32>    C       -0.37189         1.17587         3.82318
| 33>    C       -0.00564         1.58045         5.12442
| 34>    C        1.26798         1.24761         5.48343
| 35>    S        2.05117         0.41998         4.18171
| 36>    C        1.97455         1.50774         6.76286
| 37>   Cl       -1.09048         2.42464         6.16143
| 38>    C        2.93074         0.66304         1.12549
| 39>    C        3.76801         0.53767         0.05926
| 40>    S        3.06743        -0.41495        -1.22942
| 41>    C        5.09072         1.09798        -0.05737
| 42>    N        5.47662         1.91038         0.93132
| 43>    N        6.64169         2.45689         0.92122
| 44>    C        7.50017         2.23418        -0.07061
| 45>    C        7.17937         1.39485        -1.15055
| 46>    C        5.93766         0.81012        -1.14285
| 47>    C        8.79618         2.90485         0.01521
| 48>    N        9.73076         2.52031        -0.85007
| 49>    N       10.90194         3.06217        -0.84544
| 50>    C       11.20935         4.01778         0.02758
| 51>    C       10.28486         4.47893         0.97982
| 52>    C        9.03687         3.90569         0.97160
| 53>    C       12.55994         4.57173        -0.04749
| 54>    N       12.78877         5.69012         0.63594
| 55>    N       13.94859         6.24780         0.63446
| 56>    C       14.96342         5.71969        -0.05623
| 57>    C       14.80325         4.54464        -0.81253
| 58>    C       13.56494         3.95244        -0.80896
| 59>    C       16.21841         6.42482         0.02034
| 60>    C       16.42636         7.64196         0.59321
| 61>    C       17.77114         8.08392         0.51674
| 62>    C       18.31320         9.30731         0.95478
| 63>    C       17.52605        10.30553         1.64928
| 64>    C       17.58332        11.66265         1.50748
| 65>    C       16.70501        12.33863         2.38078
| 66>    C       15.98501        11.52193         3.20341
| 67>    S       16.38439         9.86780         2.89120
| 68>    C       14.97994        11.88697         4.23312
| 69>   Cl       16.56792        14.05513         2.39606
| 70>    C       19.66527         9.51485         0.69426
| 71>    C       20.48974         8.56793         0.04130
| 72>    C       19.94962         7.34629        -0.39684
| 73>    C       18.59556         7.14143        -0.14582
| 74>    S       17.68578         5.74499        -0.64663
| 75>    C       20.73470         6.33645        -1.08026
| 76>    C       20.67428         4.98309        -0.91562
| 77>    C       21.54334         4.28762        -1.78407
| 78>    C       22.26166         5.08580        -2.62458
| 79>    S       21.86978         6.74795        -2.33737
| 80>    C       23.25383         4.69771        -3.65845
| 81>   Cl       21.67070         2.57008        -1.77081
| 82>    C       21.84297         9.01226        -0.02757
| 83>    C       22.02772        10.22522         0.53077
| 84>    S       20.58185        10.91765         1.17473
| 85>    H       -3.61847        -2.40570         1.19003
| 86>    H       -2.08311        -2.65138        -0.89684
| 87>    H       -1.54028        -1.28551        -2.78816
| 88>    H        1.70616        -4.94204        -4.94279
| 89>    H        2.37146        -3.47545        -5.65709
| 90>    H        0.75306        -4.02580        -6.12256
| 91>    H       -1.33254         1.38930         3.39338
| 92>    H        1.33452         2.08719         7.42343
| 93>    H        2.89672         2.05968         6.58593
| 94>    H        2.23423         0.57086         7.25531
| 95>    H        3.21203         1.23276         1.99055
| 96>    H        7.90105         1.23773        -1.93587
| 97>    H        5.60618         0.14923        -1.93046
| 98>    H       10.57641         5.25347         1.67098
| 99>    H        8.25176         4.18549         1.65561
|100>    H       15.63500         4.13897        -1.36973
|101>    H       13.34032         3.05068        -1.35543
|102>    H       15.62027         8.19375         1.03768
|103>    H       18.19738        12.16981         0.78710
|104>    H       15.25136        11.46686         5.20060
|105>    H       13.99763        11.49939         3.96358
|106>    H       14.92021        12.96895         4.31951
|107>    H       20.06309         4.49109        -0.18247
|108>    H       24.23149         5.12249        -3.43224
|109>    H       22.94930         5.06134        -4.63914
|110>    H       23.33934         3.61464        -3.69353
|111>    H       22.63635         8.43837        -0.46809
|112>    H       22.94134        10.78144         0.60872
|113> *
|114>
|115>                          ****END OF INPUT****

CARTESIAN COORDINATES (ANGSTROEM)
---------------------------------
  C     -2.645930   -1.975030    1.052510
  C     -1.838660   -2.078490   -0.021970
  C     -0.606770   -1.377930    0.139060
  C      0.477410   -1.313100   -0.753380
  C      0.399000   -1.907550   -2.074100
  C     -0.636140   -1.839860   -2.960340
  C     -0.369640   -2.533290   -4.161470
  C      0.852800   -3.136670   -4.205720
  S      1.714290   -2.840560   -2.732650
  C      1.455510   -3.942890   -5.297010
  Cl    -1.507220   -2.598940   -5.454420
  C      1.609540   -0.639640   -0.307900
  C      1.693230   -0.007240    0.957700
  C      0.602170   -0.061170    1.846450
  C     -0.525610   -0.748410    1.402990
  S     -1.977840   -1.020380    2.328980
  C      0.639130    0.534480    3.166140
  C     -0.371890    1.175870    3.823180
  C     -0.005640    1.580450    5.124420
  C      1.267980    1.247610    5.483430
  S      2.051170    0.419980    4.181710
  C      1.974550    1.507740    6.762860
  Cl    -1.090480    2.424640    6.161430
  C      2.930740    0.663040    1.125490
  C      3.768010    0.537670    0.059260
  S      3.067430   -0.414950   -1.229420
  C      5.090720    1.097980   -0.057370
  N      5.476620    1.910380    0.931320
  N      6.641690    2.456890    0.921220
  C      7.500170    2.234180   -0.070610
  C      7.179370    1.394850   -1.150550
  C      5.937660    0.810120   -1.142850
  C      8.796180    2.904850    0.015210
  N      9.730760    2.520310   -0.850070
  N     10.901940    3.062170   -0.845440
  C     11.209350    4.017780    0.027580
  C     10.284860    4.478930    0.979820
  C      9.036870    3.905690    0.971600
  C     12.559940    4.571730   -0.047490
  N     12.788770    5.690120    0.635940
  N     13.948590    6.247800    0.634460
  C     14.963420    5.719690   -0.056230
  C     14.803250    4.544640   -0.812530
  C     13.564940    3.952440   -0.808960
  C     16.218410    6.424820    0.020340
  C     16.426360    7.641960    0.593210
  C     17.771140    8.083920    0.516740
  C     18.313200    9.307310    0.954780
  C     17.526050   10.305530    1.649280
  C     17.583320   11.662650    1.507480
  C     16.705010   12.338630    2.380780
  C     15.985010   11.521930    3.203410
  S     16.384390    9.867800    2.891200
  C     14.979940   11.886970    4.233120
  Cl    16.567920   14.055130    2.396060
  C     19.665270    9.514850    0.694260
  C     20.489740    8.567930    0.041300
  C     19.949620    7.346290   -0.396840
  C     18.595560    7.141430   -0.145820
  S     17.685780    5.744990   -0.646630
  C     20.734700    6.336450   -1.080260
  C     20.674280    4.983090   -0.915620
  C     21.543340    4.287620   -1.784070
  C     22.261660    5.085800   -2.624580
  S     21.869780    6.747950   -2.337370
  C     23.253830    4.697710   -3.658450
  Cl    21.670700    2.570080   -1.770810
  C     21.842970    9.012260   -0.027570
  C     22.027720   10.225220    0.530770
  S     20.581850   10.917650    1.174730
  H     -3.618470   -2.405700    1.190030
  H     -2.083110   -2.651380   -0.896840
  H     -1.540280   -1.285510   -2.788160
  H      1.706160   -4.942040   -4.942790
  H      2.371460   -3.475450   -5.657090
  H      0.753060   -4.025800   -6.122560
  H     -1.332540    1.389300    3.393380
  H      1.334520    2.087190    7.423430
  H      2.896720    2.059680    6.585930
  H      2.234230    0.570860    7.255310
  H      3.212030    1.232760    1.990550
  H      7.901050    1.237730   -1.935870
  H      5.606180    0.149230   -1.930460
  H     10.576410    5.253470    1.670980
  H      8.251760    4.185490    1.655610
  H     15.635000    4.138970   -1.369730
  H     13.340320    3.050680   -1.355430
  H     15.620270    8.193750    1.037680
  H     18.197380   12.169810    0.787100
  H     15.251360   11.466860    5.200600
  H     13.997630   11.499390    3.963580
  H     14.920210   12.968950    4.319510
  H     20.063090    4.491090   -0.182470
  H     24.231490    5.122490   -3.432240
  H     22.949300    5.061340   -4.639140
  H     23.339340    3.614640   -3.693530
  H     22.636350    8.438370   -0.468090
  H     22.941340   10.781440    0.608720

 Total Charge           Charge          ....    0
 Multiplicity           Mult            ....    1
 Number of Electrons    NEL             ....  578
 Basis Dimension        Dim             .... 1168

ORBITAL ENERGIES
----------------

  NO   OCC          E(Eh)            E(eV)
   0   2.0000    -101.582661     -2764.2047
   1   2.0000    -101.582590     -2764.2028
   2   2.0000    -101.579020     -2764.1057
   3   2.0000    -101.578867     -2764.1015
   4   2.0000     -88.956792     -2420.6374
   5   2.0000     -88.956210     -2420.6215
   6   2.0000     -88.953082     -2420.5364
   7   2.0000     -88.953064     -2420.5359
   8   2.0000     -88.952143     -2420.5109
   9   2.0000     -88.951833     -2420.5024
  10   2.0000     -88.948111     -2420.4011
  11   2.0000     -88.947889     -2420.3951
  12   2.0000     -14.441580      -392.9754
  13   2.0000     -14.441559      -392.9748
  14   2.0000     -14.440708      -392.9516
  15   2.0000     -14.440676      -392.9508
  16   2.0000     -14.438285      -392.8857
  17   2.0000     -14.438268      -392.8853
  18   2.0000     -10.326433      -280.9965
  19   2.0000     -10.326404      -280.9957
  20   2.0000     -10.320048      -280.8228
  21   2.0000     -10.319988      -280.8211
  22   2.0000     -10.318421      -280.7785
  23   2.0000     -10.318369      -280.7771
  24   2.0000     -10.317181      -280.7448
  25   2.0000     -10.316907      -280.7373
  26   2.0000     -10.313221      -280.6370
  27   2.0000     -10.313217      -280.6369
  28   2.0000     -10.305309      -280.4217
  29   2.0000     -10.305102      -280.4161
  30   2.0000     -10.305086      -280.4157
  31   2.0000     -10.304657      -280.4040
  32   2.0000     -10.302575      -280.3473
  33   2.0000     -10.302235      -280.3381
  34   2.0000     -10.301982      -280.3312
  35   2.0000     -10.301944      -280.3302
  36   2.0000     -10.301799      -280.3262
  37   2.0000     -10.301612      -280.3211
  38   2.0000     -10.301539      -280.3191
  39   2.0000     -10.301390      -280.3151
  40   2.0000     -10.300782      -280.2985
  41   2.0000     -10.300737      -280.2973
  42   2.0000     -10.299069      -280.2519
  43   2.0000     -10.298963      -280.2490
  44   2.0000     -10.298223      -280.2289
  45   2.0000     -10.298181      -280.2278
  46   2.0000     -10.297111      -280.1986
  47   2.0000     -10.297083      -280.1979
  48   2.0000     -10.296194      -280.1737
  49   2.0000     -10.295767      -280.1621
  50   2.0000     -10.295719      -280.1608
  51   2.0000     -10.295557      -280.1564
  52   2.0000     -10.294978      -280.1406
  53   2.0000     -10.294472      -280.1268
  54   2.0000     -10.286336      -279.9054
  55   2.0000     -10.285929      -279.8944
  56   2.0000     -10.285831      -279.8917
  57   2.0000     -10.285824      -279.8915
  58   2.0000     -10.277508      -279.6652
  59   2.0000     -10.277248      -279.6581
  60   2.0000     -10.276044      -279.6254
  61   2.0000     -10.275512      -279.6109
  62   2.0000     -10.274490      -279.5831
  63   2.0000     -10.274319      -279.5784
  64   2.0000     -10.273216      -279.5484
  65   2.0000     -10.273065      -279.5443
  66   2.0000     -10.271801      -279.5099
  67   2.0000     -10.271795      -279.5097
  68   2.0000     -10.271763      -279.5089
  69   2.0000     -10.271706      -279.5073
  70   2.0000      -9.537359      -259.5247
  71   2.0000      -9.537342      -259.5243
  72   2.0000      -9.533727      -259.4259
  73   2.0000      -9.533613      -259.4228
  74   2.0000      -8.052407      -219.1171
  75   2.0000      -8.051936      -219.1043
  76   2.0000      -8.048639      -219.0146
  77   2.0000      -8.048596      -219.0134
  78   2.0000      -8.047336      -218.9791
  79   2.0000      -8.047201      -218.9755
  80   2.0000      -8.043824      -218.8836
  81   2.0000      -8.043584      -218.8770
  82   2.0000      -7.307583      -198.8494
  83   2.0000      -7.307535      -198.8481
  84   2.0000      -7.303955      -198.7507
  85   2.0000      -7.303816      -198.7469
  86   2.0000      -7.297455      -198.5739
  87   2.0000      -7.297438      -198.5734
  88   2.0000      -7.297378      -198.5717
  89   2.0000      -7.297375      -198.5717
  90   2.0000      -7.293824      -198.4750
  91   2.0000      -7.293740      -198.4728
  92   2.0000      -7.293706      -198.4718
  93   2.0000      -7.293641      -198.4701
  94   2.0000      -6.021753      -163.8602
  95   2.0000      -6.021233      -163.8461
  96   2.0000      -6.017981      -163.7576
  97   2.0000      -6.017932      -163.7562
  98   2.0000      -6.017531      -163.7453
  99   2.0000      -6.017038      -163.7319
 100   2.0000      -6.016963      -163.7299
 101   2.0000      -6.016800      -163.7254
 102   2.0000      -6.014475      -163.6622
 103   2.0000      -6.014035      -163.6502
 104   2.0000      -6.013743      -163.6423
 105   2.0000      -6.013714      -163.6415
 106   2.0000      -6.013518      -163.6362
 107   2.0000      -6.013284      -163.6298
 108   2.0000      -6.012855      -163.6181
 109   2.0000      -6.012713      -163.6142
 110   2.0000      -6.010725      -163.5601
 111   2.0000      -6.010675      -163.5588
 112   2.0000      -6.009058      -163.5148
 113   2.0000      -6.008830      -163.5086
 114   2.0000      -6.008739      -163.5061
 115   2.0000      -6.008593      -163.5021
 116   2.0000      -6.005369      -163.4144
 117   2.0000      -6.005107      -163.4073
 118   2.0000      -1.127168       -30.6718
 119   2.0000      -1.123170       -30.5630
 120   2.0000      -1.118633       -30.4396
 121   2.0000      -1.010359       -27.4933
 122   2.0000      -1.010330       -27.4925
 123   2.0000      -0.999186       -27.1892
 124   2.0000      -0.998967       -27.1833
 125   2.0000      -0.992125       -26.9971
 126   2.0000      -0.992002       -26.9938
 127   2.0000      -0.977767       -26.6064
 128   2.0000      -0.977224       -26.5916
 129   2.0000      -0.959539       -26.1104
 130   2.0000      -0.944743       -25.7078
 131   2.0000      -0.942225       -25.6393
 132   2.0000      -0.941225       -25.6120
 133   2.0000      -0.937888       -25.5212
 134   2.0000      -0.935674       -25.4610
 135   2.0000      -0.926974       -25.2242
 136   2.0000      -0.922740       -25.1090
 137   2.0000      -0.904236       -24.6055
 138   2.0000      -0.898937       -24.4613
 139   2.0000      -0.896761       -24.4021
 140   2.0000      -0.896369       -24.3914
 141   2.0000      -0.892737       -24.2926
 142   2.0000      -0.884700       -24.0739
 143   2.0000      -0.858474       -23.3603
 144   2.0000      -0.857050       -23.3215
 145   2.0000      -0.847357       -23.0578
 146   2.0000      -0.846256       -23.0278
 147   2.0000      -0.833999       -22.6943
 148   2.0000      -0.833042       -22.6682
 149   2.0000      -0.815109       -22.1802
 150   2.0000      -0.813947       -22.1486
 151   2.0000      -0.807209       -21.9653
 152   2.0000      -0.805961       -21.9313
 153   2.0000      -0.803772       -21.8718
 154   2.0000      -0.803387       -21.8613
 155   2.0000      -0.795331       -21.6421
 156   2.0000      -0.792093       -21.5539
 157   2.0000      -0.779937       -21.2232
 158   2.0000      -0.779053       -21.1991
 159   2.0000      -0.775576       -21.1045
 160   2.0000      -0.767194       -20.8764
 161   2.0000      -0.753506       -20.5039
 162   2.0000      -0.746269       -20.3070
 163   2.0000      -0.742420       -20.2023
 164   2.0000      -0.737634       -20.0721
 165   2.0000      -0.725181       -19.7332
 166   2.0000      -0.714655       -19.4468
 167   2.0000      -0.703322       -19.1384
 168   2.0000      -0.701053       -19.0766
 169   2.0000      -0.677825       -18.4446
 170   2.0000      -0.676712       -18.4143
 171   2.0000      -0.659926       -17.9575
 172   2.0000      -0.659357       -17.9420
 173   2.0000      -0.648556       -17.6481
 174   2.0000      -0.647994       -17.6328
 175   2.0000      -0.639266       -17.3953
 176   2.0000      -0.638470       -17.3737
 177   2.0000      -0.634463       -17.2646
 178   2.0000      -0.630047       -17.1444
 179   2.0000      -0.627053       -17.0630
 180   2.0000      -0.625316       -17.0157
 181   2.0000      -0.623787       -16.9741
 182   2.0000      -0.613423       -16.6921
 183   2.0000      -0.605804       -16.4848
 184   2.0000      -0.603727       -16.4282
 185   2.0000      -0.602693       -16.4001
 186   2.0000      -0.600177       -16.3317
 187   2.0000      -0.592356       -16.1188
 188   2.0000      -0.589938       -16.0530
 189   2.0000      -0.582208       -15.8427
 190   2.0000      -0.580145       -15.7866
 191   2.0000      -0.579702       -15.7745
 192   2.0000      -0.573049       -15.5935
 193   2.0000      -0.572514       -15.5789
 194   2.0000      -0.551244       -15.0001
 195   2.0000      -0.547093       -14.8872
 196   2.0000      -0.544787       -14.8244
 197   2.0000      -0.540376       -14.7044
 198   2.0000      -0.539040       -14.6680
 199   2.0000      -0.535010       -14.5584
 200   2.0000      -0.532415       -14.4878
 201   2.0000      -0.531870       -14.4729
 202   2.0000      -0.526280       -14.3208
 203   2.0000      -0.520164       -14.1544
 204   2.0000      -0.519064       -14.1244
 205   2.0000      -0.518118       -14.0987
 206   2.0000      -0.517797       -14.0900
 207   2.0000      -0.516990       -14.0680
 208   2.0000      -0.515512       -14.0278
 209   2.0000      -0.514524       -14.0009
 210   2.0000      -0.511778       -13.9262
 211   2.0000      -0.507787       -13.8176
 212   2.0000      -0.506658       -13.7869
 213   2.0000      -0.505967       -13.7681
 214   2.0000      -0.504734       -13.7345
 215   2.0000      -0.502353       -13.6697
 216   2.0000      -0.500919       -13.6307
 217   2.0000      -0.497464       -13.5367
 218   2.0000      -0.496023       -13.4975
 219   2.0000      -0.492302       -13.3962
 220   2.0000      -0.491419       -13.3722
 221   2.0000      -0.489643       -13.3239
 222   2.0000      -0.481935       -13.1141
 223   2.0000      -0.478816       -13.0292
 224   2.0000      -0.477498       -12.9934
 225   2.0000      -0.470680       -12.8078
 226   2.0000      -0.470073       -12.7913
 227   2.0000      -0.469635       -12.7794
 228   2.0000      -0.469090       -12.7646
 229   2.0000      -0.466055       -12.6820
 230   2.0000      -0.464842       -12.6490
 231   2.0000      -0.462649       -12.5893
 232   2.0000      -0.460604       -12.5337
 233   2.0000      -0.459391       -12.5007
 234   2.0000      -0.459309       -12.4984
 235   2.0000      -0.458849       -12.4859
 236   2.0000      -0.458416       -12.4741
 237   2.0000      -0.453661       -12.3447
 238   2.0000      -0.450256       -12.2521
 239   2.0000      -0.446122       -12.1396
 240   2.0000      -0.445821       -12.1314
 241   2.0000      -0.435962       -11.8631
 242   2.0000      -0.435067       -11.8388
 243   2.0000      -0.427627       -11.6363
 244   2.0000      -0.424500       -11.5512
 245   2.0000      -0.424291       -11.5456
 246   2.0000      -0.420597       -11.4450
 247   2.0000      -0.419527       -11.4159
 248   2.0000      -0.417547       -11.3620
 249   2.0000      -0.415990       -11.3197
 250   2.0000      -0.414869       -11.2892
 251   2.0000      -0.413543       -11.2531
 252   2.0000      -0.412790       -11.2326
 253   2.0000      -0.409227       -11.1356
 254   2.0000      -0.405414       -11.0319
 255   2.0000      -0.404861       -11.0168
 256   2.0000      -0.401230       -10.9180
 257   2.0000      -0.398610       -10.8467
 258   2.0000      -0.397905       -10.8275
 259   2.0000      -0.392573       -10.6825
 260   2.0000      -0.389086       -10.5876
 261   2.0000      -0.381664       -10.3856
 262   2.0000      -0.379318       -10.3218
 263   2.0000      -0.378920       -10.3109
 264   2.0000      -0.377207       -10.2643
 265   2.0000      -0.376096       -10.2341
 266   2.0000      -0.375449       -10.2165
 267   2.0000      -0.371417       -10.1068
 268   2.0000      -0.371319       -10.1041
 269   2.0000      -0.369127       -10.0445
 270   2.0000      -0.352955        -9.6044
 271   2.0000      -0.329679        -8.9710
 272   2.0000      -0.321186        -8.7399
 273   2.0000      -0.316843        -8.6217
 274   2.0000      -0.314526        -8.5587
 275   2.0000      -0.312571        -8.5055
 276   2.0000      -0.310856        -8.4588
 277   2.0000      -0.310584        -8.4514
 278   2.0000      -0.305982        -8.3262
 279   2.0000      -0.300057        -8.1650
 280   2.0000      -0.298004        -8.1091
 281   2.0000      -0.297536        -8.0964
 282   2.0000      -0.294779        -8.0213
 283   2.0000      -0.290342        -7.9006
 284   2.0000      -0.290293        -7.8993
 285   2.0000      -0.285321        -7.7640
 286   2.0000      -0.277913        -7.5624
 287   2.0000      -0.244506        -6.6533
 288   2.0000      -0.243281        -6.6200
 289   0.0000      -0.064661        -1.7595
 290   0.0000      -0.046896        -1.2761
 291   0.0000      -0.027456        -0.7471
 292   0.0000      -0.019454        -0.5294
 293   0.0000      -0.011370        -0.3094

MULLIKEN ATOMIC CHARGES
-----------------------
   0 C :   -0.041956
   1 C :   -0.000792
   2 C :    0.063721
   3 C :    0.134376
   4 C :   -0.212772
   5 C :    0.034601
   6 C :    0.080983
   7 C :   -0.266268
   8 S :    0.142237
   9 C :    0.122326
  10 Cl:   -0.090704
  11 C :   -0.131938
  12 C :    0.087354
  13 C :    0.145743
  14 C :   -0.163349
  15 S :    0.109647
  16 C :   -0.210457
  17 C :    0.035874
  18 C :    0.083592
  19 C :   -0.265727
  20 S :    0.144589
  21 C :    0.122794
  22 Cl:   -0.091324
  23 C :   -0.069065
  24 C :   -0.020176
  25 S :    0.102266
  26 C :    0.040087
  27 N :   -0.057358
  28 N :   -0.049547
  29 C :    0.006075
  30 C :    0.019324
  31 C :   -0.007293
  32 C :    0.021327
  33 N :   -0.059299
  34 N :   -0.057672
  35 C :    0.014421
  36 C :    0.025651
  37 C :    0.018486
  38 C :    0.009123
  39 N :   -0.050211
  40 N :   -0.058117
  41 C :    0.035932
  42 C :   -0.004817
  43 C :    0.020509
  44 C :   -0.016582
  45 C :   -0.069056
  46 C :    0.090049
  47 C :    0.141861
  48 C :   -0.212567
  49 C :    0.034386
  50 C :    0.088152
  51 C :   -0.267573
  52 S :    0.147803
  53 C :    0.120308
  54 Cl:   -0.091933
  55 C :   -0.159379
  56 C :    0.053586
  57 C :    0.137546
  58 C :   -0.130159
  59 S :    0.098008
  60 C :   -0.210463
  61 C :    0.034822
  62 C :    0.086794
  63 C :   -0.267808
  64 S :    0.138302
  65 C :    0.120608
  66 Cl:   -0.091296
  67 C :    0.003867
  68 C :   -0.045455
  69 S :    0.111148
  70 H :    0.027572
  71 H :   -0.009100
  72 H :   -0.010034
  73 H :    0.034423
  74 H :    0.033582
  75 H :    0.024247
  76 H :   -0.009086
  77 H :    0.023478
  78 H :    0.035248
  79 H :    0.036080
  80 H :    0.002736
  81 H :    0.011867
  82 H :    0.006664
  83 H :    0.013244
  84 H :    0.013304
  85 H :    0.007832
  86 H :    0.011188
  87 H :    0.002245
  88 H :   -0.008414
  89 H :    0.032545
  90 H :    0.038523
  91 H :    0.024230
  92 H :   -0.008432
  93 H :    0.033519
  94 H :    0.034530
  95 H :    0.024838
  96 H :   -0.011603
  97 H :    0.027609
Sum of atomic charges:   -0.0000000

LOEWDIN ATOMIC CHARGES
----------------------
   0 C :   -0.158872
   1 C :   -0.063962
   2 C :   -0.035263
   3 C :   -0.057769
   4 C :   -0.173374
   5 C :   -0.067788
   6 C :   -0.178332
   7 C :   -0.199249
   8 S :    0.434349
   9 C :   -0.061426
  10 Cl:    0.125864
  11 C :   -0.147000
  12 C :   -0.045300
  13 C :   -0.047431
  14 C :   -0.148470
  15 S :    0.415957
  16 C :   -0.173049
  17 C :   -0.074415
  18 C :   -0.178223
  19 C :   -0.197447
  20 S :    0.453745
  21 C :   -0.061356
  22 Cl:    0.126727
  23 C :   -0.029730
  24 C :   -0.171130
  25 S :    0.396258
  26 C :   -0.017858
  27 N :   -0.042251
  28 N :   -0.037441
  29 C :   -0.027283
  30 C :    0.019554
  31 C :   -0.013179
  32 C :   -0.018347
  33 N :   -0.046079
  34 N :   -0.045775
  35 C :   -0.018708
  36 C :    0.015888
  37 C :    0.015789
  38 C :   -0.026999
  39 N :   -0.037628
  40 N :   -0.042231
  41 C :   -0.018479
  42 C :   -0.012740
  43 C :    0.019677
  44 C :   -0.170907
  45 C :   -0.029555
  46 C :   -0.045673
  47 C :   -0.047439
  48 C :   -0.173837
  49 C :   -0.074168
  50 C :   -0.178337
  51 C :   -0.197239
  52 S :    0.454867
  53 C :   -0.061324
  54 Cl:    0.126426
  55 C :   -0.148032
  56 C :   -0.040605
  57 C :   -0.056941
  58 C :   -0.139982
  59 S :    0.411707
  60 C :   -0.172134
  61 C :   -0.076055
  62 C :   -0.177954
  63 C :   -0.199011
  64 S :    0.445182
  65 C :   -0.061402
  66 Cl:    0.126769
  67 C :   -0.070969
  68 C :   -0.158825
  69 S :    0.417052
  70 H :    0.026028
  71 H :    0.032268
  72 H :    0.034149
  73 H :    0.038733
  74 H :    0.038652
  75 H :    0.033844
  76 H :    0.026373
  77 H :    0.033513
  78 H :    0.039508
  79 H :    0.039491
  80 H :    0.024864
  81 H :    0.042308
  82 H :    0.031877
  83 H :    0.042221
  84 H :    0.042252
  85 H :    0.032440
  86 H :    0.042391
  87 H :    0.024741
  88 H :    0.026663
  89 H :    0.038376
  90 H :    0.040564
  91 H :    0.033664
  92 H :    0.027120
  93 H :    0.038557
  94 H :    0.038852
  95 H :    0.033970
  96 H :    0.019770
  97 H :    0.025974

  Mayer bond orders larger than 0.100000
B(  0-C ,  1-C ) :   1.6366 B(  0-C , 15-S ) :   1.1085 B(  0-C , 70-H ) :   0.9664
B(  1-C ,  2-C ) :   1.1831 B(  1-C , 71-H ) :   0.9909 B(  2-C ,  3-C ) :   1.3376
B(  2-C , 14-C ) :   1.2755 B(  3-C ,  4-C ) :   0.9739 B(  3-C , 11-C ) :   1.3980
B(  4-C ,  5-C ) :   1.5549 B(  4-C ,  8-S ) :   1.1349 B(  5-C ,  6-C ) :   1.2144
B(  5-C , 72-H ) :   1.0090 B(  6-C ,  7-C ) :   1.6038 B(  6-C , 10-Cl) :   1.0036
B(  7-C ,  8-S ) :   1.1273 B(  7-C ,  9-C ) :   1.0835 B(  9-C , 73-H ) :   0.9491
B(  9-C , 74-H ) :   0.9481 B(  9-C , 75-H ) :   0.9445 B( 11-C , 12-C ) :   1.2754
B( 11-C , 25-S ) :   1.0653 B( 12-C , 13-C ) :   1.3030 B( 12-C , 23-C ) :   1.1275
B( 13-C , 14-C ) :   1.4216 B( 13-C , 16-C ) :   0.9914 B( 14-C , 15-S ) :   1.0710
B( 16-C , 17-C ) :   1.5466 B( 16-C , 20-S ) :   1.1347 B( 17-C , 18-C ) :   1.2248
B( 17-C , 76-H ) :   0.9956 B( 18-C , 19-C ) :   1.6017 B( 18-C , 22-Cl) :   1.0037
B( 19-C , 20-S ) :   1.1342 B( 19-C , 21-C ) :   1.0832 B( 21-C , 77-H ) :   0.9442
B( 21-C , 78-H ) :   0.9478 B( 21-C , 79-H ) :   0.9485 B( 23-C , 24-C ) :   1.6126
B( 23-C , 80-H ) :   0.9898 B( 24-C , 25-S ) :   1.0641 B( 24-C , 26-C ) :   1.0672
B( 26-C , 27-N ) :   1.5727 B( 26-C , 31-C ) :   1.2797 B( 27-N , 28-N ) :   1.3305
B( 28-N , 29-C ) :   1.5982 B( 29-C , 30-C ) :   1.3231 B( 29-C , 32-C ) :   0.9805
B( 30-C , 31-C ) :   1.3981 B( 30-C , 81-H ) :   0.9857 B( 31-C , 82-H ) :   0.9831
B( 32-C , 33-N ) :   1.6073 B( 32-C , 37-C ) :   1.3125 B( 33-N , 34-N ) :   1.3201
B( 34-N , 35-C ) :   1.6082 B( 35-C , 36-C ) :   1.3138 B( 35-C , 38-C ) :   0.9785
B( 36-C , 37-C ) :   1.3591 B( 36-C , 83-H ) :   0.9905 B( 37-C , 84-H ) :   0.9906
B( 38-C , 39-N ) :   1.5972 B( 38-C , 43-C ) :   1.3195 B( 39-N , 40-N ) :   1.3305
B( 40-N , 41-C ) :   1.5732 B( 41-C , 42-C ) :   1.2792 B( 41-C , 44-C ) :   1.0634
B( 42-C , 43-C ) :   1.4004 B( 42-C , 85-H ) :   0.9834 B( 43-C , 86-H ) :   0.9870
B( 44-C , 45-C ) :   1.6130 B( 44-C , 59-S ) :   1.0627 B( 45-C , 46-C ) :   1.1261
B( 45-C , 87-H ) :   0.9913 B( 46-C , 47-C ) :   1.3027 B( 46-C , 58-C ) :   1.2710
B( 47-C , 48-C ) :   0.9883 B( 47-C , 55-C ) :   1.4259 B( 48-C , 49-C ) :   1.5483
B( 48-C , 52-S ) :   1.1350 B( 49-C , 50-C ) :   1.2239 B( 49-C , 88-H ) :   0.9960
B( 50-C , 51-C ) :   1.6012 B( 50-C , 54-Cl) :   1.0023 B( 51-C , 52-S ) :   1.1347
B( 51-C , 53-C ) :   1.0826 B( 53-C , 89-H ) :   0.9487 B( 53-C , 90-H ) :   0.9488
B( 53-C , 91-H ) :   0.9445 B( 55-C , 56-C ) :   1.2729 B( 55-C , 69-S ) :   1.0720
B( 56-C , 57-C ) :   1.3164 B( 56-C , 67-C ) :   1.1833 B( 57-C , 58-C ) :   1.4196
B( 57-C , 60-C ) :   0.9798 B( 58-C , 59-S ) :   1.0624 B( 60-C , 61-C ) :   1.5551
B( 60-C , 64-S ) :   1.1322 B( 61-C , 62-C ) :   1.2195 B( 61-C , 92-H ) :   0.9968
B( 62-C , 63-C ) :   1.6066 B( 62-C , 66-Cl) :   1.0024 B( 63-C , 64-S ) :   1.1281
B( 63-C , 65-C ) :   1.0822 B( 65-C , 93-H ) :   0.9489 B( 65-C , 94-H ) :   0.9494
B( 65-C , 95-H ) :   0.9444 B( 67-C , 68-C ) :   1.6466 B( 67-C , 96-H ) :   0.9783
B( 68-C , 69-S ) :   1.1111 B( 68-C , 97-H ) :   0.9665

-----------------------------------------------------------------------------
         ABSORPTION SPECTRUM VIA TRANSITION ELECTRIC DIPOLE MOMENTS
-----------------------------------------------------------------------------
State   Energy  Wavelength   fosc         T2         TX        TY        TZ
        (cm-1)    (nm)                  (au**2)     (au)      (au)      (au)
-----------------------------------------------------------------------------
   0   25081.2    398.7   0.729362254   9.57350   2.31440   1.99988  -0.46640
   1   25513.4    392.0   0.595015357   7.67777   0.96026  -1.51951  -2.10874
   2   26606.7    375.8   0.003403515   0.04211  -0.16427  -0.11710   0.03759
   3   27409.4    364.8   0.002248551   0.02701  -0.04858   0.12708   0.09218
   4   28528.8    350.5   0.001899059   0.02191   0.11090   0.09629   0.01850
   5   30009.6    333.2   0.057897727   0.63515  -0.78145  -0.01689  -0.15557
   6   30146.1    331.7   1.686944938  18.42238  -4.05373  -1.35064  -0.40670
   7   30270.1    330.4   0.075459187   0.82068   0.85695   0.29347  -0.01377
   8   30676.7    326.0   0.560358900   6.01358  -0.60474   1.47704   1.86178
   9   30924.8    323.4   0.264134932   2.81186  -1.11386  -1.11718   0.56841
  10   30984.1    322.7   0.025920963   0.27541  -0.48320  -0.02517  -0.20322
  11   32117.4    311.4   0.023143017   0.23722   0.06423  -0.33650  -0.34622
  12   33428.9    299.1   0.128680266   1.26726   0.39699  -0.63134  -0.84325
  13   33628.0    297.4   0.291666282   2.85536  -1.58392  -0.56485  -0.16587
  14   35060.7    285.2   0.067533706   0.63413   0.61657   0.06517  -0.49972
  15   35121.1    284.7   0.150754470   1.41311  -0.89457  -0.78138  -0.04797
  16   35405.5    282.4   0.329003765   3.05919  -1.62968  -0.63501   0.00954
  17   35508.4    281.6   0.027857904   0.25828  -0.16805  -0.23552  -0.41782
  18   36708.2    272.4   0.013342890   0.11966   0.07556   0.22076   0.25538
  19   36792.1    271.8   0.013783046   0.12333   0.28852   0.03605  -0.19695
  20   37331.2    267.9   0.031223924   0.27535   0.39892   0.32387  -0.10642
  21   37652.6    265.6   0.040637965   0.35531  -0.18850   0.37765   0.42091
  22   39207.7    255.1   0.012393951   0.10407  -0.16651   0.26037   0.09247
  23   39270.3    254.6   0.037749208   0.31646   0.40382  -0.26319  -0.29003
  24   39414.6    253.7   0.022426164   0.18732  -0.20123  -0.38256  -0.02169
  25   39514.8    253.1   0.034299641   0.28576   0.51662   0.13717  -0.00710
  26   39546.8    252.9   0.081463794   0.67815   0.75114   0.30053  -0.15368
  27   39732.5    251.7   0.017250967   0.14294   0.24148   0.24504  -0.15678
  28   40000.6    250.0   0.069963393   0.57581   0.71704   0.23447   0.08175
  29   40142.7    249.1   0.202496227   1.66068   1.25160   0.30599  -0.02325
  30   40226.5    248.6   0.091423412   0.74821   0.54911   0.49264   0.45165
  31   40269.7    248.3   0.003490116   0.02853   0.11826   0.06953   0.09855

FINAL SINGLE POINT ENERGY     -7348.741453677395

DIPOLE MOMENT
-------------
                                X             Y             Z
Electronic contribution:     -9.67145       5.07902       0.78279
Nuclear contribution   :     10.51561      -5.90488      -1.40148
                        -----------------------------------------
Total Dipole Moment    :      0.84416      -0.82585      -0.61869
                        -----------------------------------------
Magnitude (a.u.)       :      1.33320
Magnitude (Debye)      :      3.38871

Rotational constants in cm-1:     0.001120     0.000161     0.000146
Rotational constants in MHz :    33.586129     4.814167     4.370377

                             ****ORCA TERMINATED NORMALLY****
TOTAL RUN TIME: 0 days 0 hours 8 minutes 11 seconds 338 msec
