                         Program Version 4.2.0 -  RELEASE  -
|  1> # ORCA input file
|  2> # SCF done       -208.897304817869          0.000589508504
|  3> ! CAM-B3LYP def2-SVP def2/J RIJCOSX Grid4 TightSCF
|  4> %maxcore 5000
|  5> %tddft
|  6>     Mode sTDDFT
|  7>     Ethresh 5.0
|  8>     maxcore 5000
|  9> end
| 10>
| 11> %pal
| 12>   nprocs 6
| 13>   end
| 14> * xyz 0 1
| 15>    C       -2.80296        -1.41031         1.22893
| 16>    C       -2.02166        -1.59796         0.14694
| 17>    C       -0.74377        -0.97591         0.26848
| 18>    C        0.32650        -1.00463        -0.64343
| 19>    C        0.19385        -1.62099        -1.94887
| 20>    C       -0.85985        -1.54015        -2.81261
| 21>    C       -0.64003        -2.25924        -4.00804
| 22>    C        0.56543        -2.89421        -4.07301
| 23>    S        1.46803        -2.59945        -2.62506
| 24>    C        1.12408        -3.72984        -5.16524
| 25>   Cl       -1.81059        -2.31575        -5.27186
| 26>    C        1.50786        -0.40084        -0.22839
| 27>    C        1.66103         0.25006         1.01932
| 28>    C        0.58181         0.29887         1.92302
| 29>    C       -0.59809        -0.31978         1.51288
| 30>    S       -2.05116        -0.46458         2.46611
| 31>    C        0.67863         0.93064         3.22287
| 32>    C       -0.28157         1.64806         3.87811
| 33>    C        0.13290         2.07294         5.15827
| 34>    C        1.39411         1.68463         5.50348
| 35>    S        2.10370         0.77215         4.21607
| 36>    C        2.13678         1.94222         6.76349
| 37>   Cl       -0.88072         3.00913         6.18918
| 38>    C        2.94930         0.82283         1.15459
| 39>    C        3.76550         0.62284         0.07927
| 40>    S        2.96128        -0.29614        -1.17828
| 41>    C        5.11833         1.06128        -0.04211
| 42>    S        5.87085         1.83235         1.32422
| 43>    C        7.36330         2.00216         0.46652
| 44>    C        7.27063         1.49479        -0.80754
| 45>    C        5.99887         0.95539        -1.09945
| 46>    C        5.67592         0.30787        -2.40961
| 47>    C        6.76892         0.55819        -3.45912
| 48>    C        6.57407        -0.34958        -4.56716
| 49>    N        6.40453        -1.08902        -5.42099
| 50>    C        8.16409         0.36119        -2.83072
| 51>    C        9.19154         0.42883        -3.84436
| 52>    N       10.00468         0.52459        -4.64106
| 53>    C        8.39867         1.46552        -1.79063
| 54>    C        8.50675         2.61602         1.09414
| 55>    C        9.45247         3.42568         0.52281
| 56>    O       10.36278         3.81486         1.42944
| 57>    C       10.01702         3.27674         2.60108
| 58>    C        8.87772         2.52793         2.48023
| 59>    C        8.25159         1.67629         3.50915
| 60>    O        7.80295         0.57507         3.25127
| 61>    C        8.22805         2.21482         4.86385
| 62>    C        7.96101         1.50480         6.01058
| 63>    C        8.01173         2.28353         7.17088
| 64>    C        8.29470         3.60258         6.91831
| 65>    S        8.50962         3.88963         5.22310
| 66>    C        8.41286         4.69735         7.84599
| 67>    C        8.15466         6.01799         7.58942
| 68>    O        8.36199         6.77001         8.67964
| 69>    C        8.75106         5.95161         9.66060
| 70>    C        8.80252         4.65228         9.22933
| 71>    C        9.33759         3.49784         9.97584
| 72>    O        9.99020         2.62160         9.44028
| 73>    C        9.07707         3.49649        11.40863
| 74>    C        8.12058         4.15836        12.14671
| 75>    C        8.17617         3.85885        13.50684
| 76>    C        9.17990         2.96320        13.82226
| 77>    S       10.04886         2.46360        12.40840
| 78>    C        9.52768         2.47007        15.11052
| 79>    C       10.54118         1.59082        15.43295
| 80>    C       10.59850         1.33997        16.80630
| 81>    C        9.61917         2.03380        17.52819
| 82>    S        8.62842         2.99471        16.52670
| 83>    C        9.76131         1.71203        18.90944
| 84>    C       10.82860         0.81899        19.05141
| 85>    C       11.39424         0.55266        17.74043
| 86>    C       12.44882        -0.25849        17.44127
| 87>    C       12.91236        -0.43364        16.12000
| 88>    N       13.29397        -0.57801        15.04859
| 89>    C       13.14961        -0.97601        18.43373
| 90>    N       13.72136        -1.55996        19.23794
| 91>    C       11.04222         0.44605        20.39227
| 92>    C       10.14942         1.05242        21.22281
| 93>    S        9.02887         2.08914        20.40417
| 94>    H       -3.79967        -1.77002         1.39380
| 95>    H       -2.31720        -2.18046        -0.70558
| 96>    H       -1.74397        -0.95732        -2.63150
| 97>    H        0.41782        -3.77613        -5.99041
| 98>    H        1.32232        -4.74134        -4.81198
| 99>    H        2.06355        -3.31106        -5.52445
|100>    H       -1.23796         1.90059         3.46011
|101>    H        1.64478         2.73398         7.32367
|102>    H        3.16323         2.23507         6.54979
|103>    H        2.16453         1.04461         7.38232
|104>    H        3.27248         1.37751         2.01594
|105>    H        4.72229         0.68181        -2.79136
|106>    H        5.55618        -0.77108        -2.25802
|107>    H        6.69651         1.58466        -3.84035
|108>    H        8.20998        -0.62397        -2.35097
|109>    H        8.46933         2.42918        -2.30736
|110>    H        9.34503         1.30137        -1.26992
|111>    H        9.56517         3.79898        -0.47468
|112>    H       10.66704         3.45137         3.43548
|113>    H        7.75288         0.45023         5.99181
|114>    H        7.84705         1.89523         8.15879
|115>    H        7.82472         6.50793         6.69495
|116>    H        9.00683         6.39461        10.60302
|117>    H        7.39090         4.81607        11.71055
|118>    H        7.51409         4.27606        14.24513
|119>    H       11.19577         1.16530        14.69384
|120>    H       11.80748        -0.22905        20.72885
|121>    H       10.07309         0.95686        22.28737
|122> *
|123>
|124>                          ****END OF INPUT****

CARTESIAN COORDINATES (ANGSTROEM)
---------------------------------
  C     -2.802960   -1.410310    1.228930
  C     -2.021660   -1.597960    0.146940
  C     -0.743770   -0.975910    0.268480
  C      0.326500   -1.004630   -0.643430
  C      0.193850   -1.620990   -1.948870
  C     -0.859850   -1.540150   -2.812610
  C     -0.640030   -2.259240   -4.008040
  C      0.565430   -2.894210   -4.073010
  S      1.468030   -2.599450   -2.625060
  C      1.124080   -3.729840   -5.165240
  Cl    -1.810590   -2.315750   -5.271860
  C      1.507860   -0.400840   -0.228390
  C      1.661030    0.250060    1.019320
  C      0.581810    0.298870    1.923020
  C     -0.598090   -0.319780    1.512880
  S     -2.051160   -0.464580    2.466110
  C      0.678630    0.930640    3.222870
  C     -0.281570    1.648060    3.878110
  C      0.132900    2.072940    5.158270
  C      1.394110    1.684630    5.503480
  S      2.103700    0.772150    4.216070
  C      2.136780    1.942220    6.763490
  Cl    -0.880720    3.009130    6.189180
  C      2.949300    0.822830    1.154590
  C      3.765500    0.622840    0.079270
  S      2.961280   -0.296140   -1.178280
  C      5.118330    1.061280   -0.042110
  S      5.870850    1.832350    1.324220
  C      7.363300    2.002160    0.466520
  C      7.270630    1.494790   -0.807540
  C      5.998870    0.955390   -1.099450
  C      5.675920    0.307870   -2.409610
  C      6.768920    0.558190   -3.459120
  C      6.574070   -0.349580   -4.567160
  N      6.404530   -1.089020   -5.420990
  C      8.164090    0.361190   -2.830720
  C      9.191540    0.428830   -3.844360
  N     10.004680    0.524590   -4.641060
  C      8.398670    1.465520   -1.790630
  C      8.506750    2.616020    1.094140
  C      9.452470    3.425680    0.522810
  O     10.362780    3.814860    1.429440
  C     10.017020    3.276740    2.601080
  C      8.877720    2.527930    2.480230
  C      8.251590    1.676290    3.509150
  O      7.802950    0.575070    3.251270
  C      8.228050    2.214820    4.863850
  C      7.961010    1.504800    6.010580
  C      8.011730    2.283530    7.170880
  C      8.294700    3.602580    6.918310
  S      8.509620    3.889630    5.223100
  C      8.412860    4.697350    7.845990
  C      8.154660    6.017990    7.589420
  O      8.361990    6.770010    8.679640
  C      8.751060    5.951610    9.660600
  C      8.802520    4.652280    9.229330
  C      9.337590    3.497840    9.975840
  O      9.990200    2.621600    9.440280
  C      9.077070    3.496490   11.408630
  C      8.120580    4.158360   12.146710
  C      8.176170    3.858850   13.506840
  C      9.179900    2.963200   13.822260
  S     10.048860    2.463600   12.408400
  C      9.527680    2.470070   15.110520
  C     10.541180    1.590820   15.432950
  C     10.598500    1.339970   16.806300
  C      9.619170    2.033800   17.528190
  S      8.628420    2.994710   16.526700
  C      9.761310    1.712030   18.909440
  C     10.828600    0.818990   19.051410
  C     11.394240    0.552660   17.740430
  C     12.448820   -0.258490   17.441270
  C     12.912360   -0.433640   16.120000
  N     13.293970   -0.578010   15.048590
  C     13.149610   -0.976010   18.433730
  N     13.721360   -1.559960   19.237940
  C     11.042220    0.446050   20.392270
  C     10.149420    1.052420   21.222810
  S      9.028870    2.089140   20.404170
  H     -3.799670   -1.770020    1.393800
  H     -2.317200   -2.180460   -0.705580
  H     -1.743970   -0.957320   -2.631500
  H      0.417820   -3.776130   -5.990410
  H      1.322320   -4.741340   -4.811980
  H      2.063550   -3.311060   -5.524450
  H     -1.237960    1.900590    3.460110
  H      1.644780    2.733980    7.323670
  H      3.163230    2.235070    6.549790
  H      2.164530    1.044610    7.382320
  H      3.272480    1.377510    2.015940
  H      4.722290    0.681810   -2.791360
  H      5.556180   -0.771080   -2.258020
  H      6.696510    1.584660   -3.840350
  H      8.209980   -0.623970   -2.350970
  H      8.469330    2.429180   -2.307360
  H      9.345030    1.301370   -1.269920
  H      9.565170    3.798980   -0.474680
  H     10.667040    3.451370    3.435480
  H      7.752880    0.450230    5.991810
  H      7.847050    1.895230    8.158790
  H      7.824720    6.507930    6.694950
  H      9.006830    6.394610   10.603020
  H      7.390900    4.816070   11.710550
  H      7.514090    4.276060   14.245130
  H     11.195770    1.165300   14.693840
  H     11.807480   -0.229050   20.728850
  H     10.073090    0.956860   22.287370

 Total Charge           Charge          ....    0
 Multiplicity           Mult            ....    1
 Number of Electrons    NEL             ....  626
 Basis Dimension        Dim             .... 1290

ORBITAL ENERGIES
----------------

  NO   OCC          E(Eh)            E(eV)
   0   2.0000    -101.581265     -2764.1668
   1   2.0000    -101.579354     -2764.1147
   2   2.0000     -88.995834     -2421.6998
   3   2.0000     -88.991823     -2421.5906
   4   2.0000     -88.974133     -2421.1092
   5   2.0000     -88.967556     -2420.9303
   6   2.0000     -88.956496     -2420.6293
   7   2.0000     -88.954781     -2420.5826
   8   2.0000     -88.953252     -2420.5410
   9   2.0000     -88.953163     -2420.5386
  10   2.0000     -88.946295     -2420.3517
  11   2.0000     -19.314484      -525.5738
  12   2.0000     -19.307838      -525.3930
  13   2.0000     -19.210756      -522.7513
  14   2.0000     -19.202602      -522.5294
  15   2.0000     -14.431640      -392.7049
  16   2.0000     -14.431576      -392.7031
  17   2.0000     -14.405335      -391.9891
  18   2.0000     -14.404974      -391.9793
  19   2.0000     -10.375563      -282.3334
  20   2.0000     -10.366903      -282.0978
  21   2.0000     -10.366614      -282.0899
  22   2.0000     -10.353943      -281.7451
  23   2.0000     -10.349921      -281.6357
  24   2.0000     -10.343313      -281.4559
  25   2.0000     -10.341267      -281.4002
  26   2.0000     -10.337089      -281.2865
  27   2.0000     -10.336792      -281.2784
  28   2.0000     -10.334539      -281.2171
  29   2.0000     -10.333877      -281.1991
  30   2.0000     -10.333068      -281.1771
  31   2.0000     -10.331829      -281.1434
  32   2.0000     -10.331709      -281.1401
  33   2.0000     -10.331531      -281.1352
  34   2.0000     -10.331032      -281.1217
  35   2.0000     -10.316656      -280.7305
  36   2.0000     -10.315944      -280.7111
  37   2.0000     -10.315029      -280.6862
  38   2.0000     -10.314007      -280.6584
  39   2.0000     -10.310667      -280.5675
  40   2.0000     -10.310238      -280.5558
  41   2.0000     -10.307266      -280.4750
  42   2.0000     -10.307166      -280.4722
  43   2.0000     -10.306914      -280.4654
  44   2.0000     -10.306316      -280.4491
  45   2.0000     -10.303607      -280.3754
  46   2.0000     -10.303491      -280.3723
  47   2.0000     -10.303302      -280.3671
  48   2.0000     -10.303138      -280.3626
  49   2.0000     -10.302238      -280.3381
  50   2.0000     -10.301764      -280.3253
  51   2.0000     -10.301657      -280.3223
  52   2.0000     -10.301246      -280.3112
  53   2.0000     -10.301087      -280.3068
  54   2.0000     -10.300508      -280.2911
  55   2.0000     -10.300412      -280.2885
  56   2.0000     -10.300023      -280.2779
  57   2.0000     -10.299143      -280.2539
  58   2.0000     -10.297932      -280.2210
  59   2.0000     -10.297713      -280.2150
  60   2.0000     -10.297282      -280.2033
  61   2.0000     -10.294815      -280.1361
  62   2.0000     -10.294323      -280.1228
  63   2.0000     -10.294278      -280.1215
  64   2.0000     -10.293632      -280.1040
  65   2.0000     -10.293226      -280.0929
  66   2.0000     -10.287523      -279.9377
  67   2.0000     -10.286410      -279.9075
  68   2.0000     -10.285844      -279.8920
  69   2.0000     -10.285655      -279.8869
  70   2.0000     -10.283342      -279.8240
  71   2.0000     -10.283032      -279.8155
  72   2.0000     -10.278719      -279.6982
  73   2.0000     -10.275368      -279.6070
  74   2.0000     -10.275275      -279.6044
  75   2.0000     -10.275069      -279.5988
  76   2.0000     -10.271626      -279.5052
  77   2.0000     -10.270086      -279.4633
  78   2.0000     -10.269961      -279.4598
  79   2.0000      -9.536019      -259.4883
  80   2.0000      -9.534107      -259.4362
  81   2.0000      -8.090315      -220.1487
  82   2.0000      -8.086784      -220.0526
  83   2.0000      -8.069214      -219.5745
  84   2.0000      -8.062844      -219.4011
  85   2.0000      -8.051677      -219.0973
  86   2.0000      -8.050263      -219.0588
  87   2.0000      -8.048949      -219.0230
  88   2.0000      -8.047866      -218.9936
  89   2.0000      -8.041972      -218.8332
  90   2.0000      -7.306201      -198.8118
  91   2.0000      -7.304296      -198.7600
  92   2.0000      -7.296156      -198.5385
  93   2.0000      -7.296032      -198.5351
  94   2.0000      -7.294205      -198.4854
  95   2.0000      -7.294146      -198.4838
  96   2.0000      -6.059580      -164.8896
  97   2.0000      -6.056067      -164.7940
  98   2.0000      -6.055424      -164.7765
  99   2.0000      -6.052684      -164.7019
 100   2.0000      -6.051567      -164.6715
 101   2.0000      -6.049419      -164.6131
 102   2.0000      -6.038530      -164.3168
 103   2.0000      -6.034193      -164.1987
 104   2.0000      -6.032039      -164.1401
 105   2.0000      -6.031485      -164.1251
 106   2.0000      -6.027839      -164.0259
 107   2.0000      -6.025245      -163.9552
 108   2.0000      -6.020993      -163.8396
 109   2.0000      -6.019570      -163.8008
 110   2.0000      -6.018251      -163.7649
 111   2.0000      -6.017598      -163.7472
 112   2.0000      -6.016881      -163.7276
 113   2.0000      -6.015400      -163.6874
 114   2.0000      -6.014038      -163.6503
 115   2.0000      -6.013670      -163.6403
 116   2.0000      -6.013258      -163.6291
 117   2.0000      -6.012359      -163.6046
 118   2.0000      -6.011671      -163.5859
 119   2.0000      -6.011048      -163.5689
 120   2.0000      -6.009285      -163.5210
 121   2.0000      -6.007224      -163.4649
 122   2.0000      -6.003504      -163.3637
 123   2.0000      -1.235371       -33.6162
 124   2.0000      -1.228859       -33.4390
 125   2.0000      -1.130310       -30.7573
 126   2.0000      -1.120819       -30.4990
 127   2.0000      -1.047240       -28.4969
 128   2.0000      -1.023805       -27.8591
 129   2.0000      -1.012551       -27.5529
 130   2.0000      -1.010104       -27.4863
 131   2.0000      -1.008483       -27.4422
 132   2.0000      -1.007964       -27.4281
 133   2.0000      -0.998248       -27.1637
 134   2.0000      -0.995882       -27.0993
 135   2.0000      -0.992627       -27.0107
 136   2.0000      -0.991069       -26.9684
 137   2.0000      -0.989176       -26.9168
 138   2.0000      -0.988257       -26.8919
 139   2.0000      -0.972116       -26.4526
 140   2.0000      -0.958860       -26.0919
 141   2.0000      -0.950538       -25.8655
 142   2.0000      -0.940962       -25.6049
 143   2.0000      -0.936891       -25.4941
 144   2.0000      -0.930346       -25.3160
 145   2.0000      -0.924885       -25.1674
 146   2.0000      -0.913946       -24.8697
 147   2.0000      -0.906179       -24.6584
 148   2.0000      -0.895345       -24.3636
 149   2.0000      -0.886598       -24.1256
 150   2.0000      -0.882404       -24.0114
 151   2.0000      -0.872742       -23.7485
 152   2.0000      -0.866227       -23.5712
 153   2.0000      -0.860118       -23.4050
 154   2.0000      -0.859836       -23.3973
 155   2.0000      -0.856835       -23.3157
 156   2.0000      -0.852813       -23.2062
 157   2.0000      -0.847014       -23.0484
 158   2.0000      -0.845767       -23.0145
 159   2.0000      -0.836578       -22.7644
 160   2.0000      -0.835731       -22.7414
 161   2.0000      -0.829217       -22.5641
 162   2.0000      -0.828436       -22.5429
 163   2.0000      -0.807746       -21.9799
 164   2.0000      -0.802710       -21.8428
 165   2.0000      -0.800117       -21.7723
 166   2.0000      -0.793095       -21.5812
 167   2.0000      -0.788633       -21.4598
 168   2.0000      -0.780437       -21.2368
 169   2.0000      -0.777223       -21.1493
 170   2.0000      -0.762018       -20.7356
 171   2.0000      -0.754753       -20.5379
 172   2.0000      -0.753197       -20.4955
 173   2.0000      -0.745797       -20.2942
 174   2.0000      -0.739647       -20.1268
 175   2.0000      -0.726534       -19.7700
 176   2.0000      -0.719390       -19.5756
 177   2.0000      -0.707353       -19.2481
 178   2.0000      -0.703714       -19.1490
 179   2.0000      -0.695090       -18.9144
 180   2.0000      -0.691891       -18.8273
 181   2.0000      -0.682884       -18.5822
 182   2.0000      -0.677309       -18.4305
 183   2.0000      -0.672783       -18.3073
 184   2.0000      -0.670853       -18.2548
 185   2.0000      -0.660928       -17.9848
 186   2.0000      -0.658499       -17.9187
 187   2.0000      -0.651525       -17.7289
 188   2.0000      -0.647713       -17.6252
 189   2.0000      -0.647006       -17.6059
 190   2.0000      -0.639083       -17.3903
 191   2.0000      -0.634349       -17.2615
 192   2.0000      -0.633911       -17.2496
 193   2.0000      -0.625312       -17.0156
 194   2.0000      -0.624900       -17.0044
 195   2.0000      -0.623168       -16.9573
 196   2.0000      -0.620549       -16.8860
 197   2.0000      -0.619625       -16.8608
 198   2.0000      -0.610393       -16.6096
 199   2.0000      -0.603755       -16.4290
 200   2.0000      -0.601227       -16.3602
 201   2.0000      -0.595824       -16.2132
 202   2.0000      -0.593149       -16.1404
 203   2.0000      -0.581133       -15.8134
 204   2.0000      -0.578418       -15.7395
 205   2.0000      -0.576253       -15.6806
 206   2.0000      -0.573620       -15.6090
 207   2.0000      -0.571417       -15.5491
 208   2.0000      -0.566430       -15.4133
 209   2.0000      -0.563144       -15.3239
 210   2.0000      -0.561872       -15.2893
 211   2.0000      -0.558393       -15.1946
 212   2.0000      -0.549969       -14.9654
 213   2.0000      -0.549455       -14.9514
 214   2.0000      -0.548485       -14.9250
 215   2.0000      -0.538540       -14.6544
 216   2.0000      -0.536607       -14.6018
 217   2.0000      -0.536123       -14.5887
 218   2.0000      -0.532814       -14.4986
 219   2.0000      -0.530090       -14.4245
 220   2.0000      -0.523880       -14.2555
 221   2.0000      -0.520844       -14.1729
 222   2.0000      -0.519283       -14.1304
 223   2.0000      -0.517956       -14.0943
 224   2.0000      -0.516756       -14.0616
 225   2.0000      -0.516000       -14.0411
 226   2.0000      -0.514454       -13.9990
 227   2.0000      -0.513447       -13.9716
 228   2.0000      -0.510095       -13.8804
 229   2.0000      -0.509538       -13.8652
 230   2.0000      -0.508041       -13.8245
 231   2.0000      -0.507574       -13.8118
 232   2.0000      -0.506284       -13.7767
 233   2.0000      -0.503887       -13.7115
 234   2.0000      -0.502594       -13.6763
 235   2.0000      -0.500103       -13.6085
 236   2.0000      -0.498045       -13.5525
 237   2.0000      -0.495057       -13.4712
 238   2.0000      -0.492151       -13.3921
 239   2.0000      -0.490887       -13.3577
 240   2.0000      -0.488887       -13.3033
 241   2.0000      -0.486452       -13.2370
 242   2.0000      -0.482851       -13.1390
 243   2.0000      -0.481077       -13.0908
 244   2.0000      -0.477486       -12.9931
 245   2.0000      -0.476443       -12.9647
 246   2.0000      -0.475097       -12.9280
 247   2.0000      -0.471700       -12.8356
 248   2.0000      -0.471406       -12.8276
 249   2.0000      -0.469185       -12.7672
 250   2.0000      -0.468246       -12.7416
 251   2.0000      -0.464553       -12.6411
 252   2.0000      -0.463509       -12.6127
 253   2.0000      -0.462517       -12.5857
 254   2.0000      -0.461395       -12.5552
 255   2.0000      -0.459631       -12.5072
 256   2.0000      -0.458962       -12.4890
 257   2.0000      -0.458018       -12.4633
 258   2.0000      -0.454669       -12.3722
 259   2.0000      -0.453435       -12.3386
 260   2.0000      -0.450532       -12.2596
 261   2.0000      -0.449210       -12.2236
 262   2.0000      -0.447034       -12.1644
 263   2.0000      -0.443894       -12.0790
 264   2.0000      -0.441927       -12.0254
 265   2.0000      -0.441671       -12.0185
 266   2.0000      -0.440860       -11.9964
 267   2.0000      -0.440818       -11.9953
 268   2.0000      -0.436165       -11.8686
 269   2.0000      -0.434221       -11.8158
 270   2.0000      -0.432598       -11.7716
 271   2.0000      -0.431178       -11.7330
 272   2.0000      -0.427675       -11.6376
 273   2.0000      -0.426647       -11.6097
 274   2.0000      -0.425234       -11.5712
 275   2.0000      -0.419516       -11.4156
 276   2.0000      -0.416249       -11.3267
 277   2.0000      -0.415087       -11.2951
 278   2.0000      -0.414857       -11.2888
 279   2.0000      -0.414235       -11.2719
 280   2.0000      -0.410315       -11.1652
 281   2.0000      -0.407559       -11.0902
 282   2.0000      -0.401449       -10.9240
 283   2.0000      -0.401376       -10.9220
 284   2.0000      -0.397081       -10.8051
 285   2.0000      -0.391557       -10.6548
 286   2.0000      -0.389076       -10.5873
 287   2.0000      -0.386460       -10.5161
 288   2.0000      -0.383687       -10.4407
 289   2.0000      -0.377570       -10.2742
 290   2.0000      -0.375569       -10.2197
 291   2.0000      -0.372028       -10.1234
 292   2.0000      -0.366967        -9.9857
 293   2.0000      -0.352300        -9.5866
 294   2.0000      -0.346707        -9.4344
 295   2.0000      -0.340101        -9.2546
 296   2.0000      -0.337197        -9.1756
 297   2.0000      -0.335116        -9.1190
 298   2.0000      -0.332271        -9.0416
 299   2.0000      -0.331957        -9.0330
 300   2.0000      -0.329283        -8.9603
 301   2.0000      -0.323085        -8.7916
 302   2.0000      -0.320795        -8.7293
 303   2.0000      -0.313681        -8.5357
 304   2.0000      -0.312014        -8.4903
 305   2.0000      -0.310659        -8.4535
 306   2.0000      -0.306232        -8.3330
 307   2.0000      -0.296229        -8.0608
 308   2.0000      -0.290218        -7.8972
 309   2.0000      -0.287701        -7.8287
 310   2.0000      -0.267211        -7.2712
 311   2.0000      -0.264136        -7.1875
 312   2.0000      -0.238611        -6.4929
 313   0.0000      -0.105575        -2.8728
 314   0.0000      -0.060260        -1.6398
 315   0.0000      -0.047487        -1.2922
 316   0.0000      -0.040311        -1.0969
 317   0.0000      -0.014078        -0.3831

MULLIKEN ATOMIC CHARGES
-----------------------
   0 C :   -0.043698
   1 C :   -0.000305
   2 C :    0.055509
   3 C :    0.151260
   4 C :   -0.213715
   5 C :    0.031653
   6 C :    0.081451
   7 C :   -0.264493
   8 S :    0.142506
   9 C :    0.120865
  10 Cl:   -0.091252
  11 C :   -0.134828
  12 C :    0.099751
  13 C :    0.144019
  14 C :   -0.162192
  15 S :    0.104582
  16 C :   -0.212330
  17 C :    0.035595
  18 C :    0.083184
  19 C :   -0.266178
  20 S :    0.140518
  21 C :    0.119924
  22 Cl:   -0.093176
  23 C :   -0.093371
  24 C :   -0.036395
  25 S :    0.075154
  26 C :   -0.076340
  27 S :    0.160909
  28 C :   -0.130200
  29 C :   -0.058761
  30 C :   -0.113719
  31 C :    0.173814
  32 C :   -0.075706
  33 C :   -0.256530
  34 N :    0.154259
  35 C :   -0.110668
  36 C :   -0.253908
  37 N :    0.160121
  38 C :    0.203897
  39 C :    0.046938
  40 C :    0.060327
  41 O :   -0.162131
  42 C :    0.088920
  43 C :   -0.077883
  44 C :    0.155186
  45 O :   -0.174350
  46 C :   -0.142974
  47 C :    0.028668
  48 C :    0.052564
  49 C :   -0.101866
  50 S :    0.136065
  51 C :    0.097617
  52 C :    0.058649
  53 O :   -0.162341
  54 C :    0.086390
  55 C :   -0.058703
  56 C :    0.174520
  57 O :   -0.174733
  58 C :   -0.173250
  59 C :    0.038820
  60 C :   -0.034047
  61 C :   -0.045461
  62 S :    0.192313
  63 C :   -0.036110
  64 C :   -0.054571
  65 C :    0.011799
  66 C :   -0.101086
  67 S :    0.184428
  68 C :   -0.117721
  69 C :   -0.029120
  70 C :    0.293461
  71 C :   -0.294777
  72 C :   -0.188353
  73 N :    0.176313
  74 C :   -0.192320
  75 N :    0.178614
  76 C :    0.036212
  77 C :   -0.080666
  78 S :    0.182365
  79 H :    0.026351
  80 H :   -0.009961
  81 H :   -0.010824
  82 H :    0.023868
  83 H :    0.035558
  84 H :    0.041752
  85 H :   -0.008944
  86 H :    0.024119
  87 H :    0.026905
  88 H :    0.041534
  89 H :   -0.007101
  90 H :    0.049002
  91 H :    0.042163
  92 H :    0.045980
  93 H :    0.053085
  94 H :    0.021241
  95 H :    0.040441
  96 H :    0.011507
  97 H :    0.027733
  98 H :    0.007043
  99 H :   -0.008888
 100 H :    0.016716
 101 H :    0.022580
 102 H :   -0.001853
 103 H :   -0.009046
 104 H :    0.017962
 105 H :    0.013417
 106 H :    0.038744
Sum of atomic charges:   -0.0000000

LOEWDIN ATOMIC CHARGES
----------------------
   0 C :   -0.161652
   1 C :   -0.062889
   2 C :   -0.039789
   3 C :   -0.053518
   4 C :   -0.174596
   5 C :   -0.068014
   6 C :   -0.178992
   7 C :   -0.196399
   8 S :    0.436072
   9 C :   -0.061195
  10 Cl:    0.125246
  11 C :   -0.154433
  12 C :   -0.039284
  13 C :   -0.055343
  14 C :   -0.146197
  15 S :    0.413006
  16 C :   -0.170807
  17 C :   -0.076087
  18 C :   -0.178128
  19 C :   -0.200592
  20 S :    0.451712
  21 C :   -0.061746
  22 Cl:    0.124660
  23 C :   -0.075110
  24 C :   -0.164917
  25 S :    0.415249
  26 C :   -0.182275
  27 S :    0.479124
  28 C :   -0.164740
  29 C :   -0.066699
  30 C :   -0.067443
  31 C :   -0.020298
  32 C :   -0.031494
  33 C :   -0.035424
  34 N :   -0.049511
  35 C :   -0.032477
  36 C :   -0.036737
  37 N :   -0.048757
  38 C :   -0.005913
  39 C :   -0.070456
  40 C :    0.037557
  41 O :    0.038997
  42 C :    0.050287
  43 C :   -0.114602
  44 C :    0.052371
  45 O :   -0.154359
  46 C :   -0.226174
  47 C :   -0.005696
  48 C :   -0.044024
  49 C :   -0.152313
  50 S :    0.455907
  51 C :   -0.070562
  52 C :    0.035991
  53 O :    0.040023
  54 C :    0.057216
  55 C :   -0.097720
  56 C :    0.053747
  57 O :   -0.155787
  58 C :   -0.220103
  59 C :   -0.030177
  60 C :   -0.076259
  61 C :   -0.168449
  62 S :    0.491350
  63 C :   -0.184082
  64 C :   -0.026864
  65 C :   -0.070685
  66 C :   -0.175751
  67 S :    0.478496
  68 C :   -0.186931
  69 C :   -0.073822
  70 C :    0.081565
  71 C :   -0.100497
  72 C :   -0.017919
  73 N :   -0.029410
  74 C :   -0.017028
  75 N :   -0.030814
  76 C :   -0.033661
  77 C :   -0.175692
  78 S :    0.478383
  79 H :    0.025417
  80 H :    0.032215
  81 H :    0.033550
  82 H :    0.033862
  83 H :    0.039496
  84 H :    0.042241
  85 H :    0.025891
  86 H :    0.033417
  87 H :    0.036339
  88 H :    0.040962
  89 H :    0.010722
  90 H :    0.035046
  91 H :    0.040930
  92 H :    0.057574
  93 H :    0.060577
  94 H :    0.036219
  95 H :    0.043500
  96 H :    0.024888
  97 H :    0.024828
  98 H :    0.040862
  99 H :    0.031996
 100 H :    0.025139
 101 H :    0.028303
 102 H :    0.033839
 103 H :    0.025854
 104 H :    0.038957
 105 H :    0.043169
 106 H :    0.028541

  Mayer bond orders larger than 0.100000
B(  0-C ,  1-C ) :   1.6393 B(  0-C , 15-S ) :   1.1047 B(  0-C , 79-H ) :   0.9664
B(  1-C ,  2-C ) :   1.1820 B(  1-C , 80-H ) :   0.9909 B(  2-C ,  3-C ) :   1.3279
B(  2-C , 14-C ) :   1.2788 B(  3-C ,  4-C ) :   0.9776 B(  3-C , 11-C ) :   1.3944
B(  4-C ,  5-C ) :   1.5506 B(  4-C ,  8-S ) :   1.1340 B(  5-C ,  6-C ) :   1.2152
B(  5-C , 81-H ) :   1.0083 B(  6-C ,  7-C ) :   1.6024 B(  6-C , 10-Cl) :   1.0031
B(  7-C ,  8-S ) :   1.1285 B(  7-C ,  9-C ) :   1.0831 B(  9-C , 82-H ) :   0.9445
B(  9-C , 83-H ) :   0.9486 B(  9-C , 84-H ) :   0.9476 B( 11-C , 12-C ) :   1.2684
B( 11-C , 25-S ) :   1.0487 B( 12-C , 13-C ) :   1.3033 B( 12-C , 23-C ) :   1.1818
B( 13-C , 14-C ) :   1.4163 B( 13-C , 16-C ) :   0.9900 B( 14-C , 15-S ) :   1.0721
B( 16-C , 17-C ) :   1.5494 B( 16-C , 20-S ) :   1.1320 B( 17-C , 18-C ) :   1.2243
B( 17-C , 85-H ) :   0.9946 B( 18-C , 19-C ) :   1.6020 B( 18-C , 22-Cl) :   1.0067
B( 19-C , 20-S ) :   1.1316 B( 19-C , 21-C ) :   1.0846 B( 21-C , 86-H ) :   0.9450
B( 21-C , 87-H ) :   0.9470 B( 21-C , 88-H ) :   0.9494 B( 23-C , 24-C ) :   1.5778
B( 23-C , 89-H ) :   0.9685 B( 24-C , 25-S ) :   1.0612 B( 24-C , 26-C ) :   1.1293
B( 26-C , 27-S ) :   1.1466 B( 26-C , 28-C ) :   0.1146 B( 26-C , 30-C ) :   1.5396
B( 27-S , 28-C ) :   1.1464 B( 28-C , 29-C ) :   1.5849 B( 28-C , 39-C ) :   1.0077
B( 29-C , 30-C ) :   1.2818 B( 29-C , 38-C ) :   1.0639 B( 30-C , 31-C ) :   1.0503
B( 31-C , 32-C ) :   1.0778 B( 31-C , 90-H ) :   0.9018 B( 31-C , 91-H ) :   0.8939
B( 32-C , 33-C ) :   1.0776 B( 32-C , 35-C ) :   1.0636 B( 32-C , 92-H ) :   0.8542
B( 33-C , 34-N ) :   3.1247 B( 35-C , 36-C ) :   1.0901 B( 35-C , 38-C ) :   1.0936
B( 35-C , 93-H ) :   0.8585 B( 36-C , 37-N ) :   3.1241 B( 38-C , 94-H ) :   0.8790
B( 38-C , 95-H ) :   0.9053 B( 39-C , 40-C ) :   1.5271 B( 39-C , 43-C ) :   1.2552
B( 40-C , 41-O ) :   1.1456 B( 40-C , 96-H ) :   1.0069 B( 41-O , 42-C ) :   1.1858
B( 42-C , 43-C ) :   1.5230 B( 42-C , 97-H ) :   0.9992 B( 43-C , 44-C ) :   0.9132
B( 44-C , 45-O ) :   2.2039 B( 44-C , 46-C ) :   0.9914 B( 46-C , 47-C ) :   1.5011
B( 46-C , 49-C ) :   0.1079 B( 46-C , 50-S ) :   1.1045 B( 47-C , 48-C ) :   1.2561
B( 47-C , 98-H ) :   1.0041 B( 48-C , 49-C ) :   1.5188 B( 48-C , 99-H ) :   0.9964
B( 49-C , 50-S ) :   1.1587 B( 49-C , 51-C ) :   1.0412 B( 51-C , 52-C ) :   1.5274
B( 51-C , 55-C ) :   1.2531 B( 52-C , 53-O ) :   1.1476 B( 52-C ,100-H ) :   1.0048
B( 53-O , 54-C ) :   1.1843 B( 54-C , 55-C ) :   1.5242 B( 54-C ,101-H ) :   1.0025
B( 55-C , 56-C ) :   0.9268 B( 56-C , 57-O ) :   2.2199 B( 56-C , 58-C ) :   0.9760
B( 58-C , 59-C ) :   1.5110 B( 58-C , 61-C ) :   0.1094 B( 58-C , 62-S ) :   1.1184
B( 59-C , 60-C ) :   1.2796 B( 59-C ,102-H ) :   0.9904 B( 60-C , 61-C ) :   1.4827
B( 60-C ,103-H ) :   0.9942 B( 61-C , 62-S ) :   1.1636 B( 61-C , 63-C ) :   1.1479
B( 63-C , 64-C ) :   1.4734 B( 63-C , 67-S ) :   1.1034 B( 64-C , 65-C ) :   1.2914
B( 64-C ,104-H ) :   0.9903 B( 65-C , 66-C ) :   1.4629 B( 65-C , 70-C ) :   0.9941
B( 66-C , 67-S ) :   1.1307 B( 66-C , 68-C ) :   1.1798 B( 68-C , 69-C ) :   1.4612
B( 68-C , 78-S ) :   1.1346 B( 69-C , 70-C ) :   1.0160 B( 69-C , 76-C ) :   1.2772
B( 70-C , 71-C ) :   1.7138 B( 71-C , 72-C ) :   1.1322 B( 71-C , 74-C ) :   1.1308
B( 72-C , 73-N ) :   2.9936 B( 74-C , 75-N ) :   3.0034 B( 76-C , 77-C ) :   1.5476
B( 76-C ,105-H ) :   0.9968 B( 77-C , 78-S ) :   1.1524 B( 77-C ,106-H ) :   0.9641

-----------------------------------------------------------------------------
         ABSORPTION SPECTRUM VIA TRANSITION ELECTRIC DIPOLE MOMENTS
-----------------------------------------------------------------------------
State   Energy  Wavelength   fosc         T2         TX        TY        TZ
        (cm-1)    (nm)                  (au**2)     (au)      (au)      (au)
-----------------------------------------------------------------------------
   0   15065.8    663.8   0.057677555   1.26035  -0.14927   0.26660  -1.08027
   1   23282.2    429.5   0.000001184   0.00002   0.00400   0.00065  -0.00059
   2   25824.6    387.2   0.589916616   7.52025  -1.98412   0.10553   1.89007
   3   28039.3    356.6   1.199890796  14.08805  -0.92131   1.02017  -3.49263
   4   28768.3    347.6   0.114811675   1.31385  -0.54587  -0.69399  -0.73093
   5   28906.9    345.9   0.009998982   0.11388  -0.17382  -0.19900  -0.20991
   6   29546.2    338.5   0.196040034   2.18433   1.35763   0.55470  -0.18293
   7   29892.4    334.5   0.003591948   0.03956   0.01334   0.19842  -0.00334
   8   30340.6    329.6   0.072293861   0.78443   0.18039  -0.12114   0.85861
   9   31404.8    318.4   0.318845201   3.34240   1.31128   0.98150   0.81216
  10   31696.3    315.5   0.685928826   7.12437  -1.68156   1.60915   1.30666
  11   31777.2    314.7   0.801191965   8.30036  -2.47319  -1.20460  -0.85595
  12   33094.6    302.2   0.018290807   0.18195  -0.09246   0.34938   0.22657
  13   33831.4    295.6   0.228178269   2.22039  -0.43006   0.52787  -1.32544
  14   34332.4    291.3   0.000200301   0.00192   0.03258   0.00263  -0.02919
  15   34397.0    290.7   0.015515896   0.14850   0.24844  -0.00832  -0.29447
  16   35412.9    282.4   0.055501947   0.51597   0.44817  -0.50942  -0.23580
  17   35990.6    277.9   0.026161194   0.23930   0.44486  -0.19632  -0.05347
  18   36372.6    274.9   0.004385296   0.03969  -0.12206  -0.01871   0.15634
  19   36423.4    274.5   0.000162536   0.00147   0.02077   0.01582   0.02806
  20   36527.5    273.8   0.072617800   0.65448  -0.62971  -0.26959  -0.43043
  21   36695.6    272.5   0.148318706   1.33063  -0.27286  -0.73250  -0.84830
  22   36980.5    270.4   0.251849164   2.24204  -0.18182   0.78665   1.26101
  23   37067.6    269.8   0.047542302   0.42224   0.16477   0.38279   0.49856
  24   37644.6    265.6   0.293842904   2.56973  -1.37576  -0.03430   0.82210
  25   37880.2    264.0   0.001644383   0.01429  -0.05028   0.02467   0.10561
  26   37992.0    263.2   0.016921837   0.14663  -0.27074   0.22649  -0.14843
  27   38285.2    261.2   0.058162294   0.50013   0.46587  -0.15311  -0.50957
  28   38586.4    259.2   0.004769928   0.04070   0.05469  -0.14962  -0.12378
  29   38695.5    258.4   0.000104588   0.00089   0.00108   0.02099   0.02117
  30   38901.2    257.1   0.068722392   0.58158  -0.69992  -0.15175  -0.26205
  31   39254.3    254.7   0.003167307   0.02656  -0.03359  -0.13781  -0.08027
  32   39669.6    252.1   0.000926061   0.00769   0.00488   0.08753   0.00024
  33   39836.0    251.0   0.037849212   0.31279   0.30651  -0.25195  -0.39417
  34   40102.3    249.4   0.000083727   0.00069  -0.00617  -0.02300  -0.01096

FINAL SINGLE POINT ENERGY     -7322.256626354382

DIPOLE MOMENT
-------------
                                X             Y             Z
Electronic contribution:     -8.06811       3.31592      31.56907
Nuclear contribution   :      6.21314      -0.20467     -26.88735
                        -----------------------------------------
Total Dipole Moment    :     -1.85497       3.11125       4.68172
                        -----------------------------------------
Magnitude (a.u.)       :      5.91939
Magnitude (Debye)      :     15.04591

Rotational constants in cm-1:     0.000955     0.000188     0.000170
Rotational constants in MHz :    28.620851     5.635629     5.093495

                             ****ORCA TERMINATED NORMALLY****
TOTAL RUN TIME: 0 days 0 hours 13 minutes 1 seconds 81 msec
