                         Program Version 4.2.0 -  RELEASE  -
|  1> # ORCA input file
|  2> # SCF done       -218.537736919449          0.000745447304
|  3> ! CAM-B3LYP def2-SVP def2/J RIJCOSX Grid4 TightSCF
|  4> %maxcore 5000
|  5> %tddft
|  6>     Mode sTDDFT
|  7>     Ethresh 5.0
|  8>     maxcore 5000
|  9> end
| 10>
| 11> %pal
| 12>   nprocs 6
| 13>   end
| 14> * xyz 0 1
| 15>    C        2.52392        -9.55866         7.75671
| 16>    C        2.53003       -10.19348         8.96692
| 17>    F        3.56977       -10.04839         9.79798
| 18>    C        1.44614       -11.00639         9.35646
| 19>    F        1.47936       -11.61543        10.54877
| 20>    C        0.37082       -11.17349         8.52950
| 21>    C        0.33473       -10.53203         7.27614
| 22>    C        1.42963        -9.70958         6.88108
| 23>    C        1.41560        -9.05420         5.62873
| 24>    C        0.33882        -9.21453         4.79594
| 25>    C       -0.74939       -10.03644         5.20070
| 26>    C       -0.76446       -10.68391         6.40241
| 27>    C       -1.77663       -10.03977         4.14390
| 28>    O       -2.82671       -10.64897         4.16491
| 29>    C       -1.26759        -9.15502         3.07839
| 30>    C        0.04674        -8.67223         3.47126
| 31>    C        0.89061        -7.87309         2.74544
| 32>    C        0.64279        -7.35636         1.45584
| 33>    N        0.52766        -6.89761         0.40906
| 34>    C        2.16222        -7.45444         3.19392
| 35>    N        3.20393        -7.07808         3.49476
| 36>    C       -1.92690        -8.81451         1.93094
| 37>    C       -3.18652        -9.21533         1.43512
| 38>    C       -3.67671        -8.72094         0.23673
| 39>    C       -4.93256        -9.23064        -0.12043
| 40>    C       -5.41051       -10.15800         0.85154
| 41>    S       -4.29641       -10.35272         2.17495
| 42>    C       -6.62192       -10.79770         0.71142
| 43>    C       -7.38781       -10.51411        -0.42197
| 44>    C       -6.91112        -9.57985        -1.38895
| 45>    C       -5.70476        -8.94097        -1.25497
| 46>    S       -8.04823        -9.38947        -2.69816
| 47>    C       -9.13555       -10.55923        -1.96702
| 48>    C       -8.64150       -11.04690        -0.77921
| 49>    C      -10.36065       -10.88382        -2.62609
| 50>    C      -11.28528       -11.85856        -2.17290
| 51>    C      -12.51503       -12.14724        -2.88252
| 52>    N      -13.37160       -13.04291        -2.36869
| 53>    C      -13.08181       -13.67562        -1.26084
| 54>    C      -11.83945       -13.43494        -0.59295
| 55>    N      -11.00105       -12.54285        -1.05482
| 56>    C      -11.50153       -14.15114         0.58246
| 57>    N      -11.25274       -14.74162         1.53164
| 58>    C      -14.01751       -14.60082        -0.73403
| 59>    N      -14.75637       -15.35574        -0.29164
| 60>    C      -12.86080       -11.49841        -4.09413
| 61>    C      -11.94216       -10.52367        -4.53059
| 62>    C      -10.72564       -10.22719        -3.81854
| 63>    N      -10.01983        -9.27492        -4.43150
| 64>    S      -10.79518        -8.80278        -5.75113
| 65>    N      -12.06418        -9.77181        -5.62640
| 66>    C      -14.04330       -11.77174        -4.84852
| 67>    C      -14.97717       -12.76159        -4.65287
| 68>    C      -16.03155       -12.73984        -5.58693
| 69>    C      -15.88764       -11.68127        -6.52907
| 70>    S      -14.43347       -10.76724        -6.23522
| 71>    C      -16.80746       -11.45802        -7.52548
| 72>    C      -17.91053       -12.31444        -7.60461
| 73>    C      -18.04762       -13.37754        -6.66577
| 74>    C      -17.12979       -13.60033        -5.66621
| 75>    S      -19.48976       -14.29854        -6.96344
| 76>    C      -19.88716       -13.29917        -8.35110
| 77>    C      -18.96400       -12.29812        -8.54031
| 78>    C      -21.09728       -13.56668        -9.03766
| 79>    C      -21.52275       -13.16822       -10.26675
| 80>    C      -22.98367       -13.24199       -10.56350
| 81>    O      -23.82148       -13.82634        -9.91871
| 82>    C      -23.17851       -12.40922       -11.76627
| 83>    C      -24.34379       -12.05037       -12.37998
| 84>    C      -24.29146       -11.21069       -13.51488
| 85>    C      -23.02718       -10.75341       -13.98828
| 86>    C      -22.98274        -9.90926       -15.11608
| 87>    C      -24.13796        -9.53962       -15.74577
| 88>    C      -25.38757        -9.99405       -15.27771
| 89>    C      -25.46415       -10.81233       -14.18574
| 90>    F      -26.50324        -9.61438       -15.91398
| 91>    F      -24.09340        -8.73818       -16.81749
| 92>    C      -21.83654       -11.14803       -13.33598
| 93>    C      -21.91064       -11.97125       -12.24415
| 94>    C      -20.86820       -12.56301       -11.40692
| 95>    C      -19.55890       -12.71993       -11.77920
| 96>    C      -18.63411       -13.51940       -11.07788
| 97>    N      -17.85450       -14.18158       -10.55769
| 98>    C      -19.00452       -12.16346       -12.95049
| 99>    N      -18.50029       -11.71299       -13.87775
|100>    H        3.36176        -8.94054         7.47409
|101>    H       -0.45076       -11.79882         8.84201
|102>    H        2.25938        -8.43865         5.36301
|103>    H       -1.60457       -11.30137         6.68168
|104>    H       -1.42520        -8.11703         1.27059
|105>    H       -3.13144        -8.01057        -0.36037
|106>    H       -6.97464       -11.49972         1.44999
|107>    H       -5.35230        -8.23812        -1.99277
|108>    H       -9.16620       -11.76933        -0.18300
|109>    H      -14.90660       -13.48222        -3.86028
|110>    H      -16.68551       -10.65490        -8.23448
|111>    H      -17.24641       -14.40774        -4.96136
|112>    H      -19.05810       -11.54054        -9.29844
|113>    H      -21.83684       -14.12590        -8.47075
|114>    H      -25.29252       -12.40224       -12.00449
|115>    H      -22.03471        -9.55547       -15.49015
|116>    H      -26.42790       -11.15163       -13.83970
|117>    H      -20.89480       -10.78108       -13.71194
|118> *
|119>
|120>                          ****END OF INPUT****

CARTESIAN COORDINATES (ANGSTROEM)
---------------------------------
  C      2.523920   -9.558660    7.756710
  C      2.530030  -10.193480    8.966920
  F      3.569770  -10.048390    9.797980
  C      1.446140  -11.006390    9.356460
  F      1.479360  -11.615430   10.548770
  C      0.370820  -11.173490    8.529500
  C      0.334730  -10.532030    7.276140
  C      1.429630   -9.709580    6.881080
  C      1.415600   -9.054200    5.628730
  C      0.338820   -9.214530    4.795940
  C     -0.749390  -10.036440    5.200700
  C     -0.764460  -10.683910    6.402410
  C     -1.776630  -10.039770    4.143900
  O     -2.826710  -10.648970    4.164910
  C     -1.267590   -9.155020    3.078390
  C      0.046740   -8.672230    3.471260
  C      0.890610   -7.873090    2.745440
  C      0.642790   -7.356360    1.455840
  N      0.527660   -6.897610    0.409060
  C      2.162220   -7.454440    3.193920
  N      3.203930   -7.078080    3.494760
  C     -1.926900   -8.814510    1.930940
  C     -3.186520   -9.215330    1.435120
  C     -3.676710   -8.720940    0.236730
  C     -4.932560   -9.230640   -0.120430
  C     -5.410510  -10.158000    0.851540
  S     -4.296410  -10.352720    2.174950
  C     -6.621920  -10.797700    0.711420
  C     -7.387810  -10.514110   -0.421970
  C     -6.911120   -9.579850   -1.388950
  C     -5.704760   -8.940970   -1.254970
  S     -8.048230   -9.389470   -2.698160
  C     -9.135550  -10.559230   -1.967020
  C     -8.641500  -11.046900   -0.779210
  C    -10.360650  -10.883820   -2.626090
  C    -11.285280  -11.858560   -2.172900
  C    -12.515030  -12.147240   -2.882520
  N    -13.371600  -13.042910   -2.368690
  C    -13.081810  -13.675620   -1.260840
  C    -11.839450  -13.434940   -0.592950
  N    -11.001050  -12.542850   -1.054820
  C    -11.501530  -14.151140    0.582460
  N    -11.252740  -14.741620    1.531640
  C    -14.017510  -14.600820   -0.734030
  N    -14.756370  -15.355740   -0.291640
  C    -12.860800  -11.498410   -4.094130
  C    -11.942160  -10.523670   -4.530590
  C    -10.725640  -10.227190   -3.818540
  N    -10.019830   -9.274920   -4.431500
  S    -10.795180   -8.802780   -5.751130
  N    -12.064180   -9.771810   -5.626400
  C    -14.043300  -11.771740   -4.848520
  C    -14.977170  -12.761590   -4.652870
  C    -16.031550  -12.739840   -5.586930
  C    -15.887640  -11.681270   -6.529070
  S    -14.433470  -10.767240   -6.235220
  C    -16.807460  -11.458020   -7.525480
  C    -17.910530  -12.314440   -7.604610
  C    -18.047620  -13.377540   -6.665770
  C    -17.129790  -13.600330   -5.666210
  S    -19.489760  -14.298540   -6.963440
  C    -19.887160  -13.299170   -8.351100
  C    -18.964000  -12.298120   -8.540310
  C    -21.097280  -13.566680   -9.037660
  C    -21.522750  -13.168220  -10.266750
  C    -22.983670  -13.241990  -10.563500
  O    -23.821480  -13.826340   -9.918710
  C    -23.178510  -12.409220  -11.766270
  C    -24.343790  -12.050370  -12.379980
  C    -24.291460  -11.210690  -13.514880
  C    -23.027180  -10.753410  -13.988280
  C    -22.982740   -9.909260  -15.116080
  C    -24.137960   -9.539620  -15.745770
  C    -25.387570   -9.994050  -15.277710
  C    -25.464150  -10.812330  -14.185740
  F    -26.503240   -9.614380  -15.913980
  F    -24.093400   -8.738180  -16.817490
  C    -21.836540  -11.148030  -13.335980
  C    -21.910640  -11.971250  -12.244150
  C    -20.868200  -12.563010  -11.406920
  C    -19.558900  -12.719930  -11.779200
  C    -18.634110  -13.519400  -11.077880
  N    -17.854500  -14.181580  -10.557690
  C    -19.004520  -12.163460  -12.950490
  N    -18.500290  -11.712990  -13.877750
  H      3.361760   -8.940540    7.474090
  H     -0.450760  -11.798820    8.842010
  H      2.259380   -8.438650    5.363010
  H     -1.604570  -11.301370    6.681680
  H     -1.425200   -8.117030    1.270590
  H     -3.131440   -8.010570   -0.360370
  H     -6.974640  -11.499720    1.449990
  H     -5.352300   -8.238120   -1.992770
  H     -9.166200  -11.769330   -0.183000
  H    -14.906600  -13.482220   -3.860280
  H    -16.685510  -10.654900   -8.234480
  H    -17.246410  -14.407740   -4.961360
  H    -19.058100  -11.540540   -9.298440
  H    -21.836840  -14.125900   -8.470750
  H    -25.292520  -12.402240  -12.004490
  H    -22.034710   -9.555470  -15.490150
  H    -26.427900  -11.151630  -13.839700
  H    -20.894800  -10.781080  -13.711940

 Total Charge           Charge          ....    0
 Multiplicity           Mult            ....    1
 Number of Electrons    NEL             ....  604
 Basis Dimension        Dim             .... 1300

ORBITAL ENERGIES
----------------

  NO   OCC          E(Eh)            E(eV)
   0   2.0000     -89.062350     -2423.5098
   1   2.0000     -88.960804     -2420.7465
   2   2.0000     -88.955644     -2420.6061
   3   2.0000     -88.954729     -2420.5812
   4   2.0000     -88.954608     -2420.5780
   5   2.0000     -24.801772      -674.8905
   6   2.0000     -24.801216      -674.8754
   7   2.0000     -24.800723      -674.8620
   8   2.0000     -24.799615      -674.8318
   9   2.0000     -19.225533      -523.1533
  10   2.0000     -19.221546      -523.0449
  11   2.0000     -14.473446      -393.8425
  12   2.0000     -14.473290      -393.8382
  13   2.0000     -14.468197      -393.6997
  14   2.0000     -14.468110      -393.6973
  15   2.0000     -14.440829      -392.9549
  16   2.0000     -14.440714      -392.9518
  17   2.0000     -14.423427      -392.4814
  18   2.0000     -14.422737      -392.4626
  19   2.0000     -14.421167      -392.4199
  20   2.0000     -14.419178      -392.3658
  21   2.0000     -10.394124      -282.8385
  22   2.0000     -10.393826      -282.8304
  23   2.0000     -10.385210      -282.5959
  24   2.0000     -10.384812      -282.5851
  25   2.0000     -10.384105      -282.5659
  26   2.0000     -10.383369      -282.5458
  27   2.0000     -10.374945      -282.3166
  28   2.0000     -10.372536      -282.2511
  29   2.0000     -10.363182      -281.9965
  30   2.0000     -10.362924      -281.9895
  31   2.0000     -10.357081      -281.8305
  32   2.0000     -10.356824      -281.8235
  33   2.0000     -10.351243      -281.6716
  34   2.0000     -10.349557      -281.6258
  35   2.0000     -10.347603      -281.5726
  36   2.0000     -10.346965      -281.5552
  37   2.0000     -10.334468      -281.2152
  38   2.0000     -10.334238      -281.2089
  39   2.0000     -10.333721      -281.1949
  40   2.0000     -10.333656      -281.1931
  41   2.0000     -10.328663      -281.0572
  42   2.0000     -10.327289      -281.0198
  43   2.0000     -10.325848      -280.9806
  44   2.0000     -10.325445      -280.9697
  45   2.0000     -10.325271      -280.9649
  46   2.0000     -10.325043      -280.9587
  47   2.0000     -10.322977      -280.9025
  48   2.0000     -10.322157      -280.8802
  49   2.0000     -10.321906      -280.8733
  50   2.0000     -10.321547      -280.8636
  51   2.0000     -10.315152      -280.6896
  52   2.0000     -10.314998      -280.6854
  53   2.0000     -10.314657      -280.6761
  54   2.0000     -10.313477      -280.6440
  55   2.0000     -10.313394      -280.6417
  56   2.0000     -10.313190      -280.6362
  57   2.0000     -10.310880      -280.5733
  58   2.0000     -10.307808      -280.4897
  59   2.0000     -10.307577      -280.4834
  60   2.0000     -10.307396      -280.4785
  61   2.0000     -10.306669      -280.4587
  62   2.0000     -10.306286      -280.4483
  63   2.0000     -10.305811      -280.4354
  64   2.0000     -10.305490      -280.4266
  65   2.0000     -10.305430      -280.4250
  66   2.0000     -10.305297      -280.4214
  67   2.0000     -10.305056      -280.4148
  68   2.0000     -10.304396      -280.3969
  69   2.0000     -10.303612      -280.3755
  70   2.0000     -10.302839      -280.3545
  71   2.0000     -10.301886      -280.3286
  72   2.0000     -10.300218      -280.2832
  73   2.0000     -10.298644      -280.2404
  74   2.0000     -10.298378      -280.2331
  75   2.0000     -10.296612      -280.1851
  76   2.0000     -10.294677      -280.1324
  77   2.0000     -10.294649      -280.1316
  78   2.0000     -10.294563      -280.1293
  79   2.0000     -10.294066      -280.1158
  80   2.0000     -10.293863      -280.1102
  81   2.0000     -10.293844      -280.1097
  82   2.0000     -10.290668      -280.0233
  83   2.0000     -10.288244      -279.9574
  84   2.0000     -10.287458      -279.9360
  85   2.0000      -8.153066      -221.8562
  86   2.0000      -8.056858      -219.2383
  87   2.0000      -8.050417      -219.0630
  88   2.0000      -8.049441      -219.0364
  89   2.0000      -8.048665      -219.0153
  90   2.0000      -6.124060      -166.6441
  91   2.0000      -6.116357      -166.4345
  92   2.0000      -6.116029      -166.4256
  93   2.0000      -6.026441      -163.9878
  94   2.0000      -6.022477      -163.8799
  95   2.0000      -6.020221      -163.8185
  96   2.0000      -6.019283      -163.7930
  97   2.0000      -6.018409      -163.7692
  98   2.0000      -6.018055      -163.7596
  99   2.0000      -6.015894      -163.7008
 100   2.0000      -6.014924      -163.6744
 101   2.0000      -6.014015      -163.6497
 102   2.0000      -6.011537      -163.5822
 103   2.0000      -6.010534      -163.5549
 104   2.0000      -6.009952      -163.5391
 105   2.0000      -1.324634       -36.0451
 106   2.0000      -1.323302       -36.0089
 107   2.0000      -1.309758       -35.6403
 108   2.0000      -1.308404       -35.6035
 109   2.0000      -1.158981       -31.5375
 110   2.0000      -1.142007       -31.0756
 111   2.0000      -1.137533       -30.9539
 112   2.0000      -1.133470       -30.8433
 113   2.0000      -1.059979       -28.8435
 114   2.0000      -1.026662       -27.9369
 115   2.0000      -1.025562       -27.9070
 116   2.0000      -1.024841       -27.8873
 117   2.0000      -1.020099       -27.7583
 118   2.0000      -1.014017       -27.5928
 119   2.0000      -1.012330       -27.5469
 120   2.0000      -1.009355       -27.4660
 121   2.0000      -1.008670       -27.4473
 122   2.0000      -1.007714       -27.4213
 123   2.0000      -1.001028       -27.2394
 124   2.0000      -0.999396       -27.1950
 125   2.0000      -0.997816       -27.1520
 126   2.0000      -0.987718       -26.8772
 127   2.0000      -0.985971       -26.8296
 128   2.0000      -0.983127       -26.7522
 129   2.0000      -0.977179       -26.5904
 130   2.0000      -0.939598       -25.5677
 131   2.0000      -0.937751       -25.5175
 132   2.0000      -0.929870       -25.3031
 133   2.0000      -0.925455       -25.1829
 134   2.0000      -0.919564       -25.0226
 135   2.0000      -0.909293       -24.7431
 136   2.0000      -0.903542       -24.5866
 137   2.0000      -0.897783       -24.4299
 138   2.0000      -0.895769       -24.3751
 139   2.0000      -0.892826       -24.2950
 140   2.0000      -0.887015       -24.1369
 141   2.0000      -0.884145       -24.0588
 142   2.0000      -0.876802       -23.8590
 143   2.0000      -0.870901       -23.6984
 144   2.0000      -0.851409       -23.1680
 145   2.0000      -0.845281       -23.0013
 146   2.0000      -0.843778       -22.9604
 147   2.0000      -0.842598       -22.9283
 148   2.0000      -0.841199       -22.8902
 149   2.0000      -0.831675       -22.6310
 150   2.0000      -0.827101       -22.5066
 151   2.0000      -0.815139       -22.1811
 152   2.0000      -0.803584       -21.8666
 153   2.0000      -0.792650       -21.5691
 154   2.0000      -0.790801       -21.5188
 155   2.0000      -0.783861       -21.3299
 156   2.0000      -0.772534       -21.0217
 157   2.0000      -0.771932       -21.0053
 158   2.0000      -0.763977       -20.7889
 159   2.0000      -0.748867       -20.3777
 160   2.0000      -0.746181       -20.3046
 161   2.0000      -0.735706       -20.0196
 162   2.0000      -0.726638       -19.7728
 163   2.0000      -0.722971       -19.6730
 164   2.0000      -0.719276       -19.5725
 165   2.0000      -0.714630       -19.4461
 166   2.0000      -0.709783       -19.3142
 167   2.0000      -0.704773       -19.1778
 168   2.0000      -0.700404       -19.0590
 169   2.0000      -0.696172       -18.9438
 170   2.0000      -0.689725       -18.7684
 171   2.0000      -0.689298       -18.7568
 172   2.0000      -0.681096       -18.5336
 173   2.0000      -0.679107       -18.4795
 174   2.0000      -0.670544       -18.2464
 175   2.0000      -0.665766       -18.1164
 176   2.0000      -0.661752       -18.0072
 177   2.0000      -0.658830       -17.9277
 178   2.0000      -0.657633       -17.8951
 179   2.0000      -0.652327       -17.7507
 180   2.0000      -0.646919       -17.6036
 181   2.0000      -0.645862       -17.5748
 182   2.0000      -0.638774       -17.3819
 183   2.0000      -0.635311       -17.2877
 184   2.0000      -0.633442       -17.2368
 185   2.0000      -0.630208       -17.1488
 186   2.0000      -0.621083       -16.9005
 187   2.0000      -0.619257       -16.8508
 188   2.0000      -0.615710       -16.7543
 189   2.0000      -0.610664       -16.6170
 190   2.0000      -0.603347       -16.4179
 191   2.0000      -0.596362       -16.2278
 192   2.0000      -0.593608       -16.1529
 193   2.0000      -0.592312       -16.1176
 194   2.0000      -0.589165       -16.0320
 195   2.0000      -0.587706       -15.9923
 196   2.0000      -0.587580       -15.9889
 197   2.0000      -0.581118       -15.8130
 198   2.0000      -0.579750       -15.7758
 199   2.0000      -0.574917       -15.6443
 200   2.0000      -0.571894       -15.5620
 201   2.0000      -0.570217       -15.5164
 202   2.0000      -0.567505       -15.4426
 203   2.0000      -0.560246       -15.2451
 204   2.0000      -0.558473       -15.1968
 205   2.0000      -0.556433       -15.1413
 206   2.0000      -0.552478       -15.0337
 207   2.0000      -0.550680       -14.9848
 208   2.0000      -0.549252       -14.9459
 209   2.0000      -0.545397       -14.8410
 210   2.0000      -0.545015       -14.8306
 211   2.0000      -0.543315       -14.7843
 212   2.0000      -0.541583       -14.7372
 213   2.0000      -0.540417       -14.7055
 214   2.0000      -0.536166       -14.5898
 215   2.0000      -0.535541       -14.5728
 216   2.0000      -0.535244       -14.5647
 217   2.0000      -0.532058       -14.4780
 218   2.0000      -0.530143       -14.4259
 219   2.0000      -0.524950       -14.2846
 220   2.0000      -0.522704       -14.2235
 221   2.0000      -0.519352       -14.1323
 222   2.0000      -0.518724       -14.1152
 223   2.0000      -0.516363       -14.0509
 224   2.0000      -0.515993       -14.0409
 225   2.0000      -0.515373       -14.0240
 226   2.0000      -0.511653       -13.9228
 227   2.0000      -0.510309       -13.8862
 228   2.0000      -0.504093       -13.7171
 229   2.0000      -0.502931       -13.6855
 230   2.0000      -0.500513       -13.6197
 231   2.0000      -0.500050       -13.6070
 232   2.0000      -0.498409       -13.5624
 233   2.0000      -0.497490       -13.5374
 234   2.0000      -0.494388       -13.4530
 235   2.0000      -0.490718       -13.3531
 236   2.0000      -0.489555       -13.3215
 237   2.0000      -0.484530       -13.1847
 238   2.0000      -0.481730       -13.1085
 239   2.0000      -0.480516       -13.0755
 240   2.0000      -0.474054       -12.8997
 241   2.0000      -0.473475       -12.8839
 242   2.0000      -0.473159       -12.8753
 243   2.0000      -0.467777       -12.7289
 244   2.0000      -0.467429       -12.7194
 245   2.0000      -0.466735       -12.7005
 246   2.0000      -0.464442       -12.6381
 247   2.0000      -0.463949       -12.6247
 248   2.0000      -0.461630       -12.5616
 249   2.0000      -0.457566       -12.4510
 250   2.0000      -0.457351       -12.4451
 251   2.0000      -0.456780       -12.4296
 252   2.0000      -0.454585       -12.3699
 253   2.0000      -0.454319       -12.3627
 254   2.0000      -0.452023       -12.3002
 255   2.0000      -0.450868       -12.2687
 256   2.0000      -0.450577       -12.2608
 257   2.0000      -0.448563       -12.2060
 258   2.0000      -0.448089       -12.1931
 259   2.0000      -0.446207       -12.1419
 260   2.0000      -0.442228       -12.0336
 261   2.0000      -0.441162       -12.0046
 262   2.0000      -0.437771       -11.9123
 263   2.0000      -0.435792       -11.8585
 264   2.0000      -0.433910       -11.8073
 265   2.0000      -0.432922       -11.7804
 266   2.0000      -0.432181       -11.7602
 267   2.0000      -0.431109       -11.7311
 268   2.0000      -0.429832       -11.6963
 269   2.0000      -0.428162       -11.6509
 270   2.0000      -0.425221       -11.5709
 271   2.0000      -0.421030       -11.4568
 272   2.0000      -0.415672       -11.3110
 273   2.0000      -0.414977       -11.2921
 274   2.0000      -0.413158       -11.2426
 275   2.0000      -0.409012       -11.1298
 276   2.0000      -0.406442       -11.0598
 277   2.0000      -0.395991       -10.7755
 278   2.0000      -0.394136       -10.7250
 279   2.0000      -0.392738       -10.6870
 280   2.0000      -0.389909       -10.6100
 281   2.0000      -0.387037       -10.5318
 282   2.0000      -0.382976       -10.4213
 283   2.0000      -0.380047       -10.3416
 284   2.0000      -0.369840       -10.0638
 285   2.0000      -0.366555        -9.9745
 286   2.0000      -0.362163        -9.8550
 287   2.0000      -0.358247        -9.7484
 288   2.0000      -0.350435        -9.5358
 289   2.0000      -0.343477        -9.3465
 290   2.0000      -0.339994        -9.2517
 291   2.0000      -0.338568        -9.2129
 292   2.0000      -0.331399        -9.0178
 293   2.0000      -0.321951        -8.7607
 294   2.0000      -0.321296        -8.7429
 295   2.0000      -0.311051        -8.4641
 296   2.0000      -0.306921        -8.3517
 297   2.0000      -0.302143        -8.2217
 298   2.0000      -0.293475        -7.9858
 299   2.0000      -0.285313        -7.7638
 300   2.0000      -0.270315        -7.3556
 301   2.0000      -0.249947        -6.8014
 302   0.0000      -0.139794        -3.8040
 303   0.0000      -0.101191        -2.7535
 304   0.0000      -0.099605        -2.7104
 305   0.0000      -0.067148        -1.8272
 306   0.0000      -0.064887        -1.7657

MULLIKEN ATOMIC CHARGES
-----------------------
   0 C :   -0.109111
   1 C :    0.242231
   2 F :   -0.170077
   3 C :    0.240363
   4 F :   -0.170267
   5 C :   -0.105004
   6 C :    0.117211
   7 C :    0.116097
   8 C :   -0.086288
   9 C :    0.052707
  10 C :   -0.004276
  11 C :   -0.082511
  12 C :    0.165232
  13 O :   -0.157446
  14 C :   -0.083231
  15 C :    0.331749
  16 C :   -0.359782
  17 C :   -0.188161
  18 N :    0.147309
  19 C :   -0.181076
  20 N :    0.151847
  21 C :   -0.025560
  22 C :   -0.038502
  23 C :   -0.038912
  24 C :    0.138170
  25 C :   -0.037036
  26 S :    0.174247
  27 C :   -0.055956
  28 C :    0.137171
  29 C :   -0.014384
  30 C :   -0.054128
  31 S :    0.134901
  32 C :   -0.153237
  33 C :   -0.038252
  34 C :    0.216679
  35 C :   -0.075306
  36 C :   -0.074822
  37 N :    0.042624
  38 C :   -0.119648
  39 C :   -0.113830
  40 N :    0.042901
  41 C :   -0.228446
  42 N :    0.248713
  43 C :   -0.227423
  44 N :    0.248819
  45 C :    0.208425
  46 C :   -0.019141
  47 C :   -0.020430
  48 N :   -0.313208
  49 S :    0.579028
  50 N :   -0.311967
  51 C :   -0.152049
  52 C :   -0.030497
  53 C :    0.128615
  54 C :   -0.016986
  55 S :    0.137682
  56 C :   -0.048281
  57 C :    0.095229
  58 C :   -0.027237
  59 C :   -0.048478
  60 S :    0.136735
  61 C :   -0.096241
  62 C :    0.018050
  63 C :    0.090447
  64 C :   -0.132478
  65 C :    0.138123
  66 O :   -0.136635
  67 C :    0.012074
  68 C :   -0.078521
  69 C :    0.111625
  70 C :    0.110928
  71 C :   -0.105913
  72 C :    0.242629
  73 C :    0.239374
  74 C :   -0.102531
  75 F :   -0.170628
  76 F :   -0.170210
  77 C :   -0.082022
  78 C :    0.036610
  79 C :    0.271731
  80 C :   -0.334851
  81 C :   -0.209207
  82 N :    0.184445
  83 C :   -0.175425
  84 N :    0.157840
  85 H :    0.008524
  86 H :    0.000243
  87 H :   -0.006646
  88 H :   -0.008393
  89 H :    0.010930
  90 H :    0.003093
  91 H :   -0.021262
  92 H :   -0.026822
  93 H :   -0.001881
  94 H :   -0.002681
  95 H :   -0.026388
  96 H :   -0.019345
  97 H :   -0.004261
  98 H :    0.028390
  99 H :   -0.008048
 100 H :    0.005355
 101 H :    0.000696
 102 H :   -0.004454
Sum of atomic charges:    0.0000000

LOEWDIN ATOMIC CHARGES
----------------------
   0 C :   -0.029040
   1 C :    0.067241
   2 F :   -0.047795
   3 C :    0.068317
   4 F :   -0.048276
   5 C :   -0.032832
   6 C :   -0.008245
   7 C :   -0.006051
   8 C :    0.018348
   9 C :   -0.022915
  10 C :   -0.052468
  11 C :    0.031308
  12 C :    0.083471
  13 O :   -0.150965
  14 C :   -0.100690
  15 C :    0.076819
  16 C :   -0.139155
  17 C :   -0.021173
  18 N :   -0.051624
  19 C :   -0.017095
  20 N :   -0.052138
  21 C :    0.061528
  22 C :   -0.169722
  23 C :   -0.005585
  24 C :   -0.049215
  25 C :   -0.155394
  26 S :    0.457710
  27 C :   -0.027120
  28 C :   -0.038629
  29 C :   -0.155359
  30 C :   -0.025667
  31 S :    0.422864
  32 C :   -0.149907
  33 C :   -0.022660
  34 C :   -0.030986
  35 C :   -0.002598
  36 C :   -0.002761
  37 N :    0.011167
  38 C :   -0.025399
  39 C :   -0.024424
  40 N :    0.010890
  41 C :   -0.039128
  42 N :    0.000012
  43 C :   -0.039053
  44 N :   -0.000396
  45 C :   -0.029994
  46 C :   -0.044438
  47 C :   -0.043996
  48 N :   -0.290956
  49 S :    0.699027
  50 N :   -0.290776
  51 C :   -0.151129
  52 C :   -0.021280
  53 C :   -0.040509
  54 C :   -0.153231
  55 S :    0.426645
  56 C :   -0.024594
  57 C :   -0.039066
  58 C :   -0.144508
  59 C :   -0.024961
  60 S :    0.416542
  61 C :   -0.167340
  62 C :   -0.004972
  63 C :    0.052755
  64 C :   -0.087611
  65 C :    0.083502
  66 O :   -0.137426
  67 C :   -0.054713
  68 C :    0.032386
  69 C :   -0.009340
  70 C :   -0.005599
  71 C :   -0.030044
  72 C :    0.067570
  73 C :    0.067438
  74 C :   -0.032088
  75 F :   -0.048346
  76 F :   -0.047860
  77 C :    0.013715
  78 C :   -0.020667
  79 C :    0.064751
  80 C :   -0.136769
  81 C :   -0.021000
  82 N :   -0.033301
  83 C :   -0.019953
  84 N :   -0.049623
  85 H :    0.048107
  86 H :    0.045225
  87 H :    0.040043
  88 H :    0.041000
  89 H :    0.050752
  90 H :    0.038618
  91 H :    0.034549
  92 H :    0.032620
  93 H :    0.031076
  94 H :    0.031073
  95 H :    0.033048
  96 H :    0.035521
  97 H :    0.034297
  98 H :    0.047622
  99 H :    0.041246
 100 H :    0.047138
 101 H :    0.045276
 102 H :    0.039337

  Mayer bond orders larger than 0.100000
B(  0-C ,  1-C ) :   1.4412 B(  0-C ,  5-C ) :   0.1086 B(  0-C ,  7-C ) :   1.1874
B(  0-C , 85-H ) :   1.0066 B(  1-C ,  2-F ) :   1.1356 B(  1-C ,  3-C ) :   1.1915
B(  3-C ,  4-F ) :   1.1350 B(  3-C ,  5-C ) :   1.4425 B(  5-C ,  6-C ) :   1.1913
B(  5-C , 86-H ) :   1.0074 B(  6-C ,  7-C ) :   1.2564 B(  6-C , 11-C ) :   1.1882
B(  7-C ,  8-C ) :   1.2176 B(  8-C ,  9-C ) :   1.4468 B(  8-C , 87-H ) :   0.9896
B(  9-C , 10-C ) :   1.2216 B(  9-C , 15-C ) :   0.9845 B( 10-C , 11-C ) :   1.4688
B( 10-C , 12-C ) :   0.9527 B( 11-C , 88-H ) :   1.0168 B( 12-C , 13-O ) :   2.1754
B( 12-C , 14-C ) :   0.9508 B( 14-C , 15-C ) :   1.0763 B( 14-C , 21-C ) :   1.5321
B( 15-C , 16-C ) :   1.6237 B( 16-C , 17-C ) :   1.1458 B( 16-C , 19-C ) :   1.1492
B( 17-C , 18-N ) :   2.9590 B( 19-C , 20-N ) :   2.9605 B( 21-C , 22-C ) :   1.2220
B( 21-C , 89-H ) :   0.9401 B( 22-C , 23-C ) :   1.4317 B( 22-C , 26-S ) :   1.0725
B( 23-C , 24-C ) :   1.1863 B( 23-C , 90-H ) :   1.0107 B( 24-C , 25-C ) :   1.2434
B( 24-C , 30-C ) :   1.2754 B( 25-C , 26-S ) :   1.0198 B( 25-C , 27-C ) :   1.3803
B( 27-C , 28-C ) :   1.3091 B( 27-C , 30-C ) :   0.1007 B( 27-C , 91-H ) :   1.0043
B( 28-C , 29-C ) :   1.2422 B( 28-C , 33-C ) :   1.1388 B( 29-C , 30-C ) :   1.4189
B( 29-C , 31-S ) :   1.0057 B( 30-C , 92-H ) :   1.0037 B( 31-S , 32-C ) :   1.0790
B( 32-C , 33-C ) :   1.5088 B( 32-C , 34-C ) :   1.1735 B( 33-C , 93-H ) :   0.9921
B( 34-C , 35-C ) :   1.2542 B( 34-C , 45-C ) :   0.1224 B( 34-C , 47-C ) :   1.2033
B( 35-C , 36-C ) :   1.0985 B( 35-C , 40-N ) :   1.4455 B( 36-C , 37-N ) :   1.4449
B( 36-C , 45-C ) :   1.2557 B( 37-N , 38-C ) :   1.7305 B( 38-C , 39-C ) :   1.2074
B( 38-C , 43-C ) :   1.1556 B( 39-C , 40-N ) :   1.7324 B( 39-C , 41-C ) :   1.1520
B( 41-C , 42-N ) :   3.0480 B( 43-C , 44-N ) :   3.0476 B( 45-C , 46-C ) :   1.2064
B( 45-C , 51-C ) :   1.1724 B( 46-C , 47-C ) :   1.1138 B( 46-C , 50-N ) :   1.4723
B( 47-C , 48-N ) :   1.4716 B( 48-N , 49-S ) :   1.2875 B( 48-N , 50-N ) :   0.1539
B( 49-S , 50-N ) :   1.2884 B( 51-C , 52-C ) :   1.5076 B( 51-C , 55-S ) :   1.0809
B( 52-C , 53-C ) :   1.1445 B( 52-C , 94-H ) :   0.9925 B( 53-C , 54-C ) :   1.2529
B( 53-C , 59-C ) :   1.3087 B( 54-C , 55-S ) :   1.0115 B( 54-C , 56-C ) :   1.4037
B( 56-C , 57-C ) :   1.2982 B( 56-C , 95-H ) :   1.0017 B( 57-C , 58-C ) :   1.2667
B( 57-C , 62-C ) :   1.2045 B( 58-C , 59-C ) :   1.3854 B( 58-C , 60-S ) :   1.0537
B( 59-C , 96-H ) :   1.0030 B( 60-S , 61-C ) :   1.0732 B( 61-C , 62-C ) :   1.5007
B( 61-C , 63-C ) :   1.1161 B( 62-C , 97-H ) :   0.9909 B( 63-C , 64-C ) :   1.6864
B( 63-C , 98-H ) :   0.9237 B( 64-C , 65-C ) :   0.9383 B( 64-C , 79-C ) :   1.0350
B( 65-C , 66-O ) :   2.2711 B( 65-C , 67-C ) :   0.9177 B( 67-C , 68-C ) :   1.4734
B( 67-C , 78-C ) :   1.2227 B( 68-C , 69-C ) :   1.1943 B( 68-C , 99-H ) :   1.0170
B( 69-C , 70-C ) :   1.2578 B( 69-C , 74-C ) :   1.1914 B( 70-C , 71-C ) :   1.1898
B( 70-C , 77-C ) :   1.2148 B( 71-C , 72-C ) :   1.4422 B( 71-C , 74-C ) :   0.1083
B( 71-C ,100-H ) :   1.0074 B( 72-C , 73-C ) :   1.1891 B( 72-C , 76-F ) :   1.1353
B( 73-C , 74-C ) :   1.4444 B( 73-C , 75-F ) :   1.1349 B( 74-C ,101-H ) :   1.0076
B( 77-C , 78-C ) :   1.4552 B( 77-C ,102-H ) :   0.9944 B( 78-C , 79-C ) :   0.9954
B( 79-C , 80-C ) :   1.6531 B( 80-C , 81-C ) :   1.1667 B( 80-C , 83-C ) :   1.1291
B( 81-C , 82-N ) :   3.0043 B( 83-C , 84-N ) :   2.9865

-----------------------------------------------------------------------------
         ABSORPTION SPECTRUM VIA TRANSITION ELECTRIC DIPOLE MOMENTS
-----------------------------------------------------------------------------
State   Energy  Wavelength   fosc         T2         TX        TY        TZ
        (cm-1)    (nm)                  (au**2)     (au)      (au)      (au)
-----------------------------------------------------------------------------
   0    9155.1   1092.3   0.861980047  30.99642   4.56438   0.94143   3.04574
   1   13749.0    727.3   0.004014644   0.09613   0.19571   0.23635   0.04436
   2   15907.0    628.7   0.119804305   2.47947   1.30532   0.19850   0.85802
   3   18951.8    527.7   0.716944983  12.45406   2.39736   0.26083   2.57657
   4   19416.2    515.0   0.541408492   9.17987  -2.63044  -0.54118  -1.40277
   5   19938.9    501.5   0.030802773   0.50859  -0.19648   0.32352  -0.60441
   6   23339.2    428.5   0.374667090   5.28488   1.81863   0.26654   1.38073
   7   23789.9    420.3   0.086312096   1.19441   0.62459   0.72235  -0.53152
   8   24004.9    416.6   0.336972679   4.62137   1.66618   0.21635   1.34105
   9   24540.6    407.5   0.057209320   0.76746   0.77699   0.36105  -0.18274
  10   25393.9    393.8   0.002244224   0.02909   0.06719  -0.15198  -0.03851
  11   25873.1    386.5   0.014135587   0.17986   0.40628   0.11885   0.02601
  12   26372.3    379.2   0.021504340   0.26844   0.15400   0.05997   0.49105
  13   26588.8    376.1   0.063041506   0.78056   0.61950  -0.48618   0.40051
  14   26779.0    373.4   0.011453193   0.14080   0.34934   0.13695  -0.00342
  15   27248.8    367.0   0.005246253   0.06338  -0.19933   0.10601  -0.11142
  16   27519.8    363.4   0.078788267   0.94252  -0.26843  -0.37002   0.85648
  17   27653.8    361.6   0.009442074   0.11241   0.05411  -0.16771   0.28522
  18   28130.7    355.5   0.108744398   1.27263  -0.77110   0.06423  -0.82092
  19   28150.1    355.2   0.045048023   0.52683  -0.62506  -0.01287  -0.36874
  20   28339.5    352.9   0.115957677   1.34705  -0.86702  -0.18235  -0.74972
  21   28681.1    348.7   0.061555676   0.70656   0.80310   0.14811   0.19915
  22   28991.3    344.9   0.027674144   0.31425  -0.39577  -0.29646   0.26406
  23   29285.1    341.5   0.163393237   1.83680   0.93876  -0.37400   0.90313
  24   29719.6    336.5   0.017841132   0.19763  -0.05599  -0.23529   0.37301
  25   30193.8    331.2   0.014222270   0.15507   0.27914   0.07789   0.26661
  26   30323.4    329.8   0.071414745   0.77533   0.76844  -0.37454   0.21106
  27   30698.0    325.8   0.371923501   3.98859  -0.51715   0.93803  -1.68560
  28   30903.4    323.6   0.162308309   1.72906  -0.95019  -0.76577   0.48968
  29   31666.1    315.8   0.062742795   0.65230  -0.65310  -0.20718  -0.42759
  30   31983.1    312.7   0.258383677   2.65963  -1.33342  -0.11871  -0.93140
  31   32136.3    311.2   0.030351741   0.31093   0.09094   0.53180  -0.14089
  32   32348.8    309.1   0.056306320   0.57303  -0.33076  -0.57074   0.37132
  33   32497.6    307.7   0.399649311   4.04858   1.22286  -0.24898   1.57835
  34   32627.6    306.5   0.085973879   0.86748  -0.49896  -0.49299   0.61276
  35   33169.2    301.5   0.042451888   0.42135  -0.01445  -0.61307   0.21279
  36   33424.4    299.2   0.339991244   3.34872   0.38037  -1.18685   1.33994
  37   33621.7    297.4   0.035028140   0.34298   0.55201   0.17308  -0.09120
  38   33864.4    295.3   0.009451992   0.09189   0.29129   0.07965   0.02634
  39   34171.1    292.6   0.402237062   3.87524  -0.78140  -1.14464   1.39801
  40   34223.8    292.2   0.063620605   0.61199  -0.50828   0.44332  -0.39638
  41   34287.9    291.6   0.066077800   0.63444  -0.77859   0.12107  -0.11656
  42   34346.1    291.2   0.033907239   0.32501  -0.30097   0.29303  -0.38543
  43   34614.9    288.9   0.070538174   0.67087   0.44876  -0.28030   0.62523
  44   34956.3    286.1   0.045151369   0.42523   0.61195  -0.05722   0.21786
  45   35083.4    285.0   0.395348298   3.70982   0.01725   0.92007  -1.69204
  46   35294.7    283.3   0.023595205   0.22008   0.00525   0.09476   0.45943
  47   35545.5    281.3   0.142665816   1.32133   1.08598  -0.23129   0.29748
  48   35549.3    281.3   0.290301929   2.68840   1.61871  -0.15058   0.21330
  49   35688.7    280.2   0.497637926   4.59049  -0.57604   1.18049  -1.69266
  50   36142.3    276.7   0.144193685   1.31343  -0.09242   0.83680  -0.77760
  51   36263.3    275.8   0.007829803   0.07108  -0.25823   0.01882   0.06359
  52   36734.4    272.2   0.074557980   0.66818  -0.62242  -0.02438  -0.52932
  53   36852.5    271.4   0.004016600   0.03588   0.04789  -0.17379  -0.05818
  54   37004.0    270.2   0.006451459   0.05740   0.05115   0.23382   0.01048
  55   37518.8    266.5   0.005169866   0.04536   0.05455  -0.02014  -0.20489
  56   37826.4    264.4   0.029877592   0.26003   0.24066  -0.23438   0.38364
  57   38081.7    262.6   0.006694695   0.05787   0.19652   0.10851  -0.08649
  58   38543.6    259.4   0.010228747   0.08737  -0.26236  -0.13494   0.01798
  59   38624.6    258.9   0.001660090   0.01415  -0.10937  -0.04367   0.01675
  60   38884.9    257.2   0.072971743   0.61780  -0.70894  -0.33510   0.05398
  61   38969.1    256.6   0.066477702   0.56161   0.46699   0.51500  -0.27982
  62   39077.8    255.9   0.021597935   0.18195  -0.37882   0.04785  -0.19014
  63   39251.4    254.8   0.065334155   0.54797  -0.67162  -0.21234  -0.22763
  64   39476.8    253.3   0.036587057   0.30511   0.22619  -0.02801   0.50316
  65   39865.9    250.8   0.085235498   0.70387  -0.47924  -0.54885   0.41589
  66   40229.9    248.6   0.008248397   0.06750  -0.19236   0.12997  -0.11664

FINAL SINGLE POINT ENERGY     -5532.850432632901

DIPOLE MOMENT
-------------
                                X             Y             Z
Electronic contribution:      1.45681       3.23877       0.85197
Nuclear contribution   :     -3.02093      -1.74494      -1.29753
                        -----------------------------------------
Total Dipole Moment    :     -1.56412       1.49383      -0.44556
                        -----------------------------------------
Magnitude (a.u.)       :      2.20828
Magnitude (Debye)      :      5.61301

Rotational constants in cm-1:     0.002217     0.000112     0.000107
Rotational constants in MHz :    66.463033     3.355449     3.216615

                             ****ORCA TERMINATED NORMALLY****
TOTAL RUN TIME: 0 days 0 hours 11 minutes 41 seconds 21 msec
