                         Program Version 4.2.0 -  RELEASE  -
|  1> # ORCA input file
|  2> # SCF done       -221.146892880510          0.000982504905
|  3> ! CAM-B3LYP def2-SVP def2/J RIJCOSX Grid4 TightSCF
|  4> %maxcore 5000
|  5> %tddft
|  6>     Mode sTDDFT
|  7>     Ethresh 5.0
|  8>     maxcore 5000
|  9> end
| 10>
| 11> %pal
| 12>   nprocs 6
| 13>   end
| 14> * xyz 0 1
| 15>    C       -1.99658        -0.02864        -6.98831
| 16>    C       -2.13815        -0.00226        -8.34737
| 17>    F       -1.87874         1.12128        -9.02981
| 18>    C       -2.55843        -1.15098        -9.04696
| 19>    F       -2.69012        -1.09630       -10.37961
| 20>    C       -2.83161        -2.31098        -8.37747
| 21>    C       -2.69714        -2.36934        -6.97684
| 22>    C       -2.27159        -1.20868        -6.26854
| 23>    C       -2.13291        -1.24171        -4.86170
| 24>    C       -2.41710        -2.39765        -4.18435
| 25>    C       -2.84754        -3.54983        -4.89986
| 26>    C       -2.98336        -3.55162        -6.25768
| 27>    C       -3.11591        -4.63942        -3.94247
| 28>    O       -3.47594        -5.76955        -4.21697
| 29>    C       -2.87255        -4.07687        -2.60905
| 30>    C       -2.38462        -2.72112        -2.75916
| 31>    C       -1.93516        -1.88217        -1.77082
| 32>    C       -1.86275        -2.19132        -0.39690
| 33>    N       -1.76064        -2.36822         0.73388
| 34>    C       -1.45413        -0.57662        -2.00312
| 35>    N       -1.05684         0.49399        -2.12221
| 36>    C       -3.13462        -4.70208        -1.41470
| 37>    C       -3.62128        -5.98617        -1.13973
| 38>    C       -3.88435        -6.38885         0.17749
| 39>    C       -4.35504        -7.68308         0.23853
| 40>    C       -4.44613        -8.30597        -1.04151
| 41>    S       -3.96471        -7.25370        -2.31722
| 42>    C       -4.92689        -9.59065        -0.81367
| 43>    C       -5.12021        -9.71599         0.58977
| 44>    N       -4.76214        -8.55356         1.21573
| 45>    C       -4.83431        -8.26694         2.62198
| 46>    C       -5.60765       -10.95552         0.97459
| 47>    C       -5.78742       -11.79984        -0.11540
| 48>    S       -5.33983       -11.04525        -1.64331
| 49>    C       -6.26123       -13.13899        -0.10893
| 50>    C       -6.73012       -13.81794         1.04512
| 51>    C       -7.16870       -15.19271         0.98417
| 52>    N       -7.61798       -15.79664         2.08903
| 53>    C       -7.65972       -15.15285         3.22871
| 54>    C       -7.21876       -13.79355         3.29112
| 55>    N       -6.77761       -13.17717         2.22040
| 56>    C       -7.24539       -13.07373         4.51149
| 57>    N       -7.26123       -12.49005         5.49711
| 58>    C       -8.14573       -15.80338         4.38900
| 59>    N       -8.53461       -16.28361         5.35337
| 60>    C       -7.14785       -15.96574        -0.20117
| 61>    C       -6.70862       -15.28043        -1.35779
| 62>    C       -6.28813       -13.90101        -1.30068
| 63>    N       -5.91935       -13.44913        -2.49757
| 64>    S       -6.07988       -14.61697        -3.58332
| 65>    N       -6.62362       -15.76393        -2.59842
| 66>    C       -7.53208       -17.33059        -0.19126
| 67>    C       -7.49699       -18.19860        -1.27715
| 68>    C       -7.91116       -19.47411        -0.92411
| 69>    C       -8.27677       -19.58903         0.44500
| 70>    S       -8.09168       -18.09174         1.28945
| 71>    C       -8.65038       -20.91164         0.64216
| 72>    C       -8.49833       -21.57244        -0.61030
| 73>    N       -8.06139       -20.68181        -1.55248
| 74>    C       -7.72363       -21.00026        -2.91176
| 75>    C       -8.79337       -22.92473        -0.56606
| 76>    C       -9.17724       -23.32648         0.71067
| 77>    S       -9.20534       -21.98722         1.85879
| 78>    C       -9.58337       -24.59382         1.16188
| 79>    C       -9.41865       -25.82519         0.58723
| 80>    C      -10.32229       -26.92882         1.00921
| 81>    O      -11.07654       -26.92680         1.95465
| 82>    C      -10.13947       -27.99172        -0.00123
| 83>    C      -10.81483       -29.16897        -0.14186
| 84>    C      -10.48369       -30.02677        -1.21542
| 85>    C       -9.45674       -29.64264        -2.12535
| 86>    C       -9.13460       -30.49891        -3.19710
| 87>    C       -9.79992       -31.68186        -3.35750
| 88>    C      -10.81543       -32.06097        -2.45726
| 89>    C      -11.15075       -31.25208        -1.40765
| 90>    F      -11.45311       -33.22520        -2.64057
| 91>    F       -9.49200       -32.49424        -4.37740
| 92>    C       -8.76987       -28.41922        -1.94929
| 93>    C       -9.10344       -27.60780        -0.89868
| 94>    C       -8.55790       -26.32457        -0.45600
| 95>    C       -7.32321       -25.84065        -0.81368
| 96>    C       -6.68879       -24.74562        -0.19670
| 97>    N       -6.10933       -23.87403         0.27580
| 98>    C       -6.50519       -26.42382        -1.80145
| 99>    N       -5.80721       -26.83295        -2.61639
|100>    H       -1.67363         0.85956        -6.46797
|101>    H       -3.15315        -3.18142        -8.92771
|102>    H       -1.81212        -0.34548        -4.35624
|103>    H       -3.31055        -4.44034        -6.77558
|104>    H       -2.96553        -4.11668        -0.51879
|105>    H       -3.72822        -5.73629         1.01752
|106>    H       -5.06012        -9.18288         3.16288
|107>    H       -5.61635        -7.53150         2.82776
|108>    H       -3.87992        -7.87077         2.97332
|109>    H       -5.83130       -11.26181         1.97807
|110>    H       -7.17511       -17.87501        -2.24899
|111>    H       -6.92102       -21.74131        -2.94158
|112>    H       -7.39160       -20.09622        -3.41621
|113>    H       -8.59342       -21.40244        -3.43626
|114>    H       -8.77949       -23.58719        -1.41229
|115>    H      -10.17910       -24.60194         2.07018
|116>    H      -11.59156       -29.44300         0.55561
|117>    H       -8.35687       -30.22548        -3.89299
|118>    H      -11.93020       -31.55699        -0.72712
|119>    H       -8.00215       -28.15167        -2.65764
|120> *
|121>
|122>                          ****END OF INPUT****

CARTESIAN COORDINATES (ANGSTROEM)
---------------------------------
  C     -1.996580   -0.028640   -6.988310
  C     -2.138150   -0.002260   -8.347370
  F     -1.878740    1.121280   -9.029810
  C     -2.558430   -1.150980   -9.046960
  F     -2.690120   -1.096300  -10.379610
  C     -2.831610   -2.310980   -8.377470
  C     -2.697140   -2.369340   -6.976840
  C     -2.271590   -1.208680   -6.268540
  C     -2.132910   -1.241710   -4.861700
  C     -2.417100   -2.397650   -4.184350
  C     -2.847540   -3.549830   -4.899860
  C     -2.983360   -3.551620   -6.257680
  C     -3.115910   -4.639420   -3.942470
  O     -3.475940   -5.769550   -4.216970
  C     -2.872550   -4.076870   -2.609050
  C     -2.384620   -2.721120   -2.759160
  C     -1.935160   -1.882170   -1.770820
  C     -1.862750   -2.191320   -0.396900
  N     -1.760640   -2.368220    0.733880
  C     -1.454130   -0.576620   -2.003120
  N     -1.056840    0.493990   -2.122210
  C     -3.134620   -4.702080   -1.414700
  C     -3.621280   -5.986170   -1.139730
  C     -3.884350   -6.388850    0.177490
  C     -4.355040   -7.683080    0.238530
  C     -4.446130   -8.305970   -1.041510
  S     -3.964710   -7.253700   -2.317220
  C     -4.926890   -9.590650   -0.813670
  C     -5.120210   -9.715990    0.589770
  N     -4.762140   -8.553560    1.215730
  C     -4.834310   -8.266940    2.621980
  C     -5.607650  -10.955520    0.974590
  C     -5.787420  -11.799840   -0.115400
  S     -5.339830  -11.045250   -1.643310
  C     -6.261230  -13.138990   -0.108930
  C     -6.730120  -13.817940    1.045120
  C     -7.168700  -15.192710    0.984170
  N     -7.617980  -15.796640    2.089030
  C     -7.659720  -15.152850    3.228710
  C     -7.218760  -13.793550    3.291120
  N     -6.777610  -13.177170    2.220400
  C     -7.245390  -13.073730    4.511490
  N     -7.261230  -12.490050    5.497110
  C     -8.145730  -15.803380    4.389000
  N     -8.534610  -16.283610    5.353370
  C     -7.147850  -15.965740   -0.201170
  C     -6.708620  -15.280430   -1.357790
  C     -6.288130  -13.901010   -1.300680
  N     -5.919350  -13.449130   -2.497570
  S     -6.079880  -14.616970   -3.583320
  N     -6.623620  -15.763930   -2.598420
  C     -7.532080  -17.330590   -0.191260
  C     -7.496990  -18.198600   -1.277150
  C     -7.911160  -19.474110   -0.924110
  C     -8.276770  -19.589030    0.445000
  S     -8.091680  -18.091740    1.289450
  C     -8.650380  -20.911640    0.642160
  C     -8.498330  -21.572440   -0.610300
  N     -8.061390  -20.681810   -1.552480
  C     -7.723630  -21.000260   -2.911760
  C     -8.793370  -22.924730   -0.566060
  C     -9.177240  -23.326480    0.710670
  S     -9.205340  -21.987220    1.858790
  C     -9.583370  -24.593820    1.161880
  C     -9.418650  -25.825190    0.587230
  C    -10.322290  -26.928820    1.009210
  O    -11.076540  -26.926800    1.954650
  C    -10.139470  -27.991720   -0.001230
  C    -10.814830  -29.168970   -0.141860
  C    -10.483690  -30.026770   -1.215420
  C     -9.456740  -29.642640   -2.125350
  C     -9.134600  -30.498910   -3.197100
  C     -9.799920  -31.681860   -3.357500
  C    -10.815430  -32.060970   -2.457260
  C    -11.150750  -31.252080   -1.407650
  F    -11.453110  -33.225200   -2.640570
  F     -9.492000  -32.494240   -4.377400
  C     -8.769870  -28.419220   -1.949290
  C     -9.103440  -27.607800   -0.898680
  C     -8.557900  -26.324570   -0.456000
  C     -7.323210  -25.840650   -0.813680
  C     -6.688790  -24.745620   -0.196700
  N     -6.109330  -23.874030    0.275800
  C     -6.505190  -26.423820   -1.801450
  N     -5.807210  -26.832950   -2.616390
  H     -1.673630    0.859560   -6.467970
  H     -3.153150   -3.181420   -8.927710
  H     -1.812120   -0.345480   -4.356240
  H     -3.310550   -4.440340   -6.775580
  H     -2.965530   -4.116680   -0.518790
  H     -3.728220   -5.736290    1.017520
  H     -5.060120   -9.182880    3.162880
  H     -5.616350   -7.531500    2.827760
  H     -3.879920   -7.870770    2.973320
  H     -5.831300  -11.261810    1.978070
  H     -7.175110  -17.875010   -2.248990
  H     -6.921020  -21.741310   -2.941580
  H     -7.391600  -20.096220   -3.416210
  H     -8.593420  -21.402440   -3.436260
  H     -8.779490  -23.587190   -1.412290
  H    -10.179100  -24.601940    2.070180
  H    -11.591560  -29.443000    0.555610
  H     -8.356870  -30.225480   -3.892990
  H    -11.930200  -31.556990   -0.727120
  H     -8.002150  -28.151670   -2.657640

 Total Charge           Charge          ....    0
 Multiplicity           Mult            ....    1
 Number of Electrons    NEL             ....  608
 Basis Dimension        Dim             .... 1310

ORBITAL ENERGIES
----------------

  NO   OCC          E(Eh)            E(eV)
   0   2.0000     -89.058688     -2423.4101
   1   2.0000     -88.971207     -2421.0296
   2   2.0000     -88.965408     -2420.8718
   3   2.0000     -88.965349     -2420.8702
   4   2.0000     -88.964943     -2420.8592
   5   2.0000     -24.798426      -674.7995
   6   2.0000     -24.798006      -674.7880
   7   2.0000     -24.797518      -674.7748
   8   2.0000     -24.796169      -674.7381
   9   2.0000     -19.219445      -522.9877
  10   2.0000     -19.213920      -522.8373
  11   2.0000     -14.480945      -394.0466
  12   2.0000     -14.477990      -393.9661
  13   2.0000     -14.475044      -393.8860
  14   2.0000     -14.472707      -393.8224
  15   2.0000     -14.468010      -393.6946
  16   2.0000     -14.467443      -393.6791
  17   2.0000     -14.440243      -392.9390
  18   2.0000     -14.438531      -392.8924
  19   2.0000     -14.417864      -392.3300
  20   2.0000     -14.417089      -392.3089
  21   2.0000     -14.416090      -392.2817
  22   2.0000     -14.412223      -392.1765
  23   2.0000     -10.393197      -282.8133
  24   2.0000     -10.392490      -282.7940
  25   2.0000     -10.381419      -282.4928
  26   2.0000     -10.380969      -282.4805
  27   2.0000     -10.380274      -282.4616
  28   2.0000     -10.379339      -282.4362
  29   2.0000     -10.368111      -282.1306
  30   2.0000     -10.365476      -282.0589
  31   2.0000     -10.360520      -281.9241
  32   2.0000     -10.358658      -281.8734
  33   2.0000     -10.357215      -281.8342
  34   2.0000     -10.355446      -281.7860
  35   2.0000     -10.343873      -281.4711
  36   2.0000     -10.342824      -281.4425
  37   2.0000     -10.339982      -281.3652
  38   2.0000     -10.338650      -281.3290
  39   2.0000     -10.333765      -281.1961
  40   2.0000     -10.332483      -281.1612
  41   2.0000     -10.331738      -281.1409
  42   2.0000     -10.330428      -281.1052
  43   2.0000     -10.330260      -281.1007
  44   2.0000     -10.329164      -281.0708
  45   2.0000     -10.326966      -281.0110
  46   2.0000     -10.326798      -281.0065
  47   2.0000     -10.325965      -280.9838
  48   2.0000     -10.325647      -280.9752
  49   2.0000     -10.325216      -280.9634
  50   2.0000     -10.323516      -280.9171
  51   2.0000     -10.323033      -280.9040
  52   2.0000     -10.322132      -280.8795
  53   2.0000     -10.322005      -280.8760
  54   2.0000     -10.321237      -280.8551
  55   2.0000     -10.320219      -280.8274
  56   2.0000     -10.319483      -280.8074
  57   2.0000     -10.318608      -280.7836
  58   2.0000     -10.315944      -280.7111
  59   2.0000     -10.315784      -280.7068
  60   2.0000     -10.310552      -280.5644
  61   2.0000     -10.310174      -280.5541
  62   2.0000     -10.308959      -280.5210
  63   2.0000     -10.308528      -280.5093
  64   2.0000     -10.308281      -280.5026
  65   2.0000     -10.307942      -280.4934
  66   2.0000     -10.307022      -280.4683
  67   2.0000     -10.305278      -280.4209
  68   2.0000     -10.304421      -280.3975
  69   2.0000     -10.303910      -280.3837
  70   2.0000     -10.302991      -280.3586
  71   2.0000     -10.302433      -280.3435
  72   2.0000     -10.302247      -280.3384
  73   2.0000     -10.301225      -280.3106
  74   2.0000     -10.300974      -280.3038
  75   2.0000     -10.300619      -280.2941
  76   2.0000     -10.300171      -280.2819
  77   2.0000     -10.300049      -280.2786
  78   2.0000     -10.299057      -280.2516
  79   2.0000     -10.296896      -280.1928
  80   2.0000     -10.295186      -280.1462
  81   2.0000     -10.295023      -280.1418
  82   2.0000     -10.293263      -280.0939
  83   2.0000     -10.291716      -280.0518
  84   2.0000     -10.291693      -280.0512
  85   2.0000      -8.149758      -221.7662
  86   2.0000      -8.066140      -219.4908
  87   2.0000      -8.058880      -219.2933
  88   2.0000      -8.058191      -219.2745
  89   2.0000      -8.057807      -219.2641
  90   2.0000      -6.120878      -166.5576
  91   2.0000      -6.113101      -166.3459
  92   2.0000      -6.112478      -166.3290
  93   2.0000      -6.035714      -164.2401
  94   2.0000      -6.031671      -164.1301
  95   2.0000      -6.028733      -164.0502
  96   2.0000      -6.028202      -164.0357
  97   2.0000      -6.027635      -164.0203
  98   2.0000      -6.027615      -164.0197
  99   2.0000      -6.024266      -163.9286
 100   2.0000      -6.023509      -163.9080
 101   2.0000      -6.023073      -163.8961
 102   2.0000      -6.020249      -163.8193
 103   2.0000      -6.019537      -163.7999
 104   2.0000      -6.019248      -163.7921
 105   2.0000      -1.321055       -35.9477
 106   2.0000      -1.319630       -35.9089
 107   2.0000      -1.306235       -35.5445
 108   2.0000      -1.304759       -35.5043
 109   2.0000      -1.156397       -31.4672
 110   2.0000      -1.135153       -30.8891
 111   2.0000      -1.133851       -30.8536
 112   2.0000      -1.129628       -30.7387
 113   2.0000      -1.109374       -30.1876
 114   2.0000      -1.106852       -30.1190
 115   2.0000      -1.061138       -28.8750
 116   2.0000      -1.024347       -27.8739
 117   2.0000      -1.021440       -27.7948
 118   2.0000      -1.018343       -27.7105
 119   2.0000      -1.016450       -27.6590
 120   2.0000      -1.012184       -27.5429
 121   2.0000      -1.004846       -27.3432
 122   2.0000      -1.003239       -27.2995
 123   2.0000      -1.000243       -27.2180
 124   2.0000      -0.997737       -27.1498
 125   2.0000      -0.992898       -27.0181
 126   2.0000      -0.991017       -26.9669
 127   2.0000      -0.987875       -26.8814
 128   2.0000      -0.983133       -26.7524
 129   2.0000      -0.980504       -26.6809
 130   2.0000      -0.978747       -26.6331
 131   2.0000      -0.971735       -26.4423
 132   2.0000      -0.932553       -25.3761
 133   2.0000      -0.930852       -25.3298
 134   2.0000      -0.921167       -25.0662
 135   2.0000      -0.919132       -25.0109
 136   2.0000      -0.910907       -24.7870
 137   2.0000      -0.903859       -24.5953
 138   2.0000      -0.896502       -24.3951
 139   2.0000      -0.893020       -24.3003
 140   2.0000      -0.890593       -24.2343
 141   2.0000      -0.886959       -24.1354
 142   2.0000      -0.872110       -23.7313
 143   2.0000      -0.865775       -23.5589
 144   2.0000      -0.856282       -23.3006
 145   2.0000      -0.851232       -23.1632
 146   2.0000      -0.849786       -23.1238
 147   2.0000      -0.848864       -23.0988
 148   2.0000      -0.844800       -22.9882
 149   2.0000      -0.840667       -22.8757
 150   2.0000      -0.838992       -22.8301
 151   2.0000      -0.822011       -22.3681
 152   2.0000      -0.820856       -22.3366
 153   2.0000      -0.812417       -22.1070
 154   2.0000      -0.803962       -21.8769
 155   2.0000      -0.781677       -21.2705
 156   2.0000      -0.776303       -21.1243
 157   2.0000      -0.772847       -21.0302
 158   2.0000      -0.766550       -20.8589
 159   2.0000      -0.765778       -20.8379
 160   2.0000      -0.755790       -20.5661
 161   2.0000      -0.744659       -20.2632
 162   2.0000      -0.740297       -20.1445
 163   2.0000      -0.731631       -19.9087
 164   2.0000      -0.720571       -19.6077
 165   2.0000      -0.719154       -19.5692
 166   2.0000      -0.715462       -19.4687
 167   2.0000      -0.713494       -19.4152
 168   2.0000      -0.705843       -19.2070
 169   2.0000      -0.701959       -19.1013
 170   2.0000      -0.689361       -18.7585
 171   2.0000      -0.685530       -18.6542
 172   2.0000      -0.683369       -18.5954
 173   2.0000      -0.675311       -18.3762
 174   2.0000      -0.671619       -18.2757
 175   2.0000      -0.664276       -18.0759
 176   2.0000      -0.661463       -17.9993
 177   2.0000      -0.657732       -17.8978
 178   2.0000      -0.656083       -17.8529
 179   2.0000      -0.652736       -17.7619
 180   2.0000      -0.651308       -17.7230
 181   2.0000      -0.648593       -17.6491
 182   2.0000      -0.642384       -17.4802
 183   2.0000      -0.641071       -17.4444
 184   2.0000      -0.636366       -17.3164
 185   2.0000      -0.633403       -17.2358
 186   2.0000      -0.627903       -17.0861
 187   2.0000      -0.623522       -16.9669
 188   2.0000      -0.615572       -16.7506
 189   2.0000      -0.613494       -16.6940
 190   2.0000      -0.609374       -16.5819
 191   2.0000      -0.601476       -16.3670
 192   2.0000      -0.598051       -16.2738
 193   2.0000      -0.594045       -16.1648
 194   2.0000      -0.593216       -16.1422
 195   2.0000      -0.592307       -16.1175
 196   2.0000      -0.587354       -15.9827
 197   2.0000      -0.585555       -15.9338
 198   2.0000      -0.584196       -15.8968
 199   2.0000      -0.579359       -15.7652
 200   2.0000      -0.578890       -15.7524
 201   2.0000      -0.576869       -15.6974
 202   2.0000      -0.576726       -15.6935
 203   2.0000      -0.572532       -15.5794
 204   2.0000      -0.570547       -15.5254
 205   2.0000      -0.566996       -15.4288
 206   2.0000      -0.558020       -15.1845
 207   2.0000      -0.554679       -15.0936
 208   2.0000      -0.554299       -15.0832
 209   2.0000      -0.552012       -15.0210
 210   2.0000      -0.547255       -14.8916
 211   2.0000      -0.545877       -14.8541
 212   2.0000      -0.545321       -14.8389
 213   2.0000      -0.539469       -14.6797
 214   2.0000      -0.539274       -14.6744
 215   2.0000      -0.536842       -14.6082
 216   2.0000      -0.535306       -14.5664
 217   2.0000      -0.533349       -14.5132
 218   2.0000      -0.530952       -14.4480
 219   2.0000      -0.530252       -14.4289
 220   2.0000      -0.526898       -14.3376
 221   2.0000      -0.525409       -14.2971
 222   2.0000      -0.518380       -14.1058
 223   2.0000      -0.516758       -14.0617
 224   2.0000      -0.515449       -14.0261
 225   2.0000      -0.513850       -13.9826
 226   2.0000      -0.512018       -13.9327
 227   2.0000      -0.510804       -13.8997
 228   2.0000      -0.509277       -13.8581
 229   2.0000      -0.504584       -13.7304
 230   2.0000      -0.504255       -13.7215
 231   2.0000      -0.502279       -13.6677
 232   2.0000      -0.500913       -13.6305
 233   2.0000      -0.499459       -13.5910
 234   2.0000      -0.497378       -13.5343
 235   2.0000      -0.496836       -13.5196
 236   2.0000      -0.495887       -13.4938
 237   2.0000      -0.490016       -13.3340
 238   2.0000      -0.487639       -13.2693
 239   2.0000      -0.486685       -13.2434
 240   2.0000      -0.486411       -13.2359
 241   2.0000      -0.485069       -13.1994
 242   2.0000      -0.483243       -13.1497
 243   2.0000      -0.477442       -12.9918
 244   2.0000      -0.471975       -12.8431
 245   2.0000      -0.471286       -12.8244
 246   2.0000      -0.470410       -12.8005
 247   2.0000      -0.468554       -12.7500
 248   2.0000      -0.468136       -12.7386
 249   2.0000      -0.465352       -12.6629
 250   2.0000      -0.463484       -12.6120
 251   2.0000      -0.462943       -12.5973
 252   2.0000      -0.462612       -12.5883
 253   2.0000      -0.460750       -12.5376
 254   2.0000      -0.455998       -12.4083
 255   2.0000      -0.453165       -12.3312
 256   2.0000      -0.452132       -12.3031
 257   2.0000      -0.451325       -12.2812
 258   2.0000      -0.448862       -12.2141
 259   2.0000      -0.446713       -12.1557
 260   2.0000      -0.445556       -12.1242
 261   2.0000      -0.445255       -12.1160
 262   2.0000      -0.442198       -12.0328
 263   2.0000      -0.438979       -11.9452
 264   2.0000      -0.437541       -11.9061
 265   2.0000      -0.434739       -11.8299
 266   2.0000      -0.430617       -11.7177
 267   2.0000      -0.430367       -11.7109
 268   2.0000      -0.429181       -11.6786
 269   2.0000      -0.428935       -11.6719
 270   2.0000      -0.427776       -11.6404
 271   2.0000      -0.425902       -11.5894
 272   2.0000      -0.424046       -11.5389
 273   2.0000      -0.419224       -11.4077
 274   2.0000      -0.416084       -11.3222
 275   2.0000      -0.415013       -11.2931
 276   2.0000      -0.411842       -11.2068
 277   2.0000      -0.410833       -11.1793
 278   2.0000      -0.404655       -11.0112
 279   2.0000      -0.400383       -10.8950
 280   2.0000      -0.399880       -10.8813
 281   2.0000      -0.399517       -10.8714
 282   2.0000      -0.387100       -10.5335
 283   2.0000      -0.386282       -10.5113
 284   2.0000      -0.379387       -10.3236
 285   2.0000      -0.375485       -10.2175
 286   2.0000      -0.369116       -10.0442
 287   2.0000      -0.361656        -9.8412
 288   2.0000      -0.357590        -9.7305
 289   2.0000      -0.351895        -9.5755
 290   2.0000      -0.340993        -9.2789
 291   2.0000      -0.339689        -9.2434
 292   2.0000      -0.338655        -9.2153
 293   2.0000      -0.334869        -9.1122
 294   2.0000      -0.331531        -9.0214
 295   2.0000      -0.317692        -8.6448
 296   2.0000      -0.316911        -8.6236
 297   2.0000      -0.307569        -8.3694
 298   2.0000      -0.301519        -8.2047
 299   2.0000      -0.296978        -8.0812
 300   2.0000      -0.285796        -7.7769
 301   2.0000      -0.283416        -7.7122
 302   2.0000      -0.267798        -7.2872
 303   2.0000      -0.235325        -6.4035
 304   0.0000      -0.140609        -3.8262
 305   0.0000      -0.095449        -2.5973
 306   0.0000      -0.091894        -2.5006
 307   0.0000      -0.064467        -1.7542
 308   0.0000      -0.059663        -1.6235

MULLIKEN ATOMIC CHARGES
-----------------------
   0 C :   -0.108513
   1 C :    0.241648
   2 F :   -0.172066
   3 C :    0.237172
   4 F :   -0.173109
   5 C :   -0.106072
   6 C :    0.118862
   7 C :    0.114103
   8 C :   -0.086456
   9 C :    0.045135
  10 C :    0.000387
  11 C :   -0.087085
  12 C :    0.163678
  13 O :   -0.174739
  14 C :   -0.097662
  15 C :    0.330847
  16 C :   -0.361490
  17 C :   -0.190006
  18 N :    0.139343
  19 C :   -0.181951
  20 N :    0.145156
  21 C :   -0.032492
  22 C :   -0.046109
  23 C :   -0.126367
  24 C :    0.212528
  25 C :   -0.097738
  26 S :    0.205351
  27 C :   -0.096797
  28 C :    0.208038
  29 N :   -0.166083
  30 C :    0.123217
  31 C :   -0.121762
  32 C :   -0.173643
  33 S :    0.169648
  34 C :    0.207830
  35 C :   -0.077055
  36 C :   -0.055056
  37 N :    0.001511
  38 C :   -0.088255
  39 C :   -0.127378
  40 N :    0.040873
  41 C :   -0.235319
  42 N :    0.245680
  43 C :   -0.241010
  44 N :    0.251790
  45 C :    0.175307
  46 C :    0.000705
  47 C :   -0.029885
  48 N :   -0.315316
  49 S :    0.561611
  50 N :   -0.294732
  51 C :   -0.162669
  52 C :   -0.121800
  53 C :    0.198083
  54 C :   -0.082569
  55 S :    0.170885
  56 C :   -0.096524
  57 C :    0.149101
  58 N :   -0.166430
  59 C :    0.123670
  60 C :   -0.036887
  61 C :   -0.115520
  62 S :    0.176182
  63 C :    0.085202
  64 C :   -0.151830
  65 C :    0.136435
  66 O :   -0.142380
  67 C :    0.018289
  68 C :   -0.087143
  69 C :    0.113765
  70 C :    0.113752
  71 C :   -0.110822
  72 C :    0.242231
  73 C :    0.238630
  74 C :   -0.105122
  75 F :   -0.172253
  76 F :   -0.171816
  77 C :   -0.088676
  78 C :    0.034133
  79 C :    0.282374
  80 C :   -0.356709
  81 C :   -0.209374
  82 N :    0.178554
  83 C :   -0.176228
  84 N :    0.146963
  85 H :    0.007548
  86 H :   -0.003178
  87 H :   -0.006367
  88 H :   -0.012520
  89 H :    0.009120
  90 H :   -0.000834
  91 H :    0.048328
  92 H :    0.045932
  93 H :    0.045045
  94 H :   -0.004011
  95 H :   -0.006455
  96 H :    0.053387
  97 H :    0.042096
  98 H :    0.042015
  99 H :   -0.004297
 100 H :    0.024997
 101 H :   -0.009149
 102 H :    0.005641
 103 H :   -0.000697
 104 H :   -0.006373
Sum of atomic charges:   -0.0000000

LOEWDIN ATOMIC CHARGES
----------------------
   0 C :   -0.029303
   1 C :    0.065635
   2 F :   -0.049909
   3 C :    0.066712
   4 F :   -0.050550
   5 C :   -0.034111
   6 C :   -0.009299
   7 C :   -0.007169
   8 C :    0.016545
   9 C :   -0.021495
  10 C :   -0.050352
  11 C :    0.026968
  12 C :    0.081776
  13 O :   -0.166112
  14 C :   -0.114865
  15 C :    0.077146
  16 C :   -0.148335
  17 C :   -0.020790
  18 N :   -0.060316
  19 C :   -0.018038
  20 N :   -0.058995
  21 C :    0.053177
  22 C :   -0.171577
  23 C :   -0.035343
  24 C :   -0.013240
  25 C :   -0.202590
  26 S :    0.485690
  27 C :   -0.222047
  28 C :    0.000809
  29 N :    0.023285
  30 C :    0.041432
  31 C :   -0.057986
  32 C :   -0.147946
  33 S :    0.454335
  34 C :   -0.042188
  35 C :   -0.005705
  36 C :   -0.010778
  37 N :   -0.011819
  38 C :   -0.023700
  39 C :   -0.026598
  40 N :    0.007168
  41 C :   -0.038919
  42 N :   -0.006506
  43 C :   -0.038823
  44 N :    0.001467
  45 C :   -0.038736
  46 C :   -0.035820
  47 C :   -0.043901
  48 N :   -0.290440
  49 S :    0.680971
  50 N :   -0.279507
  51 C :   -0.151705
  52 C :   -0.053572
  53 C :   -0.002487
  54 C :   -0.218064
  55 S :    0.455614
  56 C :   -0.195881
  57 C :   -0.002817
  58 N :    0.027966
  59 C :    0.040763
  60 C :   -0.029069
  61 C :   -0.170883
  62 S :    0.447659
  63 C :    0.050414
  64 C :   -0.104734
  65 C :    0.080925
  66 O :   -0.145073
  67 C :   -0.052643
  68 C :    0.028999
  69 C :   -0.009794
  70 C :   -0.006660
  71 C :   -0.031234
  72 C :    0.066128
  73 C :    0.066349
  74 C :   -0.032998
  75 F :   -0.050046
  76 F :   -0.049693
  77 C :    0.010886
  78 C :   -0.020264
  79 C :    0.065495
  80 C :   -0.151177
  81 C :   -0.020797
  82 N :   -0.045343
  83 C :   -0.021240
  84 N :   -0.059739
  85 H :    0.047676
  86 H :    0.043918
  87 H :    0.039854
  88 H :    0.039249
  89 H :    0.050180
  90 H :    0.039623
  91 H :    0.040041
  92 H :    0.032194
  93 H :    0.034088
  94 H :    0.029611
  95 H :    0.029502
  96 H :    0.036037
  97 H :    0.038241
  98 H :    0.031687
  99 H :    0.035825
 100 H :    0.046982
 101 H :    0.040558
 102 H :    0.046776
 103 H :    0.044751
 104 H :    0.038613

  Mayer bond orders larger than 0.100000
B(  0-C ,  1-C ) :   1.4390 B(  0-C ,  5-C ) :   0.1088 B(  0-C ,  7-C ) :   1.1894
B(  0-C , 85-H ) :   1.0064 B(  1-C ,  2-F ) :   1.1338 B(  1-C ,  3-C ) :   1.1946
B(  3-C ,  4-F ) :   1.1324 B(  3-C ,  5-C ) :   1.4408 B(  5-C ,  6-C ) :   1.1943
B(  5-C , 86-H ) :   1.0066 B(  6-C ,  7-C ) :   1.2591 B(  6-C , 11-C ) :   1.1829
B(  7-C ,  8-C ) :   1.2130 B(  8-C ,  9-C ) :   1.4565 B(  8-C , 87-H ) :   0.9886
B(  9-C , 10-C ) :   1.2226 B(  9-C , 15-C ) :   0.9793 B( 10-C , 11-C ) :   1.4746
B( 10-C , 12-C ) :   0.9505 B( 11-C , 88-H ) :   1.0163 B( 12-C , 13-O ) :   2.1458
B( 12-C , 14-C ) :   0.9800 B( 14-C , 15-C ) :   1.0925 B( 14-C , 21-C ) :   1.4570
B( 15-C , 16-C ) :   1.6110 B( 16-C , 17-C ) :   1.1467 B( 16-C , 19-C ) :   1.1486
B( 17-C , 18-N ) :   2.9619 B( 19-C , 20-N ) :   2.9603 B( 21-C , 22-C ) :   1.3036
B( 21-C , 89-H ) :   0.9391 B( 22-C , 23-C ) :   1.3057 B( 22-C , 26-S ) :   1.0730
B( 23-C , 24-C ) :   1.2721 B( 23-C , 90-H ) :   1.0334 B( 24-C , 25-C ) :   1.3013
B( 24-C , 29-N ) :   1.1360 B( 25-C , 26-S ) :   1.0152 B( 25-C , 27-C ) :   1.4215
B( 27-C , 28-C ) :   1.3344 B( 27-C , 33-S ) :   0.9997 B( 28-C , 29-N ) :   1.1508
B( 28-C , 31-C ) :   1.2143 B( 29-N , 30-C ) :   0.9626 B( 30-C , 91-H ) :   0.9733
B( 30-C , 92-H ) :   0.9726 B( 30-C , 93-H ) :   0.9712 B( 31-C , 32-C ) :   1.4061
B( 31-C , 94-H ) :   1.0018 B( 32-C , 33-S ) :   1.0954 B( 32-C , 34-C ) :   1.2222
B( 34-C , 35-C ) :   1.2425 B( 34-C , 45-C ) :   0.1153 B( 34-C , 47-C ) :   1.1804
B( 35-C , 36-C ) :   1.1017 B( 35-C , 40-N ) :   1.4512 B( 36-C , 37-N ) :   1.4102
B( 36-C , 45-C ) :   1.2409 B( 37-N , 38-C ) :   1.6903 B( 38-C , 39-C ) :   1.2192
B( 38-C , 43-C ) :   1.1664 B( 39-C , 40-N ) :   1.7161 B( 39-C , 41-C ) :   1.1589
B( 41-C , 42-N ) :   3.0514 B( 43-C , 44-N ) :   3.0349 B( 45-C , 46-C ) :   1.1928
B( 45-C , 51-C ) :   1.2376 B( 46-C , 47-C ) :   1.1082 B( 46-C , 50-N ) :   1.5124
B( 47-C , 48-N ) :   1.4895 B( 48-N , 49-S ) :   1.2766 B( 48-N , 50-N ) :   0.1489
B( 49-S , 50-N ) :   1.2734 B( 51-C , 52-C ) :   1.4138 B( 51-C , 55-S ) :   1.0860
B( 52-C , 53-C ) :   1.2228 B( 52-C , 95-H ) :   0.9970 B( 53-C , 54-C ) :   1.3411
B( 53-C , 58-N ) :   1.1445 B( 54-C , 55-S ) :   0.9804 B( 54-C , 56-C ) :   1.4308
B( 56-C , 57-C ) :   1.3290 B( 56-C , 62-S ) :   1.0555 B( 57-C , 58-N ) :   1.1483
B( 57-C , 60-C ) :   1.3227 B( 58-N , 59-C ) :   0.9644 B( 59-C , 96-H ) :   0.9713
B( 59-C , 97-H ) :   0.9733 B( 59-C , 98-H ) :   0.9715 B( 60-C , 61-C ) :   1.3684
B( 60-C , 99-H ) :   0.9967 B( 61-C , 62-S ) :   1.0799 B( 61-C , 63-C ) :   1.1906
B( 63-C , 64-C ) :   1.5994 B( 63-C ,100-H ) :   0.9268 B( 64-C , 65-C ) :   0.9528
B( 64-C , 79-C ) :   1.0662 B( 65-C , 66-O ) :   2.2682 B( 65-C , 67-C ) :   0.9140
B( 67-C , 68-C ) :   1.4775 B( 67-C , 78-C ) :   1.2224 B( 68-C , 69-C ) :   1.1888
B( 68-C ,101-H ) :   1.0173 B( 69-C , 70-C ) :   1.2595 B( 69-C , 74-C ) :   1.1931
B( 70-C , 71-C ) :   1.1905 B( 70-C , 77-C ) :   1.2108 B( 71-C , 72-C ) :   1.4396
B( 71-C , 74-C ) :   0.1088 B( 71-C ,102-H ) :   1.0076 B( 72-C , 73-C ) :   1.1928
B( 72-C , 76-F ) :   1.1340 B( 73-C , 74-C ) :   1.4416 B( 73-C , 75-F ) :   1.1332
B( 74-C ,103-H ) :   1.0077 B( 77-C , 78-C ) :   1.4593 B( 77-C ,104-H ) :   0.9932
B( 78-C , 79-C ) :   0.9935 B( 79-C , 80-C ) :   1.6171 B( 80-C , 81-C ) :   1.1735
B( 80-C , 83-C ) :   1.1342 B( 81-C , 82-N ) :   2.9984 B( 83-C , 84-N ) :   2.9787

-----------------------------------------------------------------------------
         ABSORPTION SPECTRUM VIA TRANSITION ELECTRIC DIPOLE MOMENTS
-----------------------------------------------------------------------------
State   Energy  Wavelength   fosc         T2         TX        TY        TZ
        (cm-1)    (nm)                  (au**2)     (au)      (au)      (au)
-----------------------------------------------------------------------------
   0    6382.4   1566.8   0.836255477  43.13507  -1.77252  -6.30257   0.52049
   1   14743.6    678.3   0.058002614   1.29515  -0.51624   0.38019   0.94027
   2   15598.3    641.1   0.007397051   0.15612   0.04780   0.24077   0.30962
   3   15759.7    634.5   0.041494498   0.86680  -0.15403  -0.88016  -0.26150
   4   17174.0    582.3   1.048054075  20.09032  -0.49329  -4.45499  -0.00259
   5   18407.8    543.2   0.898101128  16.06199   1.50894   3.25398  -1.78793
   6   22166.7    451.1   0.120791087   1.79394  -0.29330  -1.30404   0.08604
   7   22572.2    443.0   0.037999646   0.55422   0.30157   0.52927   0.42795
   8   23472.8    426.0   0.007243757   0.10160  -0.12611   0.27838  -0.09054
   9   24069.4    415.5   0.037162061   0.50829  -0.24639   0.32421   0.58521
  10   24673.7    405.3   0.023870574   0.31850   0.13666   0.43978   0.32621
  11   24761.1    403.9   0.004404001   0.05855   0.18231   0.13949   0.07654
  12   25115.8    398.2   0.020146363   0.26407   0.19499   0.15635  -0.44901
  13   25151.8    397.6   0.016911702   0.22136  -0.01949   0.33469  -0.33009
  14   25864.9    386.6   0.096572574   1.22919   0.04662   0.59421  -0.93484
  15   25966.4    385.1   0.235559660   2.98651   0.96717   1.43216  -0.00273
  16   26683.8    374.8   0.127261942   1.57010  -0.19754  -1.23144   0.12093
  17   27081.2    369.3   0.030972505   0.37652  -0.20971  -0.19049   0.54429
  18   27579.2    362.6   0.003104300   0.03706  -0.02274   0.17902  -0.06702
  19   27709.9    360.9   0.019917592   0.23663  -0.25810  -0.25644   0.32289
  20   28007.4    357.0   0.002089511   0.02456   0.12154   0.08160   0.05595
  21   28253.9    353.9   0.041323796   0.48150  -0.33425  -0.54222  -0.27528
  22   28616.1    349.5   0.019107770   0.21982  -0.16764  -0.20036   0.38933
  23   29006.7    344.7   0.002256947   0.02562   0.06863   0.05090   0.13533
  24   29501.7    339.0   0.085705810   0.95640  -0.42937  -0.75068  -0.45663
  25   30081.9    332.4   0.129141632   1.41331  -0.39867  -1.11985   0.01720
  26   30147.8    331.7   0.287806094   3.14282   0.59994   1.61679  -0.41095
  27   30717.4    325.5   0.167600065   1.79625  -0.38356  -0.64528  -1.11029
  28   30929.5    323.3   0.169759900   1.80691   0.09605   0.16474   1.33062
  29   31242.0    320.1   0.131539969   1.38610  -0.09231  -0.65210   0.97588
  30   31347.5    319.0   0.333444332   3.50184  -0.59775   0.01002   1.77326
  31   31804.9    314.4   0.008414659   0.08710   0.05999   0.28037   0.06994
  32   31954.0    313.0   0.056237972   0.57940   0.00766   0.40764   0.64279
  33   32118.6    311.3   0.000289162   0.00296   0.05001   0.00909  -0.01949
  34   32175.7    310.8   0.006814823   0.06973  -0.04747  -0.17967   0.18759
  35   32762.3    305.2   0.013090927   0.13154  -0.26137   0.01581  -0.25096
  36   32867.0    304.3   0.136396046   1.36621   0.46347   0.20263  -1.05373
  37   33130.2    301.8   0.051415221   0.51091   0.14771   0.22931  -0.66069
  38   33350.1    299.8   0.025672335   0.25342  -0.08273  -0.31900   0.38055
  39   33482.3    298.7   0.087912322   0.86439  -0.59460  -0.59334  -0.39849
  40   33868.4    295.3   0.002754850   0.02678   0.10179   0.11623   0.05392
  41   33931.7    294.7   0.016095534   0.15616   0.13919  -0.03120  -0.36853
  42   34122.1    293.1   0.016386350   0.15810   0.02363   0.04897   0.39388
  43   34216.5    292.3   0.018969009   0.18251   0.08037   0.15926   0.38818
  44   34238.3    292.1   0.093099203   0.89518  -0.00997  -0.14833   0.93439
  45   34704.7    288.1   0.367135263   3.48267  -0.22949  -0.28600  -1.82981
  46   34942.8    286.2   0.180578361   1.70131  -0.59839  -1.15423  -0.10489
  47   35079.2    285.1   0.015357410   0.14413   0.00074  -0.26328  -0.27351
  48   35142.1    284.6   0.144202053   1.35089   0.25058   0.96927  -0.59043
  49   35297.8    283.3   0.017825702   0.16625  -0.23796  -0.21809   0.24913
  50   35577.9    281.1   0.002582006   0.02389   0.14831   0.04105  -0.01447
  51   35631.9    280.6   0.018931805   0.17492   0.21791   0.32988  -0.13641
  52   35754.0    279.7   0.134810819   1.24130   0.19506   0.16807   1.08397
  53   35994.0    277.8   0.310507223   2.83999   0.73830   0.94317   1.18547
  54   36053.2    277.4   0.199089183   1.81794  -0.77916  -0.90132  -0.63126
  55   36275.2    275.7   0.213862626   1.94089   0.68548   0.95048  -0.75338
  56   36526.4    273.8   0.018585163   0.16751  -0.01884  -0.20974  -0.35095
  57   36974.5    270.5   0.007503607   0.06681   0.17927   0.10975   0.15042
  58   37944.7    263.5   0.004891962   0.04244   0.03788  -0.11737  -0.16502
  59   38286.1    261.2   0.028554877   0.24554  -0.08374  -0.37581  -0.31191
  60   38756.7    258.0   0.121333335   1.03064   0.01742   0.28094   0.97540
  61   39113.0    255.7   0.042805243   0.36029   0.13303   0.02859  -0.58461
  62   39418.3    253.7   0.002377838   0.01986  -0.01995   0.03502  -0.13504
  63   39510.1    253.1   0.191361263   1.59449  -0.12562   0.38626   1.19562
  64   39753.0    251.6   0.090080174   0.74599   0.68192   0.27898  -0.45071
  65   39767.7    251.5   0.181681236   1.50403   0.37047   0.84105  -0.81204
  66   40225.3    248.6   0.052297438   0.42801  -0.01814   0.11688   0.64345
  67   40278.9    248.3   0.041381587   0.33822  -0.31429  -0.42822  -0.23681

FINAL SINGLE POINT ENERGY     -5567.272544458461

DIPOLE MOMENT
-------------
                                X             Y             Z
Electronic contribution:     -1.45873      -3.55856     -17.23898
Nuclear contribution   :     -0.17274       2.35142      14.39242
                        -----------------------------------------
Total Dipole Moment    :     -1.63147      -1.20714      -2.84655
                        -----------------------------------------
Magnitude (a.u.)       :      3.49596
Magnitude (Debye)      :      8.88603

Rotational constants in cm-1:     0.001481     0.000129     0.000120
Rotational constants in MHz :    44.405458     3.870709     3.600262

                             ****ORCA TERMINATED NORMALLY****
TOTAL RUN TIME: 0 days 0 hours 12 minutes 27 seconds 946 msec
