                         Program Version 4.2.0 -  RELEASE  -
|  1> # ORCA input file
|  2> # SCF done       -216.694208022286          0.000595569287
|  3> ! CAM-B3LYP def2-SVP def2/J RIJCOSX Grid4 TightSCF
|  4> %maxcore 5000
|  5> %tddft
|  6>     Mode sTDDFT
|  7>     Ethresh 5.0
|  8>     maxcore 5000
|  9> end
| 10>
| 11> %pal
| 12>   nprocs 6
| 13>   end
| 14> * xyz 0 1
| 15>    C        2.01450        -1.47994         8.07694
| 16>    C        2.83090        -1.94938         9.06672
| 17>    F        3.37093        -1.10330         9.95270
| 18>    C        3.11521        -3.32672         9.16961
| 19>    F        3.91826        -3.75841        10.15070
| 20>    C        2.57896        -4.21515         8.28056
| 21>    C        1.73403        -3.76246         7.24823
| 22>    C        1.44530        -2.37038         7.14335
| 23>    C        0.60113        -1.89306         6.11648
| 24>    C        0.05863        -2.78025         5.22205
| 25>    C        0.34819        -4.16910         5.33747
| 26>    C        1.16634        -4.65778         6.31549
| 27>    C       -0.35442        -4.90698         4.26926
| 28>    O       -0.21216        -6.07105         3.97464
| 29>    C       -1.20261        -3.89491         3.58096
| 30>    C       -0.83178        -2.57584         4.08467
| 31>    C       -1.21863        -1.36676         3.58039
| 32>    C       -2.03065        -1.18555         2.43881
| 33>    N       -2.67014        -0.95924         1.51318
| 34>    C       -0.81977        -0.12233         4.11643
| 35>    N       -0.52836         0.91597         4.50798
| 36>    C       -2.15366        -4.19334         2.67583
| 37>    C       -2.60740        -5.53345         2.32358
| 38>    C       -3.13191        -6.39939         3.29712
| 39>    O       -3.09471        -5.99169         4.60845
| 40>    C       -2.57794        -6.93302         5.54122
| 41>    C       -3.74853        -7.59154         2.89043
| 42>    O       -4.41016        -8.40640         3.77831
| 43>    C       -5.52219        -7.79905         4.42478
| 44>    C       -3.64039        -8.00418         1.55608
| 45>    C       -3.02649        -7.17808         0.62217
| 46>    C       -2.59130        -5.92380         0.98798
| 47>    C       -4.14965        -9.31501         1.13167
| 48>    C       -5.49101        -9.69397         1.22982
| 49>    C       -5.94048       -11.00570         0.83828
| 50>    N       -7.25861       -11.31523         0.92275
| 51>    C       -8.07916       -10.42744         1.36065
| 52>    C       -7.63660        -9.12296         1.73444
| 53>    N       -6.39829        -8.78055         1.66165
| 54>    F       -8.50786        -8.21077         2.16575
| 55>    F       -9.36585       -10.75415         1.45294
| 56>    C       -5.06334       -11.96831         0.32700
| 57>    C       -3.73120       -11.57137         0.16576
| 58>    C       -3.27932       -10.25583         0.56902
| 59>    N       -1.96718       -10.09709         0.34751
| 60>    S       -1.38305       -11.43925        -0.28801
| 61>    N       -2.72575       -12.30678        -0.32898
| 62>    C       -5.52749       -13.29860        -0.07105
| 63>    C       -6.26314       -14.09047         0.82649
| 64>    O       -6.39813       -13.63260         2.10298
| 65>    C       -7.66986       -13.74494         2.72207
| 66>    C       -6.75090       -15.32782         0.39806
| 67>    O       -7.39311       -16.17916         1.28299
| 68>    C       -6.49641       -16.88143         2.12503
| 69>    C       -6.56446       -15.74525        -0.93288
| 70>    C       -5.77546       -14.96810        -1.78190
| 71>    C       -5.25704       -13.76889        -1.35133
| 72>    C       -7.12378       -16.98607        -1.41420
| 73>    C       -8.30327       -17.55016        -1.07422
| 74>    C       -8.55579       -18.98882        -1.37316
| 75>    O       -7.93206       -19.69273        -2.13185
| 76>    C       -9.67810       -19.37164        -0.49244
| 77>    C      -10.22368       -20.60739        -0.29193
| 78>    C      -11.28501       -20.74890         0.62914
| 79>    C      -11.75483       -19.60300         1.33518
| 80>    C      -12.81005       -19.75273         2.25813
| 81>    C      -13.37443       -20.97949         2.46630
| 82>    C      -12.91037       -22.11141         1.76573
| 83>    C      -11.88746       -22.00006         0.86661
| 84>    F      -13.48233       -23.30191         1.99103
| 85>    F      -14.37803       -21.11921         3.34230
| 86>    C      -11.17412       -18.33570         1.10372
| 87>    C      -10.15556       -18.21826         0.19490
| 88>    C       -9.41367       -17.05359        -0.27650
| 89>    C       -9.81726       -15.75342        -0.16552
| 90>    C       -9.22927       -14.68208        -0.87185
| 91>    N       -8.84351       -13.78626        -1.47631
| 92>    C      -10.91505       -15.34228         0.61865
| 93>    N      -11.78478       -14.96547         1.26570
| 94>    H        1.80790        -0.42310         8.01158
| 95>    H        2.80705        -5.26550         8.37267
| 96>    H        0.40024        -0.83520         6.06538
| 97>    H        1.37442        -5.71517         6.37880
| 98>    H       -2.66587        -3.39486         2.15261
| 99>    H       -1.58906        -7.27526         5.22694
|100>    H       -3.22586        -7.80081         5.66992
|101>    H       -2.49915        -6.39008         6.48224
|102>    H       -6.28007        -7.51985         3.68972
|103>    H       -5.24128        -6.91080         4.99498
|104>    H       -5.92113        -8.55612         5.09789
|105>    H       -2.94839        -7.50602        -0.40202
|106>    H       -2.18080        -5.25134         0.25039
|107>    H       -8.46554       -13.46904         2.02728
|108>    H       -7.65020       -13.03886         3.55160
|109>    H       -7.86044       -14.74756         3.10983
|110>    H       -5.84331       -16.20107         2.67907
|111>    H       -5.87824       -17.57016         1.53863
|112>    H       -7.11337       -17.44889         2.81997
|113>    H       -5.61097       -15.30166        -2.79454
|114>    H       -4.66585       -13.16115        -2.01724
|115>    H       -6.50459       -17.56091        -2.09557
|116>    H       -9.85065       -21.46547        -0.83024
|117>    H      -13.18019       -18.89615         2.79950
|118>    H      -11.54385       -22.87554         0.33825
|119>    H      -11.54387       -17.48668         1.65602
|120> *
|121>
|122>                          ****END OF INPUT****

CARTESIAN COORDINATES (ANGSTROEM)
---------------------------------
  C      2.014500   -1.479940    8.076940
  C      2.830900   -1.949380    9.066720
  F      3.370930   -1.103300    9.952700
  C      3.115210   -3.326720    9.169610
  F      3.918260   -3.758410   10.150700
  C      2.578960   -4.215150    8.280560
  C      1.734030   -3.762460    7.248230
  C      1.445300   -2.370380    7.143350
  C      0.601130   -1.893060    6.116480
  C      0.058630   -2.780250    5.222050
  C      0.348190   -4.169100    5.337470
  C      1.166340   -4.657780    6.315490
  C     -0.354420   -4.906980    4.269260
  O     -0.212160   -6.071050    3.974640
  C     -1.202610   -3.894910    3.580960
  C     -0.831780   -2.575840    4.084670
  C     -1.218630   -1.366760    3.580390
  C     -2.030650   -1.185550    2.438810
  N     -2.670140   -0.959240    1.513180
  C     -0.819770   -0.122330    4.116430
  N     -0.528360    0.915970    4.507980
  C     -2.153660   -4.193340    2.675830
  C     -2.607400   -5.533450    2.323580
  C     -3.131910   -6.399390    3.297120
  O     -3.094710   -5.991690    4.608450
  C     -2.577940   -6.933020    5.541220
  C     -3.748530   -7.591540    2.890430
  O     -4.410160   -8.406400    3.778310
  C     -5.522190   -7.799050    4.424780
  C     -3.640390   -8.004180    1.556080
  C     -3.026490   -7.178080    0.622170
  C     -2.591300   -5.923800    0.987980
  C     -4.149650   -9.315010    1.131670
  C     -5.491010   -9.693970    1.229820
  C     -5.940480  -11.005700    0.838280
  N     -7.258610  -11.315230    0.922750
  C     -8.079160  -10.427440    1.360650
  C     -7.636600   -9.122960    1.734440
  N     -6.398290   -8.780550    1.661650
  F     -8.507860   -8.210770    2.165750
  F     -9.365850  -10.754150    1.452940
  C     -5.063340  -11.968310    0.327000
  C     -3.731200  -11.571370    0.165760
  C     -3.279320  -10.255830    0.569020
  N     -1.967180  -10.097090    0.347510
  S     -1.383050  -11.439250   -0.288010
  N     -2.725750  -12.306780   -0.328980
  C     -5.527490  -13.298600   -0.071050
  C     -6.263140  -14.090470    0.826490
  O     -6.398130  -13.632600    2.102980
  C     -7.669860  -13.744940    2.722070
  C     -6.750900  -15.327820    0.398060
  O     -7.393110  -16.179160    1.282990
  C     -6.496410  -16.881430    2.125030
  C     -6.564460  -15.745250   -0.932880
  C     -5.775460  -14.968100   -1.781900
  C     -5.257040  -13.768890   -1.351330
  C     -7.123780  -16.986070   -1.414200
  C     -8.303270  -17.550160   -1.074220
  C     -8.555790  -18.988820   -1.373160
  O     -7.932060  -19.692730   -2.131850
  C     -9.678100  -19.371640   -0.492440
  C    -10.223680  -20.607390   -0.291930
  C    -11.285010  -20.748900    0.629140
  C    -11.754830  -19.603000    1.335180
  C    -12.810050  -19.752730    2.258130
  C    -13.374430  -20.979490    2.466300
  C    -12.910370  -22.111410    1.765730
  C    -11.887460  -22.000060    0.866610
  F    -13.482330  -23.301910    1.991030
  F    -14.378030  -21.119210    3.342300
  C    -11.174120  -18.335700    1.103720
  C    -10.155560  -18.218260    0.194900
  C     -9.413670  -17.053590   -0.276500
  C     -9.817260  -15.753420   -0.165520
  C     -9.229270  -14.682080   -0.871850
  N     -8.843510  -13.786260   -1.476310
  C    -10.915050  -15.342280    0.618650
  N    -11.784780  -14.965470    1.265700
  H      1.807900   -0.423100    8.011580
  H      2.807050   -5.265500    8.372670
  H      0.400240   -0.835200    6.065380
  H      1.374420   -5.715170    6.378800
  H     -2.665870   -3.394860    2.152610
  H     -1.589060   -7.275260    5.226940
  H     -3.225860   -7.800810    5.669920
  H     -2.499150   -6.390080    6.482240
  H     -6.280070   -7.519850    3.689720
  H     -5.241280   -6.910800    4.994980
  H     -5.921130   -8.556120    5.097890
  H     -2.948390   -7.506020   -0.402020
  H     -2.180800   -5.251340    0.250390
  H     -8.465540  -13.469040    2.027280
  H     -7.650200  -13.038860    3.551600
  H     -7.860440  -14.747560    3.109830
  H     -5.843310  -16.201070    2.679070
  H     -5.878240  -17.570160    1.538630
  H     -7.113370  -17.448890    2.819970
  H     -5.610970  -15.301660   -2.794540
  H     -4.665850  -13.161150   -2.017240
  H     -6.504590  -17.560910   -2.095570
  H     -9.850650  -21.465470   -0.830240
  H    -13.180190  -18.896150    2.799500
  H    -11.543850  -22.875540    0.338250
  H    -11.543870  -17.486680    1.656020

 Total Charge           Charge          ....    0
 Multiplicity           Mult            ....    1
 Number of Electrons    NEL             ....  548
 Basis Dimension        Dim             .... 1240

ORBITAL ENERGIES
----------------

  NO   OCC          E(Eh)            E(eV)
   0   2.0000     -89.037265     -2422.8272
   1   2.0000     -24.811615      -675.1584
   2   2.0000     -24.808954      -675.0860
   3   2.0000     -24.802759      -674.9174
   4   2.0000     -24.801598      -674.8858
   5   2.0000     -24.799096      -674.8177
   6   2.0000     -24.798487      -674.8011
   7   2.0000     -19.248569      -523.7802
   8   2.0000     -19.244566      -523.6713
   9   2.0000     -19.243349      -523.6381
  10   2.0000     -19.238562      -523.5079
  11   2.0000     -19.222226      -523.0634
  12   2.0000     -19.216861      -522.9174
  13   2.0000     -14.447138      -393.1266
  14   2.0000     -14.445119      -393.0717
  15   2.0000     -14.442860      -393.0102
  16   2.0000     -14.442788      -393.0082
  17   2.0000     -14.421250      -392.4222
  18   2.0000     -14.421022      -392.4159
  19   2.0000     -14.416216      -392.2852
  20   2.0000     -14.409686      -392.1075
  21   2.0000     -10.424480      -283.6645
  22   2.0000     -10.423405      -283.6353
  23   2.0000     -10.386278      -282.6250
  24   2.0000     -10.385375      -282.6004
  25   2.0000     -10.382108      -282.5115
  26   2.0000     -10.381759      -282.5020
  27   2.0000     -10.372290      -282.2444
  28   2.0000     -10.367640      -282.1178
  29   2.0000     -10.349513      -281.6246
  30   2.0000     -10.346957      -281.5550
  31   2.0000     -10.340484      -281.3789
  32   2.0000     -10.339947      -281.3643
  33   2.0000     -10.338723      -281.3310
  34   2.0000     -10.337164      -281.2885
  35   2.0000     -10.336903      -281.2814
  36   2.0000     -10.336433      -281.2686
  37   2.0000     -10.335829      -281.2522
  38   2.0000     -10.332470      -281.1608
  39   2.0000     -10.331508      -281.1346
  40   2.0000     -10.330810      -281.1156
  41   2.0000     -10.327634      -281.0292
  42   2.0000     -10.323423      -280.9146
  43   2.0000     -10.323209      -280.9088
  44   2.0000     -10.318645      -280.7846
  45   2.0000     -10.318069      -280.7689
  46   2.0000     -10.315703      -280.7045
  47   2.0000     -10.315302      -280.6936
  48   2.0000     -10.314451      -280.6705
  49   2.0000     -10.313779      -280.6522
  50   2.0000     -10.312653      -280.6216
  51   2.0000     -10.311473      -280.5895
  52   2.0000     -10.311460      -280.5891
  53   2.0000     -10.311074      -280.5786
  54   2.0000     -10.310325      -280.5582
  55   2.0000     -10.309537      -280.5368
  56   2.0000     -10.308033      -280.4958
  57   2.0000     -10.307837      -280.4905
  58   2.0000     -10.307472      -280.4806
  59   2.0000     -10.305738      -280.4334
  60   2.0000     -10.305362      -280.4232
  61   2.0000     -10.304809      -280.4081
  62   2.0000     -10.304808      -280.4081
  63   2.0000     -10.303553      -280.3739
  64   2.0000     -10.302124      -280.3350
  65   2.0000     -10.301956      -280.3305
  66   2.0000     -10.301930      -280.3298
  67   2.0000     -10.301125      -280.3079
  68   2.0000     -10.298147      -280.2268
  69   2.0000     -10.296642      -280.1859
  70   2.0000     -10.294438      -280.1259
  71   2.0000     -10.293986      -280.1136
  72   2.0000     -10.292353      -280.0692
  73   2.0000     -10.289467      -279.9906
  74   2.0000     -10.289084      -279.9802
  75   2.0000     -10.280031      -279.7339
  76   2.0000     -10.278995      -279.7057
  77   2.0000     -10.276077      -279.6263
  78   2.0000     -10.274073      -279.5718
  79   2.0000      -8.128708      -221.1934
  80   2.0000      -6.099613      -165.9789
  81   2.0000      -6.091904      -165.7691
  82   2.0000      -6.091787      -165.7659
  83   2.0000      -1.337919       -36.4066
  84   2.0000      -1.325293       -36.0631
  85   2.0000      -1.323616       -36.0174
  86   2.0000      -1.321727       -35.9660
  87   2.0000      -1.310379       -35.6572
  88   2.0000      -1.306861       -35.5615
  89   2.0000      -1.160596       -31.5814
  90   2.0000      -1.153361       -31.3845
  91   2.0000      -1.138090       -30.9690
  92   2.0000      -1.136821       -30.9345
  93   2.0000      -1.132955       -30.8293
  94   2.0000      -1.132109       -30.8063
  95   2.0000      -1.127357       -30.6769
  96   2.0000      -1.104364       -30.0513
  97   2.0000      -1.030570       -28.0432
  98   2.0000      -1.024581       -27.8803
  99   2.0000      -1.017982       -27.7007
 100   2.0000      -1.009208       -27.4619
 101   2.0000      -1.003443       -27.3051
 102   2.0000      -0.999649       -27.2018
 103   2.0000      -0.991990       -26.9934
 104   2.0000      -0.987375       -26.8679
 105   2.0000      -0.985805       -26.8251
 106   2.0000      -0.980449       -26.6794
 107   2.0000      -0.975507       -26.5449
 108   2.0000      -0.960835       -26.1457
 109   2.0000      -0.952867       -25.9288
 110   2.0000      -0.935454       -25.4550
 111   2.0000      -0.930640       -25.3240
 112   2.0000      -0.911634       -24.8068
 113   2.0000      -0.905506       -24.6401
 114   2.0000      -0.898437       -24.4477
 115   2.0000      -0.895338       -24.3634
 116   2.0000      -0.891353       -24.2550
 117   2.0000      -0.884799       -24.0766
 118   2.0000      -0.874850       -23.8059
 119   2.0000      -0.867586       -23.6082
 120   2.0000      -0.849487       -23.1157
 121   2.0000      -0.846870       -23.0445
 122   2.0000      -0.845078       -22.9957
 123   2.0000      -0.843236       -22.9456
 124   2.0000      -0.840870       -22.8812
 125   2.0000      -0.829017       -22.5587
 126   2.0000      -0.805869       -21.9288
 127   2.0000      -0.802222       -21.8296
 128   2.0000      -0.799291       -21.7498
 129   2.0000      -0.788611       -21.4592
 130   2.0000      -0.780979       -21.2515
 131   2.0000      -0.771988       -21.0069
 132   2.0000      -0.767121       -20.8744
 133   2.0000      -0.765822       -20.8391
 134   2.0000      -0.760732       -20.7006
 135   2.0000      -0.757148       -20.6030
 136   2.0000      -0.752780       -20.4842
 137   2.0000      -0.739381       -20.1196
 138   2.0000      -0.737513       -20.0688
 139   2.0000      -0.727063       -19.7844
 140   2.0000      -0.720554       -19.6073
 141   2.0000      -0.717139       -19.5144
 142   2.0000      -0.711472       -19.3601
 143   2.0000      -0.696837       -18.9619
 144   2.0000      -0.690219       -18.7818
 145   2.0000      -0.687215       -18.7001
 146   2.0000      -0.684534       -18.6271
 147   2.0000      -0.679772       -18.4975
 148   2.0000      -0.677800       -18.4439
 149   2.0000      -0.671112       -18.2619
 150   2.0000      -0.669841       -18.2273
 151   2.0000      -0.662540       -18.0286
 152   2.0000      -0.659304       -17.9406
 153   2.0000      -0.656395       -17.8614
 154   2.0000      -0.650605       -17.7039
 155   2.0000      -0.648498       -17.6465
 156   2.0000      -0.644393       -17.5348
 157   2.0000      -0.643692       -17.5157
 158   2.0000      -0.639060       -17.3897
 159   2.0000      -0.626721       -17.0539
 160   2.0000      -0.620145       -16.8750
 161   2.0000      -0.617396       -16.8002
 162   2.0000      -0.614374       -16.7180
 163   2.0000      -0.612234       -16.6597
 164   2.0000      -0.608182       -16.5495
 165   2.0000      -0.602530       -16.3957
 166   2.0000      -0.601515       -16.3680
 167   2.0000      -0.597780       -16.2664
 168   2.0000      -0.594645       -16.1811
 169   2.0000      -0.589768       -16.0484
 170   2.0000      -0.589041       -16.0286
 171   2.0000      -0.587772       -15.9941
 172   2.0000      -0.586280       -15.9535
 173   2.0000      -0.583333       -15.8733
 174   2.0000      -0.579185       -15.7604
 175   2.0000      -0.576984       -15.7005
 176   2.0000      -0.567888       -15.4530
 177   2.0000      -0.566565       -15.4170
 178   2.0000      -0.565349       -15.3839
 179   2.0000      -0.563676       -15.3384
 180   2.0000      -0.559182       -15.2161
 181   2.0000      -0.557184       -15.1617
 182   2.0000      -0.554897       -15.0995
 183   2.0000      -0.554142       -15.0790
 184   2.0000      -0.552008       -15.0209
 185   2.0000      -0.551287       -15.0013
 186   2.0000      -0.547985       -14.9114
 187   2.0000      -0.547934       -14.9100
 188   2.0000      -0.545172       -14.8349
 189   2.0000      -0.544231       -14.8093
 190   2.0000      -0.543403       -14.7867
 191   2.0000      -0.539942       -14.6926
 192   2.0000      -0.537829       -14.6351
 193   2.0000      -0.537079       -14.6147
 194   2.0000      -0.534422       -14.5423
 195   2.0000      -0.533938       -14.5292
 196   2.0000      -0.530849       -14.4451
 197   2.0000      -0.526361       -14.3230
 198   2.0000      -0.524354       -14.2684
 199   2.0000      -0.521223       -14.1832
 200   2.0000      -0.520304       -14.1582
 201   2.0000      -0.517406       -14.0793
 202   2.0000      -0.515638       -14.0312
 203   2.0000      -0.512826       -13.9547
 204   2.0000      -0.511970       -13.9314
 205   2.0000      -0.510633       -13.8950
 206   2.0000      -0.507405       -13.8072
 207   2.0000      -0.506709       -13.7883
 208   2.0000      -0.504643       -13.7320
 209   2.0000      -0.502692       -13.6789
 210   2.0000      -0.500696       -13.6246
 211   2.0000      -0.497707       -13.5433
 212   2.0000      -0.494413       -13.4537
 213   2.0000      -0.491971       -13.3872
 214   2.0000      -0.485476       -13.2105
 215   2.0000      -0.483164       -13.1476
 216   2.0000      -0.476955       -12.9786
 217   2.0000      -0.475486       -12.9386
 218   2.0000      -0.472265       -12.8510
 219   2.0000      -0.470720       -12.8090
 220   2.0000      -0.469267       -12.7694
 221   2.0000      -0.466469       -12.6933
 222   2.0000      -0.463167       -12.6034
 223   2.0000      -0.461411       -12.5556
 224   2.0000      -0.461259       -12.5515
 225   2.0000      -0.459522       -12.5042
 226   2.0000      -0.455664       -12.3993
 227   2.0000      -0.453706       -12.3460
 228   2.0000      -0.450500       -12.2587
 229   2.0000      -0.449587       -12.2339
 230   2.0000      -0.448365       -12.2006
 231   2.0000      -0.445889       -12.1332
 232   2.0000      -0.440400       -11.9839
 233   2.0000      -0.439254       -11.9527
 234   2.0000      -0.436654       -11.8820
 235   2.0000      -0.434279       -11.8173
 236   2.0000      -0.432411       -11.7665
 237   2.0000      -0.430582       -11.7167
 238   2.0000      -0.428925       -11.6717
 239   2.0000      -0.426075       -11.5941
 240   2.0000      -0.424552       -11.5526
 241   2.0000      -0.422970       -11.5096
 242   2.0000      -0.418619       -11.3912
 243   2.0000      -0.417474       -11.3600
 244   2.0000      -0.414250       -11.2723
 245   2.0000      -0.413223       -11.2444
 246   2.0000      -0.411650       -11.2016
 247   2.0000      -0.406793       -11.0694
 248   2.0000      -0.406046       -11.0491
 249   2.0000      -0.404248       -11.0002
 250   2.0000      -0.401953       -10.9377
 251   2.0000      -0.393636       -10.7114
 252   2.0000      -0.391146       -10.6436
 253   2.0000      -0.390527       -10.6268
 254   2.0000      -0.385693       -10.4952
 255   2.0000      -0.383598       -10.4382
 256   2.0000      -0.374111       -10.1801
 257   2.0000      -0.366079        -9.9615
 258   2.0000      -0.356112        -9.6903
 259   2.0000      -0.353966        -9.6319
 260   2.0000      -0.353240        -9.6122
 261   2.0000      -0.347384        -9.4528
 262   2.0000      -0.340390        -9.2625
 263   2.0000      -0.335786        -9.1372
 264   2.0000      -0.331816        -9.0292
 265   2.0000      -0.322284        -8.7698
 266   2.0000      -0.317364        -8.6359
 267   2.0000      -0.315481        -8.5847
 268   2.0000      -0.307240        -8.3604
 269   2.0000      -0.304039        -8.2733
 270   2.0000      -0.301594        -8.2068
 271   2.0000      -0.297354        -8.0914
 272   2.0000      -0.293899        -7.9974
 273   2.0000      -0.271576        -7.3900
 274   0.0000      -0.097899        -2.6640
 275   0.0000      -0.090856        -2.4723
 276   0.0000      -0.085296        -2.3210
 277   0.0000      -0.061271        -1.6673
 278   0.0000      -0.055264        -1.5038

MULLIKEN ATOMIC CHARGES
-----------------------
   0 C :   -0.106688
   1 C :    0.241793
   2 F :   -0.169492
   3 C :    0.241112
   4 F :   -0.170604
   5 C :   -0.106487
   6 C :    0.116730
   7 C :    0.114058
   8 C :   -0.084965
   9 C :    0.050191
  10 C :    0.001946
  11 C :   -0.084635
  12 C :    0.137626
  13 O :   -0.141113
  14 C :   -0.028402
  15 C :    0.314228
  16 C :   -0.344934
  17 C :   -0.193156
  18 N :    0.163129
  19 C :   -0.183312
  20 N :    0.154980
  21 C :   -0.046942
  22 C :    0.033516
  23 C :    0.134719
  24 O :   -0.345194
  25 C :    0.176293
  26 C :    0.115150
  27 O :   -0.341437
  28 C :    0.178191
  29 C :   -0.046105
  30 C :    0.032934
  31 C :   -0.014261
  32 C :    0.062706
  33 C :   -0.042519
  34 C :   -0.056081
  35 N :    0.024429
  36 C :    0.141084
  37 C :    0.142085
  38 N :    0.011127
  39 F :   -0.147163
  40 F :   -0.141630
  41 C :    0.074273
  42 C :   -0.011063
  43 C :   -0.010737
  44 N :   -0.255313
  45 S :    0.534311
  46 N :   -0.269154
  47 C :   -0.043140
  48 C :    0.188160
  49 O :   -0.326050
  50 C :    0.190872
  51 C :    0.034918
  52 O :   -0.361268
  53 C :    0.198623
  54 C :    0.075944
  55 C :   -0.014437
  56 C :    0.038491
  57 C :    0.003228
  58 C :   -0.116094
  59 C :    0.136613
  60 O :   -0.138463
  61 C :    0.005561
  62 C :   -0.081608
  63 C :    0.110506
  64 C :    0.111487
  65 C :   -0.106792
  66 C :    0.241396
  67 C :    0.238232
  68 C :   -0.101388
  69 F :   -0.172009
  70 F :   -0.171715
  71 C :   -0.082225
  72 C :    0.035263
  73 C :    0.323750
  74 C :   -0.316191
  75 C :   -0.208911
  76 N :    0.183030
  77 C :   -0.191953
  78 N :    0.148599
  79 H :    0.008936
  80 H :    0.000336
  81 H :   -0.004182
  82 H :   -0.011215
  83 H :    0.043633
  84 H :    0.040218
  85 H :    0.031731
  86 H :    0.020577
  87 H :    0.032825
  88 H :    0.029995
  89 H :    0.024820
  90 H :   -0.024915
  91 H :   -0.018005
  92 H :    0.037795
  93 H :    0.022630
  94 H :    0.018040
  95 H :    0.030965
  96 H :    0.019236
  97 H :    0.036282
  98 H :   -0.020493
  99 H :   -0.019935
 100 H :    0.025025
 101 H :   -0.009949
 102 H :    0.005166
 103 H :   -0.000658
 104 H :   -0.006510
Sum of atomic charges:   -0.0000000

LOEWDIN ATOMIC CHARGES
----------------------
   0 C :   -0.028621
   1 C :    0.067218
   2 F :   -0.047471
   3 C :    0.068746
   4 F :   -0.048171
   5 C :   -0.033801
   6 C :   -0.007812
   7 C :   -0.005966
   8 C :    0.019305
   9 C :   -0.022488
  10 C :   -0.052369
  11 C :    0.027993
  12 C :    0.090886
  13 O :   -0.126512
  14 C :   -0.076592
  15 C :    0.077867
  16 C :   -0.130448
  17 C :   -0.020409
  18 N :   -0.042897
  19 C :   -0.016993
  20 N :   -0.048540
  21 C :    0.094882
  22 C :   -0.043337
  23 C :    0.043621
  24 O :   -0.124278
  25 C :    0.072257
  26 C :    0.037490
  27 O :   -0.126850
  28 C :    0.072155
  29 C :   -0.020707
  30 C :   -0.003917
  31 C :   -0.012124
  32 C :   -0.006224
  33 C :   -0.005327
  34 C :   -0.001630
  35 N :   -0.023899
  36 C :    0.057091
  37 C :    0.057223
  38 N :   -0.031652
  39 F :   -0.033373
  40 F :   -0.028406
  41 C :   -0.010070
  42 C :   -0.044570
  43 C :   -0.044809
  44 N :   -0.285914
  45 S :    0.677888
  46 N :   -0.293564
  47 C :   -0.015033
  48 C :    0.051588
  49 O :   -0.110943
  50 C :    0.076566
  51 C :    0.023028
  52 O :   -0.125584
  53 C :    0.078995
  54 C :   -0.048284
  55 C :   -0.005289
  56 C :    0.009380
  57 C :    0.076275
  58 C :   -0.080958
  59 C :    0.083494
  60 O :   -0.140097
  61 C :   -0.054848
  62 C :    0.029775
  63 C :   -0.010234
  64 C :   -0.005921
  65 C :   -0.030810
  66 C :    0.066811
  67 C :    0.066233
  68 C :   -0.032934
  69 F :   -0.049722
  70 F :   -0.049070
  71 C :    0.013077
  72 C :   -0.017308
  73 C :    0.078028
  74 C :   -0.126552
  75 C :   -0.023624
  76 N :   -0.040324
  77 C :   -0.015766
  78 N :   -0.056085
  79 H :    0.048349
  80 H :    0.044929
  81 H :    0.040404
  82 H :    0.039393
  83 H :    0.049272
  84 H :    0.015524
  85 H :    0.011681
  86 H :    0.020836
  87 H :    0.011410
  88 H :    0.011552
  89 H :    0.021403
  90 H :    0.031495
  91 H :    0.032997
  92 H :    0.018120
  93 H :    0.020959
  94 H :    0.010481
  95 H :    0.017363
  96 H :    0.015710
  97 H :    0.024592
  98 H :    0.032930
  99 H :    0.033467
 100 H :    0.046961
 101 H :    0.040319
 102 H :    0.047055
 103 H :    0.044743
 104 H :    0.039309

  Mayer bond orders larger than 0.100000
B(  0-C ,  1-C ) :   1.4448 B(  0-C ,  5-C ) :   0.1086 B(  0-C ,  7-C ) :   1.1843
B(  0-C , 79-H ) :   1.0069 B(  1-C ,  2-F ) :   1.1369 B(  1-C ,  3-C ) :   1.1874
B(  3-C ,  4-F ) :   1.1346 B(  3-C ,  5-C ) :   1.4458 B(  5-C ,  6-C ) :   1.1911
B(  5-C , 80-H ) :   1.0071 B(  6-C ,  7-C ) :   1.2531 B(  6-C , 11-C ) :   1.1963
B(  7-C ,  8-C ) :   1.2253 B(  8-C ,  9-C ) :   1.4394 B(  8-C , 81-H ) :   0.9900
B(  9-C , 10-C ) :   1.2194 B(  9-C , 15-C ) :   0.9977 B( 10-C , 11-C ) :   1.4664
B( 10-C , 12-C ) :   0.9320 B( 11-C , 82-H ) :   1.0152 B( 12-C , 13-O ) :   2.2132
B( 12-C , 14-C ) :   0.9261 B( 14-C , 15-C ) :   1.0314 B( 14-C , 21-C ) :   1.7632
B( 15-C , 16-C ) :   1.6620 B( 16-C , 17-C ) :   1.1437 B( 16-C , 19-C ) :   1.1378
B( 17-C , 18-N ) :   2.9791 B( 19-C , 20-N ) :   2.9698 B( 21-C , 22-C ) :   0.9855
B( 21-C , 83-H ) :   0.9363 B( 22-C , 23-C ) :   1.3789 B( 22-C , 31-C ) :   1.3517
B( 23-C , 24-O ) :   1.1463 B( 23-C , 26-C ) :   1.3091 B( 24-O , 25-C ) :   0.9177
B( 25-C , 84-H ) :   0.9583 B( 25-C , 85-H ) :   0.9637 B( 25-C , 86-H ) :   0.9820
B( 26-C , 27-O ) :   1.1563 B( 26-C , 29-C ) :   1.3989 B( 27-O , 28-C ) :   0.9206
B( 28-C , 87-H ) :   0.9587 B( 28-C , 88-H ) :   0.9627 B( 28-C , 89-H ) :   0.9829
B( 29-C , 30-C ) :   1.3884 B( 29-C , 32-C ) :   0.9181 B( 30-C , 31-C ) :   1.3478
B( 30-C , 90-H ) :   0.9992 B( 31-C , 91-H ) :   1.0017 B( 32-C , 33-C ) :   1.4008
B( 32-C , 41-C ) :   0.1455 B( 32-C , 43-C ) :   1.2974 B( 33-C , 34-C ) :   1.0906
B( 33-C , 38-N ) :   1.4035 B( 34-C , 35-N ) :   1.3982 B( 34-C , 41-C ) :   1.3974
B( 35-N , 36-C ) :   1.7037 B( 36-C , 37-C ) :   1.0854 B( 36-C , 40-F ) :   1.1602
B( 37-C , 38-N ) :   1.6973 B( 37-C , 39-F ) :   1.1489 B( 41-C , 42-C ) :   1.2819
B( 41-C , 47-C ) :   0.9300 B( 42-C , 43-C ) :   1.0988 B( 42-C , 46-N ) :   1.4953
B( 43-C , 44-N ) :   1.5001 B( 44-N , 45-S ) :   1.3025 B( 44-N , 46-N ) :   0.1628
B( 45-S , 46-N ) :   1.2950 B( 47-C , 48-C ) :   1.3881 B( 47-C , 54-C ) :   0.1036
B( 47-C , 56-C ) :   1.3915 B( 48-C , 49-O ) :   1.1895 B( 48-C , 51-C ) :   1.3181
B( 49-O , 50-C ) :   0.9285 B( 50-C , 92-H ) :   0.9662 B( 50-C , 93-H ) :   0.9792
B( 50-C , 94-H ) :   0.9688 B( 51-C , 52-O ) :   1.0779 B( 51-C , 54-C ) :   1.3314
B( 52-O , 53-C ) :   0.9334 B( 53-C , 95-H ) :   0.9682 B( 53-C , 96-H ) :   0.9678
B( 53-C , 97-H ) :   0.9808 B( 54-C , 55-C ) :   1.3179 B( 54-C , 57-C ) :   1.0242
B( 55-C , 56-C ) :   1.3455 B( 55-C , 98-H ) :   1.0031 B( 56-C , 99-H ) :   0.9959
B( 57-C , 58-C ) :   1.7383 B( 57-C ,100-H ) :   0.9455 B( 58-C , 59-C ) :   0.9360
B( 58-C , 73-C ) :   1.0015 B( 59-C , 60-O ) :   2.2805 B( 59-C , 61-C ) :   0.9137
B( 61-C , 62-C ) :   1.4706 B( 61-C , 72-C ) :   1.2200 B( 62-C , 63-C ) :   1.1965
B( 62-C ,101-H ) :   1.0162 B( 63-C , 64-C ) :   1.2555 B( 63-C , 68-C ) :   1.1918
B( 64-C , 65-C ) :   1.1868 B( 64-C , 71-C ) :   1.2152 B( 65-C , 66-C ) :   1.4442
B( 65-C , 68-C ) :   0.1088 B( 65-C ,102-H ) :   1.0072 B( 66-C , 67-C ) :   1.1891
B( 66-C , 70-F ) :   1.1335 B( 67-C , 68-C ) :   1.4449 B( 67-C , 69-F ) :   1.1334
B( 68-C ,103-H ) :   1.0070 B( 71-C , 72-C ) :   1.4518 B( 71-C ,104-H ) :   0.9944
B( 72-C , 73-C ) :   1.0087 B( 73-C , 74-C ) :   1.6745 B( 74-C , 75-C ) :   1.1569
B( 74-C , 77-C ) :   1.1460 B( 75-C , 76-N ) :   3.0003 B( 77-C , 78-N ) :   2.9729

-----------------------------------------------------------------------------
         ABSORPTION SPECTRUM VIA TRANSITION ELECTRIC DIPOLE MOMENTS
-----------------------------------------------------------------------------
State   Energy  Wavelength   fosc         T2         TX        TY        TZ
        (cm-1)    (nm)                  (au**2)     (au)      (au)      (au)
-----------------------------------------------------------------------------
   0   20392.4    490.4   0.600356208   9.69207  -1.47458  -2.63810  -0.74707
   1   23594.0    423.8   0.075022934   1.04681   0.44574   0.84417   0.36809
   2   24357.4    410.6   0.137807490   1.86259   1.17862   0.67920  -0.11014
   3   25119.8    398.1   0.053627003   0.70282   0.41011   0.51622   0.51783
   4   25433.9    393.2   0.001756537   0.02274  -0.10434  -0.10670   0.02155
   5   26925.9    371.4   0.023029835   0.28158  -0.10165  -0.47459  -0.21449
   6   26999.5    370.4   0.033081360   0.40337  -0.24493  -0.42965  -0.39847
   7   28212.6    354.5   0.017499092   0.20420   0.17848   0.29360  -0.29350
   8   28660.7    348.9   0.087225891   1.00192   0.15798   0.94268  -0.29718
   9   28954.1    345.4   0.005198783   0.05911  -0.00886   0.24287  -0.00694
  10   29321.6    341.0   0.098634357   1.10743  -0.56452   0.20709  -0.86363
  11   29745.1    336.2   0.026341711   0.29154  -0.31765  -0.27776   0.33689
  12   29988.5    333.5   0.011623218   0.12760   0.16882  -0.18302   0.25613
  13   30385.2    329.1   0.006612515   0.07164  -0.17119  -0.13824   0.15241
  14   30465.1    328.2   0.041289347   0.44618   0.04324  -0.38677   0.54288
  15   30770.6    325.0   0.041868647   0.44795   0.61372  -0.24693   0.10158
  16   31692.7    315.5   0.040373980   0.41939   0.40281  -0.50670  -0.01968
  17   32061.4    311.9   0.134553391   1.38162   0.65173   0.56905   0.79564
  18   32681.9    306.0   0.456668150   4.60012   2.04099  -0.17436  -0.63567
  19   33054.1    302.5   0.177148043   1.76436  -0.97868  -0.88006   0.17896
  20   33277.5    300.5   0.095766978   0.94742  -0.28814  -0.91960  -0.13688
  21   33591.8    297.7   0.058976813   0.57799   0.48080   0.46392   0.36277
  22   33647.5    297.2   0.049644142   0.48572  -0.18755  -0.64608   0.18201
  23   34105.7    293.2   0.332097004   3.20563  -0.69116  -1.65068   0.05624
  24   34129.7    293.0   0.230298895   2.22144  -0.62341   1.01573  -0.89504
  25   34525.2    289.6   0.028390006   0.27071  -0.15085  -0.44762   0.21816
  26   34912.6    286.4   0.014054944   0.13253   0.13603   0.26958   0.20336
  27   35333.3    283.0   0.269551020   2.51149  -0.43347  -1.49030   0.32030
  28   35500.4    281.7   0.797650127   7.39698   1.58076  -0.94734   2.00018
  29   35905.6    278.5   0.408273052   3.74338  -0.76266  -1.69544   0.53592
  30   36027.1    277.6   0.004711276   0.04305  -0.02642  -0.15679   0.13331
  31   36271.5    275.7   0.000592070   0.00537   0.05267   0.02753  -0.04291
  32   36803.3    271.7   0.172249707   1.54081  -0.95774  -0.33028  -0.71726
  33   36881.4    271.1   0.004967474   0.04434   0.18234   0.10233   0.02493
  34   37065.3    269.8   0.005883995   0.05226  -0.12583   0.07165  -0.17690
  35   37494.0    266.7   0.009618727   0.08446  -0.14632  -0.16303  -0.19097
  36   37945.3    263.5   0.006650846   0.05770  -0.17085  -0.14899   0.07947
  37   38125.1    262.3   0.145295697   1.25464  -0.24010  -1.09349  -0.03568
  38   38326.0    260.9   0.046233013   0.39713  -0.42366  -0.00121  -0.46653
  39   38424.9    260.2   0.007477741   0.06407   0.06515  -0.23335   0.07329
  40   39007.6    256.4   0.006269507   0.05291  -0.05203  -0.22337  -0.01762
  41   39222.9    255.0   0.039886435   0.33478  -0.02100   0.57809   0.01253
  42   39332.9    254.2   0.070668321   0.59149   0.14525   0.65515   0.37573
  43   39564.4    252.8   0.004746649   0.03950   0.18811   0.00123  -0.06411
  44   39847.8    251.0   0.040921297   0.33808   0.25146   0.42564   0.30608
  45   40270.3    248.3   0.028441521   0.23251   0.17113   0.45016   0.02411

FINAL SINGLE POINT ENERGY     -4107.665266741012

DIPOLE MOMENT
-------------
                                X             Y             Z
Electronic contribution:     -5.94665       5.93152       2.71680
Nuclear contribution   :      7.54380      -8.52013      -1.36270
                        -----------------------------------------
Total Dipole Moment    :      1.59716      -2.58861       1.35409
                        -----------------------------------------
Magnitude (a.u.)       :      3.32947
Magnitude (Debye)      :      8.46284

Rotational constants in cm-1:     0.002014     0.000229     0.000226
Rotational constants in MHz :    60.369301     6.861911     6.762334

                             ****ORCA TERMINATED NORMALLY****
TOTAL RUN TIME: 0 days 0 hours 11 minutes 21 seconds 605 msec
