                         Program Version 4.2.0 -  RELEASE  -
|  1> # ORCA input file
|  2> # SCF done       -183.384473141770          0.000561768955
|  3> ! CAM-B3LYP def2-SVP def2/J RIJCOSX Grid4 TightSCF
|  4> %maxcore 5000
|  5> %tddft
|  6>     Mode sTDDFT
|  7>     Ethresh 5.0
|  8>     maxcore 5000
|  9> end
| 10>
| 11> %pal
| 12>   nprocs 6
| 13>   end
| 14> * xyz 0 1
| 15>    C        2.21548         3.15868        -3.05103
| 16>    C        2.55395         3.84125        -1.91196
| 17>    C        3.81585         4.43402        -1.70530
| 18>    N        4.82634         4.94115        -1.50705
| 19>    C        1.71294         3.93995        -0.78415
| 20>    N        1.08479         3.99643         0.17460
| 21>    C        3.13169         2.80763        -4.13219
| 22>    C        2.56905         1.72471        -4.86960
| 23>    C        3.22444         1.15673        -5.92351
| 24>    C        4.48742         1.66365        -6.30403
| 25>    C        5.04599         2.75894        -5.58418
| 26>    C        4.34878         3.32143        -4.48986
| 27>    C        6.30154         3.26191        -5.98112
| 28>    C        6.97633         2.70874        -7.03512
| 29>    C        6.42680         1.62852        -7.74152
| 30>    C        5.20907         1.11713        -7.38349
| 31>    C        1.24327         1.39793        -4.31610
| 32>    O        0.49275         0.50653        -4.64743
| 33>    C        0.97948         2.43993        -3.28519
| 34>    C       -0.28380         2.59881        -2.81237
| 35>    C       -0.88002         3.71725        -2.14746
| 36>    C       -0.45543         5.01995        -2.38152
| 37>    C       -1.15602         6.11829        -1.89853
| 38>    C       -2.31082         5.97132        -1.14556
| 39>    C       -2.69995         4.66820        -0.73530
| 40>    C       -3.62252         4.37189         0.27491
| 41>   Si       -4.00727         2.63311        -0.04321
| 42>    C       -2.37073         2.28048        -0.73731
| 43>    C       -1.98567         3.51256        -1.27070
| 44>    C       -3.11937         7.13312        -0.81698
| 45>    C       -2.56460         8.33660        -0.34376
| 46>    C       -3.37504         9.50501        -0.08765
| 47>    N       -2.80879        10.60087         0.45053
| 48>    C       -1.52757        10.60895         0.69834
| 49>    C       -0.71167         9.46157         0.39920
| 50>    N       -1.24194         8.37538        -0.09409
| 51>    C        0.68504         9.51656         0.63509
| 52>    N        1.80956         9.62020         0.82694
| 53>    C       -0.94146        11.77693         1.24735
| 54>    N       -0.42853        12.71259         1.66418
| 55>    C       -4.76089         9.52958        -0.34434
| 56>    C       -5.31595         8.32001        -0.79635
| 57>    C       -4.50878         7.14189        -1.03010
| 58>    N       -5.24060         6.13419        -1.52165
| 59>    S       -6.76255         6.61380        -1.66503
| 60>    N       -6.59607         8.10977        -1.12389
| 61>    C       -5.57306        10.70744        -0.10143
| 62>    C       -6.80832        10.56371         0.52592
| 63>    C       -7.52081        11.65966         0.98499
| 64>    C       -7.02982        12.95862         0.83916
| 65>    C       -5.94383        13.15912        -0.05870
| 66>    C       -5.62354        14.36797        -0.68177
| 67>   Si       -3.90000        14.08642        -1.15523
| 68>    C       -4.16759        12.31787        -1.43812
| 69>    C       -5.16161        12.00666        -0.49956
| 70>    C       -7.63533        14.00408         1.59728
| 71>    C       -7.01169        15.08498         2.15657
| 72>    C       -7.67420        16.15864         2.87545
| 73>    C       -9.02147        16.41458         2.90268
| 74>    C       -9.60629        17.49574         3.59385
| 75>    N      -10.14736        18.35183         4.13527
| 76>    C      -10.01216        15.66560         2.23462
| 77>    N      -10.88011        15.12249         1.71329
| 78>    C       -6.64629        16.97847         3.50596
| 79>    C       -5.37152        16.44943         3.15704
| 80>    C       -5.54649        15.26243         2.30359
| 81>    O       -4.65535        14.55477         1.86969
| 82>    C       -4.20966        17.01031         3.60194
| 83>    C       -4.27087        18.15374         4.43047
| 84>    C       -5.54231        18.68783         4.78733
| 85>    C       -6.72898        18.08153         4.31315
| 86>    C       -5.59205        19.82513         5.61826
| 87>    C       -4.44188        20.40941         6.07514
| 88>    C       -3.19055        19.88301         5.72270
| 89>    C       -3.10677        18.77941         4.91726
| 90>    H        2.78439         0.33098        -6.46278
| 91>    H        4.79155         4.15448        -3.96641
| 92>    H        6.72233         4.09142        -5.43195
| 93>    H        7.93838         3.10029        -7.33014
| 94>    H        6.97285         1.20388        -8.57068
| 95>    H        4.78049         0.28549        -7.92366
| 96>    H       -0.95787         1.78421        -3.06344
| 97>    H        0.39167         5.19361        -3.02954
| 98>    H       -0.82538         7.10798        -2.17248
| 99>    H       -4.22992         5.15242         0.70285
|100>    H       -1.94446         1.36186        -1.10693
|101>    H       -7.17671         9.57185         0.73630
|102>    H       -8.42344        11.50017         1.55765
|103>    H       -6.12844        15.27553        -0.39109
|104>    H       -3.49875        11.55388        -1.80096
|105>    H       -8.68266        13.85361         1.83285
|106>    H       -3.25572        16.58637         3.32503
|107>    H       -7.67571        18.50563         4.60772
|108>    H       -6.55826        20.22699         5.88634
|109>    H       -4.49070        21.28058         6.71119
|110>    H       -2.29303        20.35562         6.09292
|111>    H       -2.14599        18.36868         4.64336
|112> *
|113>
|114>                          ****END OF INPUT****

CARTESIAN COORDINATES (ANGSTROEM)
---------------------------------
  C      2.215480    3.158680   -3.051030
  C      2.553950    3.841250   -1.911960
  C      3.815850    4.434020   -1.705300
  N      4.826340    4.941150   -1.507050
  C      1.712940    3.939950   -0.784150
  N      1.084790    3.996430    0.174600
  C      3.131690    2.807630   -4.132190
  C      2.569050    1.724710   -4.869600
  C      3.224440    1.156730   -5.923510
  C      4.487420    1.663650   -6.304030
  C      5.045990    2.758940   -5.584180
  C      4.348780    3.321430   -4.489860
  C      6.301540    3.261910   -5.981120
  C      6.976330    2.708740   -7.035120
  C      6.426800    1.628520   -7.741520
  C      5.209070    1.117130   -7.383490
  C      1.243270    1.397930   -4.316100
  O      0.492750    0.506530   -4.647430
  C      0.979480    2.439930   -3.285190
  C     -0.283800    2.598810   -2.812370
  C     -0.880020    3.717250   -2.147460
  C     -0.455430    5.019950   -2.381520
  C     -1.156020    6.118290   -1.898530
  C     -2.310820    5.971320   -1.145560
  C     -2.699950    4.668200   -0.735300
  C     -3.622520    4.371890    0.274910
  Si    -4.007270    2.633110   -0.043210
  C     -2.370730    2.280480   -0.737310
  C     -1.985670    3.512560   -1.270700
  C     -3.119370    7.133120   -0.816980
  C     -2.564600    8.336600   -0.343760
  C     -3.375040    9.505010   -0.087650
  N     -2.808790   10.600870    0.450530
  C     -1.527570   10.608950    0.698340
  C     -0.711670    9.461570    0.399200
  N     -1.241940    8.375380   -0.094090
  C      0.685040    9.516560    0.635090
  N      1.809560    9.620200    0.826940
  C     -0.941460   11.776930    1.247350
  N     -0.428530   12.712590    1.664180
  C     -4.760890    9.529580   -0.344340
  C     -5.315950    8.320010   -0.796350
  C     -4.508780    7.141890   -1.030100
  N     -5.240600    6.134190   -1.521650
  S     -6.762550    6.613800   -1.665030
  N     -6.596070    8.109770   -1.123890
  C     -5.573060   10.707440   -0.101430
  C     -6.808320   10.563710    0.525920
  C     -7.520810   11.659660    0.984990
  C     -7.029820   12.958620    0.839160
  C     -5.943830   13.159120   -0.058700
  C     -5.623540   14.367970   -0.681770
  Si    -3.900000   14.086420   -1.155230
  C     -4.167590   12.317870   -1.438120
  C     -5.161610   12.006660   -0.499560
  C     -7.635330   14.004080    1.597280
  C     -7.011690   15.084980    2.156570
  C     -7.674200   16.158640    2.875450
  C     -9.021470   16.414580    2.902680
  C     -9.606290   17.495740    3.593850
  N    -10.147360   18.351830    4.135270
  C    -10.012160   15.665600    2.234620
  N    -10.880110   15.122490    1.713290
  C     -6.646290   16.978470    3.505960
  C     -5.371520   16.449430    3.157040
  C     -5.546490   15.262430    2.303590
  O     -4.655350   14.554770    1.869690
  C     -4.209660   17.010310    3.601940
  C     -4.270870   18.153740    4.430470
  C     -5.542310   18.687830    4.787330
  C     -6.728980   18.081530    4.313150
  C     -5.592050   19.825130    5.618260
  C     -4.441880   20.409410    6.075140
  C     -3.190550   19.883010    5.722700
  C     -3.106770   18.779410    4.917260
  H      2.784390    0.330980   -6.462780
  H      4.791550    4.154480   -3.966410
  H      6.722330    4.091420   -5.431950
  H      7.938380    3.100290   -7.330140
  H      6.972850    1.203880   -8.570680
  H      4.780490    0.285490   -7.923660
  H     -0.957870    1.784210   -3.063440
  H      0.391670    5.193610   -3.029540
  H     -0.825380    7.107980   -2.172480
  H     -4.229920    5.152420    0.702850
  H     -1.944460    1.361860   -1.106930
  H     -7.176710    9.571850    0.736300
  H     -8.423440   11.500170    1.557650
  H     -6.128440   15.275530   -0.391090
  H     -3.498750   11.553880   -1.800960
  H     -8.682660   13.853610    1.832850
  H     -3.255720   16.586370    3.325030
  H     -7.675710   18.505630    4.607720
  H     -6.558260   20.226990    5.886340
  H     -4.490700   21.280580    6.711190
  H     -2.293030   20.355620    6.092920
  H     -2.145990   18.368680    4.643360

 Total Charge           Charge          ....    0
 Multiplicity           Mult            ....    1
 Number of Electrons    NEL             ....  512
 Basis Dimension        Dim             .... 1172

ORBITAL ENERGIES
----------------

  NO   OCC          E(Eh)            E(eV)
   0   2.0000     -89.058952     -2423.4173
   1   2.0000     -66.200488     -1801.4069
   2   2.0000     -66.194569     -1801.2458
   3   2.0000     -19.215803      -522.8886
   4   2.0000     -19.213616      -522.8291
   5   2.0000     -14.467957      -393.6931
   6   2.0000     -14.465699      -393.6317
   7   2.0000     -14.463870      -393.5819
   8   2.0000     -14.462997      -393.5582
   9   2.0000     -14.432924      -392.7398
  10   2.0000     -14.431725      -392.7072
  11   2.0000     -14.416043      -392.2805
  12   2.0000     -14.415377      -392.2624
  13   2.0000     -14.415257      -392.2591
  14   2.0000     -14.413355      -392.2073
  15   2.0000     -10.388226      -282.6780
  16   2.0000     -10.387375      -282.6548
  17   2.0000     -10.366747      -282.0935
  18   2.0000     -10.363947      -282.0173
  19   2.0000     -10.357842      -281.8512
  20   2.0000     -10.356713      -281.8205
  21   2.0000     -10.354679      -281.7652
  22   2.0000     -10.353684      -281.7381
  23   2.0000     -10.344839      -281.4974
  24   2.0000     -10.342613      -281.4368
  25   2.0000     -10.340870      -281.3894
  26   2.0000     -10.339193      -281.3437
  27   2.0000     -10.329127      -281.0698
  28   2.0000     -10.328997      -281.0663
  29   2.0000     -10.325368      -280.9675
  30   2.0000     -10.324297      -280.9384
  31   2.0000     -10.318663      -280.7851
  32   2.0000     -10.318260      -280.7741
  33   2.0000     -10.318165      -280.7715
  34   2.0000     -10.316816      -280.7348
  35   2.0000     -10.316274      -280.7201
  36   2.0000     -10.316026      -280.7133
  37   2.0000     -10.314355      -280.6679
  38   2.0000     -10.312159      -280.6081
  39   2.0000     -10.305443      -280.4254
  40   2.0000     -10.305191      -280.4185
  41   2.0000     -10.304895      -280.4104
  42   2.0000     -10.304891      -280.4103
  43   2.0000     -10.304055      -280.3876
  44   2.0000     -10.303814      -280.3810
  45   2.0000     -10.303471      -280.3717
  46   2.0000     -10.301093      -280.3070
  47   2.0000     -10.300650      -280.2949
  48   2.0000     -10.300460      -280.2898
  49   2.0000     -10.299826      -280.2725
  50   2.0000     -10.299707      -280.2693
  51   2.0000     -10.299387      -280.2606
  52   2.0000     -10.299064      -280.2518
  53   2.0000     -10.298647      -280.2404
  54   2.0000     -10.298323      -280.2316
  55   2.0000     -10.298237      -280.2293
  56   2.0000     -10.296619      -280.1852
  57   2.0000     -10.294610      -280.1306
  58   2.0000     -10.294345      -280.1234
  59   2.0000     -10.294152      -280.1181
  60   2.0000     -10.292511      -280.0735
  61   2.0000     -10.290916      -280.0301
  62   2.0000     -10.287852      -279.9467
  63   2.0000     -10.287433      -279.9353
  64   2.0000     -10.287194      -279.9288
  65   2.0000     -10.286650      -279.9140
  66   2.0000     -10.285125      -279.8725
  67   2.0000     -10.283472      -279.8275
  68   2.0000     -10.283053      -279.8161
  69   2.0000     -10.282641      -279.8049
  70   2.0000     -10.282540      -279.8021
  71   2.0000     -10.262418      -279.2546
  72   2.0000     -10.261385      -279.2265
  73   2.0000     -10.258521      -279.1485
  74   2.0000     -10.250658      -278.9346
  75   2.0000      -8.150068      -221.7746
  76   2.0000      -6.120919      -166.5587
  77   2.0000      -6.113363      -166.3531
  78   2.0000      -6.113110      -166.3462
  79   2.0000      -5.371640      -146.1698
  80   2.0000      -5.365061      -145.9907
  81   2.0000      -3.738902      -101.7407
  82   2.0000      -3.732288      -101.5607
  83   2.0000      -3.730435      -101.5103
  84   2.0000      -3.729230      -101.4775
  85   2.0000      -3.723845      -101.3310
  86   2.0000      -3.722767      -101.3016
  87   2.0000      -1.153447       -31.3869
  88   2.0000      -1.129976       -30.7482
  89   2.0000      -1.127285       -30.6750
  90   2.0000      -1.126535       -30.6546
  91   2.0000      -1.054264       -28.6880
  92   2.0000      -1.019546       -27.7433
  93   2.0000      -1.017836       -27.6967
  94   2.0000      -1.016966       -27.6730
  95   2.0000      -1.010538       -27.4981
  96   2.0000      -1.005056       -27.3490
  97   2.0000      -0.999161       -27.1886
  98   2.0000      -0.998682       -27.1755
  99   2.0000      -0.996488       -27.1158
 100   2.0000      -0.994151       -27.0522
 101   2.0000      -0.992446       -27.0058
 102   2.0000      -0.986098       -26.8331
 103   2.0000      -0.977539       -26.6002
 104   2.0000      -0.971722       -26.4419
 105   2.0000      -0.968142       -26.3445
 106   2.0000      -0.931465       -25.3465
 107   2.0000      -0.926173       -25.2024
 108   2.0000      -0.919802       -25.0291
 109   2.0000      -0.916344       -24.9350
 110   2.0000      -0.911273       -24.7970
 111   2.0000      -0.906455       -24.6659
 112   2.0000      -0.900203       -24.4958
 113   2.0000      -0.893949       -24.3256
 114   2.0000      -0.887667       -24.1547
 115   2.0000      -0.882579       -24.0162
 116   2.0000      -0.878029       -23.8924
 117   2.0000      -0.872152       -23.7325
 118   2.0000      -0.852507       -23.1979
 119   2.0000      -0.841073       -22.8868
 120   2.0000      -0.838068       -22.8050
 121   2.0000      -0.829645       -22.5758
 122   2.0000      -0.825230       -22.4557
 123   2.0000      -0.809648       -22.0317
 124   2.0000      -0.801202       -21.8018
 125   2.0000      -0.797390       -21.6981
 126   2.0000      -0.790695       -21.5159
 127   2.0000      -0.776098       -21.1187
 128   2.0000      -0.767605       -20.8876
 129   2.0000      -0.762920       -20.7601
 130   2.0000      -0.759964       -20.6797
 131   2.0000      -0.759602       -20.6698
 132   2.0000      -0.749376       -20.3916
 133   2.0000      -0.733161       -19.9503
 134   2.0000      -0.718935       -19.5632
 135   2.0000      -0.711103       -19.3501
 136   2.0000      -0.709843       -19.3158
 137   2.0000      -0.703758       -19.1502
 138   2.0000      -0.701095       -19.0778
 139   2.0000      -0.697589       -18.9824
 140   2.0000      -0.694917       -18.9096
 141   2.0000      -0.688343       -18.7308
 142   2.0000      -0.678440       -18.4613
 143   2.0000      -0.676007       -18.3951
 144   2.0000      -0.668129       -18.1807
 145   2.0000      -0.664099       -18.0711
 146   2.0000      -0.660921       -17.9846
 147   2.0000      -0.655644       -17.8410
 148   2.0000      -0.646657       -17.5964
 149   2.0000      -0.635504       -17.2929
 150   2.0000      -0.635293       -17.2872
 151   2.0000      -0.634015       -17.2524
 152   2.0000      -0.625430       -17.0188
 153   2.0000      -0.620829       -16.8936
 154   2.0000      -0.614420       -16.7192
 155   2.0000      -0.608419       -16.5559
 156   2.0000      -0.605708       -16.4822
 157   2.0000      -0.603673       -16.4268
 158   2.0000      -0.600554       -16.3419
 159   2.0000      -0.596637       -16.2353
 160   2.0000      -0.593746       -16.1567
 161   2.0000      -0.588873       -16.0241
 162   2.0000      -0.579377       -15.7657
 163   2.0000      -0.575458       -15.6590
 164   2.0000      -0.566553       -15.4167
 165   2.0000      -0.557119       -15.1600
 166   2.0000      -0.555441       -15.1143
 167   2.0000      -0.551554       -15.0086
 168   2.0000      -0.551030       -14.9943
 169   2.0000      -0.547625       -14.9016
 170   2.0000      -0.543487       -14.7890
 171   2.0000      -0.542890       -14.7728
 172   2.0000      -0.540596       -14.7104
 173   2.0000      -0.535113       -14.5612
 174   2.0000      -0.534586       -14.5468
 175   2.0000      -0.533179       -14.5085
 176   2.0000      -0.524891       -14.2830
 177   2.0000      -0.521575       -14.1928
 178   2.0000      -0.520245       -14.1566
 179   2.0000      -0.518655       -14.1133
 180   2.0000      -0.517703       -14.0874
 181   2.0000      -0.515263       -14.0210
 182   2.0000      -0.513855       -13.9827
 183   2.0000      -0.513005       -13.9596
 184   2.0000      -0.511216       -13.9109
 185   2.0000      -0.508921       -13.8484
 186   2.0000      -0.506500       -13.7826
 187   2.0000      -0.502498       -13.6737
 188   2.0000      -0.502035       -13.6611
 189   2.0000      -0.498029       -13.5521
 190   2.0000      -0.496853       -13.5201
 191   2.0000      -0.495220       -13.4756
 192   2.0000      -0.493883       -13.4392
 193   2.0000      -0.489623       -13.3233
 194   2.0000      -0.488808       -13.3011
 195   2.0000      -0.483969       -13.1695
 196   2.0000      -0.483168       -13.1477
 197   2.0000      -0.479751       -13.0547
 198   2.0000      -0.478436       -13.0189
 199   2.0000      -0.469805       -12.7840
 200   2.0000      -0.465506       -12.6671
 201   2.0000      -0.464375       -12.6363
 202   2.0000      -0.463104       -12.6017
 203   2.0000      -0.457776       -12.4567
 204   2.0000      -0.455344       -12.3906
 205   2.0000      -0.453255       -12.3337
 206   2.0000      -0.449571       -12.2334
 207   2.0000      -0.448212       -12.1965
 208   2.0000      -0.446008       -12.1365
 209   2.0000      -0.445784       -12.1304
 210   2.0000      -0.443765       -12.0755
 211   2.0000      -0.443259       -12.0617
 212   2.0000      -0.442733       -12.0474
 213   2.0000      -0.441482       -12.0133
 214   2.0000      -0.438291       -11.9265
 215   2.0000      -0.437644       -11.9089
 216   2.0000      -0.435511       -11.8508
 217   2.0000      -0.432440       -11.7673
 218   2.0000      -0.431928       -11.7534
 219   2.0000      -0.430927       -11.7261
 220   2.0000      -0.428359       -11.6563
 221   2.0000      -0.426671       -11.6103
 222   2.0000      -0.425680       -11.5834
 223   2.0000      -0.423588       -11.5264
 224   2.0000      -0.420779       -11.4500
 225   2.0000      -0.419287       -11.4094
 226   2.0000      -0.418269       -11.3817
 227   2.0000      -0.417363       -11.3570
 228   2.0000      -0.415262       -11.2998
 229   2.0000      -0.406917       -11.0728
 230   2.0000      -0.405256       -11.0276
 231   2.0000      -0.404564       -11.0087
 232   2.0000      -0.398287       -10.8380
 233   2.0000      -0.395667       -10.7667
 234   2.0000      -0.393232       -10.7004
 235   2.0000      -0.388544       -10.5728
 236   2.0000      -0.382604       -10.4112
 237   2.0000      -0.379862       -10.3366
 238   2.0000      -0.375866       -10.2278
 239   2.0000      -0.368461       -10.0263
 240   2.0000      -0.367589       -10.0026
 241   2.0000      -0.360841        -9.8190
 242   2.0000      -0.355683        -9.6786
 243   2.0000      -0.339810        -9.2467
 244   2.0000      -0.338625        -9.2145
 245   2.0000      -0.329673        -8.9709
 246   2.0000      -0.322325        -8.7709
 247   2.0000      -0.316288        -8.6066
 248   2.0000      -0.312466        -8.5026
 249   2.0000      -0.299496        -8.1497
 250   2.0000      -0.295706        -8.0466
 251   2.0000      -0.291236        -7.9249
 252   2.0000      -0.287076        -7.8117
 253   2.0000      -0.280789        -7.6406
 254   2.0000      -0.259417        -7.0591
 255   2.0000      -0.248248        -6.7552
 256   0.0000      -0.133628        -3.6362
 257   0.0000      -0.113216        -3.0808
 258   0.0000      -0.107524        -2.9259
 259   0.0000      -0.084208        -2.2914
 260   0.0000      -0.079068        -2.1515

MULLIKEN ATOMIC CHARGES
-----------------------
   0 C :    0.263293
   1 C :   -0.334318
   2 C :   -0.176782
   3 N :    0.159707
   4 C :   -0.198560
   5 N :    0.178913
   6 C :    0.035590
   7 C :    0.013194
   8 C :   -0.080535
   9 C :    0.093162
  10 C :    0.092876
  11 C :   -0.082105
  12 C :   -0.018702
  13 C :    0.037716
  14 C :    0.035045
  15 C :   -0.014200
  16 C :    0.139292
  17 O :   -0.144841
  18 C :   -0.115632
  19 C :   -0.005942
  20 C :    0.081549
  21 C :    0.001579
  22 C :    0.032701
  23 C :    0.005602
  24 C :    0.021410
  25 C :   -0.149475
  26 Si:    0.344039
  27 C :   -0.171443
  28 C :    0.003029
  29 C :    0.066418
  30 C :   -0.066702
  31 C :   -0.091784
  32 N :    0.079799
  33 C :   -0.147514
  34 C :   -0.134867
  35 N :    0.068839
  36 C :   -0.201823
  37 N :    0.241230
  38 C :   -0.192393
  39 N :    0.245892
  40 C :    0.093246
  41 C :   -0.009945
  42 C :   -0.016550
  43 N :   -0.255414
  44 S :    0.562877
  45 N :   -0.273065
  46 C :   -0.007326
  47 C :    0.018201
  48 C :   -0.002032
  49 C :    0.096222
  50 C :    0.003599
  51 C :   -0.166796
  52 Si:    0.368906
  53 C :   -0.166869
  54 C :    0.041906
  55 C :   -0.057296
  56 C :   -0.080547
  57 C :    0.307481
  58 C :   -0.345235
  59 C :   -0.183375
  60 N :    0.148236
  61 C :   -0.203983
  62 N :    0.158757
  63 C :    0.051719
  64 C :   -0.004869
  65 C :    0.149250
  66 O :   -0.149622
  67 C :   -0.078877
  68 C :    0.095571
  69 C :    0.095421
  70 C :   -0.083755
  71 C :   -0.018545
  72 C :    0.033879
  73 C :    0.037516
  74 C :   -0.015306
  75 H :   -0.011680
  76 H :   -0.005978
  77 H :   -0.009508
  78 H :   -0.004279
  79 H :   -0.004167
  80 H :   -0.016882
  81 H :    0.031123
  82 H :    0.001565
  83 H :   -0.015636
  84 H :    0.001998
  85 H :    0.010169
  86 H :   -0.008716
  87 H :    0.000541
  88 H :    0.005603
  89 H :   -0.006168
  90 H :    0.026627
  91 H :   -0.006703
  92 H :   -0.010034
  93 H :   -0.010841
  94 H :   -0.004549
  95 H :   -0.004892
  96 H :   -0.014232
Sum of atomic charges:   -0.0000000

LOEWDIN ATOMIC CHARGES
----------------------
   0 C :    0.063017
   1 C :   -0.134901
   2 C :   -0.019727
   3 N :   -0.047076
   4 C :   -0.019973
   5 N :   -0.037135
   6 C :   -0.023878
   7 C :   -0.057708
   8 C :    0.033149
   9 C :   -0.009160
  10 C :   -0.005441
  11 C :    0.016298
  12 C :   -0.006014
  13 C :   -0.012243
  14 C :   -0.012613
  15 C :   -0.009115
  16 C :    0.083935
  17 O :   -0.143858
  18 C :   -0.083342
  19 C :    0.074452
  20 C :   -0.025528
  21 C :    0.021554
  22 C :    0.012066
  23 C :    0.006623
  24 C :   -0.002052
  25 C :   -0.205430
  26 Si:    0.428457
  27 C :   -0.214284
  28 C :    0.000442
  29 C :   -0.004893
  30 C :   -0.007590
  31 C :   -0.010295
  32 N :    0.013599
  33 C :   -0.024187
  34 C :   -0.024977
  35 N :    0.007085
  36 C :   -0.037327
  37 N :    0.003992
  38 C :   -0.035619
  39 N :    0.003056
  40 C :   -0.004945
  41 C :   -0.040941
  42 C :   -0.044380
  43 N :   -0.277325
  44 S :    0.698903
  45 N :   -0.282528
  46 C :    0.011688
  47 C :    0.000399
  48 C :    0.023867
  49 C :   -0.018737
  50 C :   -0.001570
  51 C :   -0.211830
  52 Si:    0.445134
  53 C :   -0.210021
  54 C :   -0.000266
  55 C :    0.073986
  56 C :   -0.088799
  57 C :    0.075600
  58 C :   -0.139624
  59 C :   -0.016979
  60 N :   -0.053856
  61 C :   -0.024136
  62 N :   -0.052827
  63 C :   -0.027911
  64 C :   -0.054463
  65 C :    0.083235
  66 O :   -0.140125
  67 C :    0.033424
  68 C :   -0.007881
  69 C :   -0.007096
  70 C :    0.019207
  71 C :   -0.005867
  72 C :   -0.014119
  73 C :   -0.011892
  74 C :   -0.008315
  75 H :    0.039524
  76 H :    0.038812
  77 H :    0.034748
  78 H :    0.033420
  79 H :    0.033068
  80 H :    0.032022
  81 H :    0.046863
  82 H :    0.036004
  83 H :    0.032441
  84 H :    0.016124
  85 H :    0.023531
  86 H :    0.032486
  87 H :    0.038253
  88 H :    0.018074
  89 H :    0.012351
  90 H :    0.046775
  91 H :    0.041407
  92 H :    0.038426
  93 H :    0.034146
  94 H :    0.033047
  95 H :    0.032894
  96 H :    0.033218

  Mayer bond orders larger than 0.100000
B(  0-C ,  1-C ) :   1.6625 B(  0-C ,  6-C ) :   0.9968 B(  0-C , 18-C ) :   1.0245
B(  1-C ,  2-C ) :   1.1338 B(  1-C ,  4-C ) :   1.1573 B(  2-C ,  3-N ) :   2.9860
B(  4-C ,  5-N ) :   3.0116 B(  6-C ,  7-C ) :   1.2148 B(  6-C , 11-C ) :   1.4546
B(  7-C ,  8-C ) :   1.4737 B(  7-C , 16-C ) :   0.9208 B(  8-C ,  9-C ) :   1.1831
B(  8-C , 75-H ) :   1.0163 B(  9-C , 10-C ) :   1.2590 B(  9-C , 15-C ) :   1.2445
B( 10-C , 11-C ) :   1.2045 B( 10-C , 12-C ) :   1.2392 B( 11-C , 76-H ) :   0.9952
B( 12-C , 13-C ) :   1.4912 B( 12-C , 77-H ) :   0.9979 B( 13-C , 14-C ) :   1.2604
B( 13-C , 78-H ) :   0.9882 B( 14-C , 15-C ) :   1.4882 B( 14-C , 79-H ) :   0.9892
B( 15-C , 80-H ) :   0.9981 B( 16-C , 17-O ) :   2.2644 B( 16-C , 18-C ) :   0.9338
B( 18-C , 19-C ) :   1.6944 B( 19-C , 20-C ) :   1.0618 B( 19-C , 81-H ) :   0.9319
B( 20-C , 21-C ) :   1.4946 B( 20-C , 28-C ) :   1.1065 B( 21-C , 22-C ) :   1.1894
B( 21-C , 82-H ) :   0.9852 B( 22-C , 23-C ) :   1.5562 B( 22-C , 83-H ) :   0.9858
B( 23-C , 24-C ) :   1.1357 B( 23-C , 29-C ) :   0.9905 B( 24-C , 25-C ) :   1.6392
B( 24-C , 26-Si) :   0.1339 B( 24-C , 28-C ) :   1.0079 B( 25-C , 26-Si) :   1.0028
B( 25-C , 27-C ) :   0.1181 B( 25-C , 84-H ) :   0.9376 B( 26-Si, 27-C ) :   0.9995
B( 26-Si, 28-C ) :   0.1303 B( 27-C , 28-C ) :   1.6598 B( 27-C , 85-H ) :   0.9352
B( 29-C , 30-C ) :   1.3211 B( 29-C , 40-C ) :   0.1420 B( 29-C , 42-C ) :   1.2630
B( 30-C , 31-C ) :   1.0862 B( 30-C , 35-N ) :   1.4294 B( 31-C , 32-N ) :   1.4369
B( 31-C , 40-C ) :   1.3208 B( 32-N , 33-C ) :   1.7644 B( 33-C , 34-C ) :   1.1767
B( 33-C , 38-C ) :   1.1490 B( 34-C , 35-N ) :   1.7672 B( 34-C , 36-C ) :   1.1456
B( 36-C , 37-N ) :   3.0466 B( 38-C , 39-N ) :   3.0436 B( 40-C , 41-C ) :   1.2527
B( 40-C , 46-C ) :   1.0016 B( 41-C , 42-C ) :   1.0905 B( 41-C , 45-N ) :   1.4976
B( 42-C , 43-N ) :   1.5048 B( 43-N , 44-S ) :   1.3020 B( 43-N , 45-N ) :   0.1583
B( 44-S , 45-N ) :   1.3002 B( 46-C , 47-C ) :   1.5312 B( 46-C , 54-C ) :   1.1481
B( 47-C , 48-C ) :   1.2012 B( 47-C , 86-H ) :   0.9840 B( 48-C , 49-C ) :   1.4555
B( 48-C , 87-H ) :   0.9914 B( 49-C , 50-C ) :   1.0916 B( 49-C , 55-C ) :   1.1320
B( 50-C , 51-C ) :   1.6477 B( 50-C , 52-Si) :   0.1316 B( 50-C , 54-C ) :   1.0345
B( 51-C , 52-Si) :   1.0160 B( 51-C , 53-C ) :   0.1104 B( 51-C , 88-H ) :   0.9419
B( 52-Si, 53-C ) :   1.0201 B( 52-Si, 54-C ) :   0.1255 B( 53-C , 54-C ) :   1.6174
B( 53-C , 89-H ) :   0.9384 B( 55-C , 56-C ) :   1.5929 B( 55-C , 90-H ) :   0.9458
B( 56-C , 57-C ) :   1.0622 B( 56-C , 65-C ) :   0.9468 B( 57-C , 58-C ) :   1.6346
B( 57-C , 63-C ) :   0.9916 B( 58-C , 59-C ) :   1.1470 B( 58-C , 61-C ) :   1.1428
B( 59-C , 60-N ) :   2.9644 B( 61-C , 62-N ) :   2.9822 B( 63-C , 64-C ) :   1.2104
B( 63-C , 70-C ) :   1.4485 B( 64-C , 65-C ) :   0.9480 B( 64-C , 67-C ) :   1.4709
B( 65-C , 66-O ) :   2.1707 B( 67-C , 68-C ) :   1.1757 B( 67-C , 91-H ) :   1.0178
B( 68-C , 69-C ) :   1.2579 B( 68-C , 74-C ) :   1.2442 B( 69-C , 70-C ) :   1.2031
B( 69-C , 71-C ) :   1.2421 B( 70-C , 92-H ) :   0.9905 B( 71-C , 72-C ) :   1.4867
B( 71-C , 93-H ) :   0.9976 B( 72-C , 73-C ) :   1.2602 B( 72-C , 94-H ) :   0.9892
B( 73-C , 74-C ) :   1.4872 B( 73-C , 95-H ) :   0.9892 B( 74-C , 96-H ) :   0.9987

-----------------------------------------------------------------------------
         ABSORPTION SPECTRUM VIA TRANSITION ELECTRIC DIPOLE MOMENTS
-----------------------------------------------------------------------------
State   Energy  Wavelength   fosc         T2         TX        TY        TZ
        (cm-1)    (nm)                  (au**2)     (au)      (au)      (au)
-----------------------------------------------------------------------------
   0    7640.6   1308.8   0.214499704   9.24217   1.45215  -2.42399  -1.12149
   1    9608.7   1040.7   0.065475678   2.24332  -0.94780   1.09357   0.38613
   2   11054.6    904.6   0.019257198   0.57349   0.37543  -0.36631  -0.54622
   3   11771.1    849.5   0.008480534   0.23718   0.06500  -0.47990  -0.05151
   4   15059.2    664.0   0.060775231   1.32862   0.62067   0.63955  -0.73101
   5   15473.7    646.3   0.132049290   2.80943   1.09345   0.88067  -0.91554
   6   17520.2    570.8   0.180496412   3.39160   0.85673  -1.59587  -0.33287
   7   17688.7    565.3   0.067315683   1.25284   0.80872   0.17550  -0.75366
   8   18228.3    548.6   0.035941027   0.64911   0.11047  -0.79403   0.08017
   9   18496.5    540.6   0.044642614   0.79457   0.71882  -0.52452  -0.05253
  10   18714.6    534.3   0.451492362   7.94228   1.41618  -2.06471  -1.29371
  11   18985.8    526.7   0.045667313   0.79187  -0.86115  -0.20354   0.09415
  12   19854.1    503.7   0.076699701   1.27180   0.52229  -0.93171  -0.36184
  13   21941.7    455.8   0.008337860   0.12510  -0.19330  -0.13208  -0.26512
  14   22610.7    442.3   0.009254485   0.13475  -0.23308  -0.11800  -0.25787
  15   22910.5    436.5   0.001579610   0.02270   0.05681   0.06172   0.12515
  16   23737.2    421.3   0.007218504   0.10011  -0.22381  -0.05873   0.21581
  17   24294.7    411.6   0.035538515   0.48158  -0.29881  -0.43165  -0.45383
  18   24764.1    403.8   0.002467466   0.03280   0.05041   0.00996  -0.17367
  19   24930.9    401.1   0.027656657   0.36521  -0.00199  -0.55432  -0.24068
  20   25039.6    399.4   0.003266878   0.04295  -0.14581   0.12023   0.08506
  21   25608.0    390.5   0.005874526   0.07552   0.07543   0.11755  -0.23667
  22   25620.6    390.3   0.003642808   0.04681  -0.21490  -0.02101   0.01364
  23   25766.4    388.1   0.013231871   0.16906   0.39877  -0.08785   0.04820
  24   26125.6    382.8   0.017523780   0.22082   0.24098   0.37876   0.13890
  25   26447.0    378.1   0.013112590   0.16323  -0.39799   0.06464  -0.02553
  26   26532.7    376.9   0.002906899   0.03607  -0.16812  -0.08831   0.00257
  27   26758.6    373.7   0.026791434   0.32962   0.32592  -0.42092  -0.21498
  28   26881.6    372.0   0.011676073   0.14299   0.23064  -0.11665  -0.27603
  29   27217.9    367.4   0.008301467   0.10041   0.12456   0.15700   0.24545
  30   27249.8    367.0   0.026661873   0.32211   0.22732  -0.38121  -0.35372
  31   27690.1    361.1   0.015354045   0.18255  -0.27529   0.26256   0.19448
  32   27910.2    358.3   0.020208007   0.23836  -0.13340   0.41649   0.21703
  33   28006.5    357.1   0.017802943   0.20927   0.06472   0.39326   0.22456
  34   28036.2    356.7   0.001148036   0.01348   0.05229   0.07036   0.07613
  35   28283.8    353.6   0.037973701   0.44200  -0.36758  -0.25394  -0.49234
  36   28509.7    350.8   0.170467324   1.96845   0.87722  -0.90101  -0.62219
  37   28969.9    345.2   0.016331486   0.18559   0.22484   0.05278  -0.36366
  38   29223.6    342.2   0.025893064   0.29169  -0.11093  -0.48602  -0.20777
  39   29618.4    337.6   0.185019473   2.05651   0.01471  -0.88577  -1.12770
  40   29770.9    335.9   0.164065878   1.81427   1.13839   0.71105   0.11285
  41   30388.0    329.1   0.340945022   3.69367  -1.32019  -1.13088  -0.81968
  42   30632.4    326.5   0.026042210   0.27988  -0.05118  -0.36034   0.38395
  43   30753.3    325.2   0.106916436   1.14453   0.94178  -0.03246  -0.50649
  44   30939.1    323.2   0.021273277   0.22636   0.10114   0.38900   0.25458
  45   31160.9    320.9   0.017646520   0.18643   0.20547   0.18244   0.33306
  46   31438.8    318.1   0.090008217   0.94252  -0.23511   0.76994   0.54262
  47   31489.3    317.6   0.015072874   0.15758  -0.23313   0.21626   0.23762
  48   31811.1    314.4   0.038318294   0.39655  -0.62411  -0.05662  -0.06194
  49   32052.4    312.0   0.081243117   0.83445  -0.42494   0.31238   0.74585
  50   32215.8    310.4   0.012576910   0.12852  -0.31672  -0.00273  -0.16795
  51   32269.7    309.9   0.015089008   0.15394   0.31822   0.05591  -0.22258
  52   32411.2    308.5   0.080218578   0.81481   0.90162   0.00612  -0.04300
  53   32577.3    307.0   0.007322986   0.07400  -0.22767   0.14747  -0.02051
  54   33029.0    302.8   0.024657317   0.24577   0.37147   0.08786  -0.31632
  55   33109.6    302.0   0.013779443   0.13701   0.11594  -0.29433  -0.19219
  56   33324.0    300.1   0.042786558   0.42269   0.12360   0.56010   0.30612
  57   33762.4    296.2   0.140965865   1.37454  -0.71010   0.68406   0.63432
  58   33899.9    295.0   0.038932898   0.37809  -0.47584   0.36989   0.12184
  59   34012.8    294.0   0.016709017   0.16173   0.33670   0.03532   0.21705
  60   34134.1    293.0   0.098387015   0.94891   0.17003  -0.53259  -0.79771
  61   34441.3    290.3   0.007463118   0.07134   0.21280   0.04138   0.15601
  62   34698.3    288.2   0.019703627   0.18694  -0.09448  -0.03297  -0.42063
  63   34750.1    287.8   0.013686863   0.12967   0.10803   0.32516   0.11075
  64   34958.7    286.1   0.045088918   0.42461   0.10519   0.48736   0.41956
  65   35090.5    285.0   0.327767588   3.07505  -1.68275  -0.18886  -0.45579
  66   35140.0    284.6   0.115386345   1.08101   1.01243  -0.20576  -0.11688
  67   35408.7    282.4   0.177552084   1.65079   0.44997   0.82693   0.87436
  68   35456.7    282.0   0.021325491   0.19801  -0.33019   0.06858   0.29030
  69   35508.5    281.6   0.093338289   0.86537  -0.30697   0.32835   0.81445
  70   35689.0    280.2   0.075593648   0.69731   0.62363  -0.03761  -0.55406
  71   35826.8    279.1   0.048037143   0.44141  -0.57054  -0.29261   0.17401
  72   35983.3    277.9   0.050854660   0.46527   0.16049   0.48768   0.44910
  73   36115.5    276.9   0.021021876   0.19163   0.00390  -0.21809  -0.37954
  74   36160.1    276.5   0.310669064   2.82842  -0.91449   0.28778   1.38178
  75   36285.8    275.6   0.001284229   0.01165   0.10182  -0.00604   0.03533
  76   36440.1    274.4   0.016044443   0.14495  -0.04472   0.28037   0.25366
  77   36468.0    274.2   0.037538028   0.33887  -0.47696  -0.33133  -0.04007
  78   36567.5    273.5   0.058705153   0.52851  -0.67202  -0.26222  -0.09026
  79   36749.3    272.1   0.134729122   1.20695   0.75660  -0.35859  -0.71127
  80   36809.0    271.7   0.034391117   0.30759  -0.54470   0.09566   0.04174
  81   36909.3    270.9   0.015386387   0.13724  -0.29273  -0.11838  -0.19374
  82   37109.5    269.5   0.004111986   0.03648   0.10447   0.14582   0.06558
  83   37146.6    269.2   0.015152154   0.13429  -0.16872  -0.31308  -0.08833
  84   37234.6    268.6   0.001120939   0.00991  -0.02757   0.03562  -0.08878
  85   37605.7    265.9   0.056698972   0.49636   0.52082   0.14319   0.45233
  86   37703.2    265.2   0.088486254   0.77263  -0.62648  -0.41165  -0.45903
  87   37850.4    264.2   0.136811320   1.18995  -0.85034  -0.59171  -0.34167
  88   38043.6    262.9   0.445718957   3.85705  -1.61100  -0.87096  -0.70932
  89   38276.4    261.3   0.058449909   0.50272  -0.39704  -0.45925  -0.36629
  90   38546.8    259.4   0.059565736   0.50873   0.43654   0.42859   0.36669
  91   38635.2    258.8   0.049062322   0.41806   0.58661   0.22294   0.15572
  92   38817.8    257.6   0.054537420   0.46253  -0.46879  -0.32649  -0.36900
  93   38877.6    257.2   0.000052968   0.00045   0.01747  -0.01197  -0.00024
  94   38928.9    256.9   0.113897365   0.96320   0.60533   0.58230   0.50765
  95   39427.7    253.6   0.088718518   0.74078  -0.72194   0.44827   0.13650
  96   39633.6    252.3   0.107818171   0.89558   0.06903   0.74572   0.57854
  97   39761.8    251.5   0.092130540   0.76280   0.46152   0.50529   0.54267
  98   39888.6    250.7   0.008997695   0.07426  -0.23561  -0.05693  -0.12452
  99   39951.7    250.3   0.032248289   0.26573  -0.50012   0.06631   0.10589
 100   40150.6    249.1   0.018862295   0.15466   0.26661  -0.12090  -0.26261
 101   40221.6    248.6   0.094929933   0.77700   0.60141  -0.38551  -0.51641
 102   40313.1    248.1   0.053932439   0.44043  -0.57453   0.19093   0.27184

FINAL SINGLE POINT ENERGY     -3970.291560013508

DIPOLE MOMENT
-------------
                                X             Y             Z
Electronic contribution:    -21.06493      -8.56080       4.35068
Nuclear contribution   :     21.49110       7.23452      -6.44072
                        -----------------------------------------
Total Dipole Moment    :      0.42617      -1.32628      -2.09004
                        -----------------------------------------
Magnitude (a.u.)       :      2.51175
Magnitude (Debye)      :      6.38436

Rotational constants in cm-1:     0.001895     0.000302     0.000276
Rotational constants in MHz :    56.809576     9.065108     8.268829

                             ****ORCA TERMINATED NORMALLY****
TOTAL RUN TIME: 0 days 0 hours 13 minutes 33 seconds 240 msec
