                         Program Version 4.2.0 -  RELEASE  -
|  1> # ORCA input file
|  2> # SCF done       -191.068121081517          0.000827212525
|  3> ! CAM-B3LYP def2-SVP def2/J RIJCOSX Grid4 TightSCF
|  4> %maxcore 5000
|  5> %tddft
|  6>     Mode sTDDFT
|  7>     Ethresh 5.0
|  8>     maxcore 5000
|  9> end
| 10>
| 11> %pal
| 12>   nprocs 6
| 13>   end
| 14> * xyz 0 1
| 15>    C        3.37415        -2.77527         0.35977
| 16>    C        2.71550        -4.11447         0.28888
| 17>    O        2.27091        -4.73621         1.22729
| 18>    C        2.78699        -4.50232        -1.13027
| 19>    C        3.29790        -3.44026        -1.87840
| 20>    C        3.52663        -2.29709        -1.00070
| 21>    C        3.61347        -0.99135        -1.40078
| 22>    C        3.58190         0.10953        -0.51858
| 23>    N        3.51573         1.04828         0.13824
| 24>    C        3.66059        -0.57556        -2.74804
| 25>    N        3.72390        -0.17745        -3.82256
| 26>    C        3.49269        -3.56899        -3.25996
| 27>    C        3.16583        -4.75535        -3.86278
| 28>    C        2.63488        -5.84475        -3.13756
| 29>    C        2.43704        -5.72770        -1.73062
| 30>    C        1.91142        -6.81961        -1.01044
| 31>    C        1.59234        -7.98064        -1.65929
| 32>    C        1.78357        -8.10083        -3.04513
| 33>    C        2.29321        -7.05779        -3.76886
| 34>    C        3.78679        -2.29740         1.55795
| 35>    C        4.72637        -1.25994         1.81837
| 36>    C        5.77487        -0.83901         1.04542
| 37>    C        6.54108         0.18781         1.64196
| 38>    C        6.03552         0.55575         2.91773
| 39>    S        4.66004        -0.41173         3.35200
| 40>    C        6.60043         1.56101         3.67390
| 41>    C        7.70979         2.22163         3.15423
| 42>    C        8.21976         1.84254         1.88538
| 43>    C        7.65871         0.84420         1.12459
| 44>    S        9.60983         2.79987         1.45897
| 45>    C        9.49806         3.68740         2.96506
| 46>    C        8.46073         3.28291         3.73437
| 47>    C       10.47688         4.79474         3.23321
| 48>    C       10.79849         4.93044         4.72366
| 49>    N        9.75622         6.02939         2.83697
| 50>    N        9.95357         6.68089         1.84567
| 51>    C       10.94193         6.40903         0.79551
| 52>    C       11.92016         5.38215         1.23601
| 53>    C       11.70212         4.61807         2.41895
| 54>    N       12.73799         3.84922         2.59382
| 55>    O       13.56949         4.10470         1.57489
| 56>    N       13.07879         5.04012         0.75141
| 57>    C       10.14299         5.93588        -0.43114
| 58>    C       11.64259         7.70321         0.49276
| 59>    C       11.59484         8.84996         1.20831
| 60>    C       12.39179         9.89023         0.65036
| 61>    C       13.06121         9.46238        -0.52668
| 62>    S       12.67925         7.80569        -0.90667
| 63>    C       13.89446        10.28895        -1.24489
| 64>    C       14.07163        11.59405        -0.78365
| 65>    C       13.39243        12.02585         0.38730
| 66>    C       12.56392        11.19263         1.10888
| 67>    S       13.74907        13.68814         0.74448
| 68>    C       14.83522        13.78933        -0.62989
| 69>    C       14.88299        12.61378        -1.33067
| 70>    C       15.46534        15.03082        -0.92254
| 71>    C       16.58877        15.25717        -1.64559
| 72>    C       16.85147        16.62322        -2.18897
| 73>    O       16.29614        17.64262        -1.84572
| 74>    C       17.86626        16.42978        -3.23962
| 75>    C       18.29529        15.10177        -3.23320
| 76>    C       17.63460        14.38689        -2.14569
| 77>    C       18.09046        13.23919        -1.55590
| 78>    C       17.57279        12.71479        -0.35259
| 79>    N       17.22530        12.26682         0.64499
| 80>    C       19.18913        12.48988        -2.02628
| 81>    N       20.06200        11.82961        -2.37230
| 82>    C       19.23768        14.65098        -4.16687
| 83>    C       19.73532        15.54162        -5.08158
| 84>    C       19.33512        16.89590        -5.10502
| 85>    C       18.37318        17.36489        -4.16330
| 86>    C       17.97534        18.71693        -4.19249
| 87>    C       18.51127        19.57087        -5.11681
| 88>    C       19.45897        19.11430        -6.04676
| 89>    C       19.86213        17.80708        -6.04246
| 90>    H        3.90312        -2.75701        -3.83794
| 91>    H        3.31458        -4.87337        -4.92640
| 92>    H        1.76892        -6.71634         0.05364
| 93>    H        1.18957        -8.81659        -1.10727
| 94>    H        1.52480        -9.02687        -3.53677
| 95>    H        2.44097        -7.14745        -4.83535
| 96>    H        3.39524        -2.81702         2.42704
| 97>    H        6.02068        -1.27295         0.09183
| 98>    H        6.19889         1.83230         4.63694
| 99>    H        8.05694         0.57808         0.15842
|100>    H        8.21894         3.71134         4.68886
|101>    H        9.90828         5.23758         5.26326
|102>    H       11.56847         5.68577         4.86445
|103>    H       11.16116         3.98098         5.10717
|104>    H        9.62537         5.00455        -0.21125
|105>    H       10.82597         5.77796        -1.26203
|106>    H        9.41236         6.69636        -0.69413
|107>    H       11.00201         8.96692         2.09783
|108>    H       14.40170         9.94419        -2.13174
|109>    H       12.06062        11.53472         1.99893
|110>    H       15.44776        12.48671        -2.23781
|111>    H       14.94559        15.92071        -0.58092
|112>    H       19.55674        13.62139        -4.17630
|113>    H       20.45789        15.20961        -5.81305
|114>    H       17.24615        19.05641        -3.47397
|115>    H       18.20739        20.60675        -5.13764
|116>    H       19.86835        19.80570        -6.76837
|117>    H       20.59165        17.45336        -6.75662
|118> *
|119>
|120>                          ****END OF INPUT****

CARTESIAN COORDINATES (ANGSTROEM)
---------------------------------
  C      3.374150   -2.775270    0.359770
  C      2.715500   -4.114470    0.288880
  O      2.270910   -4.736210    1.227290
  C      2.786990   -4.502320   -1.130270
  C      3.297900   -3.440260   -1.878400
  C      3.526630   -2.297090   -1.000700
  C      3.613470   -0.991350   -1.400780
  C      3.581900    0.109530   -0.518580
  N      3.515730    1.048280    0.138240
  C      3.660590   -0.575560   -2.748040
  N      3.723900   -0.177450   -3.822560
  C      3.492690   -3.568990   -3.259960
  C      3.165830   -4.755350   -3.862780
  C      2.634880   -5.844750   -3.137560
  C      2.437040   -5.727700   -1.730620
  C      1.911420   -6.819610   -1.010440
  C      1.592340   -7.980640   -1.659290
  C      1.783570   -8.100830   -3.045130
  C      2.293210   -7.057790   -3.768860
  C      3.786790   -2.297400    1.557950
  C      4.726370   -1.259940    1.818370
  C      5.774870   -0.839010    1.045420
  C      6.541080    0.187810    1.641960
  C      6.035520    0.555750    2.917730
  S      4.660040   -0.411730    3.352000
  C      6.600430    1.561010    3.673900
  C      7.709790    2.221630    3.154230
  C      8.219760    1.842540    1.885380
  C      7.658710    0.844200    1.124590
  S      9.609830    2.799870    1.458970
  C      9.498060    3.687400    2.965060
  C      8.460730    3.282910    3.734370
  C     10.476880    4.794740    3.233210
  C     10.798490    4.930440    4.723660
  N      9.756220    6.029390    2.836970
  N      9.953570    6.680890    1.845670
  C     10.941930    6.409030    0.795510
  C     11.920160    5.382150    1.236010
  C     11.702120    4.618070    2.418950
  N     12.737990    3.849220    2.593820
  O     13.569490    4.104700    1.574890
  N     13.078790    5.040120    0.751410
  C     10.142990    5.935880   -0.431140
  C     11.642590    7.703210    0.492760
  C     11.594840    8.849960    1.208310
  C     12.391790    9.890230    0.650360
  C     13.061210    9.462380   -0.526680
  S     12.679250    7.805690   -0.906670
  C     13.894460   10.288950   -1.244890
  C     14.071630   11.594050   -0.783650
  C     13.392430   12.025850    0.387300
  C     12.563920   11.192630    1.108880
  S     13.749070   13.688140    0.744480
  C     14.835220   13.789330   -0.629890
  C     14.882990   12.613780   -1.330670
  C     15.465340   15.030820   -0.922540
  C     16.588770   15.257170   -1.645590
  C     16.851470   16.623220   -2.188970
  O     16.296140   17.642620   -1.845720
  C     17.866260   16.429780   -3.239620
  C     18.295290   15.101770   -3.233200
  C     17.634600   14.386890   -2.145690
  C     18.090460   13.239190   -1.555900
  C     17.572790   12.714790   -0.352590
  N     17.225300   12.266820    0.644990
  C     19.189130   12.489880   -2.026280
  N     20.062000   11.829610   -2.372300
  C     19.237680   14.650980   -4.166870
  C     19.735320   15.541620   -5.081580
  C     19.335120   16.895900   -5.105020
  C     18.373180   17.364890   -4.163300
  C     17.975340   18.716930   -4.192490
  C     18.511270   19.570870   -5.116810
  C     19.458970   19.114300   -6.046760
  C     19.862130   17.807080   -6.042460
  H      3.903120   -2.757010   -3.837940
  H      3.314580   -4.873370   -4.926400
  H      1.768920   -6.716340    0.053640
  H      1.189570   -8.816590   -1.107270
  H      1.524800   -9.026870   -3.536770
  H      2.440970   -7.147450   -4.835350
  H      3.395240   -2.817020    2.427040
  H      6.020680   -1.272950    0.091830
  H      6.198890    1.832300    4.636940
  H      8.056940    0.578080    0.158420
  H      8.218940    3.711340    4.688860
  H      9.908280    5.237580    5.263260
  H     11.568470    5.685770    4.864450
  H     11.161160    3.980980    5.107170
  H      9.625370    5.004550   -0.211250
  H     10.825970    5.777960   -1.262030
  H      9.412360    6.696360   -0.694130
  H     11.002010    8.966920    2.097830
  H     14.401700    9.944190   -2.131740
  H     12.060620   11.534720    1.998930
  H     15.447760   12.486710   -2.237810
  H     14.945590   15.920710   -0.580920
  H     19.556740   13.621390   -4.176300
  H     20.457890   15.209610   -5.813050
  H     17.246150   19.056410   -3.473970
  H     18.207390   20.606750   -5.137640
  H     19.868350   19.805700   -6.768370
  H     20.591650   17.453360   -6.756620

 Total Charge           Charge          ....    0
 Multiplicity           Mult            ....    1
 Number of Electrons    NEL             ....  532
 Basis Dimension        Dim             .... 1206

ORBITAL ENERGIES
----------------

  NO   OCC          E(Eh)            E(eV)
   0   2.0000     -88.961781     -2420.7731
   1   2.0000     -88.957553     -2420.6581
   2   2.0000     -88.951323     -2420.4886
   3   2.0000     -88.950422     -2420.4640
   4   2.0000     -19.345465      -526.4169
   5   2.0000     -19.222024      -523.0579
   6   2.0000     -19.217618      -522.9380
   7   2.0000     -14.484238      -394.1362
   8   2.0000     -14.482280      -394.0829
   9   2.0000     -14.475922      -393.9099
  10   2.0000     -14.473930      -393.8557
  11   2.0000     -14.419503      -392.3746
  12   2.0000     -14.416693      -392.2982
  13   2.0000     -14.415130      -392.2556
  14   2.0000     -14.411935      -392.1687
  15   2.0000     -10.372603      -282.2529
  16   2.0000     -10.368313      -282.1361
  17   2.0000     -10.349278      -281.6182
  18   2.0000     -10.347752      -281.5767
  19   2.0000     -10.347100      -281.5589
  20   2.0000     -10.346150      -281.5331
  21   2.0000     -10.344561      -281.4898
  22   2.0000     -10.341507      -281.4067
  23   2.0000     -10.329709      -281.0857
  24   2.0000     -10.329443      -281.0784
  25   2.0000     -10.321949      -280.8745
  26   2.0000     -10.321890      -280.8729
  27   2.0000     -10.320032      -280.8223
  28   2.0000     -10.317984      -280.7666
  29   2.0000     -10.317865      -280.7634
  30   2.0000     -10.317576      -280.7555
  31   2.0000     -10.317076      -280.7419
  32   2.0000     -10.313546      -280.6458
  33   2.0000     -10.312926      -280.6290
  34   2.0000     -10.311764      -280.5974
  35   2.0000     -10.311139      -280.5804
  36   2.0000     -10.311054      -280.5780
  37   2.0000     -10.310172      -280.5541
  38   2.0000     -10.309496      -280.5356
  39   2.0000     -10.304217      -280.3920
  40   2.0000     -10.303059      -280.3605
  41   2.0000     -10.301734      -280.3244
  42   2.0000     -10.300193      -280.2825
  43   2.0000     -10.299526      -280.2644
  44   2.0000     -10.299408      -280.2611
  45   2.0000     -10.298640      -280.2402
  46   2.0000     -10.297663      -280.2137
  47   2.0000     -10.296660      -280.1864
  48   2.0000     -10.295875      -280.1650
  49   2.0000     -10.295408      -280.1523
  50   2.0000     -10.295147      -280.1452
  51   2.0000     -10.295090      -280.1436
  52   2.0000     -10.294387      -280.1245
  53   2.0000     -10.294376      -280.1242
  54   2.0000     -10.293240      -280.0933
  55   2.0000     -10.292857      -280.0829
  56   2.0000     -10.291502      -280.0460
  57   2.0000     -10.290260      -280.0122
  58   2.0000     -10.289153      -279.9821
  59   2.0000     -10.286942      -279.9219
  60   2.0000     -10.286699      -279.9153
  61   2.0000     -10.286424      -279.9078
  62   2.0000     -10.285959      -279.8952
  63   2.0000     -10.285897      -279.8935
  64   2.0000     -10.285476      -279.8820
  65   2.0000     -10.284469      -279.8546
  66   2.0000     -10.283749      -279.8350
  67   2.0000     -10.283225      -279.8208
  68   2.0000     -10.282322      -279.7962
  69   2.0000     -10.281294      -279.7682
  70   2.0000     -10.280668      -279.7512
  71   2.0000     -10.280498      -279.7466
  72   2.0000     -10.279813      -279.7279
  73   2.0000     -10.277357      -279.6611
  74   2.0000     -10.275286      -279.6047
  75   2.0000      -8.056927      -219.2401
  76   2.0000      -8.053619      -219.1501
  77   2.0000      -8.047334      -218.9791
  78   2.0000      -8.046220      -218.9488
  79   2.0000      -6.026518      -163.9899
  80   2.0000      -6.023219      -163.9001
  81   2.0000      -6.022525      -163.8812
  82   2.0000      -6.019211      -163.7911
  83   2.0000      -6.018294      -163.7661
  84   2.0000      -6.016936      -163.7292
  85   2.0000      -6.015805      -163.6984
  86   2.0000      -6.014830      -163.6718
  87   2.0000      -6.012948      -163.6206
  88   2.0000      -6.011836      -163.5904
  89   2.0000      -6.008549      -163.5009
  90   2.0000      -6.007436      -163.4706
  91   2.0000      -1.302752       -35.4497
  92   2.0000      -1.159797       -31.5597
  93   2.0000      -1.137227       -30.9455
  94   2.0000      -1.132798       -30.8250
  95   2.0000      -1.023236       -27.8437
  96   2.0000      -1.019114       -27.7315
  97   2.0000      -1.018556       -27.7163
  98   2.0000      -1.010461       -27.4960
  99   2.0000      -1.003450       -27.3053
 100   2.0000      -1.002707       -27.2850
 101   2.0000      -0.998476       -27.1699
 102   2.0000      -0.997394       -27.1405
 103   2.0000      -0.994086       -27.0505
 104   2.0000      -0.991440       -26.9785
 105   2.0000      -0.986261       -26.8375
 106   2.0000      -0.977206       -26.5911
 107   2.0000      -0.971691       -26.4411
 108   2.0000      -0.967840       -26.3363
 109   2.0000      -0.950302       -25.8590
 110   2.0000      -0.929451       -25.2916
 111   2.0000      -0.924547       -25.1582
 112   2.0000      -0.919796       -25.0289
 113   2.0000      -0.911579       -24.8053
 114   2.0000      -0.905021       -24.6269
 115   2.0000      -0.900403       -24.5012
 116   2.0000      -0.891980       -24.2720
 117   2.0000      -0.884217       -24.0608
 118   2.0000      -0.879689       -23.9375
 119   2.0000      -0.876681       -23.8557
 120   2.0000      -0.873275       -23.7630
 121   2.0000      -0.859377       -23.3848
 122   2.0000      -0.855027       -23.2665
 123   2.0000      -0.843870       -22.9629
 124   2.0000      -0.839432       -22.8421
 125   2.0000      -0.838971       -22.8296
 126   2.0000      -0.833646       -22.6847
 127   2.0000      -0.812279       -22.1032
 128   2.0000      -0.805538       -21.9198
 129   2.0000      -0.793792       -21.6002
 130   2.0000      -0.790744       -21.5172
 131   2.0000      -0.783268       -21.3138
 132   2.0000      -0.778428       -21.1821
 133   2.0000      -0.778315       -21.1790
 134   2.0000      -0.771672       -20.9983
 135   2.0000      -0.767317       -20.8798
 136   2.0000      -0.763060       -20.7639
 137   2.0000      -0.758836       -20.6490
 138   2.0000      -0.728124       -19.8133
 139   2.0000      -0.722200       -19.6520
 140   2.0000      -0.717181       -19.5155
 141   2.0000      -0.713440       -19.4137
 142   2.0000      -0.710808       -19.3421
 143   2.0000      -0.707023       -19.2391
 144   2.0000      -0.694169       -18.8893
 145   2.0000      -0.693383       -18.8679
 146   2.0000      -0.686987       -18.6939
 147   2.0000      -0.680036       -18.5047
 148   2.0000      -0.676476       -18.4079
 149   2.0000      -0.675164       -18.3721
 150   2.0000      -0.669609       -18.2210
 151   2.0000      -0.665304       -18.1038
 152   2.0000      -0.657428       -17.8895
 153   2.0000      -0.650753       -17.7079
 154   2.0000      -0.647294       -17.6138
 155   2.0000      -0.633546       -17.2397
 156   2.0000      -0.633153       -17.2290
 157   2.0000      -0.629254       -17.1229
 158   2.0000      -0.626469       -17.0471
 159   2.0000      -0.621829       -16.9208
 160   2.0000      -0.617556       -16.8045
 161   2.0000      -0.606616       -16.5069
 162   2.0000      -0.603906       -16.4331
 163   2.0000      -0.599670       -16.3178
 164   2.0000      -0.592504       -16.1229
 165   2.0000      -0.591599       -16.0982
 166   2.0000      -0.589451       -16.0398
 167   2.0000      -0.588091       -16.0028
 168   2.0000      -0.578573       -15.7438
 169   2.0000      -0.575334       -15.6556
 170   2.0000      -0.571888       -15.5619
 171   2.0000      -0.570405       -15.5215
 172   2.0000      -0.565091       -15.3769
 173   2.0000      -0.558713       -15.2034
 174   2.0000      -0.556025       -15.1302
 175   2.0000      -0.550525       -14.9805
 176   2.0000      -0.542390       -14.7592
 177   2.0000      -0.541827       -14.7439
 178   2.0000      -0.540167       -14.6987
 179   2.0000      -0.537150       -14.6166
 180   2.0000      -0.535070       -14.5600
 181   2.0000      -0.534043       -14.5320
 182   2.0000      -0.530162       -14.4264
 183   2.0000      -0.528425       -14.3792
 184   2.0000      -0.526988       -14.3401
 185   2.0000      -0.526050       -14.3145
 186   2.0000      -0.522071       -14.2063
 187   2.0000      -0.517882       -14.0923
 188   2.0000      -0.517197       -14.0737
 189   2.0000      -0.514965       -14.0129
 190   2.0000      -0.512513       -13.9462
 191   2.0000      -0.511445       -13.9171
 192   2.0000      -0.509137       -13.8543
 193   2.0000      -0.507913       -13.8210
 194   2.0000      -0.507204       -13.8017
 195   2.0000      -0.505313       -13.7503
 196   2.0000      -0.501501       -13.6465
 197   2.0000      -0.499991       -13.6054
 198   2.0000      -0.496317       -13.5055
 199   2.0000      -0.494645       -13.4600
 200   2.0000      -0.489907       -13.3311
 201   2.0000      -0.486387       -13.2353
 202   2.0000      -0.483394       -13.1538
 203   2.0000      -0.482301       -13.1241
 204   2.0000      -0.480143       -13.0653
 205   2.0000      -0.478732       -13.0270
 206   2.0000      -0.475328       -12.9343
 207   2.0000      -0.473979       -12.8976
 208   2.0000      -0.473295       -12.8790
 209   2.0000      -0.471181       -12.8215
 210   2.0000      -0.470412       -12.8006
 211   2.0000      -0.464151       -12.6302
 212   2.0000      -0.462307       -12.5800
 213   2.0000      -0.454513       -12.3679
 214   2.0000      -0.453546       -12.3416
 215   2.0000      -0.451894       -12.2967
 216   2.0000      -0.449185       -12.2230
 217   2.0000      -0.447514       -12.1775
 218   2.0000      -0.444231       -12.0881
 219   2.0000      -0.442407       -12.0385
 220   2.0000      -0.441167       -12.0048
 221   2.0000      -0.440047       -11.9743
 222   2.0000      -0.438692       -11.9374
 223   2.0000      -0.438150       -11.9227
 224   2.0000      -0.437542       -11.9061
 225   2.0000      -0.436826       -11.8866
 226   2.0000      -0.433546       -11.7974
 227   2.0000      -0.433297       -11.7906
 228   2.0000      -0.432241       -11.7619
 229   2.0000      -0.429965       -11.6999
 230   2.0000      -0.429078       -11.6758
 231   2.0000      -0.425939       -11.5904
 232   2.0000      -0.424930       -11.5629
 233   2.0000      -0.422829       -11.5058
 234   2.0000      -0.420728       -11.4486
 235   2.0000      -0.419051       -11.4029
 236   2.0000      -0.416237       -11.3264
 237   2.0000      -0.413773       -11.2593
 238   2.0000      -0.407939       -11.1006
 239   2.0000      -0.405810       -11.0426
 240   2.0000      -0.404810       -11.0154
 241   2.0000      -0.400425       -10.8961
 242   2.0000      -0.395604       -10.7649
 243   2.0000      -0.392543       -10.6816
 244   2.0000      -0.385899       -10.5009
 245   2.0000      -0.384208       -10.4548
 246   2.0000      -0.381292       -10.3755
 247   2.0000      -0.377636       -10.2760
 248   2.0000      -0.377047       -10.2600
 249   2.0000      -0.371414       -10.1067
 250   2.0000      -0.366762        -9.9801
 251   2.0000      -0.350735        -9.5440
 252   2.0000      -0.344556        -9.3758
 253   2.0000      -0.338220        -9.2034
 254   2.0000      -0.333583        -9.0773
 255   2.0000      -0.329626        -8.9696
 256   2.0000      -0.321910        -8.7596
 257   2.0000      -0.319600        -8.6968
 258   2.0000      -0.314666        -8.5625
 259   2.0000      -0.300883        -8.1874
 260   2.0000      -0.297188        -8.0869
 261   2.0000      -0.293867        -7.9965
 262   2.0000      -0.289135        -7.8678
 263   2.0000      -0.283067        -7.7026
 264   2.0000      -0.267562        -7.2807
 265   2.0000      -0.259851        -7.0709
 266   0.0000      -0.090471        -2.4618
 267   0.0000      -0.085438        -2.3249
 268   0.0000      -0.073240        -1.9930
 269   0.0000      -0.068704        -1.8695
 270   0.0000      -0.027338        -0.7439

MULLIKEN ATOMIC CHARGES
-----------------------
   0 C :   -0.115487
   1 C :    0.116327
   2 O :   -0.145980
   3 C :    0.011807
   4 C :   -0.009739
   5 C :    0.259074
   6 C :   -0.333839
   7 C :   -0.199058
   8 N :    0.184681
   9 C :   -0.184794
  10 N :    0.161554
  11 C :   -0.022345
  12 C :    0.004693
  13 C :    0.081720
  14 C :    0.037654
  15 C :   -0.028642
  16 C :    0.039213
  17 C :    0.040102
  18 C :   -0.022575
  19 C :    0.086110
  20 C :   -0.108075
  21 C :    0.018889
  22 C :    0.091237
  23 C :   -0.027378
  24 S :    0.138432
  25 C :   -0.050999
  26 C :    0.113567
  27 C :   -0.046040
  28 C :   -0.039725
  29 S :    0.122491
  30 C :   -0.062157
  31 C :   -0.003503
  32 C :   -0.039191
  33 C :    0.120963
  34 N :   -0.068544
  35 N :   -0.096249
  36 C :   -0.079043
  37 C :   -0.052807
  38 C :   -0.144295
  39 N :    0.070439
  40 O :   -0.121569
  41 N :    0.068696
  42 C :    0.133069
  43 C :   -0.075117
  44 C :   -0.012174
  45 C :    0.116013
  46 C :   -0.046421
  47 S :    0.139448
  48 C :   -0.046683
  49 C :    0.091137
  50 C :   -0.026447
  51 C :   -0.055136
  52 S :    0.133264
  53 C :   -0.106267
  54 C :    0.018285
  55 C :    0.085161
  56 C :   -0.114272
  57 C :    0.115818
  58 O :   -0.146959
  59 C :    0.011446
  60 C :   -0.008364
  61 C :    0.253265
  62 C :   -0.335456
  63 C :   -0.199669
  64 N :    0.188596
  65 C :   -0.182145
  66 N :    0.158660
  67 C :   -0.019068
  68 C :    0.004596
  69 C :    0.077802
  70 C :    0.033834
  71 C :   -0.026345
  72 C :    0.039320
  73 C :    0.038359
  74 C :   -0.019983
  75 H :    0.000980
  76 H :   -0.010871
  77 H :    0.001839
  78 H :   -0.005348
  79 H :   -0.005754
  80 H :   -0.019300
  81 H :    0.026402
  82 H :   -0.007430
  83 H :   -0.026980
  84 H :   -0.027469
  85 H :   -0.018905
  86 H :    0.035137
  87 H :    0.024829
  88 H :    0.043140
  89 H :    0.018860
  90 H :    0.039023
  91 H :    0.043132
  92 H :   -0.012414
  93 H :   -0.027439
  94 H :   -0.027590
  95 H :   -0.008098
  96 H :    0.025307
  97 H :    0.000598
  98 H :   -0.012308
  99 H :    0.000911
 100 H :   -0.006343
 101 H :   -0.005990
 102 H :   -0.021099
Sum of atomic charges:   -0.0000000

LOEWDIN ATOMIC CHARGES
----------------------
   0 C :   -0.078812
   1 C :    0.087532
   2 O :   -0.138342
   3 C :   -0.033062
   4 C :   -0.004675
   5 C :    0.065061
   6 C :   -0.131712
   7 C :   -0.020538
   8 N :   -0.035033
   9 C :   -0.021518
  10 N :   -0.047236
  11 C :   -0.018316
  12 C :    0.020394
  13 C :   -0.009075
  14 C :   -0.002733
  15 C :   -0.001911
  16 C :   -0.011002
  17 C :   -0.011308
  18 C :   -0.012044
  19 C :    0.046804
  20 C :   -0.168671
  21 C :   -0.016452
  22 C :   -0.043103
  23 C :   -0.142631
  24 S :    0.416195
  25 C :   -0.030819
  26 C :   -0.035470
  27 C :   -0.152916
  28 C :   -0.023463
  29 S :    0.414139
  30 C :   -0.146140
  31 C :   -0.042351
  32 C :   -0.046958
  33 C :   -0.023887
  34 N :   -0.006050
  35 N :   -0.003193
  36 C :   -0.048689
  37 C :   -0.069897
  38 C :   -0.086668
  39 N :   -0.005166
  40 O :    0.053110
  41 N :   -0.009965
  42 C :   -0.027813
  43 C :   -0.146099
  44 C :   -0.055017
  45 C :   -0.035148
  46 C :   -0.152261
  47 S :    0.414552
  48 C :   -0.024233
  49 C :   -0.045817
  50 C :   -0.143518
  51 C :   -0.034052
  52 S :    0.412274
  53 C :   -0.171116
  54 C :   -0.014068
  55 C :    0.047620
  56 C :   -0.081708
  57 C :    0.087333
  58 O :   -0.139798
  59 C :   -0.033428
  60 C :   -0.004350
  61 C :    0.064849
  62 C :   -0.132427
  63 C :   -0.020773
  64 N :   -0.034158
  65 C :   -0.021347
  66 N :   -0.048406
  67 C :   -0.018009
  68 C :    0.019410
  69 C :   -0.009519
  70 C :   -0.002894
  71 C :   -0.001984
  72 C :   -0.011915
  73 C :   -0.012461
  74 C :   -0.012345
  75 H :    0.039621
  76 H :    0.036296
  77 H :    0.035910
  78 H :    0.033228
  79 H :    0.032480
  80 H :    0.030915
  81 H :    0.047006
  82 H :    0.032747
  83 H :    0.033134
  84 H :    0.033384
  85 H :    0.034370
  86 H :    0.032559
  87 H :    0.034151
  88 H :    0.039726
  89 H :    0.016245
  90 H :    0.030663
  91 H :    0.039118
  92 H :    0.032786
  93 H :    0.032819
  94 H :    0.032645
  95 H :    0.032374
  96 H :    0.046541
  97 H :    0.039482
  98 H :    0.035823
  99 H :    0.035722
 100 H :    0.032806
 101 H :    0.032205
 102 H :    0.030441

  Mayer bond orders larger than 0.100000
B(  0-C ,  1-C ) :   0.9486 B(  0-C ,  5-C ) :   1.0160 B(  0-C , 19-C ) :   1.7334
B(  1-C ,  2-O ) :   2.2013 B(  1-C ,  3-C ) :   0.9396 B(  3-C ,  4-C ) :   1.4143
B(  3-C , 14-C ) :   1.2338 B(  4-C ,  5-C ) :   1.0028 B(  4-C , 11-C ) :   1.2604
B(  5-C ,  6-C ) :   1.6661 B(  6-C ,  7-C ) :   1.1581 B(  6-C ,  9-C ) :   1.1277
B(  7-C ,  8-N ) :   3.0152 B(  9-C , 10-N ) :   2.9965 B( 11-C , 12-C ) :   1.4693
B( 11-C , 75-H ) :   0.9857 B( 12-C , 13-C ) :   1.2232 B( 12-C , 76-H ) :   0.9942
B( 13-C , 14-C ) :   1.2419 B( 13-C , 18-C ) :   1.2389 B( 14-C , 15-C ) :   1.2753
B( 15-C , 16-C ) :   1.4746 B( 15-C , 77-H ) :   0.9872 B( 16-C , 17-C ) :   1.2563
B( 16-C , 78-H ) :   0.9869 B( 17-C , 18-C ) :   1.4964 B( 17-C , 79-H ) :   0.9883
B( 18-C , 80-H ) :   0.9980 B( 19-C , 20-C ) :   1.0708 B( 19-C , 81-H ) :   0.9297
B( 20-C , 21-C ) :   1.5450 B( 20-C , 24-S ) :   1.0727 B( 21-C , 22-C ) :   1.1823
B( 21-C , 82-H ) :   0.9946 B( 22-C , 23-C ) :   1.2864 B( 22-C , 28-C ) :   1.3090
B( 23-C , 24-S ) :   1.0554 B( 23-C , 25-C ) :   1.3740 B( 25-C , 26-C ) :   1.3355
B( 25-C , 28-C ) :   0.1047 B( 25-C , 83-H ) :   1.0001 B( 26-C , 27-C ) :   1.2825
B( 26-C , 31-C ) :   1.1266 B( 27-C , 28-C ) :   1.4014 B( 27-C , 29-S ) :   1.0432
B( 28-C , 84-H ) :   1.0008 B( 29-S , 30-C ) :   1.1007 B( 30-C , 31-C ) :   1.6771
B( 30-C , 32-C ) :   0.9324 B( 31-C , 85-H ) :   1.0024 B( 32-C , 33-C ) :   1.0917
B( 32-C , 34-N ) :   0.9625 B( 32-C , 38-C ) :   0.9116 B( 33-C , 86-H ) :   0.9459
B( 33-C , 87-H ) :   0.9518 B( 33-C , 88-H ) :   0.9603 B( 34-N , 35-N ) :   1.8458
B( 35-N , 36-C ) :   0.9843 B( 36-C , 37-C ) :   0.9078 B( 36-C , 42-C ) :   1.0690
B( 36-C , 43-C ) :   0.9534 B( 37-C , 38-C ) :   1.2173 B( 37-C , 41-N ) :   1.7363
B( 38-C , 39-N ) :   1.7445 B( 39-N , 40-O ) :   1.0488 B( 39-N , 41-N ) :   0.1515
B( 40-O , 41-N ) :   1.0445 B( 42-C , 89-H ) :   0.9415 B( 42-C , 90-H ) :   0.9492
B( 42-C , 91-H ) :   0.9544 B( 43-C , 44-C ) :   1.6844 B( 43-C , 47-S ) :   1.0941
B( 44-C , 45-C ) :   1.1102 B( 44-C , 92-H ) :   0.9979 B( 45-C , 46-C ) :   1.2832
B( 45-C , 51-C ) :   1.3390 B( 46-C , 47-S ) :   1.0425 B( 46-C , 48-C ) :   1.3985
B( 48-C , 49-C ) :   1.3065 B( 48-C , 51-C ) :   0.1046 B( 48-C , 93-H ) :   1.0017
B( 49-C , 50-C ) :   1.2883 B( 49-C , 54-C ) :   1.1857 B( 50-C , 51-C ) :   1.3686
B( 50-C , 52-S ) :   1.0541 B( 51-C , 94-H ) :   1.0022 B( 52-S , 53-C ) :   1.0704
B( 53-C , 54-C ) :   1.5386 B( 53-C , 55-C ) :   1.0793 B( 54-C , 95-H ) :   0.9935
B( 55-C , 56-C ) :   1.7233 B( 55-C , 96-H ) :   0.9298 B( 56-C , 57-C ) :   0.9513
B( 56-C , 61-C ) :   1.0184 B( 57-C , 58-O ) :   2.2007 B( 57-C , 59-C ) :   0.9388
B( 59-C , 60-C ) :   1.4143 B( 59-C , 70-C ) :   1.2355 B( 60-C , 61-C ) :   1.0013
B( 60-C , 67-C ) :   1.2595 B( 61-C , 62-C ) :   1.6656 B( 62-C , 63-C ) :   1.1601
B( 62-C , 65-C ) :   1.1278 B( 63-C , 64-N ) :   3.0164 B( 65-C , 66-N ) :   2.9962
B( 67-C , 68-C ) :   1.4688 B( 67-C , 97-H ) :   0.9863 B( 68-C , 69-C ) :   1.2222
B( 68-C , 98-H ) :   0.9949 B( 69-C , 70-C ) :   1.2428 B( 69-C , 74-C ) :   1.2399
B( 70-C , 71-C ) :   1.2741 B( 71-C , 72-C ) :   1.4744 B( 71-C , 99-H ) :   0.9876
B( 72-C , 73-C ) :   1.2551 B( 72-C ,100-H ) :   0.9873 B( 73-C , 74-C ) :   1.4946
B( 73-C ,101-H ) :   0.9892 B( 74-C ,102-H ) :   0.9982

-----------------------------------------------------------------------------
         ABSORPTION SPECTRUM VIA TRANSITION ELECTRIC DIPOLE MOMENTS
-----------------------------------------------------------------------------
State   Energy  Wavelength   fosc         T2         TX        TY        TZ
        (cm-1)    (nm)                  (au**2)     (au)      (au)      (au)
-----------------------------------------------------------------------------
   0   20662.0    484.0   0.330895502   5.27223  -1.64915  -1.57767   0.25195
   1   21092.3    474.1   0.226482743   3.53498  -1.30965  -1.00830  -0.89618
   2   25063.9    399.0   0.040903699   0.53727   0.46306  -0.26871  -0.50064
   3   25522.6    391.8   0.043677141   0.56339   0.21690  -0.14415  -0.70396
   4   26252.1    380.9   0.797830041  10.00513   2.26584   2.14794  -0.50739
   5   26648.0    375.3   0.332340145   4.10576  -1.00723  -1.04112  -1.41680
   6   27673.6    361.4   0.213873781   2.54430   0.52322   1.50576   0.05677
   7   27791.2    359.8   0.134127789   1.58886   0.03119  -1.11705   0.58316
   8   28188.0    354.8   0.039631061   0.46286   0.37219  -0.01761   0.56923
   9   29681.2    336.9   0.000222553   0.00247   0.00611   0.04344  -0.02332
  10   29873.7    334.7   0.047064351   0.51866   0.28516   0.59892  -0.28042
  11   29921.4    334.2   0.064749276   0.71241   0.05883  -0.80300   0.25326
  12   30135.0    331.8   0.151219487   1.65201  -0.86432  -0.44644   0.84003
  13   30159.3    331.6   0.173190082   1.89050   0.13484  -0.63524  -1.21194
  14   30913.9    323.5   0.023646746   0.25182   0.43106   0.14945  -0.20898
  15   31135.8    321.2   0.043576283   0.46075   0.00585  -0.14117   0.66392
  16   32399.7    308.6   0.646940143   6.57352   0.13320   2.45717  -0.71979
  17   32470.5    308.0   0.245425098   2.48832   0.66777   1.42589  -0.09616
  18   32686.8    305.9   0.607793750   6.12151   0.59421   2.31737   0.63106
  19   32870.1    304.2   0.002653753   0.02658  -0.01499  -0.07133   0.14583
  20   32939.8    303.6   0.492571683   4.92293   0.49239   1.49489  -1.56390
  21   33965.7    294.4   0.039796630   0.38573  -0.23209  -0.24595  -0.52094
  22   34050.7    293.7   0.000979817   0.00947  -0.02958  -0.09247   0.00683
  23   34454.7    290.2   0.022467485   0.21468  -0.16214   0.40793   0.14825
  24   34885.9    286.6   0.202584954   1.91176   0.61713   1.22722  -0.15762
  25   35073.9    285.1   0.007967103   0.07478   0.06865  -0.02418  -0.26360
  26   35150.2    284.5   0.138532497   1.29748   0.24550   0.95170  -0.57573
  27   35391.6    282.6   0.011942914   0.11109  -0.07484   0.32248  -0.03870
  28   35473.1    281.9   0.027054298   0.25108   0.45060  -0.01764  -0.21847
  29   36008.1    277.7   0.154438680   1.41199  -0.98132  -0.66213   0.10287
  30   36506.7    273.9   0.089229451   0.80466   0.23993   0.83399   0.22705
  31   37203.0    268.8   0.000220720   0.00195  -0.04148   0.01514  -0.00190
  32   37719.3    265.1   0.020311871   0.17728   0.26018   0.30543   0.12769
  33   38199.8    261.8   0.036442097   0.31406   0.49095   0.24950   0.10385
  34   38495.3    259.8   0.026067714   0.22293  -0.11074   0.19240  -0.41672
  35   38803.4    257.7   0.000974859   0.00827   0.05999   0.02325  -0.06427
  36   39172.9    255.3   0.012684927   0.10660   0.28312  -0.16061   0.02556
  37   39330.0    254.3   0.160471569   1.34323  -0.45024   0.98220   0.41929
  38   39470.2    253.4   0.041930633   0.34973   0.08801  -0.31392   0.49340
  39   39695.6    251.9   0.022925570   0.19013  -0.12302  -0.30869   0.28233
  40   39724.6    251.7   0.000983069   0.00815   0.00412  -0.04368   0.07888
  41   39956.6    250.3   0.081412985   0.67078   0.16421   0.04662   0.80103
  42   40124.0    249.2   0.077549735   0.63629  -0.52274   0.20333   0.56717
  43   40229.3    248.6   0.018776099   0.15365   0.10288   0.37595   0.04154

FINAL SINGLE POINT ENERGY     -4555.285149678253

DIPOLE MOMENT
-------------
                                X             Y             Z
Electronic contribution:      1.72690       2.88411      12.43518
Nuclear contribution   :     -2.56789      -4.10148     -13.84671
                        -----------------------------------------
Total Dipole Moment    :     -0.84100      -1.21737      -1.41153
                        -----------------------------------------
Magnitude (a.u.)       :      2.04492
Magnitude (Debye)      :      5.19776

Rotational constants in cm-1:     0.002129     0.000174     0.000167
Rotational constants in MHz :    63.832510     5.204681     5.002812

                             ****ORCA TERMINATED NORMALLY****
TOTAL RUN TIME: 0 days 0 hours 10 minutes 2 seconds 167 msec
