                         Program Version 4.2.0 -  RELEASE  -
|  1> # ORCA input file
|  2> # SCF done       -192.092141848701          0.000917955755
|  3> ! CAM-B3LYP def2-SVP def2/J RIJCOSX Grid4 TightSCF
|  4> %maxcore 5000
|  5> %tddft
|  6>     Mode sTDDFT
|  7>     Ethresh 5.0
|  8>     maxcore 5000
|  9> end
| 10>
| 11> %pal
| 12>   nprocs 6
| 13>   end
| 14> * xyz 0 1
| 15>    C        3.85069         0.29365        -1.67456
| 16>    C        2.71528         0.10190        -2.61962
| 17>    O        1.76930        -0.63765        -2.45661
| 18>    C        2.98033         1.03703        -3.72863
| 19>    C        4.23421         1.62434        -3.55324
| 20>    C        4.86797         1.05227        -2.37002
| 21>    C        6.21652         0.99211        -2.13713
| 22>    C        6.78827         0.17159        -1.14207
| 23>    N        7.28694        -0.52305        -0.37612
| 24>    C        7.18475         1.65026        -2.92164
| 25>    N        8.01331         2.16921        -3.52306
| 26>    C        4.71082         2.57974        -4.45923
| 27>    C        3.92266         2.92327        -5.52656
| 28>    C        2.65642         2.33656        -5.74355
| 29>    C        2.15993         1.36577        -4.82524
| 30>    C        0.89488         0.78428        -5.04612
| 31>    C        0.15184         1.14839        -6.13499
| 32>    C        0.63570         2.10411        -7.04280
| 33>    C        1.85897         2.68582        -6.85235
| 34>    C        3.75020        -0.13888        -0.39011
| 35>    C        4.48504         0.27750         0.74475
| 36>    C        4.61691        -0.42516         1.93630
| 37>    C        5.37507         0.25604         2.87323
| 38>    C        5.78854         1.51283         2.42098
| 39>    S        5.26983         1.84769         0.82680
| 40>    C        6.54562         2.14631         3.42933
| 41>    C        6.63605         1.28402         4.53044
| 42>    C        5.88902        -0.00307         4.26976
| 43>    C        6.83341        -1.20842         4.29046
| 44>    C        4.74282        -0.19161         5.26762
| 45>    C        7.38533         1.81927         5.56435
| 46>    C        7.85617         3.08728         5.25037
| 47>    S        7.37240         3.62831         3.66317
| 48>    C        8.65962         3.94582         6.04416
| 49>    N        8.95980         5.14255         5.56301
| 50>    N        9.69204         6.00887         6.19373
| 51>    C       10.23896         5.78397         7.37852
| 52>    C       10.00162         4.52614         8.01616
| 53>    C        9.16859         3.57516         7.32813
| 54>    N        9.07491         2.50864         8.09193
| 55>    O        9.79837         2.77109         9.18238
| 56>    N       10.36442         3.97945         9.15598
| 57>    C       11.03128         6.80958         7.95631
| 58>    C       11.73650         6.77689         9.15198
| 59>    C       12.40284         7.96835         9.38261
| 60>    C       12.19544         8.90737         8.36306
| 61>    S       11.18639         8.32557         7.10650
| 62>    C       12.89748        10.08899         8.68446
| 63>    C       13.56531         9.90831         9.90262
| 64>    C       13.30412         8.52855        10.45770
| 65>    C       14.59332         7.71195        10.58300
| 66>    C       12.57935         8.61487        11.80423
| 67>    C       14.24559        11.03818        10.31336
| 68>    C       14.10633        12.09813         9.41994
| 69>    S       13.13503        11.64642         8.02755
| 70>    C       14.65413        13.39547         9.45839
| 71>    C       15.20428        14.08309        10.49899
| 72>    C       16.08213        15.24888        10.19844
| 73>    O       16.18635        15.80151         9.12498
| 74>    C       16.80457        15.52438        11.45324
| 75>    C       16.31422        14.69383        12.46076
| 76>    C       15.21038        13.89527        11.93026
| 77>    C       14.22885        13.30643        12.68629
| 78>    C       13.03363        12.78236        12.15477
| 79>    N       12.02615        12.37681        11.78211
| 80>    C       14.25141        13.22175        14.09305
| 81>    N       14.22503        13.08987        15.23336
| 82>    C       16.86312        14.73577        13.74862
| 83>    C       17.88455        15.61460        14.00074
| 84>    C       18.39061        16.48197        13.00825
| 85>    C       17.84412        16.44324        11.69231
| 86>    C       18.35268        17.30942        10.70294
| 87>    C       19.36115        18.18158        11.00652
| 88>    C       19.90314        18.22449        12.30137
| 89>    C       19.43065        17.39407        13.28013
| 90>    H        5.67140         3.04671        -4.31290
| 91>    H        4.27005         3.66426        -6.23201
| 92>    H        0.53355         0.05198        -4.34150
| 93>    H       -0.81632         0.70139        -6.30460
| 94>    H        0.03174         2.37736        -7.89542
| 95>    H        2.23360         3.42100        -7.54989
| 96>    H        2.94732        -0.84481        -0.19824
| 97>    H        4.19769        -1.40614         2.06885
| 98>    H        7.62815        -1.07661         3.56034
| 99>    H        6.28534        -2.11492         4.04706
|100>    H        7.27590        -1.31750         5.27725
|101>    H        4.07412         0.66588         5.24326
|102>    H        5.14015        -0.29567         6.27389
|103>    H        4.17489        -1.08465         5.01974
|104>    H        7.60166         1.34761         6.50572
|105>    H       11.73797         5.91180         9.78995
|106>    H       15.10273         7.65719         9.62346
|107>    H       14.36241         6.70273        10.91373
|108>    H       15.25980         8.17438        11.30674
|109>    H       11.69284         9.23790        11.71592
|110>    H       13.23372         9.05396        12.55308
|111>    H       12.28347         7.62207        12.13293
|112>    H       14.85557        11.09803        11.19662
|113>    H       14.70710        13.91269         8.50453
|114>    H       16.50088        14.08277        14.52601
|115>    H       18.32352        15.65507        14.98721
|116>    H       17.92849        17.26658         9.71224
|117>    H       19.74923        18.84620        10.24921
|118>    H       20.69914        18.92131        12.51868
|119>    H       19.84571        17.42599        14.27720
|120> *
|121>
|122>                          ****END OF INPUT****

CARTESIAN COORDINATES (ANGSTROEM)
---------------------------------
  C      3.850690    0.293650   -1.674560
  C      2.715280    0.101900   -2.619620
  O      1.769300   -0.637650   -2.456610
  C      2.980330    1.037030   -3.728630
  C      4.234210    1.624340   -3.553240
  C      4.867970    1.052270   -2.370020
  C      6.216520    0.992110   -2.137130
  C      6.788270    0.171590   -1.142070
  N      7.286940   -0.523050   -0.376120
  C      7.184750    1.650260   -2.921640
  N      8.013310    2.169210   -3.523060
  C      4.710820    2.579740   -4.459230
  C      3.922660    2.923270   -5.526560
  C      2.656420    2.336560   -5.743550
  C      2.159930    1.365770   -4.825240
  C      0.894880    0.784280   -5.046120
  C      0.151840    1.148390   -6.134990
  C      0.635700    2.104110   -7.042800
  C      1.858970    2.685820   -6.852350
  C      3.750200   -0.138880   -0.390110
  C      4.485040    0.277500    0.744750
  C      4.616910   -0.425160    1.936300
  C      5.375070    0.256040    2.873230
  C      5.788540    1.512830    2.420980
  S      5.269830    1.847690    0.826800
  C      6.545620    2.146310    3.429330
  C      6.636050    1.284020    4.530440
  C      5.889020   -0.003070    4.269760
  C      6.833410   -1.208420    4.290460
  C      4.742820   -0.191610    5.267620
  C      7.385330    1.819270    5.564350
  C      7.856170    3.087280    5.250370
  S      7.372400    3.628310    3.663170
  C      8.659620    3.945820    6.044160
  N      8.959800    5.142550    5.563010
  N      9.692040    6.008870    6.193730
  C     10.238960    5.783970    7.378520
  C     10.001620    4.526140    8.016160
  C      9.168590    3.575160    7.328130
  N      9.074910    2.508640    8.091930
  O      9.798370    2.771090    9.182380
  N     10.364420    3.979450    9.155980
  C     11.031280    6.809580    7.956310
  C     11.736500    6.776890    9.151980
  C     12.402840    7.968350    9.382610
  C     12.195440    8.907370    8.363060
  S     11.186390    8.325570    7.106500
  C     12.897480   10.088990    8.684460
  C     13.565310    9.908310    9.902620
  C     13.304120    8.528550   10.457700
  C     14.593320    7.711950   10.583000
  C     12.579350    8.614870   11.804230
  C     14.245590   11.038180   10.313360
  C     14.106330   12.098130    9.419940
  S     13.135030   11.646420    8.027550
  C     14.654130   13.395470    9.458390
  C     15.204280   14.083090   10.498990
  C     16.082130   15.248880   10.198440
  O     16.186350   15.801510    9.124980
  C     16.804570   15.524380   11.453240
  C     16.314220   14.693830   12.460760
  C     15.210380   13.895270   11.930260
  C     14.228850   13.306430   12.686290
  C     13.033630   12.782360   12.154770
  N     12.026150   12.376810   11.782110
  C     14.251410   13.221750   14.093050
  N     14.225030   13.089870   15.233360
  C     16.863120   14.735770   13.748620
  C     17.884550   15.614600   14.000740
  C     18.390610   16.481970   13.008250
  C     17.844120   16.443240   11.692310
  C     18.352680   17.309420   10.702940
  C     19.361150   18.181580   11.006520
  C     19.903140   18.224490   12.301370
  C     19.430650   17.394070   13.280130
  H      5.671400    3.046710   -4.312900
  H      4.270050    3.664260   -6.232010
  H      0.533550    0.051980   -4.341500
  H     -0.816320    0.701390   -6.304600
  H      0.031740    2.377360   -7.895420
  H      2.233600    3.421000   -7.549890
  H      2.947320   -0.844810   -0.198240
  H      4.197690   -1.406140    2.068850
  H      7.628150   -1.076610    3.560340
  H      6.285340   -2.114920    4.047060
  H      7.275900   -1.317500    5.277250
  H      4.074120    0.665880    5.243260
  H      5.140150   -0.295670    6.273890
  H      4.174890   -1.084650    5.019740
  H      7.601660    1.347610    6.505720
  H     11.737970    5.911800    9.789950
  H     15.102730    7.657190    9.623460
  H     14.362410    6.702730   10.913730
  H     15.259800    8.174380   11.306740
  H     11.692840    9.237900   11.715920
  H     13.233720    9.053960   12.553080
  H     12.283470    7.622070   12.132930
  H     14.855570   11.098030   11.196620
  H     14.707100   13.912690    8.504530
  H     16.500880   14.082770   14.526010
  H     18.323520   15.655070   14.987210
  H     17.928490   17.266580    9.712240
  H     19.749230   18.846200   10.249210
  H     20.699140   18.921310   12.518680
  H     19.845710   17.425990   14.277200

 Total Charge           Charge          ....    0
 Multiplicity           Mult            ....    1
 Number of Electrons    NEL             ....  534
 Basis Dimension        Dim             .... 1216

ORBITAL ENERGIES
----------------

  NO   OCC          E(Eh)            E(eV)
   0   2.0000     -88.974156     -2421.1099
   1   2.0000     -88.973577     -2421.0941
   2   2.0000     -88.970806     -2421.0187
   3   2.0000     -88.970778     -2421.0180
   4   2.0000     -19.378272      -527.3096
   5   2.0000     -19.214164      -522.8440
   6   2.0000     -19.213943      -522.8380
   7   2.0000     -14.506746      -394.7486
   8   2.0000     -14.506616      -394.7451
   9   2.0000     -14.450551      -393.2195
  10   2.0000     -14.450397      -393.2153
  11   2.0000     -14.414475      -392.2378
  12   2.0000     -14.413692      -392.2165
  13   2.0000     -14.411617      -392.1600
  14   2.0000     -14.410177      -392.1209
  15   2.0000     -10.365116      -282.0491
  16   2.0000     -10.364582      -282.0346
  17   2.0000     -10.348873      -281.6072
  18   2.0000     -10.348786      -281.6048
  19   2.0000     -10.348406      -281.5945
  20   2.0000     -10.348329      -281.5924
  21   2.0000     -10.341584      -281.4088
  22   2.0000     -10.340575      -281.3813
  23   2.0000     -10.340342      -281.3750
  24   2.0000     -10.338135      -281.3149
  25   2.0000     -10.319523      -280.8085
  26   2.0000     -10.318455      -280.7794
  27   2.0000     -10.316865      -280.7362
  28   2.0000     -10.316781      -280.7339
  29   2.0000     -10.316070      -280.7145
  30   2.0000     -10.315872      -280.7092
  31   2.0000     -10.315189      -280.6906
  32   2.0000     -10.314977      -280.6848
  33   2.0000     -10.314197      -280.6636
  34   2.0000     -10.314161      -280.6626
  35   2.0000     -10.313866      -280.6546
  36   2.0000     -10.313813      -280.6531
  37   2.0000     -10.313809      -280.6530
  38   2.0000     -10.312481      -280.6169
  39   2.0000     -10.306677      -280.4589
  40   2.0000     -10.306139      -280.4443
  41   2.0000     -10.301852      -280.3276
  42   2.0000     -10.300916      -280.3022
  43   2.0000     -10.296274      -280.1759
  44   2.0000     -10.295792      -280.1628
  45   2.0000     -10.294451      -280.1262
  46   2.0000     -10.293861      -280.1102
  47   2.0000     -10.293531      -280.1012
  48   2.0000     -10.293124      -280.0901
  49   2.0000     -10.292984      -280.0863
  50   2.0000     -10.292471      -280.0724
  51   2.0000     -10.292459      -280.0720
  52   2.0000     -10.292217      -280.0655
  53   2.0000     -10.292151      -280.0637
  54   2.0000     -10.291954      -280.0583
  55   2.0000     -10.291216      -280.0382
  56   2.0000     -10.290994      -280.0322
  57   2.0000     -10.289590      -279.9940
  58   2.0000     -10.288790      -279.9722
  59   2.0000     -10.285578      -279.8848
  60   2.0000     -10.285370      -279.8791
  61   2.0000     -10.285369      -279.8791
  62   2.0000     -10.285308      -279.8775
  63   2.0000     -10.282096      -279.7901
  64   2.0000     -10.281583      -279.7761
  65   2.0000     -10.281390      -279.7708
  66   2.0000     -10.280877      -279.7569
  67   2.0000     -10.279536      -279.7204
  68   2.0000     -10.279072      -279.7078
  69   2.0000     -10.275445      -279.6091
  70   2.0000     -10.275012      -279.5973
  71   2.0000     -10.271117      -279.4913
  72   2.0000     -10.270312      -279.4694
  73   2.0000     -10.267429      -279.3909
  74   2.0000     -10.264485      -279.3108
  75   2.0000      -8.069315      -219.5772
  76   2.0000      -8.068156      -219.5457
  77   2.0000      -8.065104      -219.4626
  78   2.0000      -8.065095      -219.4624
  79   2.0000      -6.038558      -164.3175
  80   2.0000      -6.037501      -164.2887
  81   2.0000      -6.034507      -164.2073
  82   2.0000      -6.034497      -164.2070
  83   2.0000      -6.034488      -164.2068
  84   2.0000      -6.033420      -164.1777
  85   2.0000      -6.031468      -164.1246
  86   2.0000      -6.030241      -164.0912
  87   2.0000      -6.030221      -164.0906
  88   2.0000      -6.030210      -164.0903
  89   2.0000      -6.027238      -164.0095
  90   2.0000      -6.027218      -164.0089
  91   2.0000      -1.329954       -36.1899
  92   2.0000      -1.133198       -30.8359
  93   2.0000      -1.129133       -30.7253
  94   2.0000      -1.128672       -30.7127
  95   2.0000      -1.036911       -28.2158
  96   2.0000      -1.024396       -27.8752
  97   2.0000      -1.024199       -27.8699
  98   2.0000      -1.016741       -27.6669
  99   2.0000      -1.015076       -27.6216
 100   2.0000      -0.997253       -27.1366
 101   2.0000      -0.996773       -27.1236
 102   2.0000      -0.995515       -27.0893
 103   2.0000      -0.993855       -27.0442
 104   2.0000      -0.991587       -26.9825
 105   2.0000      -0.988741       -26.9050
 106   2.0000      -0.983465       -26.7615
 107   2.0000      -0.966809       -26.3082
 108   2.0000      -0.965774       -26.2801
 109   2.0000      -0.956072       -26.0161
 110   2.0000      -0.936213       -25.4757
 111   2.0000      -0.923766       -25.1370
 112   2.0000      -0.919280       -25.0149
 113   2.0000      -0.917614       -24.9695
 114   2.0000      -0.901904       -24.5420
 115   2.0000      -0.900951       -24.5161
 116   2.0000      -0.889749       -24.2113
 117   2.0000      -0.888509       -24.1776
 118   2.0000      -0.874712       -23.8021
 119   2.0000      -0.864829       -23.5332
 120   2.0000      -0.856043       -23.2941
 121   2.0000      -0.850591       -23.1458
 122   2.0000      -0.843249       -22.9460
 123   2.0000      -0.841765       -22.9056
 124   2.0000      -0.841384       -22.8952
 125   2.0000      -0.835912       -22.7463
 126   2.0000      -0.833147       -22.6711
 127   2.0000      -0.831384       -22.6231
 128   2.0000      -0.829809       -22.5802
 129   2.0000      -0.797866       -21.7110
 130   2.0000      -0.795045       -21.6343
 131   2.0000      -0.786274       -21.3956
 132   2.0000      -0.781241       -21.2587
 133   2.0000      -0.779503       -21.2114
 134   2.0000      -0.774364       -21.0715
 135   2.0000      -0.770421       -20.9642
 136   2.0000      -0.764789       -20.8110
 137   2.0000      -0.754429       -20.5291
 138   2.0000      -0.731292       -19.8995
 139   2.0000      -0.717615       -19.5273
 140   2.0000      -0.713528       -19.4161
 141   2.0000      -0.712914       -19.3994
 142   2.0000      -0.709652       -19.3106
 143   2.0000      -0.707800       -19.2602
 144   2.0000      -0.704276       -19.1643
 145   2.0000      -0.701991       -19.1021
 146   2.0000      -0.690405       -18.7869
 147   2.0000      -0.675582       -18.3835
 148   2.0000      -0.673631       -18.3304
 149   2.0000      -0.670934       -18.2570
 150   2.0000      -0.666501       -18.1364
 151   2.0000      -0.653831       -17.7917
 152   2.0000      -0.651811       -17.7367
 153   2.0000      -0.639676       -17.4065
 154   2.0000      -0.638090       -17.3633
 155   2.0000      -0.636292       -17.3144
 156   2.0000      -0.634864       -17.2755
 157   2.0000      -0.631144       -17.1743
 158   2.0000      -0.628942       -17.1144
 159   2.0000      -0.626533       -17.0488
 160   2.0000      -0.626040       -17.0354
 161   2.0000      -0.623820       -16.9750
 162   2.0000      -0.607003       -16.5174
 163   2.0000      -0.598468       -16.2852
 164   2.0000      -0.594181       -16.1685
 165   2.0000      -0.589816       -16.0497
 166   2.0000      -0.586218       -15.9518
 167   2.0000      -0.585687       -15.9374
 168   2.0000      -0.574915       -15.6442
 169   2.0000      -0.573934       -15.6176
 170   2.0000      -0.568093       -15.4586
 171   2.0000      -0.566596       -15.4179
 172   2.0000      -0.557812       -15.1788
 173   2.0000      -0.556412       -15.1407
 174   2.0000      -0.552682       -15.0393
 175   2.0000      -0.547417       -14.8960
 176   2.0000      -0.544930       -14.8283
 177   2.0000      -0.537580       -14.6283
 178   2.0000      -0.536359       -14.5951
 179   2.0000      -0.534485       -14.5441
 180   2.0000      -0.533971       -14.5301
 181   2.0000      -0.532530       -14.4909
 182   2.0000      -0.532409       -14.4876
 183   2.0000      -0.532223       -14.4825
 184   2.0000      -0.525557       -14.3011
 185   2.0000      -0.523529       -14.2459
 186   2.0000      -0.520568       -14.1654
 187   2.0000      -0.518196       -14.1008
 188   2.0000      -0.514367       -13.9966
 189   2.0000      -0.512073       -13.9342
 190   2.0000      -0.508598       -13.8397
 191   2.0000      -0.507362       -13.8060
 192   2.0000      -0.504724       -13.7343
 193   2.0000      -0.504531       -13.7290
 194   2.0000      -0.502196       -13.6655
 195   2.0000      -0.501934       -13.6583
 196   2.0000      -0.499765       -13.5993
 197   2.0000      -0.498363       -13.5611
 198   2.0000      -0.491628       -13.3779
 199   2.0000      -0.490265       -13.3408
 200   2.0000      -0.488223       -13.2852
 201   2.0000      -0.483308       -13.1515
 202   2.0000      -0.481909       -13.1134
 203   2.0000      -0.480797       -13.0832
 204   2.0000      -0.479488       -13.0475
 205   2.0000      -0.477168       -12.9844
 206   2.0000      -0.474464       -12.9108
 207   2.0000      -0.473413       -12.8822
 208   2.0000      -0.470163       -12.7938
 209   2.0000      -0.468395       -12.7457
 210   2.0000      -0.466640       -12.6979
 211   2.0000      -0.465059       -12.6549
 212   2.0000      -0.461726       -12.5642
 213   2.0000      -0.459937       -12.5155
 214   2.0000      -0.448839       -12.2135
 215   2.0000      -0.447498       -12.1771
 216   2.0000      -0.447130       -12.1670
 217   2.0000      -0.446085       -12.1386
 218   2.0000      -0.444565       -12.0972
 219   2.0000      -0.442996       -12.0545
 220   2.0000      -0.441944       -12.0259
 221   2.0000      -0.439268       -11.9531
 222   2.0000      -0.437484       -11.9045
 223   2.0000      -0.436863       -11.8877
 224   2.0000      -0.435428       -11.8486
 225   2.0000      -0.433973       -11.8090
 226   2.0000      -0.432153       -11.7595
 227   2.0000      -0.430678       -11.7193
 228   2.0000      -0.429140       -11.6775
 229   2.0000      -0.427976       -11.6458
 230   2.0000      -0.427416       -11.6306
 231   2.0000      -0.426985       -11.6188
 232   2.0000      -0.425222       -11.5709
 233   2.0000      -0.423235       -11.5168
 234   2.0000      -0.422013       -11.4836
 235   2.0000      -0.420314       -11.4373
 236   2.0000      -0.417515       -11.3612
 237   2.0000      -0.417100       -11.3499
 238   2.0000      -0.415758       -11.3133
 239   2.0000      -0.411837       -11.2067
 240   2.0000      -0.411649       -11.2015
 241   2.0000      -0.411436       -11.1957
 242   2.0000      -0.411061       -11.1855
 243   2.0000      -0.409345       -11.1388
 244   2.0000      -0.400243       -10.8912
 245   2.0000      -0.399670       -10.8756
 246   2.0000      -0.396569       -10.7912
 247   2.0000      -0.383810       -10.4440
 248   2.0000      -0.377820       -10.2810
 249   2.0000      -0.370384       -10.0787
 250   2.0000      -0.362873        -9.8743
 251   2.0000      -0.354633        -9.6501
 252   2.0000      -0.338636        -9.2148
 253   2.0000      -0.334383        -9.0990
 254   2.0000      -0.334173        -9.0933
 255   2.0000      -0.332817        -9.0564
 256   2.0000      -0.330206        -8.9854
 257   2.0000      -0.329057        -8.9541
 258   2.0000      -0.326366        -8.8809
 259   2.0000      -0.318164        -8.6577
 260   2.0000      -0.313428        -8.5288
 261   2.0000      -0.312389        -8.5005
 262   2.0000      -0.302345        -8.2272
 263   2.0000      -0.291978        -7.9451
 264   2.0000      -0.291010        -7.9188
 265   2.0000      -0.264275        -7.1913
 266   2.0000      -0.240414        -6.5420
 267   0.0000      -0.108221        -2.9448
 268   0.0000      -0.085568        -2.3284
 269   0.0000      -0.078158        -2.1268
 270   0.0000      -0.067431        -1.8349
 271   0.0000      -0.063419        -1.7257

MULLIKEN ATOMIC CHARGES
-----------------------
   0 C :   -0.126698
   1 C :    0.119874
   2 O :   -0.154189
   3 C :    0.010259
   4 C :   -0.006781
   5 C :    0.238335
   6 C :   -0.319830
   7 C :   -0.202161
   8 N :    0.168771
   9 C :   -0.177718
  10 N :    0.158129
  11 C :   -0.017638
  12 C :    0.003442
  13 C :    0.078692
  14 C :    0.034287
  15 C :   -0.027624
  16 C :    0.038258
  17 C :    0.039464
  18 C :   -0.021345
  19 C :    0.040602
  20 C :   -0.099085
  21 C :    0.001228
  22 C :    0.029090
  23 C :   -0.077415
  24 S :    0.174695
  25 C :   -0.067104
  26 C :    0.014057
  27 C :   -0.114084
  28 C :    0.103909
  29 C :    0.101186
  30 C :   -0.056851
  31 C :   -0.134837
  32 S :    0.219282
  33 C :    0.012966
  34 N :   -0.058125
  35 N :   -0.056563
  36 C :    0.012422
  37 C :   -0.029193
  38 C :   -0.028905
  39 N :    0.076071
  40 O :   -0.086395
  41 N :    0.072967
  42 C :   -0.133040
  43 C :   -0.061203
  44 C :    0.015783
  45 C :   -0.072148
  46 S :    0.218423
  47 C :   -0.069670
  48 C :    0.000228
  49 C :   -0.110556
  50 C :    0.106579
  51 C :    0.104807
  52 C :    0.003056
  53 C :   -0.115919
  54 S :    0.181425
  55 C :    0.073422
  56 C :   -0.131083
  57 C :    0.115950
  58 O :   -0.154910
  59 C :    0.014505
  60 C :   -0.014202
  61 C :    0.268849
  62 C :   -0.346375
  63 C :   -0.199690
  64 N :    0.172735
  65 C :   -0.178971
  66 N :    0.152572
  67 C :   -0.023691
  68 C :    0.006034
  69 C :    0.077914
  70 C :    0.034809
  71 C :   -0.022595
  72 C :    0.035432
  73 C :    0.036959
  74 C :   -0.019463
  75 H :    0.000981
  76 H :   -0.013312
  77 H :    0.000045
  78 H :   -0.008242
  79 H :   -0.007429
  80 H :   -0.021367
  81 H :    0.024843
  82 H :   -0.012058
  83 H :    0.036150
  84 H :    0.012851
  85 H :    0.014164
  86 H :    0.022577
  87 H :    0.016689
  88 H :    0.012965
  89 H :   -0.005187
  90 H :   -0.003349
  91 H :    0.020885
  92 H :    0.015749
  93 H :    0.012792
  94 H :    0.037577
  95 H :    0.013744
  96 H :    0.012901
  97 H :   -0.003409
  98 H :    0.019580
  99 H :   -0.000942
 100 H :   -0.014512
 101 H :   -0.000058
 102 H :   -0.006938
 103 H :   -0.006819
 104 H :   -0.022280
Sum of atomic charges:   -0.0000000

LOEWDIN ATOMIC CHARGES
----------------------
   0 C :   -0.099324
   1 C :    0.086980
   2 O :   -0.146316
   3 C :   -0.033285
   4 C :   -0.003810
   5 C :    0.061288
   6 C :   -0.140504
   7 C :   -0.032110
   8 N :   -0.050731
   9 C :   -0.021517
  10 N :   -0.050457
  11 C :   -0.017053
  12 C :    0.018072
  13 C :   -0.009782
  14 C :   -0.003222
  15 C :   -0.002674
  16 C :   -0.012938
  17 C :   -0.013467
  18 C :   -0.012722
  19 C :    0.044525
  20 C :   -0.176974
  21 C :   -0.011602
  22 C :   -0.033076
  23 C :   -0.171319
  24 S :    0.474359
  25 C :   -0.185476
  26 C :   -0.030463
  27 C :   -0.035274
  28 C :   -0.022358
  29 C :   -0.024252
  30 C :   -0.033020
  31 C :   -0.179625
  32 S :    0.491143
  33 C :   -0.027938
  34 N :   -0.062543
  35 N :   -0.061893
  36 C :   -0.028428
  37 C :   -0.057898
  38 C :   -0.058115
  39 N :   -0.006959
  40 O :    0.082344
  41 N :   -0.006861
  42 C :   -0.178793
  43 C :   -0.033292
  44 C :   -0.028783
  45 C :   -0.186731
  46 S :    0.490408
  47 C :   -0.173337
  48 C :   -0.029077
  49 C :   -0.035303
  50 C :   -0.023971
  51 C :   -0.022159
  52 C :   -0.012340
  53 C :   -0.180095
  54 S :    0.468531
  55 C :    0.041904
  56 C :   -0.099763
  57 C :    0.086933
  58 O :   -0.145693
  59 C :   -0.032706
  60 C :   -0.005800
  61 C :    0.068497
  62 C :   -0.145473
  63 C :   -0.016598
  64 N :   -0.044832
  65 C :   -0.022511
  66 N :   -0.054523
  67 C :   -0.018649
  68 C :    0.016948
  69 C :   -0.009704
  70 C :   -0.003170
  71 C :   -0.002016
  72 C :   -0.013133
  73 C :   -0.013266
  74 C :   -0.013067
  75 H :    0.039605
  76 H :    0.035320
  77 H :    0.035275
  78 H :    0.032104
  79 H :    0.031623
  80 H :    0.030175
  81 H :    0.050692
  82 H :    0.036439
  83 H :    0.035772
  84 H :    0.025113
  85 H :    0.025122
  86 H :    0.030208
  87 H :    0.026256
  88 H :    0.024637
  89 H :    0.034265
  90 H :    0.034601
  91 H :    0.029705
  92 H :    0.026336
  93 H :    0.024759
  94 H :    0.035680
  95 H :    0.025364
  96 H :    0.024837
  97 H :    0.034592
  98 H :    0.044859
  99 H :    0.038971
 100 H :    0.034992
 101 H :    0.035381
 102 H :    0.032453
 103 H :    0.031742
 104 H :    0.029957

  Mayer bond orders larger than 0.100000
B(  0-C ,  1-C ) :   0.9594 B(  0-C ,  5-C ) :   1.0297 B(  0-C , 19-C ) :   1.6436
B(  1-C ,  2-O ) :   2.1941 B(  1-C ,  3-C ) :   0.9392 B(  3-C ,  4-C ) :   1.4171
B(  3-C , 14-C ) :   1.2387 B(  4-C ,  5-C ) :   1.0041 B(  4-C , 11-C ) :   1.2607
B(  5-C ,  6-C ) :   1.6566 B(  6-C ,  7-C ) :   1.1528 B(  6-C ,  9-C ) :   1.1313
B(  7-C ,  8-N ) :   3.0231 B(  9-C , 10-N ) :   2.9998 B( 11-C , 12-C ) :   1.4675
B( 11-C , 75-H ) :   0.9869 B( 12-C , 13-C ) :   1.2247 B( 12-C , 76-H ) :   0.9945
B( 13-C , 14-C ) :   1.2415 B( 13-C , 18-C ) :   1.2387 B( 14-C , 15-C ) :   1.2748
B( 15-C , 16-C ) :   1.4756 B( 15-C , 77-H ) :   0.9867 B( 16-C , 17-C ) :   1.2548
B( 16-C , 78-H ) :   0.9872 B( 17-C , 18-C ) :   1.4949 B( 17-C , 79-H ) :   0.9894
B( 18-C , 80-H ) :   0.9982 B( 19-C , 20-C ) :   1.1353 B( 19-C , 81-H ) :   0.9485
B( 20-C , 21-C ) :   1.3923 B( 20-C , 24-S ) :   1.1010 B( 21-C , 22-C ) :   1.3286
B( 21-C , 82-H ) :   1.0091 B( 22-C , 23-C ) :   1.4928 B( 22-C , 27-C ) :   0.9390
B( 23-C , 24-S ) :   1.1097 B( 23-C , 25-C ) :   1.1937 B( 25-C , 26-C ) :   1.5020
B( 25-C , 32-S ) :   1.0850 B( 26-C , 27-C ) :   0.9408 B( 26-C , 30-C ) :   1.3104
B( 27-C , 28-C ) :   1.0361 B( 27-C , 29-C ) :   1.0316 B( 28-C , 83-H ) :   0.9635
B( 28-C , 84-H ) :   0.9640 B( 28-C , 85-H ) :   0.9644 B( 29-C , 86-H ) :   0.9647
B( 29-C , 87-H ) :   0.9657 B( 29-C , 88-H ) :   0.9650 B( 30-C , 31-C ) :   1.4629
B( 30-C , 89-H ) :   0.9909 B( 31-C , 32-S ) :   1.0965 B( 31-C , 33-C ) :   1.1874
B( 33-C , 34-N ) :   1.7220 B( 33-C , 36-C ) :   0.1098 B( 33-C , 38-C ) :   1.0757
B( 34-N , 35-N ) :   1.2138 B( 35-N , 36-C ) :   1.7223 B( 36-C , 37-C ) :   1.0757
B( 36-C , 42-C ) :   1.1867 B( 37-C , 38-C ) :   1.1653 B( 37-C , 41-N ) :   1.6293
B( 38-C , 39-N ) :   1.6323 B( 39-N , 40-O ) :   1.0638 B( 39-N , 41-N ) :   0.1780
B( 40-O , 41-N ) :   1.0640 B( 42-C , 43-C ) :   1.4629 B( 42-C , 46-S ) :   1.0967
B( 43-C , 44-C ) :   1.3103 B( 43-C , 90-H ) :   0.9905 B( 44-C , 45-C ) :   1.5064
B( 44-C , 49-C ) :   0.9365 B( 45-C , 46-S ) :   1.0837 B( 45-C , 47-C ) :   1.1874
B( 47-C , 48-C ) :   1.4872 B( 47-C , 54-S ) :   1.1170 B( 48-C , 49-C ) :   0.9378
B( 48-C , 52-C ) :   1.3916 B( 49-C , 50-C ) :   1.0345 B( 49-C , 51-C ) :   1.0379
B( 50-C , 91-H ) :   0.9639 B( 50-C , 92-H ) :   0.9646 B( 50-C , 93-H ) :   0.9648
B( 51-C , 94-H ) :   0.9618 B( 51-C , 95-H ) :   0.9632 B( 51-C , 96-H ) :   0.9633
B( 52-C , 53-C ) :   1.3786 B( 52-C , 97-H ) :   0.9893 B( 53-C , 54-S ) :   1.0930
B( 53-C , 55-C ) :   1.1537 B( 55-C , 56-C ) :   1.6453 B( 55-C , 98-H ) :   0.9257
B( 56-C , 57-C ) :   0.9669 B( 56-C , 61-C ) :   1.0437 B( 57-C , 58-O ) :   2.1857
B( 57-C , 59-C ) :   0.9366 B( 59-C , 60-C ) :   1.4200 B( 59-C , 70-C ) :   1.2385
B( 60-C , 61-C ) :   0.9990 B( 60-C , 67-C ) :   1.2611 B( 61-C , 62-C ) :   1.6314
B( 62-C , 63-C ) :   1.1699 B( 62-C , 65-C ) :   1.1265 B( 63-C , 64-N ) :   2.9862
B( 65-C , 66-N ) :   2.9939 B( 67-C , 68-C ) :   1.4663 B( 67-C , 99-H ) :   0.9863
B( 68-C , 69-C ) :   1.2271 B( 68-C ,100-H ) :   0.9935 B( 69-C , 70-C ) :   1.2385
B( 69-C , 74-C ) :   1.2378 B( 70-C , 71-C ) :   1.2749 B( 71-C , 72-C ) :   1.4754
B( 71-C ,101-H ) :   0.9860 B( 72-C , 73-C ) :   1.2535 B( 72-C ,102-H ) :   0.9877
B( 73-C , 74-C ) :   1.4968 B( 73-C ,103-H ) :   0.9896 B( 74-C ,104-H ) :   0.9975

-----------------------------------------------------------------------------
         ABSORPTION SPECTRUM VIA TRANSITION ELECTRIC DIPOLE MOMENTS
-----------------------------------------------------------------------------
State   Energy  Wavelength   fosc         T2         TX        TY        TZ
        (cm-1)    (nm)                  (au**2)     (au)      (au)      (au)
-----------------------------------------------------------------------------
   0   13797.6    724.8   2.096937780  50.03309   3.59874   4.35760   4.25364
   1   18849.4    530.5   0.220147681   3.84497   0.44127   1.63375  -0.99050
   2   20389.4    490.5   0.021564347   0.34818  -0.15009  -0.01976   0.57032
   3   20423.4    489.6   0.084604157   1.36376   0.35356   0.08942  -1.10940
   4   21607.2    462.8   0.038585736   0.58790  -0.00481   0.57619  -0.50585
   5   24103.4    414.9   0.117817480   1.60919  -0.36997  -1.17195   0.31439
   6   24422.0    409.5   0.386403182   5.20877  -1.00319  -1.08673  -1.73821
   7   26945.7    371.1   0.233045261   2.84725   1.26808  -0.21415   1.09242
   8   27298.9    366.3   0.175427825   2.11558  -1.07240  -0.97711   0.10388
   9   27912.9    358.3   0.060062311   0.70839  -0.49145  -0.12893   0.67100
  10   29202.4    342.4   0.028125366   0.31707  -0.01111  -0.18147   0.53293
  11   29419.6    339.9   0.004220942   0.04723   0.15633   0.14423   0.04465
  12   30151.9    331.7   0.020026759   0.21866  -0.41517  -0.19165  -0.09779
  13   30282.9    330.2   0.080742081   0.87776  -0.07508  -0.30706   0.88195
  14   30557.0    327.3   0.064303835   0.69279   0.60304   0.51853  -0.24548
  15   30678.2    326.0   0.029783490   0.31961  -0.54932   0.04737  -0.12494
  16   31364.5    318.8   0.160856079   1.68840  -0.32539   0.62599  -1.09117
  17   31613.2    316.3   0.263692815   2.74603  -1.41628  -0.85973  -0.03247
  18   31630.4    316.2   0.004077721   0.04244  -0.15667  -0.13194   0.02214
  19   31792.0    314.5   0.021120858   0.21871   0.10622   0.22869   0.39386
  20   32243.9    310.1   0.137118672   1.39999  -0.75824   0.11150  -0.90146
  21   32482.4    307.9   0.166690016   1.68942  -0.94199  -0.88830  -0.11408
  22   32865.9    304.3   0.004820062   0.04828  -0.14304  -0.14926   0.07446
  23   33117.5    302.0   0.173566641   1.72538  -1.29354  -0.21227   0.08410
  24   33316.2    300.2   0.220717593   2.18101   1.14871   0.32170   0.87062
  25   33711.3    296.6   0.141428135   1.38114   0.35219   0.98036  -0.54404
  26   33822.2    295.7   0.398846218   3.88221  -1.57000  -1.16028  -0.26658
  27   34004.1    294.1   0.002471122   0.02392  -0.05668  -0.06206   0.12985
  28   34055.8    293.6   0.173285948   1.67513  -0.11163   0.85385  -0.96623
  29   34521.9    289.7   0.009432026   0.08995   0.09297  -0.28514  -0.00060
  30   34582.6    289.2   0.002809214   0.02674   0.15941   0.02841   0.02292
  31   35022.2    285.5   0.184593930   1.73520  -1.12502   0.26364  -0.63247
  32   35257.4    283.6   0.113706853   1.06173   0.84417   0.58579  -0.07719
  33   35433.6    282.2   0.080187057   0.74501   0.60374   0.61684   0.00501
  34   36080.1    277.2   0.070894087   0.64687  -0.12871   0.44637  -0.65655
  35   36495.5    274.0   0.109881143   0.99120   0.23461  -0.00513   0.96754
  36   36792.5    271.8   0.000670553   0.00600   0.01728   0.02458   0.07139
  37   37694.0    265.3   0.013322096   0.11635  -0.17558  -0.25213   0.14818
  38   37961.3    263.4   0.043545432   0.37764   0.49476   0.22605  -0.28593
  39   38361.9    260.7   0.003912998   0.03358  -0.01995  -0.07052   0.16796
  40   38694.3    258.4   0.051979308   0.44224   0.59733   0.24989   0.15164
  41   38797.7    257.7   0.016531236   0.14027  -0.03867  -0.36076   0.09289
  42   39084.5    255.9   0.023426705   0.19733  -0.37589  -0.08643  -0.22036
  43   39411.4    253.7   0.017771287   0.14845   0.09006  -0.23108   0.29485
  44   39891.1    250.7   0.056237695   0.46412  -0.35565   0.22844  -0.53427
  45   40068.3    249.6   0.049900138   0.40999   0.45816  -0.00924   0.44721
  46   40238.9    248.5   0.017305231   0.14158   0.20625   0.27620   0.15085

FINAL SINGLE POINT ENERGY     -4556.462066145629

DIPOLE MOMENT
-------------
                                X             Y             Z
Electronic contribution:     -4.59520       7.71623     -13.59834
Nuclear contribution   :      4.70710      -7.75618      13.87297
                        -----------------------------------------
Total Dipole Moment    :      0.11191      -0.03995       0.27463
                        -----------------------------------------
Magnitude (a.u.)       :      0.29923
Magnitude (Debye)      :      0.76059

Rotational constants in cm-1:     0.001893     0.000177     0.000166
Rotational constants in MHz :    56.761821     5.316009     4.973122

                             ****ORCA TERMINATED NORMALLY****
TOTAL RUN TIME: 0 days 0 hours 10 minutes 47 seconds 330 msec
