                         Program Version 4.2.0 -  RELEASE  -
|  1> # ORCA input file
|  2> # SCF done       -151.902943134867          0.000263476174
|  3> ! CAM-B3LYP def2-SVP def2/J RIJCOSX Grid4 TightSCF
|  4> %maxcore 5000
|  5> %tddft
|  6>     Mode sTDDFT
|  7>     Ethresh 5.0
|  8>     maxcore 5000
|  9> end
| 10>
| 11> %pal
| 12>   nprocs 6
| 13>   end
| 14> * xyz 0 1
| 15>    C       -0.48986         0.34719         1.36802
| 16>    F       -1.24892         0.97497         2.26991
| 17>    C        0.32452         1.08258         0.51344
| 18>    F        0.36317         2.41350         0.58612
| 19>    C        1.09508         0.39761        -0.41971
| 20>    F        1.88471         1.07295        -1.25765
| 21>    C        1.05126        -0.98779        -0.48361
| 22>    F        1.82665        -1.57603        -1.40227
| 23>    C        0.24941        -1.76790         0.36885
| 24>    C       -0.52394        -1.03760         1.28983
| 25>    F       -1.35093        -1.66380         2.13668
| 26>    C        0.22527        -3.20901         0.30173
| 27>    C       -0.34766        -4.08638         1.20294
| 28>    C       -0.18111        -5.41538         0.82028
| 29>    C        0.51864        -5.57805        -0.38196
| 30>    S        0.98535        -4.05787        -1.04072
| 31>    C        0.68684        -6.90696        -0.76429
| 32>    C        0.11462        -7.77963         0.14314
| 33>    S       -0.64342        -6.94050         1.48831
| 34>    C        0.07762        -9.20718         0.10403
| 35>    C        0.66449       -10.00249        -0.90492
| 36>    C        0.58443       -11.43866        -0.87736
| 37>    N        1.15815       -12.15320        -1.86473
| 38>    C        1.77703       -11.55116        -2.82596
| 39>    C        1.85908       -10.13517        -2.85145
| 40>    N        1.32204        -9.41048        -1.92745
| 41>    F        2.49525        -9.50366        -3.83671
| 42>    F        2.32680       -12.29347        -3.78211
| 43>    C       -0.07601       -12.16318         0.14277
| 44>    C       -0.66433       -11.36869         1.15459
| 45>    C       -0.58063        -9.92844         1.12438
| 46>    N       -1.19935        -9.37755         2.16903
| 47>    S       -1.81971       -10.53308         3.09078
| 48>    N       -1.34249       -11.79352         2.22273
| 49>    C       -0.13769       -13.58204         0.13935
| 50>    C       -0.76922       -14.37999         1.08363
| 51>    C       -0.64247       -15.72822         0.78204
| 52>    C        0.08495       -15.98971        -0.38685
| 53>    S        0.61863       -14.52624        -1.13179
| 54>    C        0.20641       -17.35126        -0.68065
| 55>    C       -0.43223       -18.14443         0.24151
| 56>    S       -1.18963       -17.19514         1.51494
| 57>    C       -0.42806       -19.59314         0.26240
| 58>    C       -1.47324       -20.33814         0.72559
| 59>    O       -1.46562       -21.67966         0.77541
| 60>    C       -0.37258       -22.37125         0.37236
| 61>    C       -0.41009       -23.76241         0.47002
| 62>    C        0.68222       -24.49861         0.06685
| 63>    C        1.81703       -23.86561        -0.43546
| 64>    C        1.85286       -22.49394        -0.53434
| 65>    C        0.75701       -21.72549        -0.13151
| 66>    C        0.79171       -20.25997        -0.23928
| 67>    O        1.75411       -19.66684        -0.69198
| 68>    C       -2.77847       -19.79587         1.21214
| 69>    H       -0.85249        -3.79683         2.10336
| 70>    H        1.19577        -7.23515        -1.64906
| 71>    H       -1.28449       -13.97625         1.93413
| 72>    H        0.73894       -17.74447        -1.52522
| 73>    H       -1.29769       -24.23384         0.86129
| 74>    H        0.65639       -25.57502         0.14220
| 75>    H        2.66637       -24.45417        -0.74587
| 76>    H        2.71582       -21.97262        -0.91961
| 77>    H       -3.11241       -18.96484         0.59719
| 78>    H       -2.68515       -19.44422         2.23876
| 79>    H       -3.51838       -20.59234         1.18797
| 80> *
| 81>
| 82>                          ****END OF INPUT****

CARTESIAN COORDINATES (ANGSTROEM)
---------------------------------
  C     -0.489860    0.347190    1.368020
  F     -1.248920    0.974970    2.269910
  C      0.324520    1.082580    0.513440
  F      0.363170    2.413500    0.586120
  C      1.095080    0.397610   -0.419710
  F      1.884710    1.072950   -1.257650
  C      1.051260   -0.987790   -0.483610
  F      1.826650   -1.576030   -1.402270
  C      0.249410   -1.767900    0.368850
  C     -0.523940   -1.037600    1.289830
  F     -1.350930   -1.663800    2.136680
  C      0.225270   -3.209010    0.301730
  C     -0.347660   -4.086380    1.202940
  C     -0.181110   -5.415380    0.820280
  C      0.518640   -5.578050   -0.381960
  S      0.985350   -4.057870   -1.040720
  C      0.686840   -6.906960   -0.764290
  C      0.114620   -7.779630    0.143140
  S     -0.643420   -6.940500    1.488310
  C      0.077620   -9.207180    0.104030
  C      0.664490  -10.002490   -0.904920
  C      0.584430  -11.438660   -0.877360
  N      1.158150  -12.153200   -1.864730
  C      1.777030  -11.551160   -2.825960
  C      1.859080  -10.135170   -2.851450
  N      1.322040   -9.410480   -1.927450
  F      2.495250   -9.503660   -3.836710
  F      2.326800  -12.293470   -3.782110
  C     -0.076010  -12.163180    0.142770
  C     -0.664330  -11.368690    1.154590
  C     -0.580630   -9.928440    1.124380
  N     -1.199350   -9.377550    2.169030
  S     -1.819710  -10.533080    3.090780
  N     -1.342490  -11.793520    2.222730
  C     -0.137690  -13.582040    0.139350
  C     -0.769220  -14.379990    1.083630
  C     -0.642470  -15.728220    0.782040
  C      0.084950  -15.989710   -0.386850
  S      0.618630  -14.526240   -1.131790
  C      0.206410  -17.351260   -0.680650
  C     -0.432230  -18.144430    0.241510
  S     -1.189630  -17.195140    1.514940
  C     -0.428060  -19.593140    0.262400
  C     -1.473240  -20.338140    0.725590
  O     -1.465620  -21.679660    0.775410
  C     -0.372580  -22.371250    0.372360
  C     -0.410090  -23.762410    0.470020
  C      0.682220  -24.498610    0.066850
  C      1.817030  -23.865610   -0.435460
  C      1.852860  -22.493940   -0.534340
  C      0.757010  -21.725490   -0.131510
  C      0.791710  -20.259970   -0.239280
  O      1.754110  -19.666840   -0.691980
  C     -2.778470  -19.795870    1.212140
  H     -0.852490   -3.796830    2.103360
  H      1.195770   -7.235150   -1.649060
  H     -1.284490  -13.976250    1.934130
  H      0.738940  -17.744470   -1.525220
  H     -1.297690  -24.233840    0.861290
  H      0.656390  -25.575020    0.142200
  H      2.666370  -24.454170   -0.745870
  H      2.715820  -21.972620   -0.919610
  H     -3.112410  -18.964840    0.597190
  H     -2.685150  -19.444220    2.238760
  H     -3.518380  -20.592340    1.187970

 Total Charge           Charge          ....    0
 Multiplicity           Mult            ....    1
 Number of Electrons    NEL             ....  414
 Basis Dimension        Dim             ....  831

ORBITAL ENERGIES
----------------

  NO   OCC          E(Eh)            E(eV)
   0   2.0000     -89.038630     -2422.8643
   1   2.0000     -88.952551     -2420.5220
   2   2.0000     -88.948527     -2420.4125
   3   2.0000     -88.945745     -2420.3368
   4   2.0000     -88.944095     -2420.2919
   5   2.0000     -24.811324      -675.1505
   6   2.0000     -24.810796      -675.1361
   7   2.0000     -24.807185      -675.0378
   8   2.0000     -24.806810      -675.0276
   9   2.0000     -24.806153      -675.0097
  10   2.0000     -24.802367      -674.9067
  11   2.0000     -24.802143      -674.9006
  12   2.0000     -19.299407      -525.1636
  13   2.0000     -19.186500      -522.0912
  14   2.0000     -14.451518      -393.2458
  15   2.0000     -14.448612      -393.1667
  16   2.0000     -14.447915      -393.1477
  17   2.0000     -14.446589      -393.1117
  18   2.0000     -10.426549      -283.7208
  19   2.0000     -10.426255      -283.7128
  20   2.0000     -10.387044      -282.6458
  21   2.0000     -10.385444      -282.6023
  22   2.0000     -10.384919      -282.5880
  23   2.0000     -10.383190      -282.5410
  24   2.0000     -10.383138      -282.5396
  25   2.0000     -10.366513      -282.0871
  26   2.0000     -10.352042      -281.6934
  27   2.0000     -10.351758      -281.6857
  28   2.0000     -10.340560      -281.3809
  29   2.0000     -10.338152      -281.3154
  30   2.0000     -10.335170      -281.2343
  31   2.0000     -10.333697      -281.1942
  32   2.0000     -10.324362      -280.9402
  33   2.0000     -10.314202      -280.6637
  34   2.0000     -10.310615      -280.5661
  35   2.0000     -10.306426      -280.4521
  36   2.0000     -10.305024      -280.4140
  37   2.0000     -10.301482      -280.3176
  38   2.0000     -10.300906      -280.3019
  39   2.0000     -10.289087      -279.9803
  40   2.0000     -10.286982      -279.9230
  41   2.0000     -10.286485      -279.9095
  42   2.0000     -10.285682      -279.8876
  43   2.0000     -10.285456      -279.8815
  44   2.0000     -10.283561      -279.8299
  45   2.0000     -10.282729      -279.8073
  46   2.0000     -10.281463      -279.7728
  47   2.0000     -10.281246      -279.7669
  48   2.0000     -10.280836      -279.7558
  49   2.0000     -10.280172      -279.7377
  50   2.0000     -10.276598      -279.6405
  51   2.0000     -10.274394      -279.5805
  52   2.0000     -10.272067      -279.5172
  53   2.0000     -10.267049      -279.3806
  54   2.0000      -8.129830      -221.2239
  55   2.0000      -8.047449      -218.9822
  56   2.0000      -8.043696      -218.8801
  57   2.0000      -8.039818      -218.7746
  58   2.0000      -8.037765      -218.7187
  59   2.0000      -6.100957      -166.0155
  60   2.0000      -6.093172      -165.8036
  61   2.0000      -6.092534      -165.7863
  62   2.0000      -6.017060      -163.7325
  63   2.0000      -6.013301      -163.6302
  64   2.0000      -6.012833      -163.6175
  65   2.0000      -6.009531      -163.5277
  66   2.0000      -6.009217      -163.5191
  67   2.0000      -6.008980      -163.5127
  68   2.0000      -6.007472      -163.4716
  69   2.0000      -6.005207      -163.4100
  70   2.0000      -6.005165      -163.4089
  71   2.0000      -6.003026      -163.3506
  72   2.0000      -6.001308      -163.3039
  73   2.0000      -5.999385      -163.2516
  74   2.0000      -1.339069       -36.4379
  75   2.0000      -1.334294       -36.3080
  76   2.0000      -1.329257       -36.1709
  77   2.0000      -1.325160       -36.0594
  78   2.0000      -1.322934       -35.9989
  79   2.0000      -1.311977       -35.7007
  80   2.0000      -1.307189       -35.5704
  81   2.0000      -1.213824       -33.0298
  82   2.0000      -1.136272       -30.9195
  83   2.0000      -1.109487       -30.1907
  84   2.0000      -1.107212       -30.1288
  85   2.0000      -1.035142       -28.1676
  86   2.0000      -1.004249       -27.3270
  87   2.0000      -0.997372       -27.1399
  88   2.0000      -0.993175       -27.0257
  89   2.0000      -0.986581       -26.8462
  90   2.0000      -0.969975       -26.3944
  91   2.0000      -0.963824       -26.2270
  92   2.0000      -0.942601       -25.6495
  93   2.0000      -0.934542       -25.4302
  94   2.0000      -0.908584       -24.7238
  95   2.0000      -0.887673       -24.1548
  96   2.0000      -0.880635       -23.9633
  97   2.0000      -0.873568       -23.7710
  98   2.0000      -0.869745       -23.6670
  99   2.0000      -0.860167       -23.4063
 100   2.0000      -0.850954       -23.1556
 101   2.0000      -0.849437       -23.1143
 102   2.0000      -0.843375       -22.9494
 103   2.0000      -0.818986       -22.2857
 104   2.0000      -0.811574       -22.0841
 105   2.0000      -0.803563       -21.8661
 106   2.0000      -0.793351       -21.5882
 107   2.0000      -0.788177       -21.4474
 108   2.0000      -0.783562       -21.3218
 109   2.0000      -0.765190       -20.8219
 110   2.0000      -0.758331       -20.6352
 111   2.0000      -0.743692       -20.2369
 112   2.0000      -0.740580       -20.1522
 113   2.0000      -0.736912       -20.0524
 114   2.0000      -0.719490       -19.5783
 115   2.0000      -0.705432       -19.1958
 116   2.0000      -0.687312       -18.7027
 117   2.0000      -0.684331       -18.6216
 118   2.0000      -0.682663       -18.5762
 119   2.0000      -0.677249       -18.4289
 120   2.0000      -0.673482       -18.3264
 121   2.0000      -0.666165       -18.1273
 122   2.0000      -0.659764       -17.9531
 123   2.0000      -0.653015       -17.7694
 124   2.0000      -0.648284       -17.6407
 125   2.0000      -0.642517       -17.4838
 126   2.0000      -0.640725       -17.4350
 127   2.0000      -0.629965       -17.1422
 128   2.0000      -0.624933       -17.0053
 129   2.0000      -0.624124       -16.9833
 130   2.0000      -0.621448       -16.9105
 131   2.0000      -0.615166       -16.7395
 132   2.0000      -0.614253       -16.7147
 133   2.0000      -0.611506       -16.6399
 134   2.0000      -0.610286       -16.6067
 135   2.0000      -0.596577       -16.2337
 136   2.0000      -0.593168       -16.1409
 137   2.0000      -0.585385       -15.9291
 138   2.0000      -0.581311       -15.8183
 139   2.0000      -0.575836       -15.6693
 140   2.0000      -0.571347       -15.5472
 141   2.0000      -0.568619       -15.4729
 142   2.0000      -0.566544       -15.4164
 143   2.0000      -0.565983       -15.4012
 144   2.0000      -0.564138       -15.3510
 145   2.0000      -0.561735       -15.2856
 146   2.0000      -0.559721       -15.2308
 147   2.0000      -0.549755       -14.9596
 148   2.0000      -0.548317       -14.9205
 149   2.0000      -0.542850       -14.7717
 150   2.0000      -0.541115       -14.7245
 151   2.0000      -0.529838       -14.4176
 152   2.0000      -0.522912       -14.2292
 153   2.0000      -0.519472       -14.1355
 154   2.0000      -0.518506       -14.1093
 155   2.0000      -0.517711       -14.0876
 156   2.0000      -0.516554       -14.0561
 157   2.0000      -0.512508       -13.9461
 158   2.0000      -0.508531       -13.8378
 159   2.0000      -0.505055       -13.7432
 160   2.0000      -0.504559       -13.7298
 161   2.0000      -0.501455       -13.6453
 162   2.0000      -0.499627       -13.5956
 163   2.0000      -0.498185       -13.5563
 164   2.0000      -0.493238       -13.4217
 165   2.0000      -0.487351       -13.2615
 166   2.0000      -0.485630       -13.2147
 167   2.0000      -0.483206       -13.1487
 168   2.0000      -0.479020       -13.0348
 169   2.0000      -0.475554       -12.9405
 170   2.0000      -0.473805       -12.8929
 171   2.0000      -0.470202       -12.7948
 172   2.0000      -0.465873       -12.6770
 173   2.0000      -0.463408       -12.6100
 174   2.0000      -0.460942       -12.5429
 175   2.0000      -0.453367       -12.3368
 176   2.0000      -0.449235       -12.2243
 177   2.0000      -0.446539       -12.1510
 178   2.0000      -0.445071       -12.1110
 179   2.0000      -0.443977       -12.0812
 180   2.0000      -0.442582       -12.0433
 181   2.0000      -0.433496       -11.7960
 182   2.0000      -0.431075       -11.7302
 183   2.0000      -0.424483       -11.5508
 184   2.0000      -0.419625       -11.4186
 185   2.0000      -0.417589       -11.3632
 186   2.0000      -0.410700       -11.1757
 187   2.0000      -0.400308       -10.8929
 188   2.0000      -0.398274       -10.8376
 189   2.0000      -0.393755       -10.7146
 190   2.0000      -0.382600       -10.4111
 191   2.0000      -0.357076        -9.7165
 192   2.0000      -0.356069        -9.6891
 193   2.0000      -0.352886        -9.6025
 194   2.0000      -0.351894        -9.5755
 195   2.0000      -0.350619        -9.5408
 196   2.0000      -0.340871        -9.2756
 197   2.0000      -0.337627        -9.1873
 198   2.0000      -0.331883        -9.0310
 199   2.0000      -0.323694        -8.8082
 200   2.0000      -0.320492        -8.7210
 201   2.0000      -0.318643        -8.6707
 202   2.0000      -0.300871        -8.1871
 203   2.0000      -0.285895        -7.7796
 204   2.0000      -0.282883        -7.6976
 205   2.0000      -0.267167        -7.2700
 206   2.0000      -0.227315        -6.1855
 207   0.0000      -0.106878        -2.9083
 208   0.0000      -0.032410        -0.8819
 209   0.0000      -0.021670        -0.5897
 210   0.0000      -0.019439        -0.5290
 211   0.0000      -0.014978        -0.4076

MULLIKEN ATOMIC CHARGES
-----------------------
   0 C :    0.173992
   1 F :   -0.161052
   2 C :    0.127621
   3 F :   -0.153702
   4 C :    0.173763
   5 F :   -0.159367
   6 C :    0.121037
   7 F :   -0.165901
   8 C :    0.069057
   9 C :    0.133770
  10 F :   -0.168187
  11 C :   -0.108096
  12 C :   -0.050849
  13 C :    0.014551
  14 C :    0.004921
  15 S :    0.149760
  16 C :   -0.053983
  17 C :   -0.178276
  18 S :    0.148711
  19 C :    0.199420
  20 C :   -0.070466
  21 C :   -0.066977
  22 N :   -0.034917
  23 C :    0.147595
  24 C :    0.138144
  25 N :    0.000851
  26 F :   -0.143492
  27 F :   -0.137449
  28 C :    0.187224
  29 C :   -0.003333
  30 C :   -0.023943
  31 N :   -0.329440
  32 S :    0.547674
  33 N :   -0.295938
  34 C :   -0.193474
  35 C :   -0.040561
  36 C :    0.000783
  37 C :    0.018514
  38 S :    0.155787
  39 C :   -0.001955
  40 C :   -0.145957
  41 S :    0.095997
  42 C :    0.009253
  43 C :   -0.061735
  44 O :   -0.200845
  45 C :    0.180849
  46 C :   -0.029841
  47 C :    0.035906
  48 C :    0.038710
  49 C :   -0.005547
  50 C :   -0.061565
  51 C :    0.160765
  52 O :   -0.187582
  53 C :    0.094426
  54 H :   -0.005581
  55 H :   -0.001150
  56 H :   -0.006045
  57 H :   -0.001498
  58 H :   -0.015982
  59 H :   -0.001444
  60 H :   -0.008325
  61 H :   -0.000136
  62 H :    0.056031
  63 H :    0.055960
  64 H :    0.033515
Sum of atomic charges:   -0.0000000

LOEWDIN ATOMIC CHARGES
----------------------
   0 C :    0.028564
   1 F :   -0.039074
   2 C :    0.034358
   3 F :   -0.033159
   4 C :    0.028554
   5 F :   -0.037790
   6 C :    0.054260
   7 F :   -0.040915
   8 C :   -0.078700
   9 C :    0.064079
  10 F :   -0.036787
  11 C :   -0.169587
  12 C :   -0.057499
  13 C :   -0.207617
  14 C :   -0.204568
  15 S :    0.431222
  16 C :   -0.054562
  17 C :   -0.156066
  18 S :    0.447991
  19 C :   -0.051209
  20 C :   -0.006199
  21 C :   -0.018955
  22 N :   -0.047623
  23 C :    0.057806
  24 C :    0.059170
  25 N :   -0.031731
  26 F :   -0.031788
  27 F :   -0.027045
  28 C :   -0.033928
  29 C :   -0.039623
  30 C :   -0.044924
  31 N :   -0.299898
  32 S :    0.668974
  33 N :   -0.278467
  34 C :   -0.170180
  35 C :   -0.044590
  36 C :   -0.208656
  37 C :   -0.198553
  38 S :    0.452706
  39 C :   -0.049944
  40 C :   -0.149718
  41 S :    0.410223
  42 C :   -0.134109
  43 C :    0.084553
  44 O :    0.001049
  45 C :    0.062285
  46 C :   -0.039421
  47 C :   -0.000019
  48 C :   -0.029754
  49 C :    0.022785
  50 C :   -0.085870
  51 C :    0.076354
  52 O :   -0.175043
  53 C :   -0.063225
  54 H :    0.030123
  55 H :    0.030474
  56 H :    0.029590
  57 H :    0.035856
  58 H :    0.035673
  59 H :    0.033797
  60 H :    0.031375
  61 H :    0.038783
  62 H :    0.042335
  63 H :    0.042788
  64 H :    0.041067

  Mayer bond orders larger than 0.100000
B(  0-C ,  1-F ) :   1.1666 B(  0-C ,  2-C ) :   1.2734 B(  0-C ,  9-C ) :   1.3047
B(  2-C ,  3-F ) :   1.1856 B(  2-C ,  4-C ) :   1.2762 B(  2-C ,  8-C ) :   0.1017
B(  4-C ,  5-F ) :   1.1697 B(  4-C ,  6-C ) :   1.3062 B(  6-C ,  7-F ) :   1.1417
B(  6-C ,  8-C ) :   1.2737 B(  8-C ,  9-C ) :   1.2800 B(  8-C , 11-C ) :   1.1142
B(  9-C , 10-F ) :   1.1338 B( 11-C , 12-C ) :   1.5194 B( 11-C , 15-S ) :   1.0959
B( 12-C , 13-C ) :   1.2527 B( 12-C , 54-H ) :   1.0010 B( 13-C , 14-C ) :   1.3992
B( 13-C , 18-S ) :   1.0325 B( 14-C , 15-S ) :   1.0534 B( 14-C , 16-C ) :   1.2285
B( 16-C , 17-C ) :   1.4860 B( 16-C , 55-H ) :   0.9930 B( 17-C , 18-S ) :   1.0983
B( 17-C , 19-C ) :   1.1777 B( 19-C , 20-C ) :   1.3076 B( 19-C , 28-C ) :   0.1252
B( 19-C , 30-C ) :   1.1861 B( 20-C , 21-C ) :   1.1095 B( 20-C , 25-N ) :   1.4199
B( 21-C , 22-N ) :   1.3891 B( 21-C , 28-C ) :   1.2831 B( 22-N , 23-C ) :   1.6586
B( 23-C , 24-C ) :   1.1052 B( 23-C , 27-F ) :   1.1852 B( 24-C , 25-N ) :   1.6744
B( 24-C , 26-F ) :   1.1706 B( 28-C , 29-C ) :   1.1957 B( 28-C , 34-C ) :   1.2132
B( 29-C , 30-C ) :   1.1120 B( 29-C , 33-N ) :   1.5026 B( 30-C , 31-N ) :   1.4709
B( 31-N , 32-S ) :   1.2712 B( 31-N , 33-N ) :   0.1539 B( 32-S , 33-N ) :   1.2800
B( 34-C , 35-C ) :   1.4648 B( 34-C , 38-S ) :   1.0835 B( 35-C , 36-C ) :   1.2530
B( 35-C , 56-H ) :   0.9871 B( 36-C , 37-C ) :   1.3923 B( 36-C , 41-S ) :   1.0547
B( 37-C , 38-S ) :   1.0349 B( 37-C , 39-C ) :   1.2315 B( 39-C , 40-C ) :   1.5644
B( 39-C , 57-H ) :   1.0018 B( 40-C , 41-S ) :   1.0930 B( 40-C , 42-C ) :   1.0200
B( 42-C , 43-C ) :   1.5505 B( 42-C , 51-C ) :   1.0112 B( 43-C , 44-O ) :   1.1503
B( 43-C , 53-C ) :   1.1128 B( 44-O , 45-C ) :   1.0809 B( 45-C , 46-C ) :   1.3507
B( 45-C , 50-C ) :   1.3335 B( 46-C , 47-C ) :   1.4146 B( 46-C , 58-H ) :   0.9940
B( 47-C , 48-C ) :   1.3255 B( 47-C , 59-H ) :   0.9911 B( 48-C , 49-C ) :   1.4013
B( 48-C , 60-H ) :   0.9940 B( 49-C , 50-C ) :   1.3405 B( 49-C , 61-H ) :   0.9967
B( 50-C , 51-C ) :   0.9826 B( 51-C , 52-O ) :   2.1643 B( 53-C , 62-H ) :   0.9424
B( 53-C , 63-H ) :   0.9361 B( 53-C , 64-H ) :   0.9348

-----------------------------------------------------------------------------
         ABSORPTION SPECTRUM VIA TRANSITION ELECTRIC DIPOLE MOMENTS
-----------------------------------------------------------------------------
State   Energy  Wavelength   fosc         T2         TX        TY        TZ
        (cm-1)    (nm)                  (au**2)     (au)      (au)      (au)
-----------------------------------------------------------------------------
   0   10647.6    939.2   0.664178031  20.53571   0.24416   4.52446  -0.07305
   1   19647.4    509.0   0.005690833   0.09536  -0.14665  -0.09898   0.25309
   2   21286.7    469.8   0.004666920   0.07218   0.13654   0.07219  -0.21982
   3   22134.8    451.8   0.005012420   0.07455   0.13237   0.03423  -0.23634
   4   25843.3    386.9   0.180250229   2.29616  -0.00955   1.51074   0.11722
   5   27434.0    364.5   1.571372613  18.85670   0.15701   4.33944   0.03605
   6   28181.0    354.8   0.002114872   0.02471   0.10212  -0.07229  -0.09514
   7   29976.5    333.6   0.148962721   1.63596  -0.15332   1.20350   0.40502
   8   30263.6    330.4   0.000842387   0.00916  -0.06725   0.06186  -0.02854
   9   30910.6    323.5   0.000024784   0.00026   0.01350   0.00504  -0.00750
  10   31091.2    321.6   0.109079606   1.15500  -0.79487  -0.10481   0.71568
  11   32026.5    312.2   0.184641187   1.89799   0.37246   0.92358  -0.95198
  12   32960.5    303.4   0.023801783   0.23773   0.04113  -0.47056  -0.12090
  13   33968.3    294.4   0.001684230   0.01632   0.09707  -0.06468  -0.05212
  14   35325.2    283.1   0.000550737   0.00513  -0.04339   0.02427   0.05159
  15   35644.5    280.5   0.042257362   0.39029  -0.31436   0.29837   0.44994
  16   36085.9    277.1   0.001098252   0.01002   0.03479   0.08121   0.04705
  17   36206.1    276.2   0.313617678   2.85164  -0.89132   0.25397   1.41162
  18   36335.4    275.2   0.120754183   1.09408  -0.53884  -0.17705   0.87885
  19   36865.2    271.3   0.186507455   1.66554  -0.61325  -0.56424   0.98544
  20   37422.4    267.2   0.001728225   0.01520   0.06600   0.04710   0.09289
  21   37495.0    266.7   0.010818188   0.09499   0.10278  -0.08984  -0.27632
  22   38334.1    260.9   0.285547228   2.45227  -0.66048   0.89769   1.10009
  23   38642.0    258.8   0.014282280   0.12168   0.27563  -0.19221  -0.09361
  24   39023.8    256.3   0.002540801   0.02143   0.02107   0.13248   0.05864
  25   39434.6    253.6   0.053057827   0.44294   0.40414   0.00575  -0.52875
  26   39457.6    253.4   0.008460725   0.07059  -0.15403   0.14312   0.16242
  27   39648.0    252.2   0.002150320   0.01785  -0.10264  -0.01068  -0.08488
  28   40011.6    249.9   0.010817879   0.08901  -0.00796  -0.29505   0.04346
  29   40270.9    248.3   0.014279110   0.11673  -0.19313  -0.14616   0.24097

FINAL SINGLE POINT ENERGY     -4434.241738658684

DIPOLE MOMENT
-------------
                                X             Y             Z
Electronic contribution:      9.43101     123.60162      -7.51263
Nuclear contribution   :    -10.77125    -126.17572       8.46694
                        -----------------------------------------
Total Dipole Moment    :     -1.34024      -2.57410       0.95431
                        -----------------------------------------
Magnitude (a.u.)       :      3.05499
Magnitude (Debye)      :      7.76517

Rotational constants in cm-1:     0.005255     0.000355     0.000335
Rotational constants in MHz :   157.546686    10.652317    10.040089

                             ****ORCA TERMINATED NORMALLY****
TOTAL RUN TIME: 0 days 0 hours 4 minutes 47 seconds 541 msec
