                         Program Version 4.2.0 -  RELEASE  -
|  1> # ORCA input file
|  2> # SCF done       -180.733156518107          0.000548807474
|  3> ! CAM-B3LYP def2-SVP def2/J RIJCOSX Grid4 TightSCF
|  4> %maxcore 5000
|  5> %tddft
|  6>     Mode sTDDFT
|  7>     Ethresh 5.0
|  8>     maxcore 5000
|  9> end
| 10>
| 11> %pal
| 12>   nprocs 6
| 13>   end
| 14> * xyz 0 1
| 15>    C       -6.15919         0.71357        -6.52692
| 16>    C       -7.41744         1.18769        -6.77045
| 17>    F       -7.59161         2.27612        -7.53168
| 18>    C       -8.54530         0.54073        -6.22686
| 19>    F       -9.76711         1.02843        -6.48139
| 20>    C       -8.39928        -0.57346        -5.44899
| 21>    C       -7.11585        -1.08799        -5.18164
| 22>    C       -5.97421        -0.43214        -5.72702
| 23>    C       -4.67570        -0.92669        -5.46733
| 24>    C       -4.52615        -2.04555        -4.69112
| 25>    C       -5.67117        -2.70288        -4.16438
| 26>    C       -6.93677        -2.24429        -4.39013
| 27>    C       -5.25100        -3.89470        -3.39875
| 28>    O       -5.98991        -4.63636        -2.78615
| 29>    C       -3.78281        -3.98065        -3.57421
| 30>    C       -3.34007        -2.77615        -4.25776
| 31>    C       -2.04909        -2.33823        -4.39290
| 32>    C       -0.90818        -2.97972        -3.86401
| 33>    N        0.06317        -3.42517        -3.44382
| 34>    C       -1.69243        -1.13578        -5.03947
| 35>    N       -1.34205        -0.17210        -5.55541
| 36>    C       -2.96078        -5.04580        -3.32226
| 37>    C       -3.20060        -6.26463        -2.65905
| 38>    C       -4.23842        -6.70182        -1.85086
| 39>    C       -4.01812        -7.99152        -1.38402
| 40>    C       -2.81904        -8.57380        -1.82551
| 41>    S       -1.93199        -7.48907        -2.81766
| 42>    C       -2.61883        -9.87792        -1.36428
| 43>    C       -3.64652       -10.30053        -0.55428
| 44>    S       -4.88637        -9.07874        -0.35708
| 45>    C       -3.77520       -11.58040         0.10732
| 46>    C       -3.11038       -12.70712        -0.41899
| 47>    C       -3.18376       -13.94677         0.16991
| 48>    C       -3.93811       -14.06131         1.33341
| 49>    C       -4.60639       -12.93047         1.86007
| 50>    C       -4.55068       -11.69154         1.26273
| 51>    O       -5.23834       -13.32345         2.99189
| 52>    C       -4.93464       -14.64618         3.10686
| 53>    N       -4.18339       -15.12150         2.15667
| 54>    C       -5.40982       -15.38912         4.22439
| 55>    C       -5.20654       -16.73282         4.44513
| 56>    C       -5.76666       -17.13185         5.65906
| 57>    C       -6.38801       -16.08951         6.36677
| 58>    S       -6.29779       -14.59786         5.50127
| 59>    C       -6.89261       -16.47066         7.60626
| 60>    C       -6.67727       -17.81404         7.85926
| 61>    S       -5.86397       -18.61475         6.52317
| 62>    C       -7.05540       -18.58900         8.98111
| 63>    C       -7.33110       -18.19279        10.25367
| 64>    C       -8.09106       -19.11739        11.14319
| 65>    O       -8.33613       -20.28160        10.93195
| 66>    C       -8.51483       -18.29234        12.29164
| 67>    C       -9.31674       -18.63308        13.34263
| 68>    C       -9.60229       -17.66464        14.33095
| 69>    C       -9.05804       -16.35355        14.20277
| 70>    C       -9.34954       -15.39059        15.18983
| 71>    C      -10.13918       -15.71554        16.25681
| 72>    C      -10.67526       -17.01317        16.38382
| 73>    C      -10.41403       -17.96800        15.44140
| 74>    F      -11.44626       -17.30297        17.43980
| 75>    F      -10.41208       -14.80071        17.19552
| 76>    C       -8.22848       -16.03074        13.10471
| 77>    C       -7.95161       -16.99021        12.16768
| 78>    C       -7.09768       -16.96358        10.98167
| 79>    C       -6.08737       -16.06285        10.76697
| 80>    C       -5.09644       -16.20823         9.77543
| 81>    N       -4.24215       -16.29793         9.01412
| 82>    C       -5.86507       -14.92603        11.57165
| 83>    N       -5.65530       -13.97573        12.17984
| 84>    H       -5.30635         1.22203        -6.94866
| 85>    H       -9.27264        -1.05776        -5.04120
| 86>    H       -3.83216        -0.41177        -5.89771
| 87>    H       -7.78922        -2.75937        -3.97410
| 88>    H       -1.95624        -4.97576        -3.72526
| 89>    H       -5.10202        -6.10362        -1.62904
| 90>    H       -1.74907       -10.46601        -1.58942
| 91>    H       -2.54179       -12.59088        -1.32798
| 92>    H       -2.67875       -14.80412        -0.24248
| 93>    H       -5.06481       -10.83990         1.67901
| 94>    H       -4.67474       -17.36015         3.75578
| 95>    H       -7.42273       -15.81523         8.27296
| 96>    H       -7.19900       -19.64968         8.79570
| 97>    H       -9.72464       -19.62926        13.42085
| 98>    H       -8.94366       -14.39420        15.11019
| 99>    H      -10.83167       -18.95631        15.55326
|100>    H       -7.83658       -15.02902        13.02959
|101> *
|102>
|103>                          ****END OF INPUT****

CARTESIAN COORDINATES (ANGSTROEM)
---------------------------------
  C     -6.159190    0.713570   -6.526920
  C     -7.417440    1.187690   -6.770450
  F     -7.591610    2.276120   -7.531680
  C     -8.545300    0.540730   -6.226860
  F     -9.767110    1.028430   -6.481390
  C     -8.399280   -0.573460   -5.448990
  C     -7.115850   -1.087990   -5.181640
  C     -5.974210   -0.432140   -5.727020
  C     -4.675700   -0.926690   -5.467330
  C     -4.526150   -2.045550   -4.691120
  C     -5.671170   -2.702880   -4.164380
  C     -6.936770   -2.244290   -4.390130
  C     -5.251000   -3.894700   -3.398750
  O     -5.989910   -4.636360   -2.786150
  C     -3.782810   -3.980650   -3.574210
  C     -3.340070   -2.776150   -4.257760
  C     -2.049090   -2.338230   -4.392900
  C     -0.908180   -2.979720   -3.864010
  N      0.063170   -3.425170   -3.443820
  C     -1.692430   -1.135780   -5.039470
  N     -1.342050   -0.172100   -5.555410
  C     -2.960780   -5.045800   -3.322260
  C     -3.200600   -6.264630   -2.659050
  C     -4.238420   -6.701820   -1.850860
  C     -4.018120   -7.991520   -1.384020
  C     -2.819040   -8.573800   -1.825510
  S     -1.931990   -7.489070   -2.817660
  C     -2.618830   -9.877920   -1.364280
  C     -3.646520  -10.300530   -0.554280
  S     -4.886370   -9.078740   -0.357080
  C     -3.775200  -11.580400    0.107320
  C     -3.110380  -12.707120   -0.418990
  C     -3.183760  -13.946770    0.169910
  C     -3.938110  -14.061310    1.333410
  C     -4.606390  -12.930470    1.860070
  C     -4.550680  -11.691540    1.262730
  O     -5.238340  -13.323450    2.991890
  C     -4.934640  -14.646180    3.106860
  N     -4.183390  -15.121500    2.156670
  C     -5.409820  -15.389120    4.224390
  C     -5.206540  -16.732820    4.445130
  C     -5.766660  -17.131850    5.659060
  C     -6.388010  -16.089510    6.366770
  S     -6.297790  -14.597860    5.501270
  C     -6.892610  -16.470660    7.606260
  C     -6.677270  -17.814040    7.859260
  S     -5.863970  -18.614750    6.523170
  C     -7.055400  -18.589000    8.981110
  C     -7.331100  -18.192790   10.253670
  C     -8.091060  -19.117390   11.143190
  O     -8.336130  -20.281600   10.931950
  C     -8.514830  -18.292340   12.291640
  C     -9.316740  -18.633080   13.342630
  C     -9.602290  -17.664640   14.330950
  C     -9.058040  -16.353550   14.202770
  C     -9.349540  -15.390590   15.189830
  C    -10.139180  -15.715540   16.256810
  C    -10.675260  -17.013170   16.383820
  C    -10.414030  -17.968000   15.441400
  F    -11.446260  -17.302970   17.439800
  F    -10.412080  -14.800710   17.195520
  C     -8.228480  -16.030740   13.104710
  C     -7.951610  -16.990210   12.167680
  C     -7.097680  -16.963580   10.981670
  C     -6.087370  -16.062850   10.766970
  C     -5.096440  -16.208230    9.775430
  N     -4.242150  -16.297930    9.014120
  C     -5.865070  -14.926030   11.571650
  N     -5.655300  -13.975730   12.179840
  H     -5.306350    1.222030   -6.948660
  H     -9.272640   -1.057760   -5.041200
  H     -3.832160   -0.411770   -5.897710
  H     -7.789220   -2.759370   -3.974100
  H     -1.956240   -4.975760   -3.725260
  H     -5.102020   -6.103620   -1.629040
  H     -1.749070  -10.466010   -1.589420
  H     -2.541790  -12.590880   -1.327980
  H     -2.678750  -14.804120   -0.242480
  H     -5.064810  -10.839900    1.679010
  H     -4.674740  -17.360150    3.755780
  H     -7.422730  -15.815230    8.272960
  H     -7.199000  -19.649680    8.795700
  H     -9.724640  -19.629260   13.420850
  H     -8.943660  -14.394200   15.110190
  H    -10.831670  -18.956310   15.553260
  H     -7.836580  -15.029020   13.029590

 Total Charge           Charge          ....    0
 Multiplicity           Mult            ....    1
 Number of Electrons    NEL             ....  494
 Basis Dimension        Dim             .... 1067

ORBITAL ENERGIES
----------------

  NO   OCC          E(Eh)            E(eV)
   0   2.0000     -88.980034     -2421.2698
   1   2.0000     -88.977545     -2421.2021
   2   2.0000     -88.971257     -2421.0310
   3   2.0000     -88.970676     -2421.0152
   4   2.0000     -24.802048      -674.8980
   5   2.0000     -24.801568      -674.8850
   6   2.0000     -24.797814      -674.7828
   7   2.0000     -24.796788      -674.7549
   8   2.0000     -19.314509      -525.5745
   9   2.0000     -19.222064      -523.0590
  10   2.0000     -19.220175      -523.0076
  11   2.0000     -14.423142      -392.4737
  12   2.0000     -14.421720      -392.4350
  13   2.0000     -14.420678      -392.4066
  14   2.0000     -14.414594      -392.2411
  15   2.0000     -14.413875      -392.2215
  16   2.0000     -10.390189      -282.7314
  17   2.0000     -10.385606      -282.6067
  18   2.0000     -10.385195      -282.5955
  19   2.0000     -10.380780      -282.4754
  20   2.0000     -10.380003      -282.4542
  21   2.0000     -10.373194      -282.2690
  22   2.0000     -10.371532      -282.2237
  23   2.0000     -10.351231      -281.6713
  24   2.0000     -10.350122      -281.6411
  25   2.0000     -10.348746      -281.6037
  26   2.0000     -10.341254      -281.3998
  27   2.0000     -10.340559      -281.3809
  28   2.0000     -10.331930      -281.1461
  29   2.0000     -10.330295      -281.1016
  30   2.0000     -10.329047      -281.0677
  31   2.0000     -10.327324      -281.0208
  32   2.0000     -10.325869      -280.9812
  33   2.0000     -10.325605      -280.9740
  34   2.0000     -10.323416      -280.9144
  35   2.0000     -10.322760      -280.8966
  36   2.0000     -10.321277      -280.8562
  37   2.0000     -10.320224      -280.8276
  38   2.0000     -10.319814      -280.8164
  39   2.0000     -10.317455      -280.7522
  40   2.0000     -10.316969      -280.7390
  41   2.0000     -10.316408      -280.7237
  42   2.0000     -10.315477      -280.6984
  43   2.0000     -10.315065      -280.6872
  44   2.0000     -10.313760      -280.6517
  45   2.0000     -10.312615      -280.6205
  46   2.0000     -10.311862      -280.6000
  47   2.0000     -10.309802      -280.5440
  48   2.0000     -10.309475      -280.5351
  49   2.0000     -10.307930      -280.4930
  50   2.0000     -10.307658      -280.4856
  51   2.0000     -10.307379      -280.4780
  52   2.0000     -10.306630      -280.4577
  53   2.0000     -10.306222      -280.4465
  54   2.0000     -10.306140      -280.4443
  55   2.0000     -10.305289      -280.4212
  56   2.0000     -10.304600      -280.4024
  57   2.0000     -10.301730      -280.3243
  58   2.0000     -10.301436      -280.3163
  59   2.0000     -10.300559      -280.2925
  60   2.0000     -10.299812      -280.2721
  61   2.0000     -10.299652      -280.2678
  62   2.0000     -10.299321      -280.2588
  63   2.0000     -10.299271      -280.2574
  64   2.0000     -10.299222      -280.2561
  65   2.0000     -10.295703      -280.1603
  66   2.0000     -10.292610      -280.0762
  67   2.0000     -10.291114      -280.0354
  68   2.0000     -10.290632      -280.0223
  69   2.0000      -8.075202      -219.7374
  70   2.0000      -8.073061      -219.6792
  71   2.0000      -8.066562      -219.5023
  72   2.0000      -8.066080      -219.4892
  73   2.0000      -6.044676      -164.4840
  74   2.0000      -6.042535      -164.4257
  75   2.0000      -6.040697      -164.3757
  76   2.0000      -6.038531      -164.3168
  77   2.0000      -6.036750      -164.2683
  78   2.0000      -6.036034      -164.2488
  79   2.0000      -6.035465      -164.2334
  80   2.0000      -6.034610      -164.2101
  81   2.0000      -6.032060      -164.1407
  82   2.0000      -6.031572      -164.1274
  83   2.0000      -6.028162      -164.0346
  84   2.0000      -6.027760      -164.0237
  85   2.0000      -1.324941       -36.0535
  86   2.0000      -1.320210       -35.9247
  87   2.0000      -1.310047       -35.6482
  88   2.0000      -1.305328       -35.5198
  89   2.0000      -1.243428       -33.8354
  90   2.0000      -1.137870       -30.9630
  91   2.0000      -1.135229       -30.8912
  92   2.0000      -1.036139       -28.1948
  93   2.0000      -1.030352       -28.0373
  94   2.0000      -1.024738       -27.8845
  95   2.0000      -1.022971       -27.8365
  96   2.0000      -1.018761       -27.7219
  97   2.0000      -1.009697       -27.4752
  98   2.0000      -1.003472       -27.3059
  99   2.0000      -1.000901       -27.2359
 100   2.0000      -0.993034       -27.0218
 101   2.0000      -0.987691       -26.8764
 102   2.0000      -0.982758       -26.7422
 103   2.0000      -0.979540       -26.6546
 104   2.0000      -0.970173       -26.3998
 105   2.0000      -0.952724       -25.9249
 106   2.0000      -0.936583       -25.4857
 107   2.0000      -0.930416       -25.3179
 108   2.0000      -0.911422       -24.8010
 109   2.0000      -0.902977       -24.5712
 110   2.0000      -0.897998       -24.4358
 111   2.0000      -0.892577       -24.2883
 112   2.0000      -0.889984       -24.2177
 113   2.0000      -0.884929       -24.0802
 114   2.0000      -0.879737       -23.9388
 115   2.0000      -0.875063       -23.8117
 116   2.0000      -0.865208       -23.5435
 117   2.0000      -0.861518       -23.4431
 118   2.0000      -0.845615       -23.0103
 119   2.0000      -0.839893       -22.8547
 120   2.0000      -0.834796       -22.7159
 121   2.0000      -0.823022       -22.3956
 122   2.0000      -0.819166       -22.2906
 123   2.0000      -0.813133       -22.1265
 124   2.0000      -0.803156       -21.8550
 125   2.0000      -0.777581       -21.1591
 126   2.0000      -0.771642       -20.9975
 127   2.0000      -0.766770       -20.8649
 128   2.0000      -0.758786       -20.6476
 129   2.0000      -0.742683       -20.2094
 130   2.0000      -0.739663       -20.1272
 131   2.0000      -0.728689       -19.8286
 132   2.0000      -0.723333       -19.6829
 133   2.0000      -0.717912       -19.5354
 134   2.0000      -0.711439       -19.3592
 135   2.0000      -0.707907       -19.2631
 136   2.0000      -0.700835       -19.0707
 137   2.0000      -0.690423       -18.7874
 138   2.0000      -0.686909       -18.6917
 139   2.0000      -0.678651       -18.4670
 140   2.0000      -0.673290       -18.3212
 141   2.0000      -0.666915       -18.1477
 142   2.0000      -0.660436       -17.9714
 143   2.0000      -0.657846       -17.9009
 144   2.0000      -0.655034       -17.8244
 145   2.0000      -0.649124       -17.6636
 146   2.0000      -0.647292       -17.6137
 147   2.0000      -0.645817       -17.5736
 148   2.0000      -0.641426       -17.4541
 149   2.0000      -0.632003       -17.1977
 150   2.0000      -0.626089       -17.0367
 151   2.0000      -0.620304       -16.8793
 152   2.0000      -0.614846       -16.7308
 153   2.0000      -0.614656       -16.7256
 154   2.0000      -0.602685       -16.3999
 155   2.0000      -0.597543       -16.2600
 156   2.0000      -0.592267       -16.1164
 157   2.0000      -0.592060       -16.1108
 158   2.0000      -0.589419       -16.0389
 159   2.0000      -0.588195       -16.0056
 160   2.0000      -0.587721       -15.9927
 161   2.0000      -0.586346       -15.9553
 162   2.0000      -0.584768       -15.9124
 163   2.0000      -0.584070       -15.8934
 164   2.0000      -0.575279       -15.6541
 165   2.0000      -0.562695       -15.3117
 166   2.0000      -0.558786       -15.2053
 167   2.0000      -0.555731       -15.1222
 168   2.0000      -0.551945       -15.0192
 169   2.0000      -0.550975       -14.9928
 170   2.0000      -0.548936       -14.9373
 171   2.0000      -0.546404       -14.8684
 172   2.0000      -0.542835       -14.7713
 173   2.0000      -0.542253       -14.7555
 174   2.0000      -0.539250       -14.6737
 175   2.0000      -0.537351       -14.6221
 176   2.0000      -0.534174       -14.5356
 177   2.0000      -0.533053       -14.5051
 178   2.0000      -0.530728       -14.4418
 179   2.0000      -0.528705       -14.3868
 180   2.0000      -0.526816       -14.3354
 181   2.0000      -0.524492       -14.2721
 182   2.0000      -0.521387       -14.1877
 183   2.0000      -0.519691       -14.1415
 184   2.0000      -0.518590       -14.1116
 185   2.0000      -0.513856       -13.9827
 186   2.0000      -0.510982       -13.9045
 187   2.0000      -0.506270       -13.7763
 188   2.0000      -0.504448       -13.7267
 189   2.0000      -0.498857       -13.5746
 190   2.0000      -0.498470       -13.5641
 191   2.0000      -0.494024       -13.4431
 192   2.0000      -0.492271       -13.3954
 193   2.0000      -0.490378       -13.3439
 194   2.0000      -0.488747       -13.2995
 195   2.0000      -0.486016       -13.2252
 196   2.0000      -0.481216       -13.0945
 197   2.0000      -0.476660       -12.9706
 198   2.0000      -0.473489       -12.8843
 199   2.0000      -0.471742       -12.8367
 200   2.0000      -0.468254       -12.7418
 201   2.0000      -0.467981       -12.7344
 202   2.0000      -0.466853       -12.7037
 203   2.0000      -0.463048       -12.6002
 204   2.0000      -0.462149       -12.5757
 205   2.0000      -0.456962       -12.4346
 206   2.0000      -0.454963       -12.3802
 207   2.0000      -0.453483       -12.3399
 208   2.0000      -0.451014       -12.2727
 209   2.0000      -0.448480       -12.2038
 210   2.0000      -0.447650       -12.1812
 211   2.0000      -0.445776       -12.1302
 212   2.0000      -0.444861       -12.1053
 213   2.0000      -0.442790       -12.0489
 214   2.0000      -0.439494       -11.9592
 215   2.0000      -0.434919       -11.8347
 216   2.0000      -0.433459       -11.7950
 217   2.0000      -0.431291       -11.7360
 218   2.0000      -0.429813       -11.6958
 219   2.0000      -0.429470       -11.6865
 220   2.0000      -0.426143       -11.5959
 221   2.0000      -0.424011       -11.5379
 222   2.0000      -0.422325       -11.4920
 223   2.0000      -0.420712       -11.4482
 224   2.0000      -0.414055       -11.2670
 225   2.0000      -0.408363       -11.1121
 226   2.0000      -0.402244       -10.9456
 227   2.0000      -0.396325       -10.7846
 228   2.0000      -0.389557       -10.6004
 229   2.0000      -0.385099       -10.4791
 230   2.0000      -0.379541       -10.3278
 231   2.0000      -0.377884       -10.2828
 232   2.0000      -0.373882       -10.1738
 233   2.0000      -0.365748        -9.9525
 234   2.0000      -0.351854        -9.5744
 235   2.0000      -0.343310        -9.3419
 236   2.0000      -0.340710        -9.2712
 237   2.0000      -0.333824        -9.0838
 238   2.0000      -0.323236        -8.7957
 239   2.0000      -0.320671        -8.7259
 240   2.0000      -0.316974        -8.6253
 241   2.0000      -0.312907        -8.5146
 242   2.0000      -0.307113        -8.3570
 243   2.0000      -0.305891        -8.3237
 244   2.0000      -0.300363        -8.1733
 245   2.0000      -0.282443        -7.6857
 246   2.0000      -0.260512        -7.0889
 247   0.0000      -0.105917        -2.8822
 248   0.0000      -0.095835        -2.6078
 249   0.0000      -0.067006        -1.8233
 250   0.0000      -0.060635        -1.6500
 251   0.0000      -0.050916        -1.3855

MULLIKEN ATOMIC CHARGES
-----------------------
   0 C :   -0.106707
   1 C :    0.241513
   2 F :   -0.171393
   3 C :    0.238988
   4 F :   -0.172437
   5 C :   -0.104897
   6 C :    0.114892
   7 C :    0.112055
   8 C :   -0.080476
   9 C :    0.050751
  10 C :   -0.003989
  11 C :   -0.082635
  12 C :    0.160888
  13 O :   -0.157132
  14 C :   -0.101077
  15 C :    0.299553
  16 C :   -0.346852
  17 C :   -0.206972
  18 N :    0.163476
  19 C :   -0.183749
  20 N :    0.146809
  21 C :    0.048794
  22 C :   -0.126261
  23 C :    0.017906
  24 C :   -0.036473
  25 C :   -0.002111
  26 S :    0.154520
  27 C :   -0.028849
  28 C :   -0.077077
  29 S :    0.146116
  30 C :    0.126502
  31 C :   -0.020890
  32 C :   -0.038603
  33 C :    0.034469
  34 C :    0.241155
  35 C :   -0.149386
  36 O :   -0.199271
  37 C :    0.138355
  38 N :   -0.048030
  39 C :   -0.125475
  40 C :   -0.020446
  41 C :    0.010704
  42 C :   -0.028177
  43 S :    0.195642
  44 C :    0.024034
  45 C :   -0.131941
  46 S :    0.174248
  47 C :    0.087167
  48 C :   -0.134414
  49 C :    0.136568
  50 O :   -0.137412
  51 C :    0.014488
  52 C :   -0.081058
  53 C :    0.112338
  54 C :    0.112136
  55 C :   -0.105741
  56 C :    0.241681
  57 C :    0.240015
  58 C :   -0.103311
  59 F :   -0.170433
  60 F :   -0.169839
  61 C :   -0.082335
  62 C :    0.034367
  63 C :    0.272968
  64 C :   -0.339100
  65 C :   -0.205904
  66 N :    0.182871
  67 C :   -0.173534
  68 N :    0.153999
  69 H :    0.006638
  70 H :   -0.001596
  71 H :   -0.005868
  72 H :   -0.012250
  73 H :    0.019813
  74 H :    0.019539
  75 H :   -0.007964
  76 H :   -0.013647
  77 H :   -0.014427
  78 H :   -0.004982
  79 H :    0.011118
  80 H :    0.005230
  81 H :    0.028963
  82 H :   -0.008425
  83 H :    0.005843
  84 H :    0.000443
  85 H :   -0.004013
Sum of atomic charges:   -0.0000000

LOEWDIN ATOMIC CHARGES
----------------------
   0 C :   -0.029138
   1 C :    0.065988
   2 F :   -0.049225
   3 C :    0.067002
   4 F :   -0.049883
   5 C :   -0.033605
   6 C :   -0.009114
   7 C :   -0.006949
   8 C :    0.017248
   9 C :   -0.022709
  10 C :   -0.051220
  11 C :    0.028270
  12 C :    0.086708
  13 O :   -0.144850
  14 C :   -0.101157
  15 C :    0.076055
  16 C :   -0.142724
  17 C :   -0.027313
  18 N :   -0.050274
  19 C :   -0.017660
  20 N :   -0.055367
  21 C :    0.050934
  22 C :   -0.175789
  23 C :   -0.009404
  24 C :   -0.207737
  25 C :   -0.178457
  26 S :    0.439384
  27 C :   -0.074357
  28 C :   -0.128935
  29 S :    0.432792
  30 C :   -0.040230
  31 C :   -0.013956
  32 C :   -0.014039
  33 C :   -0.025977
  34 C :    0.035457
  35 C :   -0.038925
  36 O :   -0.009007
  37 C :    0.050381
  38 N :   -0.100755
  39 C :   -0.181570
  40 C :   -0.027077
  41 C :   -0.183646
  42 C :   -0.191666
  43 S :    0.455099
  44 C :   -0.025541
  45 C :   -0.172978
  46 S :    0.453380
  47 C :    0.051562
  48 C :   -0.092265
  49 C :    0.082690
  50 O :   -0.139378
  51 C :   -0.054699
  52 C :    0.031931
  53 C :   -0.009182
  54 C :   -0.005526
  55 C :   -0.029821
  56 C :    0.067649
  57 C :    0.067679
  58 C :   -0.032306
  59 F :   -0.048229
  60 F :   -0.047630
  61 C :    0.014123
  62 C :   -0.021017
  63 C :    0.064741
  64 C :   -0.137982
  65 C :   -0.020355
  66 N :   -0.037257
  67 C :   -0.019992
  68 N :   -0.049477
  69 H :    0.047548
  70 H :    0.044343
  71 H :    0.039872
  72 H :    0.039307
  73 H :    0.044505
  74 H :    0.038915
  75 H :    0.034873
  76 H :    0.031292
  77 H :    0.039254
  78 H :    0.032328
  79 H :    0.045326
  80 H :    0.038007
  81 H :    0.048058
  82 H :    0.041204
  83 H :    0.047515
  84 H :    0.045284
  85 H :    0.039644

  Mayer bond orders larger than 0.100000
B(  0-C ,  1-C ) :   1.4410 B(  0-C ,  5-C ) :   0.1086 B(  0-C ,  7-C ) :   1.1883
B(  0-C , 69-H ) :   1.0072 B(  1-C ,  2-F ) :   1.1345 B(  1-C ,  3-C ) :   1.1908
B(  3-C ,  4-F ) :   1.1325 B(  3-C ,  5-C ) :   1.4425 B(  5-C ,  6-C ) :   1.1928
B(  5-C , 70-H ) :   1.0074 B(  6-C ,  7-C ) :   1.2578 B(  6-C , 11-C ) :   1.1875
B(  7-C ,  8-C ) :   1.2155 B(  8-C ,  9-C ) :   1.4513 B(  8-C , 71-H ) :   0.9913
B(  9-C , 10-C ) :   1.2236 B(  9-C , 15-C ) :   0.9823 B( 10-C , 11-C ) :   1.4725
B( 10-C , 12-C ) :   0.9471 B( 11-C , 72-H ) :   1.0166 B( 12-C , 13-O ) :   2.1777
B( 12-C , 14-C ) :   0.9480 B( 14-C , 15-C ) :   1.0772 B( 14-C , 21-C ) :   1.5761
B( 15-C , 16-C ) :   1.6335 B( 16-C , 17-C ) :   1.1361 B( 16-C , 19-C ) :   1.1471
B( 17-C , 18-N ) :   2.9996 B( 19-C , 20-N ) :   2.9686 B( 21-C , 22-C ) :   1.2332
B( 21-C , 73-H ) :   0.9218 B( 22-C , 23-C ) :   1.4433 B( 22-C , 26-S ) :   1.0702
B( 23-C , 24-C ) :   1.2866 B( 23-C , 74-H ) :   0.9810 B( 24-C , 25-C ) :   1.3832
B( 24-C , 29-S ) :   1.0539 B( 25-C , 26-S ) :   1.1058 B( 25-C , 27-C ) :   1.2396
B( 27-C , 28-C ) :   1.5423 B( 27-C , 75-H ) :   1.0012 B( 28-C , 29-S ) :   1.1225
B( 28-C , 30-C ) :   1.0530 B( 30-C , 31-C ) :   1.3243 B( 30-C , 35-C ) :   1.3120
B( 31-C , 32-C ) :   1.4068 B( 31-C , 76-H ) :   0.9896 B( 32-C , 33-C ) :   1.2866
B( 32-C , 77-H ) :   1.0190 B( 33-C , 34-C ) :   1.2695 B( 33-C , 38-N ) :   1.2995
B( 34-C , 35-C ) :   1.3478 B( 34-C , 36-O ) :   1.0966 B( 35-C , 78-H ) :   1.0110
B( 36-O , 37-C ) :   1.1843 B( 37-C , 38-N ) :   1.7751 B( 37-C , 39-C ) :   1.0697
B( 39-C , 40-C ) :   1.5395 B( 39-C , 43-S ) :   1.1026 B( 40-C , 41-C ) :   1.2361
B( 40-C , 79-H ) :   1.0099 B( 41-C , 42-C ) :   1.3953 B( 41-C , 46-S ) :   1.0883
B( 42-C , 43-S ) :   1.0691 B( 42-C , 44-C ) :   1.3109 B( 44-C , 45-C ) :   1.4636
B( 44-C , 80-H ) :   0.9922 B( 45-C , 46-S ) :   1.0943 B( 45-C , 47-C ) :   1.1268
B( 47-C , 48-C ) :   1.6763 B( 47-C , 81-H ) :   0.9274 B( 48-C , 49-C ) :   0.9405
B( 48-C , 63-C ) :   1.0382 B( 49-C , 50-O ) :   2.2746 B( 49-C , 51-C ) :   0.9159
B( 51-C , 52-C ) :   1.4738 B( 51-C , 62-C ) :   1.2238 B( 52-C , 53-C ) :   1.1931
B( 52-C , 82-H ) :   1.0163 B( 53-C , 54-C ) :   1.2579 B( 53-C , 58-C ) :   1.1920
B( 54-C , 55-C ) :   1.1880 B( 54-C , 61-C ) :   1.2171 B( 55-C , 56-C ) :   1.4423
B( 55-C , 58-C ) :   0.1089 B( 55-C , 83-H ) :   1.0067 B( 56-C , 57-C ) :   1.1921
B( 56-C , 60-F ) :   1.1359 B( 57-C , 58-C ) :   1.4437 B( 57-C , 59-F ) :   1.1346
B( 58-C , 84-H ) :   1.0067 B( 61-C , 62-C ) :   1.4537 B( 61-C , 85-H ) :   0.9928
B( 62-C , 63-C ) :   0.9975 B( 63-C , 64-C ) :   1.6484 B( 64-C , 65-C ) :   1.1668
B( 64-C , 67-C ) :   1.1291 B( 65-C , 66-N ) :   3.0089 B( 67-C , 68-N ) :   2.9838

-----------------------------------------------------------------------------
         ABSORPTION SPECTRUM VIA TRANSITION ELECTRIC DIPOLE MOMENTS
-----------------------------------------------------------------------------
State   Energy  Wavelength   fosc         T2         TX        TY        TZ
        (cm-1)    (nm)                  (au**2)     (au)      (au)      (au)
-----------------------------------------------------------------------------
   0   19220.3    520.3   1.923189788  32.94108   0.89446   3.25432  -4.64224
   1   21357.1    468.2   0.852104516  13.13488  -0.08553   3.59619  -0.44155
   2   26846.5    372.5   0.009286166   0.11387  -0.19349   0.03240  -0.27456
   3   26896.9    371.8   0.057505262   0.70385  -0.59443  -0.47401   0.35471
   4   27477.4    363.9   0.049751859   0.59609  -0.33101  -0.15192   0.68076
   5   27658.3    361.6   0.135337143   1.61089   0.15496  -1.25260  -0.13367
   6   28165.5    355.0   0.326010484   3.81056   0.03036  -1.10501   1.60891
   7   28603.1    349.6   0.031803210   0.36604  -0.44243   0.32237  -0.25764
   8   28782.6    347.4   0.041782064   0.47790  -0.11948   0.63940  -0.23408
   9   29121.1    343.4   0.148209200   1.67549   1.11283  -0.12291  -0.64962
  10   29570.2    338.2   0.136029235   1.51445   0.92837   0.13376  -0.79667
  11   29947.1    333.9   0.164312150   1.80630   0.73157   0.21784  -1.10619
  12   30149.0    331.7   0.251587434   2.74721  -1.54024   0.26811   0.55045
  13   30950.4    323.1   0.170541030   1.81401   0.55645  -0.88201   0.85230
  14   32554.1    307.2   0.298739983   3.02109  -0.43408  -1.17075   1.20913
  15   33871.0    295.2   0.464195178   4.51178   1.73266   0.34348  -1.17970
  16   34261.4    291.9   0.573658317   5.51218   2.08677  -0.94055   0.52245
  17   34574.0    289.2   0.063415810   0.60384   0.10557  -0.28382  -0.71564
  18   34713.0    288.1   0.116506654   1.10493  -0.94765   0.39674   0.22246
  19   34814.3    287.2   0.253781253   2.39981   0.42471   0.25632  -1.46756
  20   35402.8    282.5   0.015622190   0.14527  -0.01820  -0.21253  -0.31587
  21   35729.0    279.9   0.149079937   1.37364  -1.16762   0.08335  -0.05803
  22   36299.8    275.5   0.108904340   0.98768   0.49225   0.78636  -0.35638
  23   36456.4    274.3   0.049896435   0.45058   0.05316   0.66787   0.04122
  24   36878.4    271.2   0.108032387   0.96440   0.74029  -0.40806  -0.49987
  25   37209.3    268.7   0.010829146   0.09581   0.28362   0.11054   0.05613
  26   37718.3    265.1   0.007320505   0.06389   0.25197  -0.00504  -0.01948
  27   38329.9    260.9   0.035953439   0.30880   0.31720   0.42707  -0.16062
  28   38423.3    260.3   0.022058162   0.18899   0.16867  -0.30306  -0.26211
  29   38681.7    258.5   0.024349192   0.20723  -0.42142  -0.04836  -0.16522
  30   39041.3    256.1   0.012181698   0.10272  -0.12628  -0.25822   0.14176
  31   39122.2    255.6   0.193459874   1.62796   0.95908   0.80200  -0.25479
  32   39439.0    253.6   0.044000590   0.36729  -0.29602  -0.33851   0.40629
  33   39798.6    251.3   0.033544949   0.27748  -0.12046   0.50864   0.06526
  34   39994.2    250.0   0.008224441   0.06770   0.00198   0.24669  -0.08271

FINAL SINGLE POINT ENERGY     -4517.302014226384

DIPOLE MOMENT
-------------
                                X             Y             Z
Electronic contribution:    -14.76291      13.01309      12.05274
Nuclear contribution   :     12.26942     -15.47304     -11.90016
                        -----------------------------------------
Total Dipole Moment    :     -2.49349      -2.45995       0.15259
                        -----------------------------------------
Magnitude (a.u.)       :      3.50601
Magnitude (Debye)      :      8.91158

Rotational constants in cm-1:     0.001559     0.000171     0.000160
Rotational constants in MHz :    46.750656     5.131151     4.809989

                             ****ORCA TERMINATED NORMALLY****
TOTAL RUN TIME: 0 days 0 hours 7 minutes 33 seconds 658 msec
