                         Program Version 4.2.0 -  RELEASE  -
|  1> # ORCA input file
|  2> # SCF done       -225.553827617735          0.000516308554
|  3> ! CAM-B3LYP def2-SVP def2/J RIJCOSX Grid4 TightSCF
|  4> %maxcore 5000
|  5> %tddft
|  6>     Mode sTDDFT
|  7>     Ethresh 5.0
|  8>     maxcore 5000
|  9> end
| 10>
| 11> %pal
| 12>   nprocs 6
| 13>   end
| 14> * xyz 0 1
| 15>    C        2.16763         1.46665        -2.68015
| 16>    C        3.44492         1.95265        -2.67603
| 17>    F        3.67344         3.24792        -2.92820
| 18>    C        4.53595         1.10158        -2.40713
| 19>    F        5.77716         1.60572        -2.40986
| 20>    C        4.33403        -0.22437        -2.14487
| 21>    C        3.02939        -0.75491        -2.14099
| 22>    C        1.92527         0.10363        -2.41483
| 23>    C        0.60709        -0.40727        -2.42109
| 24>    C        0.39901        -1.73631        -2.15903
| 25>    C        1.50573        -2.58105        -1.87508
| 26>    C        2.79034        -2.11937        -1.86711
| 27>    C        1.02850        -3.94997        -1.60159
| 28>    O        1.73826        -4.90630        -1.37208
| 29>    C       -0.45155        -3.87928        -1.66355
| 30>    C       -0.81864        -2.53996        -2.10122
| 31>    C       -2.06337        -2.10009        -2.46860
| 32>    C       -3.24242        -2.87527        -2.51501
| 33>    N       -4.24417        -3.43034        -2.60121
| 34>    C       -2.33428        -0.78503        -2.90493
| 35>    N       -2.62159         0.26669        -3.26364
| 36>    C       -1.36665        -4.82560        -1.28646
| 37>    C       -1.20718        -6.15040        -0.83488
| 38>    C       -0.10882        -6.98593        -0.71648
| 39>    C       -0.43157        -8.23560        -0.20647
| 40>   Cl        0.74106        -9.45615         0.04404
| 41>    C       -1.78845        -8.41554         0.08665
| 42>    S       -2.66232        -6.97295        -0.30849
| 43>    C       -2.41018        -9.55669         0.63839
| 44>    C       -3.76034        -9.73721         0.94213
| 45>   Cl       -4.95235        -8.54431         0.64630
| 46>    C       -4.05721       -10.96970         1.51210
| 47>    C       -2.94294       -11.77690         1.66270
| 48>    S       -1.51215       -10.98523         1.07189
| 49>    C       -2.84288       -13.07887         2.22821
| 50>    C       -3.91869       -13.80464         2.79168
| 51>    C       -3.71840       -15.09736         3.38493
| 52>    N       -4.76685       -15.75185         3.92364
| 53>    C       -5.94289       -15.21608         3.89904
| 54>    C       -6.14029       -13.93905         3.30940
| 55>    N       -5.16148       -13.27693         2.78608
| 56>    F       -7.34676       -13.38087         3.27963
| 57>    F       -6.95022       -15.89056         4.43925
| 58>    C       -2.46113       -15.73961         3.44943
| 59>    C       -1.38863       -15.02972         2.86423
| 60>    C       -1.58971       -13.73030         2.27342
| 61>    N       -0.45429       -13.22858         1.78754
| 62>    S        0.73766       -14.27103         2.03886
| 63>    N       -0.11229       -15.41082         2.77816
| 64>    C       -2.30615       -17.00149         4.08256
| 65>    C       -1.13257       -17.72376         4.21995
| 66>    C       -1.30730       -18.90838         4.92253
| 67>   Cl       -0.01755       -19.99134         5.23691
| 68>    C       -2.61834       -19.13461         5.34168
| 69>    S       -3.64360       -17.82057         4.82454
| 70>    C       -3.10781       -20.23326         6.07950
| 71>    C       -4.42274       -20.50265         6.46174
| 72>   Cl       -5.73453       -19.48295         6.05489
| 73>    C       -4.56963       -21.66618         7.21129
| 74>    C       -3.38038       -22.34509         7.40621
| 75>    S       -2.05759       -21.48355         6.66881
| 76>    C       -3.20381       -23.50437         8.19656
| 77>    C       -2.12602       -24.33045         8.28620
| 78>    C       -1.93910       -25.15638         9.51257
| 79>    O       -2.76997       -25.40459        10.35375
| 80>    C       -0.51069       -25.53538         9.50247
| 81>    C        0.21346       -26.17606        10.46624
| 82>    C        1.59083       -26.40666        10.25088
| 83>    C        2.19395       -25.96461         9.03721
| 84>    C        3.56966       -26.19307         8.83306
| 85>    C        4.31111       -26.83172         9.78698
| 86>    C        3.71375       -27.26869        10.98659
| 87>    C        2.38222       -27.06163        11.21470
| 88>    F        4.46557       -27.88979        11.90498
| 89>    F        5.61805       -27.04830         9.59063
| 90>    C        1.41736       -25.31053         8.05351
| 91>    C        0.08360       -25.10390         8.28170
| 92>    C       -0.95547       -24.50216         7.45109
| 93>    C       -0.91592       -24.39647         6.08646
| 94>    C       -2.05291       -24.10112         5.30478
| 95>    N       -2.97048       -23.92122         4.63953
| 96>    C        0.23234       -24.66258         5.31409
| 97>    N        1.14786       -24.84908         4.64769
| 98>    H        1.34435         2.13160        -2.88967
| 99>    H        5.17911        -0.86293        -1.94046
|100>    H       -0.20467         0.27071        -2.62795
|101>    H        3.61093        -2.78684        -1.65212
|102>    H       -2.40513        -4.51508        -1.30287
|103>    H        0.88848        -6.68987        -0.98591
|104>    H       -5.04287       -11.27065         1.81017
|105>    H       -0.19256       -17.38942         3.82319
|106>    H       -5.51633       -22.01630         7.57968
|107>    H       -4.00228       -23.71039         8.90336
|108>    H       -0.25707       -26.50162        11.38143
|109>    H        4.04201       -25.86823         7.91918
|110>    H        1.93997       -27.40209        12.13784
|111>    H        1.89760       -24.97793         7.14691
|112> *
|113>
|114>                          ****END OF INPUT****

CARTESIAN COORDINATES (ANGSTROEM)
---------------------------------
  C      2.167630    1.466650   -2.680150
  C      3.444920    1.952650   -2.676030
  F      3.673440    3.247920   -2.928200
  C      4.535950    1.101580   -2.407130
  F      5.777160    1.605720   -2.409860
  C      4.334030   -0.224370   -2.144870
  C      3.029390   -0.754910   -2.140990
  C      1.925270    0.103630   -2.414830
  C      0.607090   -0.407270   -2.421090
  C      0.399010   -1.736310   -2.159030
  C      1.505730   -2.581050   -1.875080
  C      2.790340   -2.119370   -1.867110
  C      1.028500   -3.949970   -1.601590
  O      1.738260   -4.906300   -1.372080
  C     -0.451550   -3.879280   -1.663550
  C     -0.818640   -2.539960   -2.101220
  C     -2.063370   -2.100090   -2.468600
  C     -3.242420   -2.875270   -2.515010
  N     -4.244170   -3.430340   -2.601210
  C     -2.334280   -0.785030   -2.904930
  N     -2.621590    0.266690   -3.263640
  C     -1.366650   -4.825600   -1.286460
  C     -1.207180   -6.150400   -0.834880
  C     -0.108820   -6.985930   -0.716480
  C     -0.431570   -8.235600   -0.206470
  Cl     0.741060   -9.456150    0.044040
  C     -1.788450   -8.415540    0.086650
  S     -2.662320   -6.972950   -0.308490
  C     -2.410180   -9.556690    0.638390
  C     -3.760340   -9.737210    0.942130
  Cl    -4.952350   -8.544310    0.646300
  C     -4.057210  -10.969700    1.512100
  C     -2.942940  -11.776900    1.662700
  S     -1.512150  -10.985230    1.071890
  C     -2.842880  -13.078870    2.228210
  C     -3.918690  -13.804640    2.791680
  C     -3.718400  -15.097360    3.384930
  N     -4.766850  -15.751850    3.923640
  C     -5.942890  -15.216080    3.899040
  C     -6.140290  -13.939050    3.309400
  N     -5.161480  -13.276930    2.786080
  F     -7.346760  -13.380870    3.279630
  F     -6.950220  -15.890560    4.439250
  C     -2.461130  -15.739610    3.449430
  C     -1.388630  -15.029720    2.864230
  C     -1.589710  -13.730300    2.273420
  N     -0.454290  -13.228580    1.787540
  S      0.737660  -14.271030    2.038860
  N     -0.112290  -15.410820    2.778160
  C     -2.306150  -17.001490    4.082560
  C     -1.132570  -17.723760    4.219950
  C     -1.307300  -18.908380    4.922530
  Cl    -0.017550  -19.991340    5.236910
  C     -2.618340  -19.134610    5.341680
  S     -3.643600  -17.820570    4.824540
  C     -3.107810  -20.233260    6.079500
  C     -4.422740  -20.502650    6.461740
  Cl    -5.734530  -19.482950    6.054890
  C     -4.569630  -21.666180    7.211290
  C     -3.380380  -22.345090    7.406210
  S     -2.057590  -21.483550    6.668810
  C     -3.203810  -23.504370    8.196560
  C     -2.126020  -24.330450    8.286200
  C     -1.939100  -25.156380    9.512570
  O     -2.769970  -25.404590   10.353750
  C     -0.510690  -25.535380    9.502470
  C      0.213460  -26.176060   10.466240
  C      1.590830  -26.406660   10.250880
  C      2.193950  -25.964610    9.037210
  C      3.569660  -26.193070    8.833060
  C      4.311110  -26.831720    9.786980
  C      3.713750  -27.268690   10.986590
  C      2.382220  -27.061630   11.214700
  F      4.465570  -27.889790   11.904980
  F      5.618050  -27.048300    9.590630
  C      1.417360  -25.310530    8.053510
  C      0.083600  -25.103900    8.281700
  C     -0.955470  -24.502160    7.451090
  C     -0.915920  -24.396470    6.086460
  C     -2.052910  -24.101120    5.304780
  N     -2.970480  -23.921220    4.639530
  C      0.232340  -24.662580    5.314090
  N      1.147860  -24.849080    4.647690
  H      1.344350    2.131600   -2.889670
  H      5.179110   -0.862930   -1.940460
  H     -0.204670    0.270710   -2.627950
  H      3.610930   -2.786840   -1.652120
  H     -2.405130   -4.515080   -1.302870
  H      0.888480   -6.689870   -0.985910
  H     -5.042870  -11.270650    1.810170
  H     -0.192560  -17.389420    3.823190
  H     -5.516330  -22.016300    7.579680
  H     -4.002280  -23.710390    8.903360
  H     -0.257070  -26.501620   11.381430
  H      4.042010  -25.868230    7.919180
  H      1.939970  -27.402090   12.137840
  H      1.897600  -24.977930    7.146910

 Total Charge           Charge          ....    0
 Multiplicity           Mult            ....    1
 Number of Electrons    NEL             ....  636
 Basis Dimension        Dim             .... 1268

ORBITAL ENERGIES
----------------

  NO   OCC          E(Eh)            E(eV)
   0   2.0000    -101.605536     -2764.8272
   1   2.0000    -101.605091     -2764.8151
   2   2.0000    -101.605034     -2764.8135
   3   2.0000    -101.604933     -2764.8108
   4   2.0000     -89.056580     -2423.3527
   5   2.0000     -88.977455     -2421.1996
   6   2.0000     -88.976832     -2421.1827
   7   2.0000     -88.971172     -2421.0287
   8   2.0000     -88.970893     -2421.0211
   9   2.0000     -24.830165      -675.6631
  10   2.0000     -24.827283      -675.5847
  11   2.0000     -24.799231      -674.8214
  12   2.0000     -24.799109      -674.8181
  13   2.0000     -24.798601      -674.8042
  14   2.0000     -24.797967      -674.7870
  15   2.0000     -19.222662      -523.0752
  16   2.0000     -19.217240      -522.9277
  17   2.0000     -14.470369      -393.7587
  18   2.0000     -14.467489      -393.6804
  19   2.0000     -14.465096      -393.6153
  20   2.0000     -14.464577      -393.6011
  21   2.0000     -14.418460      -392.3462
  22   2.0000     -14.418057      -392.3353
  23   2.0000     -14.415826      -392.2746
  24   2.0000     -14.414296      -392.2329
  25   2.0000     -10.446783      -284.2714
  26   2.0000     -10.444612      -284.2123
  27   2.0000     -10.382309      -282.5170
  28   2.0000     -10.382210      -282.5143
  29   2.0000     -10.381851      -282.5045
  30   2.0000     -10.381487      -282.4946
  31   2.0000     -10.373755      -282.2842
  32   2.0000     -10.369321      -282.1636
  33   2.0000     -10.360381      -281.9203
  34   2.0000     -10.358257      -281.8625
  35   2.0000     -10.353624      -281.7364
  36   2.0000     -10.351879      -281.6890
  37   2.0000     -10.346095      -281.5315
  38   2.0000     -10.344025      -281.4752
  39   2.0000     -10.343915      -281.4722
  40   2.0000     -10.343398      -281.4582
  41   2.0000     -10.343346      -281.4568
  42   2.0000     -10.342455      -281.4325
  43   2.0000     -10.341350      -281.4024
  44   2.0000     -10.340910      -281.3905
  45   2.0000     -10.340767      -281.3866
  46   2.0000     -10.338155      -281.3155
  47   2.0000     -10.329556      -281.0815
  48   2.0000     -10.328833      -281.0618
  49   2.0000     -10.328214      -281.0450
  50   2.0000     -10.325749      -280.9779
  51   2.0000     -10.325236      -280.9639
  52   2.0000     -10.324270      -280.9377
  53   2.0000     -10.323946      -280.9289
  54   2.0000     -10.322738      -280.8960
  55   2.0000     -10.321172      -280.8534
  56   2.0000     -10.320785      -280.8428
  57   2.0000     -10.320739      -280.8416
  58   2.0000     -10.320336      -280.8306
  59   2.0000     -10.318985      -280.7939
  60   2.0000     -10.316205      -280.7182
  61   2.0000     -10.311881      -280.6005
  62   2.0000     -10.311410      -280.5877
  63   2.0000     -10.311335      -280.5857
  64   2.0000     -10.311035      -280.5775
  65   2.0000     -10.309567      -280.5376
  66   2.0000     -10.308114      -280.4980
  67   2.0000     -10.305457      -280.4257
  68   2.0000     -10.304112      -280.3891
  69   2.0000     -10.303944      -280.3846
  70   2.0000     -10.303617      -280.3757
  71   2.0000     -10.303240      -280.3654
  72   2.0000     -10.302992      -280.3587
  73   2.0000     -10.302164      -280.3361
  74   2.0000     -10.301924      -280.3296
  75   2.0000     -10.301393      -280.3152
  76   2.0000     -10.301037      -280.3055
  77   2.0000     -10.300533      -280.2918
  78   2.0000     -10.295477      -280.1542
  79   2.0000     -10.295364      -280.1511
  80   2.0000     -10.293951      -280.1126
  81   2.0000     -10.291492      -280.0457
  82   2.0000     -10.290776      -280.0263
  83   2.0000      -9.560270      -260.1482
  84   2.0000      -9.559829      -260.1362
  85   2.0000      -9.559755      -260.1342
  86   2.0000      -9.559736      -260.1336
  87   2.0000      -8.147576      -221.7068
  88   2.0000      -8.072353      -219.6599
  89   2.0000      -8.071241      -219.6296
  90   2.0000      -8.064579      -219.4484
  91   2.0000      -8.064425      -219.4442
  92   2.0000      -7.330301      -199.4676
  93   2.0000      -7.330025      -199.4601
  94   2.0000      -7.329852      -199.4554
  95   2.0000      -7.329796      -199.4539
  96   2.0000      -7.320380      -199.1977
  97   2.0000      -7.320317      -199.1960
  98   2.0000      -7.319892      -199.1844
  99   2.0000      -7.319876      -199.1840
 100   2.0000      -7.319829      -199.1827
 101   2.0000      -7.319767      -199.1810
 102   2.0000      -7.319765      -199.1809
 103   2.0000      -7.319690      -199.1789
 104   2.0000      -6.118667      -166.4974
 105   2.0000      -6.110878      -166.2854
 106   2.0000      -6.110389      -166.2721
 107   2.0000      -6.041696      -164.4029
 108   2.0000      -6.040748      -164.3771
 109   2.0000      -6.037443      -164.2872
 110   2.0000      -6.036378      -164.2582
 111   2.0000      -6.034316      -164.2021
 112   2.0000      -6.034218      -164.1994
 113   2.0000      -6.034127      -164.1970
 114   2.0000      -6.033025      -164.1669
 115   2.0000      -6.029541      -164.0722
 116   2.0000      -6.029350      -164.0670
 117   2.0000      -6.026299      -163.9839
 118   2.0000      -6.026180      -163.9807
 119   2.0000      -1.357651       -36.9436
 120   2.0000      -1.343263       -36.5520
 121   2.0000      -1.321917       -35.9712
 122   2.0000      -1.321639       -35.9636
 123   2.0000      -1.307046       -35.5665
 124   2.0000      -1.306744       -35.5583
 125   2.0000      -1.154157       -31.4062
 126   2.0000      -1.137999       -30.9665
 127   2.0000      -1.133191       -30.8357
 128   2.0000      -1.128541       -30.7091
 129   2.0000      -1.054722       -28.7005
 130   2.0000      -1.033893       -28.1337
 131   2.0000      -1.033578       -28.1251
 132   2.0000      -1.021513       -27.7968
 133   2.0000      -1.021475       -27.7957
 134   2.0000      -1.014419       -27.6038
 135   2.0000      -1.010982       -27.5102
 136   2.0000      -1.005648       -27.3651
 137   2.0000      -1.004989       -27.3472
 138   2.0000      -1.003705       -27.3122
 139   2.0000      -0.995603       -27.0917
 140   2.0000      -0.994860       -27.0715
 141   2.0000      -0.988240       -26.8914
 142   2.0000      -0.983112       -26.7518
 143   2.0000      -0.983049       -26.7501
 144   2.0000      -0.967623       -26.3303
 145   2.0000      -0.965716       -26.2785
 146   2.0000      -0.958074       -26.0705
 147   2.0000      -0.952066       -25.9070
 148   2.0000      -0.933160       -25.3926
 149   2.0000      -0.932746       -25.3813
 150   2.0000      -0.913081       -24.8462
 151   2.0000      -0.909035       -24.7361
 152   2.0000      -0.903013       -24.5722
 153   2.0000      -0.899021       -24.4636
 154   2.0000      -0.895346       -24.3636
 155   2.0000      -0.893877       -24.3236
 156   2.0000      -0.889777       -24.2121
 157   2.0000      -0.884632       -24.0721
 158   2.0000      -0.868066       -23.6213
 159   2.0000      -0.860218       -23.4077
 160   2.0000      -0.841901       -22.9093
 161   2.0000      -0.841435       -22.8966
 162   2.0000      -0.836661       -22.7667
 163   2.0000      -0.833555       -22.6822
 164   2.0000      -0.831704       -22.6318
 165   2.0000      -0.828847       -22.5541
 166   2.0000      -0.826963       -22.5028
 167   2.0000      -0.821121       -22.3438
 168   2.0000      -0.809631       -22.0312
 169   2.0000      -0.791043       -21.5254
 170   2.0000      -0.784395       -21.3445
 171   2.0000      -0.772660       -21.0251
 172   2.0000      -0.769234       -20.9319
 173   2.0000      -0.766735       -20.8639
 174   2.0000      -0.764044       -20.7907
 175   2.0000      -0.746163       -20.3041
 176   2.0000      -0.741399       -20.1745
 177   2.0000      -0.732975       -19.9453
 178   2.0000      -0.721576       -19.6351
 179   2.0000      -0.719254       -19.5719
 180   2.0000      -0.714119       -19.4322
 181   2.0000      -0.711298       -19.3554
 182   2.0000      -0.705453       -19.1964
 183   2.0000      -0.694676       -18.9031
 184   2.0000      -0.690330       -18.7848
 185   2.0000      -0.688371       -18.7315
 186   2.0000      -0.685340       -18.6491
 187   2.0000      -0.680238       -18.5102
 188   2.0000      -0.676430       -18.4066
 189   2.0000      -0.670183       -18.2366
 190   2.0000      -0.668243       -18.1838
 191   2.0000      -0.659335       -17.9414
 192   2.0000      -0.656981       -17.8773
 193   2.0000      -0.653602       -17.7854
 194   2.0000      -0.648473       -17.6458
 195   2.0000      -0.644158       -17.5284
 196   2.0000      -0.642950       -17.4956
 197   2.0000      -0.641326       -17.4514
 198   2.0000      -0.632784       -17.2189
 199   2.0000      -0.632308       -17.2060
 200   2.0000      -0.630902       -17.1677
 201   2.0000      -0.628175       -17.0935
 202   2.0000      -0.622213       -16.9313
 203   2.0000      -0.617104       -16.7923
 204   2.0000      -0.613706       -16.6998
 205   2.0000      -0.608087       -16.5469
 206   2.0000      -0.600113       -16.3299
 207   2.0000      -0.598783       -16.2937
 208   2.0000      -0.591759       -16.1026
 209   2.0000      -0.589914       -16.0524
 210   2.0000      -0.586409       -15.9570
 211   2.0000      -0.586138       -15.9496
 212   2.0000      -0.584115       -15.8946
 213   2.0000      -0.581906       -15.8345
 214   2.0000      -0.580795       -15.8042
 215   2.0000      -0.579909       -15.7801
 216   2.0000      -0.576197       -15.6791
 217   2.0000      -0.569617       -15.5001
 218   2.0000      -0.562091       -15.2953
 219   2.0000      -0.560230       -15.2446
 220   2.0000      -0.555676       -15.1207
 221   2.0000      -0.553912       -15.0727
 222   2.0000      -0.552860       -15.0441
 223   2.0000      -0.548060       -14.9135
 224   2.0000      -0.547772       -14.9056
 225   2.0000      -0.545227       -14.8364
 226   2.0000      -0.542110       -14.7516
 227   2.0000      -0.539647       -14.6845
 228   2.0000      -0.538542       -14.6545
 229   2.0000      -0.536527       -14.5996
 230   2.0000      -0.535798       -14.5798
 231   2.0000      -0.533148       -14.5077
 232   2.0000      -0.532860       -14.4998
 233   2.0000      -0.531868       -14.4729
 234   2.0000      -0.531152       -14.4534
 235   2.0000      -0.529714       -14.4143
 236   2.0000      -0.528542       -14.3824
 237   2.0000      -0.526592       -14.3293
 238   2.0000      -0.525428       -14.2976
 239   2.0000      -0.523509       -14.2454
 240   2.0000      -0.520413       -14.1612
 241   2.0000      -0.517133       -14.0719
 242   2.0000      -0.514334       -13.9957
 243   2.0000      -0.512387       -13.9428
 244   2.0000      -0.511245       -13.9117
 245   2.0000      -0.507925       -13.8213
 246   2.0000      -0.506019       -13.7695
 247   2.0000      -0.502652       -13.6778
 248   2.0000      -0.500997       -13.6328
 249   2.0000      -0.499250       -13.5853
 250   2.0000      -0.498461       -13.5638
 251   2.0000      -0.497004       -13.5242
 252   2.0000      -0.494868       -13.4661
 253   2.0000      -0.491587       -13.3768
 254   2.0000      -0.491040       -13.3619
 255   2.0000      -0.486675       -13.2431
 256   2.0000      -0.484302       -13.1785
 257   2.0000      -0.476277       -12.9601
 258   2.0000      -0.472327       -12.8527
 259   2.0000      -0.471029       -12.8174
 260   2.0000      -0.470375       -12.7995
 261   2.0000      -0.468126       -12.7384
 262   2.0000      -0.467001       -12.7077
 263   2.0000      -0.465724       -12.6730
 264   2.0000      -0.462749       -12.5920
 265   2.0000      -0.462695       -12.5906
 266   2.0000      -0.453951       -12.3526
 267   2.0000      -0.453051       -12.3281
 268   2.0000      -0.450794       -12.2667
 269   2.0000      -0.450185       -12.2502
 270   2.0000      -0.449807       -12.2399
 271   2.0000      -0.447410       -12.1747
 272   2.0000      -0.447287       -12.1713
 273   2.0000      -0.445370       -12.1191
 274   2.0000      -0.444743       -12.1021
 275   2.0000      -0.443233       -12.0610
 276   2.0000      -0.443042       -12.0558
 277   2.0000      -0.437131       -11.8949
 278   2.0000      -0.431973       -11.7546
 279   2.0000      -0.428341       -11.6558
 280   2.0000      -0.428134       -11.6501
 281   2.0000      -0.427541       -11.6340
 282   2.0000      -0.425464       -11.5775
 283   2.0000      -0.422327       -11.4921
 284   2.0000      -0.421377       -11.4662
 285   2.0000      -0.419028       -11.4023
 286   2.0000      -0.416634       -11.3372
 287   2.0000      -0.416240       -11.3265
 288   2.0000      -0.410702       -11.1758
 289   2.0000      -0.409840       -11.1523
 290   2.0000      -0.405181       -11.0255
 291   2.0000      -0.400429       -10.8962
 292   2.0000      -0.398710       -10.8495
 293   2.0000      -0.393417       -10.7054
 294   2.0000      -0.389744       -10.6055
 295   2.0000      -0.388794       -10.5796
 296   2.0000      -0.385329       -10.4853
 297   2.0000      -0.384104       -10.4520
 298   2.0000      -0.378657       -10.3038
 299   2.0000      -0.373313       -10.1584
 300   2.0000      -0.360197        -9.8015
 301   2.0000      -0.357715        -9.7339
 302   2.0000      -0.356027        -9.6880
 303   2.0000      -0.353074        -9.6076
 304   2.0000      -0.344314        -9.3693
 305   2.0000      -0.341423        -9.2906
 306   2.0000      -0.334459        -9.1011
 307   2.0000      -0.332318        -9.0428
 308   2.0000      -0.330140        -8.9836
 309   2.0000      -0.322444        -8.7741
 310   2.0000      -0.321911        -8.7597
 311   2.0000      -0.318932        -8.6786
 312   2.0000      -0.318004        -8.6533
 313   2.0000      -0.308713        -8.4005
 314   2.0000      -0.302149        -8.2219
 315   2.0000      -0.298298        -8.1171
 316   2.0000      -0.274301        -7.4641
 317   2.0000      -0.245699        -6.6858
 318   0.0000      -0.131118        -3.5679
 319   0.0000      -0.098718        -2.6863
 320   0.0000      -0.095233        -2.5914
 321   0.0000      -0.062679        -1.7056
 322   0.0000      -0.059354        -1.6151

MULLIKEN ATOMIC CHARGES
-----------------------
   0 C :   -0.105595
   1 C :    0.239804
   2 F :   -0.170560
   3 C :    0.238609
   4 F :   -0.172060
   5 C :   -0.104046
   6 C :    0.115323
   7 C :    0.111973
   8 C :   -0.080560
   9 C :    0.050427
  10 C :   -0.002835
  11 C :   -0.081246
  12 C :    0.160668
  13 O :   -0.156048
  14 C :   -0.094209
  15 C :    0.312282
  16 C :   -0.356201
  17 C :   -0.196844
  18 N :    0.157982
  19 C :   -0.182706
  20 N :    0.150312
  21 C :    0.054749
  22 C :   -0.098441
  23 C :    0.027397
  24 C :    0.055001
  25 Cl:   -0.055029
  26 C :   -0.080712
  27 S :    0.173669
  28 C :   -0.066712
  29 C :    0.083035
  30 Cl:   -0.052434
  31 C :   -0.004394
  32 C :   -0.156020
  33 S :    0.174022
  34 C :    0.214969
  35 C :   -0.072807
  36 C :   -0.060351
  37 N :   -0.041801
  38 C :    0.155801
  39 C :    0.142319
  40 N :    0.003739
  41 F :   -0.136911
  42 F :   -0.130882
  43 C :    0.193453
  44 C :    0.001559
  45 C :   -0.028311
  46 N :   -0.327712
  47 S :    0.565404
  48 N :   -0.292038
  49 C :   -0.157561
  50 C :    0.000743
  51 C :    0.081413
  52 Cl:   -0.057920
  53 C :   -0.063067
  54 S :    0.177944
  55 C :   -0.083419
  56 C :    0.074578
  57 Cl:   -0.054172
  58 C :    0.046589
  59 C :   -0.073644
  60 S :    0.165336
  61 C :    0.060374
  62 C :   -0.133879
  63 C :    0.141323
  64 O :   -0.141442
  65 C :    0.012411
  66 C :   -0.084429
  67 C :    0.113668
  68 C :    0.113568
  69 C :   -0.106876
  70 C :    0.240820
  71 C :    0.238793
  72 C :   -0.103520
  73 F :   -0.171996
  74 F :   -0.170887
  75 C :   -0.081867
  76 C :    0.041528
  77 C :    0.243740
  78 C :   -0.311356
  79 C :   -0.209699
  80 N :    0.175350
  81 C :   -0.173157
  82 N :    0.152317
  83 H :    0.007255
  84 H :   -0.000440
  85 H :   -0.005892
  86 H :   -0.011091
  87 H :    0.011388
  88 H :    0.013458
  89 H :   -0.000925
  90 H :   -0.004195
  91 H :   -0.004003
  92 H :    0.026142
  93 H :   -0.008932
  94 H :    0.004774
  95 H :   -0.000653
  96 H :   -0.003522
Sum of atomic charges:   -0.0000000

LOEWDIN ATOMIC CHARGES
----------------------
   0 C :   -0.029041
   1 C :    0.066275
   2 F :   -0.048642
   3 C :    0.067518
   4 F :   -0.049416
   5 C :   -0.033635
   6 C :   -0.008731
   7 C :   -0.006499
   8 C :    0.017586
   9 C :   -0.022949
  10 C :   -0.051770
  11 C :    0.029062
  12 C :    0.088076
  13 O :   -0.141942
  14 C :   -0.097211
  15 C :    0.076027
  16 C :   -0.141347
  17 C :   -0.025837
  18 N :   -0.049282
  19 C :   -0.017073
  20 N :   -0.054329
  21 C :    0.049224
  22 C :   -0.185614
  23 C :   -0.022949
  24 C :   -0.175989
  25 Cl:    0.165809
  26 C :   -0.183666
  27 S :    0.472949
  28 C :   -0.217830
  29 C :   -0.163771
  30 Cl:    0.167579
  31 C :   -0.054287
  32 C :   -0.164660
  33 S :    0.493225
  34 C :   -0.042308
  35 C :   -0.005479
  36 C :   -0.013134
  37 N :   -0.051405
  38 C :    0.065254
  39 C :    0.061821
  40 N :   -0.029665
  41 F :   -0.025246
  42 F :   -0.020655
  43 C :   -0.037285
  44 C :   -0.037811
  45 C :   -0.045648
  46 N :   -0.297999
  47 S :    0.685426
  48 N :   -0.275794
  49 C :   -0.168569
  50 C :   -0.051343
  51 C :   -0.164739
  52 Cl:    0.164360
  53 C :   -0.213947
  54 S :    0.491215
  55 C :   -0.180430
  56 C :   -0.172842
  57 Cl:    0.167897
  58 C :   -0.025515
  59 C :   -0.185565
  60 S :    0.485874
  61 C :    0.053597
  62 C :   -0.097661
  63 C :    0.083305
  64 O :   -0.142064
  65 C :   -0.053597
  66 C :    0.030321
  67 C :   -0.009672
  68 C :   -0.005552
  69 C :   -0.030684
  70 C :    0.066883
  71 C :    0.066555
  72 C :   -0.032621
  73 F :   -0.049429
  74 F :   -0.048776
  75 C :    0.012965
  76 C :   -0.018770
  77 C :    0.058912
  78 C :   -0.139583
  79 C :   -0.038214
  80 N :   -0.044078
  81 C :   -0.019032
  82 N :   -0.051010
  83 H :    0.047792
  84 H :    0.044700
  85 H :    0.039922
  86 H :    0.039697
  87 H :    0.043621
  88 H :    0.037552
  89 H :    0.033464
  90 H :    0.033459
  91 H :    0.040239
  92 H :    0.052488
  93 H :    0.040691
  94 H :    0.046929
  95 H :    0.044801
  96 H :    0.039525

  Mayer bond orders larger than 0.100000
B(  0-C ,  1-C ) :   1.4423 B(  0-C ,  5-C ) :   0.1086 B(  0-C ,  7-C ) :   1.1887
B(  0-C , 83-H ) :   1.0059 B(  1-C ,  2-F ) :   1.1353 B(  1-C ,  3-C ) :   1.1919
B(  3-C ,  4-F ) :   1.1333 B(  3-C ,  5-C ) :   1.4431 B(  5-C ,  6-C ) :   1.1928
B(  5-C , 84-H ) :   1.0065 B(  6-C ,  7-C ) :   1.2557 B(  6-C , 11-C ) :   1.1887
B(  7-C ,  8-C ) :   1.2184 B(  8-C ,  9-C ) :   1.4504 B(  8-C , 85-H ) :   0.9890
B(  9-C , 10-C ) :   1.2235 B(  9-C , 15-C ) :   0.9802 B( 10-C , 11-C ) :   1.4727
B( 10-C , 12-C ) :   0.9501 B( 11-C , 86-H ) :   1.0154 B( 12-C , 13-O ) :   2.1689
B( 12-C , 14-C ) :   0.9423 B( 14-C , 15-C ) :   1.0810 B( 14-C , 21-C ) :   1.5784
B( 15-C , 16-C ) :   1.6244 B( 16-C , 17-C ) :   1.1384 B( 16-C , 19-C ) :   1.1500
B( 17-C , 18-N ) :   2.9800 B( 19-C , 20-N ) :   2.9645 B( 21-C , 22-C ) :   1.2275
B( 21-C , 87-H ) :   0.9134 B( 22-C , 23-C ) :   1.3986 B( 22-C , 27-S ) :   1.0785
B( 23-C , 24-C ) :   1.3013 B( 23-C , 88-H ) :   0.9855 B( 24-C , 25-Cl) :   1.0501
B( 24-C , 26-C ) :   1.3944 B( 26-C , 27-S ) :   1.1680 B( 26-C , 28-C ) :   1.2060
B( 28-C , 29-C ) :   1.4177 B( 28-C , 33-S ) :   1.0931 B( 29-C , 30-Cl) :   1.0430
B( 29-C , 31-C ) :   1.2749 B( 31-C , 32-C ) :   1.4162 B( 31-C , 89-H ) :   0.9984
B( 32-C , 33-S ) :   1.1162 B( 32-C , 34-C ) :   1.1778 B( 34-C , 35-C ) :   1.2974
B( 34-C , 43-C ) :   0.1278 B( 34-C , 45-C ) :   1.1888 B( 35-C , 36-C ) :   1.1153
B( 35-C , 40-N ) :   1.4290 B( 36-C , 37-N ) :   1.3807 B( 36-C , 43-C ) :   1.2938
B( 37-N , 38-C ) :   1.6557 B( 38-C , 39-C ) :   1.1022 B( 38-C , 42-F ) :   1.1924
B( 39-C , 40-N ) :   1.6715 B( 39-C , 41-F ) :   1.1768 B( 43-C , 44-C ) :   1.1979
B( 43-C , 49-C ) :   1.1849 B( 44-C , 45-C ) :   1.1136 B( 44-C , 48-N ) :   1.5020
B( 45-C , 46-N ) :   1.4694 B( 46-N , 47-S ) :   1.2753 B( 46-N , 48-N ) :   0.1530
B( 47-S , 48-N ) :   1.2867 B( 49-C , 50-C ) :   1.4259 B( 49-C , 54-S ) :   1.1055
B( 50-C , 51-C ) :   1.2793 B( 50-C , 90-H ) :   0.9935 B( 51-C , 52-Cl) :   1.0352
B( 51-C , 53-C ) :   1.4226 B( 53-C , 54-S ) :   1.0814 B( 53-C , 55-C ) :   1.2169
B( 55-C , 56-C ) :   1.4119 B( 55-C , 60-S ) :   1.1564 B( 56-C , 57-Cl) :   1.0406
B( 56-C , 58-C ) :   1.3029 B( 58-C , 59-C ) :   1.4043 B( 58-C , 91-H ) :   1.0098
B( 59-C , 60-S ) :   1.0885 B( 59-C , 61-C ) :   1.1498 B( 61-C , 62-C ) :   1.6332
B( 61-C , 92-H ) :   0.9472 B( 62-C , 63-C ) :   0.9411 B( 62-C , 77-C ) :   1.0332
B( 63-C , 64-O ) :   2.2716 B( 63-C , 65-C ) :   0.9182 B( 65-C , 66-C ) :   1.4765
B( 65-C , 76-C ) :   1.2208 B( 66-C , 67-C ) :   1.1948 B( 66-C , 93-H ) :   1.0158
B( 67-C , 68-C ) :   1.2568 B( 67-C , 72-C ) :   1.1930 B( 68-C , 69-C ) :   1.1893
B( 68-C , 75-C ) :   1.2132 B( 69-C , 70-C ) :   1.4430 B( 69-C , 72-C ) :   0.1086
B( 69-C , 94-H ) :   1.0066 B( 70-C , 71-C ) :   1.1924 B( 70-C , 74-F ) :   1.1341
B( 71-C , 72-C ) :   1.4437 B( 71-C , 73-F ) :   1.1325 B( 72-C , 95-H ) :   1.0067
B( 75-C , 76-C ) :   1.4597 B( 75-C , 96-H ) :   0.9940 B( 76-C , 77-C ) :   1.0015
B( 77-C , 78-C ) :   1.6602 B( 78-C , 79-C ) :   1.1469 B( 78-C , 81-C ) :   1.1363
B( 79-C , 80-N ) :   3.0307 B( 81-C , 82-N ) :   2.9870

-----------------------------------------------------------------------------
         ABSORPTION SPECTRUM VIA TRANSITION ELECTRIC DIPOLE MOMENTS
-----------------------------------------------------------------------------
State   Energy  Wavelength   fosc         T2         TX        TY        TZ
        (cm-1)    (nm)                  (au**2)     (au)      (au)      (au)
-----------------------------------------------------------------------------
   0   10173.2    983.0   1.198872310  38.79634  -0.15119  -5.65007   2.61728
   1   17367.3    575.8   0.055922768   1.06006  -1.02529   0.08431  -0.04164
   2   18616.9    537.1   0.572429204  10.12255  -0.34816   2.98433  -1.04648
   3   19476.8    513.4   0.650977387  11.00332   0.98770   2.91923  -1.22715
   4   24086.4    415.2   0.023225052   0.31744  -0.34477  -0.44527   0.01744
   5   24840.6    402.6   0.022782417   0.30193   0.32777  -0.43657   0.06251
   6   24856.1    402.3   0.010000830   0.13246  -0.03445  -0.34773   0.10176
   7   26048.5    383.9   0.042067981   0.53167  -0.53044   0.07588  -0.49452
   8   26399.6    378.8   0.043989160   0.54856  -0.29830  -0.29516   0.61030
   9   26588.3    376.1   0.086520567   1.07128  -0.55347  -0.59021   0.64545
  10   26724.7    374.2   0.015204927   0.18730  -0.16952   0.19142  -0.34918
  11   27348.8    365.6   0.043341276   0.52172  -0.67967  -0.24324   0.02457
  12   27802.8    359.7   0.188937780   2.23720   0.04157  -1.22971   0.85046
  13   27972.8    357.5   0.139260337   1.63896  -1.00601  -0.78091   0.13066
  14   28444.3    351.6   0.089998649   1.04164   0.04954   0.54735  -0.85999
  15   28652.5    349.0   0.027415876   0.31500  -0.47456  -0.28002   0.10671
  16   28866.1    346.4   0.017579609   0.20049  -0.30716   0.32562  -0.01093
  17   29134.8    343.2   0.058797217   0.66439  -0.80940   0.07414  -0.06132
  18   29348.2    340.7   0.035294182   0.39591  -0.08283  -0.60253   0.16127
  19   29508.0    338.9   0.053168950   0.59319   0.15510  -0.65843   0.36824
  20   29643.9    337.3   0.011776698   0.13079   0.06810   0.31890  -0.15637
  21   29869.1    334.8   0.214444802   2.36357   0.51297  -1.27464   0.68973
  22   30037.7    332.9   0.022804851   0.24994   0.14059  -0.29093  -0.38149
  23   30617.0    326.6   0.227080405   2.44170   1.30645  -0.53146   0.67263
  24   30988.8    322.7   0.282915147   3.00557  -1.20082  -1.19460   0.36950
  25   31280.1    319.7   0.107409519   1.13045  -1.01850  -0.21919   0.21228
  26   31987.7    312.6   0.015513244   0.15966   0.09124   0.05946   0.38445
  27   32167.6    310.9   0.028476128   0.29143  -0.14061  -0.26189   0.45064
  28   32780.5    305.1   0.202461175   2.03330   1.39205   0.13171  -0.27954
  29   32849.7    304.4   0.031739906   0.31809   0.52706  -0.06678  -0.18930
  30   33104.0    302.1   0.066208929   0.65843  -0.55661   0.51813  -0.28311
  31   33363.9    299.7   0.119649767   1.18062   0.84375   0.65511   0.19884
  32   33661.5    297.1   0.116470370   1.13909   1.04018   0.11860   0.20746
  33   33785.9    296.0   0.100311564   0.97744   0.26707   0.88532  -0.34976
  34   34157.7    292.8   0.007948295   0.07661   0.15049   0.21798  -0.08026
  35   34749.8    287.8   0.225982682   2.14091   0.41446  -0.48608   1.31638
  36   34891.9    286.6   0.086246585   0.81375  -0.59952  -0.49086   0.46193
  37   35378.2    282.7   0.215994300   2.00993  -1.32041  -0.44079  -0.26860
  38   35456.7    282.0   0.393664374   3.65513  -1.47082   0.49346  -1.11728
  39   35651.8    280.5   0.003620351   0.03343  -0.06152   0.17134  -0.01699
  40   35765.1    279.6   0.132188958   1.21678   0.65437   0.74747  -0.47945
  41   36001.6    277.8   0.011619491   0.10625  -0.27819  -0.01943  -0.16877
  42   36013.3    277.7   0.047470681   0.43395   0.06340   0.29961  -0.58323
  43   36250.2    275.9   0.147905445   1.34323   1.08967   0.02880   0.39372
  44   36490.1    274.0   0.018466919   0.16661  -0.22651   0.23781  -0.24238
  45   36563.1    273.5   0.471063643   4.24143   2.00811   0.31241  -0.33364
  46   36910.0    270.9   0.127578811   1.13792  -0.95896   0.33103  -0.32973
  47   37108.8    269.5   0.017069439   0.15143   0.33172  -0.09388   0.18051
  48   37604.0    265.9   0.000964790   0.00845   0.01372  -0.08770   0.02381
  49   37666.7    265.5   0.011432932   0.09993   0.06088  -0.08006   0.29968
  50   38304.6    261.1   0.042400410   0.36441   0.37616  -0.23704   0.40833
  51   38764.4    258.0   0.083732811   0.71111   0.68898  -0.46161   0.15274
  52   38847.9    257.4   0.003153207   0.02672  -0.08006   0.12723  -0.06423
  53   39275.1    254.6   0.008632063   0.07236  -0.20300  -0.08150   0.15654
  54   39442.2    253.5   0.035257899   0.29429  -0.31056   0.40003  -0.19447
  55   39593.8    252.6   0.042895951   0.35667   0.48736  -0.24922  -0.23882
  56   39689.3    252.0   0.092897712   0.77056   0.67264   0.19193  -0.53035
  57   39884.5    250.7   0.038866219   0.32081  -0.37527  -0.39585   0.15258
  58   39991.7    250.1   0.004479203   0.03687   0.11049  -0.03055   0.15405

FINAL SINGLE POINT ENERGY     -7232.477460528750

DIPOLE MOMENT
-------------
                                X             Y             Z
Electronic contribution:    -10.81729      -2.00324       0.68119
Nuclear contribution   :     12.15108       1.64949       1.25522
                        -----------------------------------------
Total Dipole Moment    :      1.33379      -0.35376       1.93641
                        -----------------------------------------
Magnitude (a.u.)       :      2.37777
Magnitude (Debye)      :      6.04382

Rotational constants in cm-1:     0.001292     0.000133     0.000122
Rotational constants in MHz :    38.725342     3.981095     3.664884

                             ****ORCA TERMINATED NORMALLY****
TOTAL RUN TIME: 0 days 0 hours 11 minutes 1 seconds 424 msec
