                         Program Version 4.2.0 -  RELEASE  -
|  1> # ORCA input file
|  2> # SCF done       -216.936141197235          0.000606377110
|  3> ! CAM-B3LYP def2-SVP def2/J RIJCOSX Grid4 TightSCF
|  4> %maxcore 5000
|  5> %tddft
|  6>     Mode sTDDFT
|  7>     Ethresh 5.0
|  8>     maxcore 5000
|  9> end
| 10>
| 11> %pal
| 12>   nprocs 6
| 13>   end
| 14> * xyz 0 1
| 15>    C       -6.46768         3.46081         0.10070
| 16>    C       -5.56134         4.48344         0.08342
| 17>    F       -5.96766         5.74056        -0.14063
| 18>    C       -4.19232         4.23148         0.30176
| 19>    F       -3.32504         5.25363         0.28126
| 20>    C       -3.74819         2.95982         0.53343
| 21>    C       -4.65747         1.88472         0.55804
| 22>    C       -6.04236         2.13862         0.34027
| 23>    C       -6.97492         1.07652         0.36970
| 24>    C       -6.53641        -0.19765         0.61667
| 25>    C       -5.15101        -0.44367         0.82440
| 26>    C       -4.22668         0.55957         0.79337
| 27>    C       -4.93577        -1.89004         1.04249
| 28>    O       -3.86377        -2.45241         1.10934
| 29>    C       -6.28368        -2.50125         1.01128
| 30>    C       -7.25491        -1.46374         0.73507
| 31>    C       -8.61738        -1.61184         0.68249
| 32>    C       -9.31507        -2.81708         0.90913
| 33>    N       -9.96099        -3.74578         1.10666
| 34>    C       -9.51641        -0.55661         0.42323
| 35>    N      -10.29636         0.25916         0.21279
| 36>    C       -6.54103        -3.84603         1.05827
| 37>    C       -5.69473        -4.86319         1.53737
| 38>    C       -4.67365        -4.82550         2.48557
| 39>    O       -4.34645        -3.73574         3.20642
| 40>    C       -3.07350        -3.84119         3.82026
| 41>    C       -2.89160        -5.20469         4.49781
| 42>    C       -3.88851        -5.40650         5.63659
| 43>    O       -3.02056        -6.24432         3.53307
| 44>    C       -4.08107        -6.08537         2.71228
| 45>    C       -4.66079        -7.11434         1.97233
| 46>    S       -5.90997        -6.49299         0.94046
| 47>    C       -4.37815        -8.51116         2.01196
| 48>    C       -4.79320        -9.36078         0.96202
| 49>    C       -4.49591       -10.76188         0.94214
| 50>    N       -4.94433       -11.51840        -0.07867
| 51>    C       -5.62889       -10.97538        -1.03072
| 52>    C       -5.90804        -9.58049        -1.02170
| 53>    N       -5.49645        -8.82621        -0.05671
| 54>    F       -6.60168        -9.01770        -2.00226
| 55>    F       -6.07084       -11.76198        -2.00488
| 56>    C       -3.74582       -11.39239         1.95891
| 57>    C       -3.45136       -10.58174         3.07742
| 58>    C       -3.76796        -9.16667         3.10736
| 59>    N       -3.50127        -8.63684         4.30054
| 60>    S       -2.90824        -9.77112         5.26292
| 61>    N       -2.96871       -11.00340         4.24466
| 62>    C       -3.38164       -12.76125         1.84934
| 63>    C       -2.38289       -13.45894         2.52364
| 64>    O       -1.47010       -12.89727         3.34758
| 65>    C       -0.35465       -13.74217         3.56715
| 66>    C       -0.79990       -15.17370         3.89119
| 67>    C       -1.65896       -15.21594         5.15276
| 68>    O       -1.50420       -15.71059         2.77435
| 69>    C       -2.35486       -14.83188         2.20539
| 70>    C       -3.26729       -15.18972         1.22073
| 71>    S       -4.20342       -13.79940         0.72786
| 72>    C       -3.48163       -16.48998         0.71866
| 73>    C       -4.10063       -16.83180        -0.44586
| 74>    C       -4.70569       -18.17898        -0.61500
| 75>    O       -4.51978       -19.15454         0.07489
| 76>    C       -5.63051       -18.03946        -1.76122
| 77>    C       -6.53256       -18.93911        -2.25121
| 78>    C       -7.34710       -18.56876        -3.34517
| 79>    C       -7.21528       -17.26582        -3.90834
| 80>    C       -8.03864       -16.90179        -4.99280
| 81>    C       -8.94676       -17.78980        -5.49705
| 82>    C       -9.07522       -19.07807        -4.94046
| 83>    C       -8.29296       -19.46071        -3.88724
| 84>    F       -9.97554       -19.92822        -5.45386
| 85>    F       -9.72711       -17.44315        -6.52955
| 86>    C       -6.26649       -16.35724        -3.38566
| 87>    C       -5.48153       -16.74300        -2.33299
| 88>    C       -4.41567       -16.04580        -1.62065
| 89>    C       -3.66726       -15.01600        -2.12612
| 90>    C       -2.46923       -14.56667        -1.53261
| 91>    N       -1.45991       -14.21775        -1.11028
| 92>    C       -3.95060       -14.36407        -3.34320
| 93>    N       -4.13792       -13.80458        -4.32747
| 94>    H       -7.51252         3.67056        -0.06726
| 95>    H       -2.69649         2.78419         0.69728
| 96>    H       -8.01461         1.30031         0.19428
| 97>    H       -3.18028         0.34716         0.95205
| 98>    H       -7.48334        -4.20125         0.65841
| 99>    H       -3.02372        -3.03161         4.54906
|100>    H       -2.30054        -3.69631         3.05591
|101>    H       -1.86602        -5.29832         4.86759
|102>    H       -4.89901        -5.18068         5.30222
|103>    H       -3.63951        -4.75564         6.46967
|104>    H       -3.85266        -6.44284         5.96176
|105>    H        0.19502       -13.30393         4.40025
|106>    H        0.27888       -13.75604         2.67010
|107>    H        0.07642       -15.81966         4.00290
|108>    H       -2.47199       -14.49588         5.08522
|109>    H       -1.04999       -14.97620         6.01957
|110>    H       -2.07798       -16.21103         5.27795
|111>    H       -3.18873       -17.30593         1.37171
|112>    H       -6.62603       -19.91999        -1.81042
|113>    H       -7.95071       -15.92034        -5.43178
|114>    H       -8.40421       -20.45027        -3.47235
|115>    H       -6.19128       -15.37242        -3.81890
|116> *
|117>
|118>                          ****END OF INPUT****

CARTESIAN COORDINATES (ANGSTROEM)
---------------------------------
  C     -6.467680    3.460810    0.100700
  C     -5.561340    4.483440    0.083420
  F     -5.967660    5.740560   -0.140630
  C     -4.192320    4.231480    0.301760
  F     -3.325040    5.253630    0.281260
  C     -3.748190    2.959820    0.533430
  C     -4.657470    1.884720    0.558040
  C     -6.042360    2.138620    0.340270
  C     -6.974920    1.076520    0.369700
  C     -6.536410   -0.197650    0.616670
  C     -5.151010   -0.443670    0.824400
  C     -4.226680    0.559570    0.793370
  C     -4.935770   -1.890040    1.042490
  O     -3.863770   -2.452410    1.109340
  C     -6.283680   -2.501250    1.011280
  C     -7.254910   -1.463740    0.735070
  C     -8.617380   -1.611840    0.682490
  C     -9.315070   -2.817080    0.909130
  N     -9.960990   -3.745780    1.106660
  C     -9.516410   -0.556610    0.423230
  N    -10.296360    0.259160    0.212790
  C     -6.541030   -3.846030    1.058270
  C     -5.694730   -4.863190    1.537370
  C     -4.673650   -4.825500    2.485570
  O     -4.346450   -3.735740    3.206420
  C     -3.073500   -3.841190    3.820260
  C     -2.891600   -5.204690    4.497810
  C     -3.888510   -5.406500    5.636590
  O     -3.020560   -6.244320    3.533070
  C     -4.081070   -6.085370    2.712280
  C     -4.660790   -7.114340    1.972330
  S     -5.909970   -6.492990    0.940460
  C     -4.378150   -8.511160    2.011960
  C     -4.793200   -9.360780    0.962020
  C     -4.495910  -10.761880    0.942140
  N     -4.944330  -11.518400   -0.078670
  C     -5.628890  -10.975380   -1.030720
  C     -5.908040   -9.580490   -1.021700
  N     -5.496450   -8.826210   -0.056710
  F     -6.601680   -9.017700   -2.002260
  F     -6.070840  -11.761980   -2.004880
  C     -3.745820  -11.392390    1.958910
  C     -3.451360  -10.581740    3.077420
  C     -3.767960   -9.166670    3.107360
  N     -3.501270   -8.636840    4.300540
  S     -2.908240   -9.771120    5.262920
  N     -2.968710  -11.003400    4.244660
  C     -3.381640  -12.761250    1.849340
  C     -2.382890  -13.458940    2.523640
  O     -1.470100  -12.897270    3.347580
  C     -0.354650  -13.742170    3.567150
  C     -0.799900  -15.173700    3.891190
  C     -1.658960  -15.215940    5.152760
  O     -1.504200  -15.710590    2.774350
  C     -2.354860  -14.831880    2.205390
  C     -3.267290  -15.189720    1.220730
  S     -4.203420  -13.799400    0.727860
  C     -3.481630  -16.489980    0.718660
  C     -4.100630  -16.831800   -0.445860
  C     -4.705690  -18.178980   -0.615000
  O     -4.519780  -19.154540    0.074890
  C     -5.630510  -18.039460   -1.761220
  C     -6.532560  -18.939110   -2.251210
  C     -7.347100  -18.568760   -3.345170
  C     -7.215280  -17.265820   -3.908340
  C     -8.038640  -16.901790   -4.992800
  C     -8.946760  -17.789800   -5.497050
  C     -9.075220  -19.078070   -4.940460
  C     -8.292960  -19.460710   -3.887240
  F     -9.975540  -19.928220   -5.453860
  F     -9.727110  -17.443150   -6.529550
  C     -6.266490  -16.357240   -3.385660
  C     -5.481530  -16.743000   -2.332990
  C     -4.415670  -16.045800   -1.620650
  C     -3.667260  -15.016000   -2.126120
  C     -2.469230  -14.566670   -1.532610
  N     -1.459910  -14.217750   -1.110280
  C     -3.950600  -14.364070   -3.343200
  N     -4.137920  -13.804580   -4.327470
  H     -7.512520    3.670560   -0.067260
  H     -2.696490    2.784190    0.697280
  H     -8.014610    1.300310    0.194280
  H     -3.180280    0.347160    0.952050
  H     -7.483340   -4.201250    0.658410
  H     -3.023720   -3.031610    4.549060
  H     -2.300540   -3.696310    3.055910
  H     -1.866020   -5.298320    4.867590
  H     -4.899010   -5.180680    5.302220
  H     -3.639510   -4.755640    6.469670
  H     -3.852660   -6.442840    5.961760
  H      0.195020  -13.303930    4.400250
  H      0.278880  -13.756040    2.670100
  H      0.076420  -15.819660    4.002900
  H     -2.471990  -14.495880    5.085220
  H     -1.049990  -14.976200    6.019570
  H     -2.077980  -16.211030    5.277950
  H     -3.188730  -17.305930    1.371710
  H     -6.626030  -19.919990   -1.810420
  H     -7.950710  -15.920340   -5.431780
  H     -8.404210  -20.450270   -3.472350
  H     -6.191280  -15.372420   -3.818900

 Total Charge           Charge          ....    0
 Multiplicity           Mult            ....    1
 Number of Electrons    NEL             ....  564
 Basis Dimension        Dim             .... 1228

ORBITAL ENERGIES
----------------

  NO   OCC          E(Eh)            E(eV)
   0   2.0000     -89.041996     -2422.9559
   1   2.0000     -88.962787     -2420.8005
   2   2.0000     -88.962212     -2420.7848
   3   2.0000     -24.822493      -675.4544
   4   2.0000     -24.821044      -675.4149
   5   2.0000     -24.795204      -674.7118
   6   2.0000     -24.794025      -674.6797
   7   2.0000     -24.793772      -674.6728
   8   2.0000     -24.793367      -674.6618
   9   2.0000     -19.271270      -524.3979
  10   2.0000     -19.266847      -524.2776
  11   2.0000     -19.265082      -524.2295
  12   2.0000     -19.257296      -524.0177
  13   2.0000     -19.209247      -522.7102
  14   2.0000     -19.208899      -522.7007
  15   2.0000     -14.463038      -393.5593
  16   2.0000     -14.462271      -393.5384
  17   2.0000     -14.448210      -393.1558
  18   2.0000     -14.447890      -393.1471
  19   2.0000     -14.410620      -392.1329
  20   2.0000     -14.410528      -392.1304
  21   2.0000     -14.410391      -392.1267
  22   2.0000     -14.408059      -392.0632
  23   2.0000     -10.439321      -284.0684
  24   2.0000     -10.439006      -284.0598
  25   2.0000     -10.377780      -282.3938
  26   2.0000     -10.376596      -282.3615
  27   2.0000     -10.376581      -282.3611
  28   2.0000     -10.376256      -282.3523
  29   2.0000     -10.361235      -281.9435
  30   2.0000     -10.359804      -281.9046
  31   2.0000     -10.354877      -281.7705
  32   2.0000     -10.353121      -281.7228
  33   2.0000     -10.352445      -281.7044
  34   2.0000     -10.351728      -281.6848
  35   2.0000     -10.351331      -281.6740
  36   2.0000     -10.350716      -281.6573
  37   2.0000     -10.350004      -281.6379
  38   2.0000     -10.345011      -281.5020
  39   2.0000     -10.343207      -281.4530
  40   2.0000     -10.343050      -281.4487
  41   2.0000     -10.342425      -281.4317
  42   2.0000     -10.337946      -281.3098
  43   2.0000     -10.336684      -281.2755
  44   2.0000     -10.336629      -281.2740
  45   2.0000     -10.335613      -281.2463
  46   2.0000     -10.335307      -281.2380
  47   2.0000     -10.323911      -280.9279
  48   2.0000     -10.323689      -280.9219
  49   2.0000     -10.323388      -280.9137
  50   2.0000     -10.323268      -280.9104
  51   2.0000     -10.318642      -280.7845
  52   2.0000     -10.315794      -280.7070
  53   2.0000     -10.313689      -280.6498
  54   2.0000     -10.313609      -280.6476
  55   2.0000     -10.313373      -280.6411
  56   2.0000     -10.311098      -280.5792
  57   2.0000     -10.307753      -280.4882
  58   2.0000     -10.306149      -280.4446
  59   2.0000     -10.305974      -280.4398
  60   2.0000     -10.305699      -280.4323
  61   2.0000     -10.305516      -280.4273
  62   2.0000     -10.305299      -280.4214
  63   2.0000     -10.302273      -280.3391
  64   2.0000     -10.301809      -280.3265
  65   2.0000     -10.297544      -280.2104
  66   2.0000     -10.297451      -280.2079
  67   2.0000     -10.297314      -280.2042
  68   2.0000     -10.296924      -280.1935
  69   2.0000     -10.296819      -280.1907
  70   2.0000     -10.296597      -280.1847
  71   2.0000     -10.296535      -280.1830
  72   2.0000     -10.295724      -280.1609
  73   2.0000     -10.292640      -280.0770
  74   2.0000     -10.290399      -280.0160
  75   2.0000     -10.288515      -279.9647
  76   2.0000     -10.287685      -279.9421
  77   2.0000     -10.277000      -279.6514
  78   2.0000     -10.270548      -279.4758
  79   2.0000      -8.133433      -221.3220
  80   2.0000      -8.056351      -219.2245
  81   2.0000      -8.056145      -219.2188
  82   2.0000      -6.104411      -166.1095
  83   2.0000      -6.096655      -165.8984
  84   2.0000      -6.096425      -165.8921
  85   2.0000      -6.025976      -163.9751
  86   2.0000      -6.025889      -163.9728
  87   2.0000      -6.021780      -163.8610
  88   2.0000      -6.021587      -163.8557
  89   2.0000      -6.017756      -163.7515
  90   2.0000      -6.017463      -163.7435
  91   2.0000      -1.350725       -36.7551
  92   2.0000      -1.336832       -36.3770
  93   2.0000      -1.317227       -35.8436
  94   2.0000      -1.316451       -35.8225
  95   2.0000      -1.302379       -35.4395
  96   2.0000      -1.301614       -35.4187
  97   2.0000      -1.198282       -32.6069
  98   2.0000      -1.193620       -32.4801
  99   2.0000      -1.158738       -31.5309
 100   2.0000      -1.154103       -31.4047
 101   2.0000      -1.139898       -31.0182
 102   2.0000      -1.124301       -30.5938
 103   2.0000      -1.122908       -30.5559
 104   2.0000      -1.122785       -30.5525
 105   2.0000      -1.049820       -28.5670
 106   2.0000      -1.015254       -27.6265
 107   2.0000      -1.014524       -27.6066
 108   2.0000      -1.001815       -27.2608
 109   2.0000      -1.000249       -27.2182
 110   2.0000      -0.999347       -27.1936
 111   2.0000      -0.998203       -27.1625
 112   2.0000      -0.989702       -26.9312
 113   2.0000      -0.989134       -26.9157
 114   2.0000      -0.985997       -26.8303
 115   2.0000      -0.976759       -26.5790
 116   2.0000      -0.975510       -26.5450
 117   2.0000      -0.969631       -26.3850
 118   2.0000      -0.928325       -25.2610
 119   2.0000      -0.926994       -25.2248
 120   2.0000      -0.911833       -24.8122
 121   2.0000      -0.901527       -24.5318
 122   2.0000      -0.898158       -24.4401
 123   2.0000      -0.894456       -24.3394
 124   2.0000      -0.891000       -24.2453
 125   2.0000      -0.888378       -24.1740
 126   2.0000      -0.886586       -24.1252
 127   2.0000      -0.885901       -24.1066
 128   2.0000      -0.879127       -23.9223
 129   2.0000      -0.868609       -23.6360
 130   2.0000      -0.841936       -22.9103
 131   2.0000      -0.835867       -22.7451
 132   2.0000      -0.835463       -22.7341
 133   2.0000      -0.831622       -22.6296
 134   2.0000      -0.823934       -22.4204
 135   2.0000      -0.820620       -22.3302
 136   2.0000      -0.817351       -22.2413
 137   2.0000      -0.801528       -21.8107
 138   2.0000      -0.794540       -21.6205
 139   2.0000      -0.787903       -21.4399
 140   2.0000      -0.781347       -21.2615
 141   2.0000      -0.768173       -20.9030
 142   2.0000      -0.761641       -20.7253
 143   2.0000      -0.760077       -20.6827
 144   2.0000      -0.759821       -20.6758
 145   2.0000      -0.742866       -20.2144
 146   2.0000      -0.741614       -20.1804
 147   2.0000      -0.739191       -20.1144
 148   2.0000      -0.723943       -19.6995
 149   2.0000      -0.718211       -19.5435
 150   2.0000      -0.713162       -19.4061
 151   2.0000      -0.709432       -19.3046
 152   2.0000      -0.701104       -19.0780
 153   2.0000      -0.689415       -18.7599
 154   2.0000      -0.687804       -18.7161
 155   2.0000      -0.686540       -18.6817
 156   2.0000      -0.679901       -18.5010
 157   2.0000      -0.676189       -18.4000
 158   2.0000      -0.673006       -18.3134
 159   2.0000      -0.670162       -18.2360
 160   2.0000      -0.658129       -17.9086
 161   2.0000      -0.654100       -17.7990
 162   2.0000      -0.652232       -17.7481
 163   2.0000      -0.647708       -17.6250
 164   2.0000      -0.644955       -17.5501
 165   2.0000      -0.639246       -17.3948
 166   2.0000      -0.637613       -17.3503
 167   2.0000      -0.636810       -17.3285
 168   2.0000      -0.635342       -17.2885
 169   2.0000      -0.628337       -17.0979
 170   2.0000      -0.625570       -17.0226
 171   2.0000      -0.620394       -16.8818
 172   2.0000      -0.615367       -16.7450
 173   2.0000      -0.612223       -16.6594
 174   2.0000      -0.608660       -16.5625
 175   2.0000      -0.600641       -16.3443
 176   2.0000      -0.600182       -16.3318
 177   2.0000      -0.596930       -16.2433
 178   2.0000      -0.592454       -16.1215
 179   2.0000      -0.584557       -15.9066
 180   2.0000      -0.581854       -15.8330
 181   2.0000      -0.581484       -15.8230
 182   2.0000      -0.581021       -15.8104
 183   2.0000      -0.578799       -15.7499
 184   2.0000      -0.577295       -15.7090
 185   2.0000      -0.574117       -15.6225
 186   2.0000      -0.571414       -15.5490
 187   2.0000      -0.568155       -15.4603
 188   2.0000      -0.561297       -15.2737
 189   2.0000      -0.554035       -15.0761
 190   2.0000      -0.553501       -15.0615
 191   2.0000      -0.549925       -14.9642
 192   2.0000      -0.549466       -14.9517
 193   2.0000      -0.545495       -14.8437
 194   2.0000      -0.543885       -14.7999
 195   2.0000      -0.543582       -14.7916
 196   2.0000      -0.542798       -14.7703
 197   2.0000      -0.541845       -14.7443
 198   2.0000      -0.536506       -14.5991
 199   2.0000      -0.533648       -14.5213
 200   2.0000      -0.530405       -14.4330
 201   2.0000      -0.530204       -14.4276
 202   2.0000      -0.529918       -14.4198
 203   2.0000      -0.527705       -14.3596
 204   2.0000      -0.526674       -14.3315
 205   2.0000      -0.525415       -14.2973
 206   2.0000      -0.522675       -14.2227
 207   2.0000      -0.520125       -14.1533
 208   2.0000      -0.519111       -14.1257
 209   2.0000      -0.516836       -14.0638
 210   2.0000      -0.515133       -14.0175
 211   2.0000      -0.512729       -13.9521
 212   2.0000      -0.509133       -13.8542
 213   2.0000      -0.507778       -13.8174
 214   2.0000      -0.506727       -13.7887
 215   2.0000      -0.504055       -13.7160
 216   2.0000      -0.500991       -13.6327
 217   2.0000      -0.499831       -13.6011
 218   2.0000      -0.496224       -13.5029
 219   2.0000      -0.492760       -13.4087
 220   2.0000      -0.490152       -13.3377
 221   2.0000      -0.489345       -13.3158
 222   2.0000      -0.488132       -13.2827
 223   2.0000      -0.483551       -13.1581
 224   2.0000      -0.481904       -13.1133
 225   2.0000      -0.478655       -13.0249
 226   2.0000      -0.476758       -12.9732
 227   2.0000      -0.475024       -12.9261
 228   2.0000      -0.474131       -12.9018
 229   2.0000      -0.466695       -12.6994
 230   2.0000      -0.465948       -12.6791
 231   2.0000      -0.463969       -12.6252
 232   2.0000      -0.462565       -12.5870
 233   2.0000      -0.461134       -12.5481
 234   2.0000      -0.459256       -12.4970
 235   2.0000      -0.457558       -12.4508
 236   2.0000      -0.454701       -12.3730
 237   2.0000      -0.451104       -12.2752
 238   2.0000      -0.446470       -12.1491
 239   2.0000      -0.445058       -12.1106
 240   2.0000      -0.442033       -12.0283
 241   2.0000      -0.441127       -12.0037
 242   2.0000      -0.439173       -11.9505
 243   2.0000      -0.438464       -11.9312
 244   2.0000      -0.437250       -11.8982
 245   2.0000      -0.434329       -11.8187
 246   2.0000      -0.426165       -11.5965
 247   2.0000      -0.425011       -11.5651
 248   2.0000      -0.424130       -11.5412
 249   2.0000      -0.422563       -11.4985
 250   2.0000      -0.421066       -11.4578
 251   2.0000      -0.420716       -11.4483
 252   2.0000      -0.419285       -11.4093
 253   2.0000      -0.418737       -11.3944
 254   2.0000      -0.413235       -11.2447
 255   2.0000      -0.411995       -11.2109
 256   2.0000      -0.408703       -11.1214
 257   2.0000      -0.404789       -11.0149
 258   2.0000      -0.399603       -10.8738
 259   2.0000      -0.396693       -10.7946
 260   2.0000      -0.392005       -10.6670
 261   2.0000      -0.389442       -10.5972
 262   2.0000      -0.387497       -10.5443
 263   2.0000      -0.386556       -10.5187
 264   2.0000      -0.379257       -10.3201
 265   2.0000      -0.377439       -10.2706
 266   2.0000      -0.366005        -9.9595
 267   2.0000      -0.363299        -9.8859
 268   2.0000      -0.352585        -9.5943
 269   2.0000      -0.347476        -9.4553
 270   2.0000      -0.344664        -9.3788
 271   2.0000      -0.332357        -9.0439
 272   2.0000      -0.330749        -9.0001
 273   2.0000      -0.319964        -8.7067
 274   2.0000      -0.312514        -8.5039
 275   2.0000      -0.310907        -8.4602
 276   2.0000      -0.299257        -8.1432
 277   2.0000      -0.295905        -8.0520
 278   2.0000      -0.291453        -7.9309
 279   2.0000      -0.290079        -7.8934
 280   2.0000      -0.281525        -7.6607
 281   2.0000      -0.246261        -6.7011
 282   0.0000      -0.123006        -3.3472
 283   0.0000      -0.085419        -2.3244
 284   0.0000      -0.079552        -2.1647
 285   0.0000      -0.052409        -1.4261
 286   0.0000      -0.051001        -1.3878

MULLIKEN ATOMIC CHARGES
-----------------------
   0 C :   -0.108055
   1 C :    0.240452
   2 F :   -0.173133
   3 C :    0.237914
   4 F :   -0.174454
   5 C :   -0.107881
   6 C :    0.117745
   7 C :    0.111525
   8 C :   -0.087119
   9 C :    0.054447
  10 C :   -0.003926
  11 C :   -0.087434
  12 C :    0.147496
  13 O :   -0.151936
  14 C :   -0.091145
  15 C :    0.311164
  16 C :   -0.347945
  17 C :   -0.202421
  18 N :    0.155382
  19 C :   -0.181865
  20 N :    0.143082
  21 C :    0.019740
  22 C :   -0.142188
  23 C :    0.181019
  24 O :   -0.282173
  25 C :    0.248376
  26 C :    0.022065
  27 C :    0.068581
  28 O :   -0.270785
  29 C :    0.175827
  30 C :   -0.258996
  31 S :    0.187490
  32 C :    0.168233
  33 C :   -0.050445
  34 C :   -0.047222
  35 N :   -0.034692
  36 C :    0.154756
  37 C :    0.150891
  38 N :   -0.028270
  39 F :   -0.130236
  40 F :   -0.130903
  41 C :    0.175704
  42 C :   -0.040211
  43 C :   -0.009210
  44 N :   -0.267915
  45 S :    0.521968
  46 N :   -0.258486
  47 C :   -0.241637
  48 C :    0.185324
  49 O :   -0.279787
  50 C :    0.231527
  51 C :    0.018803
  52 C :    0.058932
  53 O :   -0.270200
  54 C :    0.203232
  55 C :   -0.184494
  56 S :    0.182142
  57 C :    0.057457
  58 C :   -0.135920
  59 C :    0.142138
  60 O :   -0.144088
  61 C :    0.008699
  62 C :   -0.084206
  63 C :    0.110362
  64 C :    0.110834
  65 C :   -0.105582
  66 C :    0.238994
  67 C :    0.237475
  68 C :   -0.101917
  69 F :   -0.173972
  70 F :   -0.172420
  71 C :   -0.078258
  72 C :    0.037431
  73 C :    0.249850
  74 C :   -0.315558
  75 C :   -0.193428
  76 N :    0.157647
  77 C :   -0.184858
  78 N :    0.152034
  79 H :    0.007891
  80 H :   -0.004154
  81 H :   -0.007743
  82 H :   -0.017010
  83 H :    0.025675
  84 H :    0.025781
  85 H :    0.039852
  86 H :    0.018112
  87 H :    0.026986
  88 H :    0.016784
  89 H :    0.022570
  90 H :    0.025734
  91 H :    0.045044
  92 H :    0.028471
  93 H :    0.035837
  94 H :    0.019583
  95 H :    0.033814
  96 H :    0.027349
  97 H :   -0.010947
  98 H :    0.004734
  99 H :   -0.002525
 100 H :   -0.003198
Sum of atomic charges:   -0.0000000

LOEWDIN ATOMIC CHARGES
----------------------
   0 C :   -0.029449
   1 C :    0.064341
   2 F :   -0.050711
   3 C :    0.066536
   4 F :   -0.051582
   5 C :   -0.035589
   6 C :   -0.008992
   7 C :   -0.008382
   8 C :    0.016046
   9 C :   -0.022651
  10 C :   -0.047990
  11 C :    0.022506
  12 C :    0.077479
  13 O :   -0.144604
  14 C :   -0.096201
  15 C :    0.074591
  16 C :   -0.142493
  17 C :   -0.024599
  18 N :   -0.053356
  19 C :   -0.017262
  20 N :   -0.058064
  21 C :    0.055109
  22 C :   -0.206348
  23 C :    0.021367
  24 O :   -0.067548
  25 C :    0.083437
  26 C :    0.055641
  27 C :   -0.059812
  28 O :   -0.076538
  29 C :   -0.000227
  30 C :   -0.176911
  31 S :    0.483201
  32 C :   -0.037671
  33 C :   -0.011211
  34 C :   -0.011438
  35 N :   -0.052137
  36 C :    0.065936
  37 C :    0.065589
  38 N :   -0.051146
  39 F :   -0.019587
  40 F :   -0.020043
  41 C :   -0.036200
  42 C :   -0.044436
  43 C :   -0.041550
  44 N :   -0.271816
  45 S :    0.661632
  46 N :   -0.270847
  47 C :   -0.169856
  48 C :   -0.001227
  49 O :   -0.076280
  50 C :    0.080573
  51 C :    0.055270
  52 C :   -0.058970
  53 O :   -0.078476
  54 C :    0.020580
  55 C :   -0.213945
  56 S :    0.503631
  57 C :    0.061824
  58 C :   -0.102112
  59 C :    0.081589
  60 O :   -0.146388
  61 C :   -0.052827
  62 C :    0.028000
  63 C :   -0.010240
  64 C :   -0.006130
  65 C :   -0.030948
  66 C :    0.065865
  67 C :    0.065584
  68 C :   -0.033399
  69 F :   -0.051390
  70 F :   -0.050134
  71 C :    0.012736
  72 C :   -0.018184
  73 C :    0.060288
  74 C :   -0.143389
  75 C :   -0.030656
  76 N :   -0.059168
  77 C :   -0.020528
  78 N :   -0.057056
  79 H :    0.047521
  80 H :    0.043292
  81 H :    0.039413
  82 H :    0.037211
  83 H :    0.045123
  84 H :    0.032062
  85 H :    0.026733
  86 H :    0.030787
  87 H :    0.031203
  88 H :    0.030001
  89 H :    0.028541
  90 H :    0.031978
  91 H :    0.028010
  92 H :    0.034076
  93 H :    0.033673
  94 H :    0.032991
  95 H :    0.034635
  96 H :    0.051847
  97 H :    0.039730
  98 H :    0.046786
  99 H :    0.044093
 100 H :    0.039646

  Mayer bond orders larger than 0.100000
B(  0-C ,  1-C ) :   1.4396 B(  0-C ,  5-C ) :   0.1087 B(  0-C ,  7-C ) :   1.1891
B(  0-C , 79-H ) :   1.0071 B(  1-C ,  2-F ) :   1.1328 B(  1-C ,  3-C ) :   1.1921
B(  3-C ,  4-F ) :   1.1303 B(  3-C ,  5-C ) :   1.4430 B(  5-C ,  6-C ) :   1.1927
B(  5-C , 80-H ) :   1.0071 B(  6-C ,  7-C ) :   1.2582 B(  6-C , 11-C ) :   1.1869
B(  7-C ,  8-C ) :   1.2151 B(  8-C ,  9-C ) :   1.4501 B(  8-C , 81-H ) :   0.9902
B(  9-C , 10-C ) :   1.2237 B(  9-C , 15-C ) :   0.9833 B( 10-C , 11-C ) :   1.4769
B( 10-C , 12-C ) :   0.9304 B( 11-C , 82-H ) :   1.0158 B( 12-C , 13-O ) :   2.2129
B( 12-C , 14-C ) :   0.9641 B( 14-C , 15-C ) :   1.0893 B( 14-C , 21-C ) :   1.5545
B( 15-C , 16-C ) :   1.6248 B( 16-C , 17-C ) :   1.1404 B( 16-C , 19-C ) :   1.1470
B( 17-C , 18-N ) :   2.9866 B( 19-C , 20-N ) :   2.9598 B( 21-C , 22-C ) :   1.2154
B( 21-C , 83-H ) :   0.9259 B( 22-C , 23-C ) :   1.4262 B( 22-C , 30-C ) :   0.1109
B( 22-C , 31-S ) :   1.0429 B( 23-C , 24-O ) :   1.1725 B( 23-C , 29-C ) :   1.2057
B( 24-O , 25-C ) :   0.9331 B( 25-C , 26-C ) :   1.0412 B( 25-C , 84-H ) :   0.9536
B( 25-C , 85-H ) :   0.9408 B( 26-C , 27-C ) :   1.0585 B( 26-C , 28-O ) :   0.9354
B( 26-C , 86-H ) :   0.9353 B( 27-C , 87-H ) :   0.9577 B( 27-C , 88-H ) :   0.9617
B( 27-C , 89-H ) :   0.9550 B( 28-O , 29-C ) :   1.1829 B( 29-C , 30-C ) :   1.4417
B( 30-C , 31-S ) :   1.1398 B( 30-C , 32-C ) :   1.1264 B( 32-C , 33-C ) :   1.3085
B( 32-C , 41-C ) :   0.1263 B( 32-C , 43-C ) :   1.1986 B( 33-C , 34-C ) :   1.1347
B( 33-C , 38-N ) :   1.3815 B( 34-C , 35-N ) :   1.3812 B( 34-C , 41-C ) :   1.3070
B( 35-N , 36-C ) :   1.6558 B( 36-C , 37-C ) :   1.1039 B( 36-C , 40-F ) :   1.1832
B( 37-C , 38-N ) :   1.6658 B( 37-C , 39-F ) :   1.1903 B( 41-C , 42-C ) :   1.1930
B( 41-C , 47-C ) :   1.1467 B( 42-C , 43-C ) :   1.0862 B( 42-C , 46-N ) :   1.5378
B( 43-C , 44-N ) :   1.5232 B( 44-N , 45-S ) :   1.2818 B( 44-N , 46-N ) :   0.1556
B( 45-S , 46-N ) :   1.2898 B( 47-C , 48-C ) :   1.4421 B( 47-C , 55-C ) :   0.1130
B( 47-C , 56-S ) :   1.1378 B( 48-C , 49-O ) :   1.1704 B( 48-C , 54-C ) :   1.1957
B( 49-O , 50-C ) :   0.9510 B( 50-C , 51-C ) :   1.0384 B( 50-C , 90-H ) :   0.9514
B( 50-C , 91-H ) :   0.9441 B( 51-C , 52-C ) :   1.0636 B( 51-C , 53-O ) :   0.9262
B( 51-C , 92-H ) :   0.9345 B( 52-C , 93-H ) :   0.9578 B( 52-C , 94-H ) :   0.9622
B( 52-C , 95-H ) :   0.9589 B( 53-O , 54-C ) :   1.2013 B( 54-C , 55-C ) :   1.4223
B( 55-C , 56-S ) :   1.0416 B( 55-C , 57-C ) :   1.1615 B( 57-C , 58-C ) :   1.5899
B( 57-C , 96-H ) :   0.9549 B( 58-C , 59-C ) :   0.9475 B( 58-C , 73-C ) :   1.0496
B( 59-C , 60-O ) :   2.2776 B( 59-C , 61-C ) :   0.9132 B( 61-C , 62-C ) :   1.4791
B( 61-C , 72-C ) :   1.2205 B( 62-C , 63-C ) :   1.1926 B( 62-C , 97-H ) :   1.0155
B( 63-C , 64-C ) :   1.2564 B( 63-C , 68-C ) :   1.1952 B( 64-C , 65-C ) :   1.1894
B( 64-C , 71-C ) :   1.2131 B( 65-C , 66-C ) :   1.4421 B( 65-C , 68-C ) :   0.1091
B( 65-C , 98-H ) :   1.0067 B( 66-C , 67-C ) :   1.1939 B( 66-C , 70-F ) :   1.1330
B( 67-C , 68-C ) :   1.4426 B( 67-C , 69-F ) :   1.1301 B( 68-C , 99-H ) :   1.0064
B( 71-C , 72-C ) :   1.4619 B( 71-C ,100-H ) :   0.9942 B( 72-C , 73-C ) :   0.9991
B( 73-C , 74-C ) :   1.6519 B( 74-C , 75-C ) :   1.1511 B( 74-C , 77-C ) :   1.1410
B( 75-C , 76-N ) :   3.0175 B( 77-C , 78-N ) :   2.9886

-----------------------------------------------------------------------------
         ABSORPTION SPECTRUM VIA TRANSITION ELECTRIC DIPOLE MOMENTS
-----------------------------------------------------------------------------
State   Energy  Wavelength   fosc         T2         TX        TY        TZ
        (cm-1)    (nm)                  (au**2)     (au)      (au)      (au)
-----------------------------------------------------------------------------
   0   11068.1    903.5   0.865941763  25.75675  -0.82400   4.95490   0.72576
   1   18840.8    530.8   0.032671220   0.57087  -0.01971   0.52848  -0.53963
   2   19025.0    525.6   0.015270897   0.26425  -0.22120   0.38228  -0.26303
   3   19449.4    514.2   0.178386239   3.01947  -0.97791   0.57810  -1.31490
   4   19938.9    501.5   0.182793649   3.01811  -0.23112  -1.24050  -1.19409
   5   20813.4    480.5   0.368248819   5.82472   0.97989  -2.14882   0.49709
   6   23967.1    417.2   0.020457958   0.28101  -0.49356  -0.19336  -0.00494
   7   25812.1    387.4   0.019583433   0.24977  -0.01207   0.36601  -0.34009
   8   26403.8    378.7   0.020719472   0.25834   0.33458   0.06058   0.37779
   9   26465.8    377.8   0.011179433   0.13906   0.10421   0.04900   0.35468
  10   26581.3    376.2   0.044687771   0.55346  -0.49935  -0.24598  -0.49356
  11   27122.0    368.7   0.017462029   0.21196   0.07882   0.26540  -0.36784
  12   27445.3    364.4   0.199187068   2.38929   0.60653   1.41759   0.10888
  13   27831.4    359.3   0.017524692   0.20730   0.21383  -0.06203  -0.39715
  14   27880.8    358.7   0.048502749   0.57271  -0.15187  -0.70373  -0.23325
  15   28404.6    352.1   0.031003193   0.35933   0.32286  -0.45243   0.22450
  16   28583.1    349.9   0.005303526   0.06108  -0.20088  -0.12583   0.06999
  17   28883.7    346.2   0.055858535   0.63667  -0.45776  -0.52068  -0.39498
  18   29133.5    343.2   0.282110648   3.18788   0.97914   1.39670   0.52763
  19   29414.1    340.0   0.018532062   0.20742   0.26044   0.35633  -0.11233
  20   29847.1    335.0   0.114748459   1.26567  -0.02036   0.46501  -1.02422
  21   30136.7    331.8   0.073854886   0.80679  -0.49385   0.47616  -0.57980
  22   30282.1    330.2   0.139217241   1.51350   0.56713   0.01969   1.09155
  23   31705.3    315.4   0.206265749   2.14176   1.12539   0.23289   0.90610
  24   32023.0    312.3   0.137691771   1.41554   0.69395   0.91485   0.31147
  25   32238.9    310.2   0.253439459   2.58803   0.59424   1.47103  -0.26644
  26   32653.0    306.3   0.017831809   0.17978  -0.02294   0.42286  -0.02104
  27   32988.7    303.1   0.006209686   0.06197  -0.21143   0.09544   0.09032
  28   33565.2    297.9   0.037763375   0.37039  -0.57596  -0.13671   0.14130
  29   33590.3    297.7   0.057085493   0.55948   0.33101   0.64647   0.17887
  30   33882.3    295.1   0.210388018   2.04420   0.38917  -1.31344   0.40942
  31   34115.5    293.1   0.004548976   0.04390  -0.08146   0.17942   0.07120
  32   34497.1    289.9   0.039201476   0.37411   0.15097  -0.51593   0.29177
  33   34742.3    287.8   0.097960342   0.92826  -0.58504  -0.68929  -0.33297
  34   34981.4    285.9   0.024372556   0.22937  -0.38137  -0.03306  -0.28781
  35   35203.8    284.1   0.047703936   0.44611  -0.35120  -0.40469   0.39874
  36   35328.0    283.1   0.048617826   0.45306   0.21470   0.31382   0.55541
  37   35576.2    281.1   0.107024912   0.99038   0.74686   0.54443   0.36902
  38   36003.0    277.8   0.309422336   2.82937  -1.20203  -1.02345  -0.58054
  39   36031.6    277.5   0.352887477   3.22425   1.49989   0.89154  -0.42394
  40   36390.3    274.8   0.425907238   3.85305  -1.49511  -1.09681  -0.64396
  41   36880.1    271.1   0.040654177   0.36290  -0.54697  -0.01883  -0.25173
  42   36994.3    270.3   0.105212338   0.93628  -0.72038  -0.50816  -0.39888
  43   37281.6    268.2   0.134666490   1.18916   0.56953   0.18440   0.91148
  44   37403.9    267.4   0.028708985   0.25268  -0.39831  -0.06498  -0.29969
  45   37876.6    264.0   0.079342679   0.68962  -0.56019   0.05380  -0.61067
  46   37929.6    263.6   0.171823386   1.49135   0.49876   0.10014   1.11021
  47   38291.0    261.2   0.138964713   1.19477  -0.49772  -0.17349  -0.95757
  48   38761.5    258.0   0.027967005   0.23753   0.14345  -0.43974   0.15356
  49   38815.0    257.6   0.032147355   0.27266   0.12117  -0.29643   0.41244
  50   39355.3    254.1   0.009156677   0.07660   0.04104  -0.07255  -0.26391
  51   39512.3    253.1   0.074190302   0.61815  -0.47288   0.00194  -0.62811
  52   39628.9    252.3   0.070924684   0.58920  -0.49195   0.16376  -0.56600
  53   39976.2    250.1   0.118566236   0.97642   0.67030  -0.67986   0.25476
  54   40150.3    249.1   0.151972898   1.24610   0.38039   0.96307  -0.41701

FINAL SINGLE POINT ENERGY     -4825.312745771713

DIPOLE MOMENT
-------------
                                X             Y             Z
Electronic contribution:    -31.29974       8.60986     -48.49645
Nuclear contribution   :     34.24135      -9.38142      52.33765
                        -----------------------------------------
Total Dipole Moment    :      2.94161      -0.77155       3.84120
                        -----------------------------------------
Magnitude (a.u.)       :      4.89930
Magnitude (Debye)      :     12.45304

Rotational constants in cm-1:     0.001289     0.000281     0.000243
Rotational constants in MHz :    38.657261     8.410353     7.279565

                             ****ORCA TERMINATED NORMALLY****
TOTAL RUN TIME: 0 days 0 hours 11 minutes 27 seconds 635 msec
