                         Program Version 4.2.0 -  RELEASE  -
|  1> # ORCA input file
|  2> # SCF done       -194.810985376305          0.000598499076
|  3> ! CAM-B3LYP def2-SVP def2/J RIJCOSX Grid4 TightSCF
|  4> %maxcore 5000
|  5> %tddft
|  6>     Mode sTDDFT
|  7>     Ethresh 5.0
|  8>     maxcore 5000
|  9> end
| 10>
| 11> %pal
| 12>   nprocs 6
| 13>   end
| 14> * xyz 0 1
| 15>    C        1.64800         4.29004        -5.38925
| 16>    C        0.32201         4.10824        -5.08863
| 17>    C       -0.19843         2.92710        -4.52550
| 18>    N       -0.66865         1.99129        -4.05486
| 19>    C       -0.67640         5.05154        -5.40425
| 20>    N       -1.51929         5.77691        -5.69151
| 21>    C        2.66749         3.24723        -5.37287
| 22>    C        3.73322         3.64682        -6.23195
| 23>    C        4.81531         2.84441        -6.45010
| 24>    C        4.88592         1.59058        -5.80111
| 25>    C        3.83087         1.19317        -4.92985
| 26>    C        2.71837         2.04225        -4.72702
| 27>    C        3.91659        -0.05793        -4.28635
| 28>    C        4.98993        -0.88064        -4.49461
| 29>    C        6.02797        -0.48900        -5.35293
| 30>    C        5.97690         0.72004        -5.99209
| 31>    C        3.44757         4.98995        -6.77127
| 32>    O        4.09202         5.62641        -7.57419
| 33>    C        2.21526         5.43577        -6.06548
| 34>    C        1.86779         6.75236        -6.07277
| 35>    C        1.03777         7.45685        -5.17281
| 36>    C        0.42038         8.67764        -5.41711
| 37>    C       -0.30919         9.13149        -4.33222
| 38>    C       -0.21241         8.28341        -3.22522
| 39>    S        0.75084         6.90452        -3.52783
| 40>    C       -0.96577         8.82780        -2.16105
| 41>    C       -1.56773        10.00913        -2.59193
| 42>    C       -1.20243        10.31015        -4.02509
| 43>    C       -2.43765        10.30689        -4.93025
| 44>    C       -0.44935        11.63948        -4.13038
| 45>    C       -2.33090        10.61623        -1.60388
| 46>    C       -2.29821         9.91406        -0.41190
| 47>    S       -1.33810         8.45516        -0.52972
| 48>    C       -2.94149        10.25301         0.81633
| 49>    C       -3.29890        11.50592         1.26558
| 50>    C       -4.00079        11.45354         2.51565
| 51>    C       -4.48562        12.50522         3.28929
| 52>    C       -5.12760        12.22402         4.48681
| 53>    C       -5.28493        10.90166         4.93521
| 54>    C       -4.78816         9.85548         4.19165
| 55>    C       -4.14837        10.13446         2.99114
| 56>    S       -3.43288         8.97932         1.91258
| 57>    C       -5.63182        13.28956         5.26809
| 58>    N       -6.04544        14.15716         5.89269
| 59>    C       -2.95583        12.75038         0.61647
| 60>    C       -3.79083        13.81824         0.37505
| 61>    C       -3.13028        14.87763        -0.24760
| 62>    C       -1.78212        14.61348        -0.46648
| 63>    S       -1.31021        13.06077         0.10074
| 64>    C       -1.19195        15.72006        -1.12009
| 65>    C       -2.17360        16.70182        -1.31708
| 66>    C       -3.50294        16.24753        -0.76103
| 67>    C       -3.96462        17.16271         0.37711
| 68>    C       -4.56897        16.16921        -1.85713
| 69>    C       -1.69688        17.82551        -1.96107
| 70>    C       -0.34339        17.72521        -2.27553
| 71>    S        0.33185        16.18221        -1.72919
| 72>    C        0.55660        18.59833        -2.90701
| 73>    C        0.37374        19.81019        -3.52366
| 74>    C        1.46341        20.56980        -4.11476
| 75>    C        2.80857        20.37580        -3.92618
| 76>    C        3.80993        21.16585        -4.52859
| 77>    N        4.67799        21.76030        -4.98914
| 78>    C        3.40316        19.40933        -3.08833
| 79>    N        3.97375        18.67189        -2.41658
| 80>    C        0.88176        21.64808        -4.90614
| 81>    C       -0.52831        21.62654        -4.72198
| 82>    C       -0.89250        20.51483        -3.82624
| 83>    O       -2.01948        20.25778        -3.44823
| 84>    C       -1.35147        22.52955        -5.32982
| 85>    C       -0.79002        23.51123        -6.17674
| 86>    C        0.62015        23.53289        -6.37636
| 87>    C        1.44720        22.58778        -5.72634
| 88>    C        1.16978        24.51072        -7.23001
| 89>    C        0.36701        25.42526        -7.85574
| 90>    C       -1.02140        25.40410        -7.65697
| 91>    C       -1.58749        24.46757        -6.83516
| 92>    H        5.60892         3.16012        -7.11095
| 93>    H        1.93603         1.72347        -4.05569
| 94>    H        3.11319        -0.35617        -3.62880
| 95>    H        5.04467        -1.83850        -3.99924
| 96>    H        6.86815        -1.14991        -5.50531
| 97>    H        6.77336         1.02681        -6.65428
| 98>    H        2.35575         7.35666        -6.83226
| 99>    H        0.48840         9.16906        -6.37080
|100>    H       -2.94995         9.35013        -4.86427
|101>    H       -2.14238        10.47121        -5.96321
|102>    H       -3.12325        11.09547        -4.62982
|103>    H        0.42180        11.63480        -3.47917
|104>    H       -1.09867        12.46012        -3.83495
|105>    H       -0.12035        11.80293        -5.15331
|106>    H       -2.91057        11.51104        -1.73741
|107>    H       -4.35637        13.52754         2.96805
|108>    H       -5.79042        10.71805         5.87079
|109>    H       -4.88850         8.83625         4.52966
|110>    H       -4.84081        13.79841         0.60627
|111>    H       -3.20566        17.21310         1.15470
|112>    H       -4.88658        16.78511         0.81246
|113>    H       -4.13992        18.16528        -0.00384
|114>    H       -4.23965        15.51441        -2.66104
|115>    H       -4.75018        17.15894        -2.26755
|116>    H       -5.49871        15.78118        -1.44834
|117>    H       -2.27490        18.69469        -2.21491
|118>    H        1.57122        18.21671        -2.91816
|119>    H       -2.41886        22.49359        -5.16898
|120>    H        2.51016        22.62989        -5.90195
|121>    H        2.23959        24.52353        -7.37883
|122>    H        0.79780        26.17054        -8.50753
|123>    H       -1.64012        26.13344        -8.15824
|124>    H       -2.65622        24.44621        -6.67859
|125> *
|126>
|127>                          ****END OF INPUT****

CARTESIAN COORDINATES (ANGSTROEM)
---------------------------------
  C      1.648000    4.290040   -5.389250
  C      0.322010    4.108240   -5.088630
  C     -0.198430    2.927100   -4.525500
  N     -0.668650    1.991290   -4.054860
  C     -0.676400    5.051540   -5.404250
  N     -1.519290    5.776910   -5.691510
  C      2.667490    3.247230   -5.372870
  C      3.733220    3.646820   -6.231950
  C      4.815310    2.844410   -6.450100
  C      4.885920    1.590580   -5.801110
  C      3.830870    1.193170   -4.929850
  C      2.718370    2.042250   -4.727020
  C      3.916590   -0.057930   -4.286350
  C      4.989930   -0.880640   -4.494610
  C      6.027970   -0.489000   -5.352930
  C      5.976900    0.720040   -5.992090
  C      3.447570    4.989950   -6.771270
  O      4.092020    5.626410   -7.574190
  C      2.215260    5.435770   -6.065480
  C      1.867790    6.752360   -6.072770
  C      1.037770    7.456850   -5.172810
  C      0.420380    8.677640   -5.417110
  C     -0.309190    9.131490   -4.332220
  C     -0.212410    8.283410   -3.225220
  S      0.750840    6.904520   -3.527830
  C     -0.965770    8.827800   -2.161050
  C     -1.567730   10.009130   -2.591930
  C     -1.202430   10.310150   -4.025090
  C     -2.437650   10.306890   -4.930250
  C     -0.449350   11.639480   -4.130380
  C     -2.330900   10.616230   -1.603880
  C     -2.298210    9.914060   -0.411900
  S     -1.338100    8.455160   -0.529720
  C     -2.941490   10.253010    0.816330
  C     -3.298900   11.505920    1.265580
  C     -4.000790   11.453540    2.515650
  C     -4.485620   12.505220    3.289290
  C     -5.127600   12.224020    4.486810
  C     -5.284930   10.901660    4.935210
  C     -4.788160    9.855480    4.191650
  C     -4.148370   10.134460    2.991140
  S     -3.432880    8.979320    1.912580
  C     -5.631820   13.289560    5.268090
  N     -6.045440   14.157160    5.892690
  C     -2.955830   12.750380    0.616470
  C     -3.790830   13.818240    0.375050
  C     -3.130280   14.877630   -0.247600
  C     -1.782120   14.613480   -0.466480
  S     -1.310210   13.060770    0.100740
  C     -1.191950   15.720060   -1.120090
  C     -2.173600   16.701820   -1.317080
  C     -3.502940   16.247530   -0.761030
  C     -3.964620   17.162710    0.377110
  C     -4.568970   16.169210   -1.857130
  C     -1.696880   17.825510   -1.961070
  C     -0.343390   17.725210   -2.275530
  S      0.331850   16.182210   -1.729190
  C      0.556600   18.598330   -2.907010
  C      0.373740   19.810190   -3.523660
  C      1.463410   20.569800   -4.114760
  C      2.808570   20.375800   -3.926180
  C      3.809930   21.165850   -4.528590
  N      4.677990   21.760300   -4.989140
  C      3.403160   19.409330   -3.088330
  N      3.973750   18.671890   -2.416580
  C      0.881760   21.648080   -4.906140
  C     -0.528310   21.626540   -4.721980
  C     -0.892500   20.514830   -3.826240
  O     -2.019480   20.257780   -3.448230
  C     -1.351470   22.529550   -5.329820
  C     -0.790020   23.511230   -6.176740
  C      0.620150   23.532890   -6.376360
  C      1.447200   22.587780   -5.726340
  C      1.169780   24.510720   -7.230010
  C      0.367010   25.425260   -7.855740
  C     -1.021400   25.404100   -7.656970
  C     -1.587490   24.467570   -6.835160
  H      5.608920    3.160120   -7.110950
  H      1.936030    1.723470   -4.055690
  H      3.113190   -0.356170   -3.628800
  H      5.044670   -1.838500   -3.999240
  H      6.868150   -1.149910   -5.505310
  H      6.773360    1.026810   -6.654280
  H      2.355750    7.356660   -6.832260
  H      0.488400    9.169060   -6.370800
  H     -2.949950    9.350130   -4.864270
  H     -2.142380   10.471210   -5.963210
  H     -3.123250   11.095470   -4.629820
  H      0.421800   11.634800   -3.479170
  H     -1.098670   12.460120   -3.834950
  H     -0.120350   11.802930   -5.153310
  H     -2.910570   11.511040   -1.737410
  H     -4.356370   13.527540    2.968050
  H     -5.790420   10.718050    5.870790
  H     -4.888500    8.836250    4.529660
  H     -4.840810   13.798410    0.606270
  H     -3.205660   17.213100    1.154700
  H     -4.886580   16.785110    0.812460
  H     -4.139920   18.165280   -0.003840
  H     -4.239650   15.514410   -2.661040
  H     -4.750180   17.158940   -2.267550
  H     -5.498710   15.781180   -1.448340
  H     -2.274900   18.694690   -2.214910
  H      1.571220   18.216710   -2.918160
  H     -2.418860   22.493590   -5.168980
  H      2.510160   22.629890   -5.901950
  H      2.239590   24.523530   -7.378830
  H      0.797800   26.170540   -8.507530
  H     -1.640120   26.133440   -8.158240
  H     -2.656220   24.446210   -6.678590

 Total Charge           Charge          ....    0
 Multiplicity           Mult            ....    1
 Number of Electrons    NEL             ....  554
 Basis Dimension        Dim             .... 1263

ORBITAL ENERGIES
----------------

  NO   OCC          E(Eh)            E(eV)
   0   2.0000     -88.980008     -2421.2691
   1   2.0000     -88.977891     -2421.2115
   2   2.0000     -88.977249     -2421.1940
   3   2.0000     -88.976117     -2421.1632
   4   2.0000     -88.973389     -2421.0890
   5   2.0000     -19.213380      -522.8227
   6   2.0000     -19.208322      -522.6850
   7   2.0000     -14.410928      -392.1413
   8   2.0000     -14.410153      -392.1202
   9   2.0000     -14.409495      -392.1023
  10   2.0000     -14.407148      -392.0384
  11   2.0000     -14.405253      -391.9869
  12   2.0000     -10.364653      -282.0365
  13   2.0000     -10.360327      -281.9188
  14   2.0000     -10.337027      -281.2848
  15   2.0000     -10.336385      -281.2673
  16   2.0000     -10.334448      -281.2146
  17   2.0000     -10.334059      -281.2040
  18   2.0000     -10.333144      -281.1791
  19   2.0000     -10.327245      -281.0186
  20   2.0000     -10.325656      -280.9754
  21   2.0000     -10.325526      -280.9719
  22   2.0000     -10.324902      -280.9549
  23   2.0000     -10.323215      -280.9090
  24   2.0000     -10.320083      -280.8237
  25   2.0000     -10.319596      -280.8105
  26   2.0000     -10.318188      -280.7722
  27   2.0000     -10.317986      -280.7667
  28   2.0000     -10.317182      -280.7448
  29   2.0000     -10.316392      -280.7233
  30   2.0000     -10.315885      -280.7095
  31   2.0000     -10.313805      -280.6529
  32   2.0000     -10.313606      -280.6475
  33   2.0000     -10.312049      -280.6051
  34   2.0000     -10.310838      -280.5722
  35   2.0000     -10.308379      -280.5053
  36   2.0000     -10.306479      -280.4536
  37   2.0000     -10.306108      -280.4435
  38   2.0000     -10.305704      -280.4325
  39   2.0000     -10.304759      -280.4068
  40   2.0000     -10.304425      -280.3977
  41   2.0000     -10.302050      -280.3330
  42   2.0000     -10.301515      -280.3185
  43   2.0000     -10.299291      -280.2580
  44   2.0000     -10.298833      -280.2455
  45   2.0000     -10.297129      -280.1991
  46   2.0000     -10.295627      -280.1583
  47   2.0000     -10.294485      -280.1272
  48   2.0000     -10.294326      -280.1229
  49   2.0000     -10.293951      -280.1126
  50   2.0000     -10.293493      -280.1002
  51   2.0000     -10.293079      -280.0889
  52   2.0000     -10.293014      -280.0872
  53   2.0000     -10.292969      -280.0859
  54   2.0000     -10.292839      -280.0824
  55   2.0000     -10.292809      -280.0816
  56   2.0000     -10.291998      -280.0595
  57   2.0000     -10.291548      -280.0473
  58   2.0000     -10.291158      -280.0366
  59   2.0000     -10.290396      -280.0159
  60   2.0000     -10.289364      -279.9878
  61   2.0000     -10.287209      -279.9292
  62   2.0000     -10.286663      -279.9143
  63   2.0000     -10.285215      -279.8749
  64   2.0000     -10.283467      -279.8274
  65   2.0000     -10.283411      -279.8258
  66   2.0000     -10.283256      -279.8216
  67   2.0000     -10.283032      -279.8155
  68   2.0000     -10.282816      -279.8097
  69   2.0000     -10.282699      -279.8065
  70   2.0000     -10.282324      -279.7963
  71   2.0000     -10.282243      -279.7940
  72   2.0000     -10.281717      -279.7797
  73   2.0000     -10.275051      -279.5983
  74   2.0000     -10.274752      -279.5902
  75   2.0000     -10.273500      -279.5561
  76   2.0000     -10.271591      -279.5042
  77   2.0000      -8.075015      -219.7323
  78   2.0000      -8.072270      -219.6576
  79   2.0000      -8.072160      -219.6546
  80   2.0000      -8.070713      -219.6153
  81   2.0000      -8.069517      -219.5827
  82   2.0000      -6.044355      -164.4753
  83   2.0000      -6.041712      -164.4033
  84   2.0000      -6.041366      -164.3939
  85   2.0000      -6.040252      -164.3636
  86   2.0000      -6.040101      -164.3595
  87   2.0000      -6.039039      -164.3306
  88   2.0000      -6.037502      -164.2888
  89   2.0000      -6.037351      -164.2847
  90   2.0000      -6.037065      -164.2769
  91   2.0000      -6.035967      -164.2470
  92   2.0000      -6.034970      -164.2199
  93   2.0000      -6.034425      -164.2051
  94   2.0000      -6.034309      -164.2019
  95   2.0000      -6.032717      -164.1586
  96   2.0000      -6.030885      -164.1087
  97   2.0000      -1.127481       -30.6803
  98   2.0000      -1.123287       -30.5662
  99   2.0000      -1.032175       -28.0869
 100   2.0000      -1.027951       -27.9720
 101   2.0000      -1.018917       -27.7261
 102   2.0000      -1.013431       -27.5769
 103   2.0000      -1.012294       -27.5459
 104   2.0000      -0.995286       -27.0831
 105   2.0000      -0.993772       -27.0419
 106   2.0000      -0.993594       -27.0371
 107   2.0000      -0.990720       -26.9588
 108   2.0000      -0.988239       -26.8914
 109   2.0000      -0.986776       -26.8515
 110   2.0000      -0.985823       -26.8256
 111   2.0000      -0.967733       -26.3333
 112   2.0000      -0.966713       -26.3056
 113   2.0000      -0.955623       -26.0038
 114   2.0000      -0.940625       -25.5957
 115   2.0000      -0.935726       -25.4624
 116   2.0000      -0.919249       -25.0140
 117   2.0000      -0.919157       -25.0115
 118   2.0000      -0.900446       -24.5024
 119   2.0000      -0.899618       -24.4798
 120   2.0000      -0.895901       -24.3787
 121   2.0000      -0.885053       -24.0835
 122   2.0000      -0.879643       -23.9363
 123   2.0000      -0.877557       -23.8795
 124   2.0000      -0.875776       -23.8311
 125   2.0000      -0.869539       -23.6614
 126   2.0000      -0.860298       -23.4099
 127   2.0000      -0.850280       -23.1373
 128   2.0000      -0.847980       -23.0747
 129   2.0000      -0.842972       -22.9384
 130   2.0000      -0.837305       -22.7842
 131   2.0000      -0.834754       -22.7148
 132   2.0000      -0.833648       -22.6847
 133   2.0000      -0.824604       -22.4386
 134   2.0000      -0.823866       -22.4185
 135   2.0000      -0.810891       -22.0655
 136   2.0000      -0.804953       -21.9039
 137   2.0000      -0.786059       -21.3897
 138   2.0000      -0.785173       -21.3656
 139   2.0000      -0.782180       -21.2842
 140   2.0000      -0.764139       -20.7933
 141   2.0000      -0.756945       -20.5975
 142   2.0000      -0.756511       -20.5857
 143   2.0000      -0.741418       -20.1750
 144   2.0000      -0.731603       -19.9079
 145   2.0000      -0.722611       -19.6632
 146   2.0000      -0.713733       -19.4217
 147   2.0000      -0.712502       -19.3882
 148   2.0000      -0.708453       -19.2780
 149   2.0000      -0.700950       -19.0738
 150   2.0000      -0.699568       -19.0362
 151   2.0000      -0.697828       -18.9889
 152   2.0000      -0.693293       -18.8655
 153   2.0000      -0.685804       -18.6617
 154   2.0000      -0.674466       -18.3531
 155   2.0000      -0.672149       -18.2901
 156   2.0000      -0.663712       -18.0605
 157   2.0000      -0.657010       -17.8782
 158   2.0000      -0.648771       -17.6540
 159   2.0000      -0.645153       -17.5555
 160   2.0000      -0.642832       -17.4924
 161   2.0000      -0.639851       -17.4112
 162   2.0000      -0.637772       -17.3547
 163   2.0000      -0.634238       -17.2585
 164   2.0000      -0.627915       -17.0864
 165   2.0000      -0.626141       -17.0382
 166   2.0000      -0.607792       -16.5389
 167   2.0000      -0.606691       -16.5089
 168   2.0000      -0.603629       -16.4256
 169   2.0000      -0.602204       -16.3868
 170   2.0000      -0.594336       -16.1727
 171   2.0000      -0.591498       -16.0955
 172   2.0000      -0.584589       -15.9075
 173   2.0000      -0.582673       -15.8553
 174   2.0000      -0.575836       -15.6693
 175   2.0000      -0.567957       -15.4549
 176   2.0000      -0.563400       -15.3309
 177   2.0000      -0.559459       -15.2236
 178   2.0000      -0.551803       -15.0153
 179   2.0000      -0.550492       -14.9797
 180   2.0000      -0.548053       -14.9133
 181   2.0000      -0.543884       -14.7998
 182   2.0000      -0.542799       -14.7703
 183   2.0000      -0.542653       -14.7663
 184   2.0000      -0.540850       -14.7173
 185   2.0000      -0.539183       -14.6719
 186   2.0000      -0.538231       -14.6460
 187   2.0000      -0.534971       -14.5573
 188   2.0000      -0.533312       -14.5122
 189   2.0000      -0.531518       -14.4633
 190   2.0000      -0.529216       -14.4007
 191   2.0000      -0.527713       -14.3598
 192   2.0000      -0.524357       -14.2685
 193   2.0000      -0.521360       -14.1869
 194   2.0000      -0.519470       -14.1355
 195   2.0000      -0.517125       -14.0717
 196   2.0000      -0.515646       -14.0314
 197   2.0000      -0.513617       -13.9762
 198   2.0000      -0.511518       -13.9191
 199   2.0000      -0.509366       -13.8606
 200   2.0000      -0.508314       -13.8319
 201   2.0000      -0.502557       -13.6753
 202   2.0000      -0.501651       -13.6506
 203   2.0000      -0.499177       -13.5833
 204   2.0000      -0.497736       -13.5441
 205   2.0000      -0.497225       -13.5302
 206   2.0000      -0.492633       -13.4052
 207   2.0000      -0.490349       -13.3431
 208   2.0000      -0.489642       -13.3238
 209   2.0000      -0.487216       -13.2578
 210   2.0000      -0.485514       -13.2115
 211   2.0000      -0.484224       -13.1764
 212   2.0000      -0.482507       -13.1297
 213   2.0000      -0.480765       -13.0823
 214   2.0000      -0.479107       -13.0372
 215   2.0000      -0.476243       -12.9592
 216   2.0000      -0.473436       -12.8829
 217   2.0000      -0.470740       -12.8095
 218   2.0000      -0.470100       -12.7921
 219   2.0000      -0.462222       -12.5777
 220   2.0000      -0.461912       -12.5693
 221   2.0000      -0.460769       -12.5382
 222   2.0000      -0.457523       -12.4498
 223   2.0000      -0.454115       -12.3571
 224   2.0000      -0.450884       -12.2692
 225   2.0000      -0.450039       -12.2462
 226   2.0000      -0.445604       -12.1255
 227   2.0000      -0.444970       -12.1083
 228   2.0000      -0.444377       -12.0921
 229   2.0000      -0.441999       -12.0274
 230   2.0000      -0.440505       -11.9867
 231   2.0000      -0.437737       -11.9114
 232   2.0000      -0.437320       -11.9001
 233   2.0000      -0.435549       -11.8519
 234   2.0000      -0.435370       -11.8470
 235   2.0000      -0.434881       -11.8337
 236   2.0000      -0.433989       -11.8094
 237   2.0000      -0.431490       -11.7415
 238   2.0000      -0.429733       -11.6936
 239   2.0000      -0.428564       -11.6618
 240   2.0000      -0.428284       -11.6542
 241   2.0000      -0.425873       -11.5886
 242   2.0000      -0.422528       -11.4976
 243   2.0000      -0.420667       -11.4469
 244   2.0000      -0.419385       -11.4120
 245   2.0000      -0.417008       -11.3474
 246   2.0000      -0.416046       -11.3212
 247   2.0000      -0.415551       -11.3077
 248   2.0000      -0.414678       -11.2840
 249   2.0000      -0.413164       -11.2428
 250   2.0000      -0.413011       -11.2386
 251   2.0000      -0.410594       -11.1728
 252   2.0000      -0.409101       -11.1322
 253   2.0000      -0.405752       -11.0411
 254   2.0000      -0.399429       -10.8690
 255   2.0000      -0.396746       -10.7960
 256   2.0000      -0.385602       -10.4928
 257   2.0000      -0.378356       -10.2956
 258   2.0000      -0.376305       -10.2398
 259   2.0000      -0.368005       -10.0139
 260   2.0000      -0.366080        -9.9615
 261   2.0000      -0.349533        -9.5113
 262   2.0000      -0.342191        -9.3115
 263   2.0000      -0.337413        -9.1815
 264   2.0000      -0.336278        -9.1506
 265   2.0000      -0.334170        -9.0932
 266   2.0000      -0.331880        -9.0309
 267   2.0000      -0.329546        -8.9674
 268   2.0000      -0.326622        -8.8878
 269   2.0000      -0.314840        -8.5672
 270   2.0000      -0.312934        -8.5154
 271   2.0000      -0.309458        -8.4208
 272   2.0000      -0.300404        -8.1744
 273   2.0000      -0.291103        -7.9213
 274   2.0000      -0.289155        -7.8683
 275   2.0000      -0.262967        -7.1557
 276   2.0000      -0.247128        -6.7247
 277   0.0000      -0.097639        -2.6569
 278   0.0000      -0.090899        -2.4735
 279   0.0000      -0.058545        -1.5931
 280   0.0000      -0.053697        -1.4612
 281   0.0000      -0.045893        -1.2488

MULLIKEN ATOMIC CHARGES
-----------------------
   0 C :    0.256089
   1 C :   -0.330165
   2 C :   -0.175675
   3 N :    0.150564
   4 C :   -0.204010
   5 N :    0.164271
   6 C :    0.034507
   7 C :    0.015082
   8 C :   -0.085765
   9 C :    0.096217
  10 C :    0.094649
  11 C :   -0.082062
  12 C :   -0.019018
  13 C :    0.036479
  14 C :    0.035859
  15 C :   -0.016888
  16 C :    0.140126
  17 O :   -0.147815
  18 C :   -0.143334
  19 C :    0.045386
  20 C :   -0.103225
  21 C :    0.005807
  22 C :    0.021980
  23 C :   -0.067041
  24 S :    0.175609
  25 C :   -0.079466
  26 C :   -0.000409
  27 C :   -0.108719
  28 C :    0.103985
  29 C :    0.105633
  30 C :   -0.012064
  31 C :   -0.128150
  32 S :    0.172513
  33 C :   -0.098556
  34 C :    0.138480
  35 C :    0.116718
  36 C :   -0.060990
  37 C :   -0.090838
  38 C :    0.041202
  39 C :    0.003795
  40 C :   -0.062124
  41 S :    0.154708
  42 C :   -0.143358
  43 N :    0.102936
  44 C :   -0.218554
  45 C :   -0.007410
  46 C :    0.009705
  47 C :   -0.102510
  48 S :    0.187728
  49 C :   -0.060012
  50 C :   -0.006912
  51 C :   -0.108995
  52 C :    0.103706
  53 C :    0.103859
  54 C :   -0.011084
  55 C :   -0.115082
  56 S :    0.169797
  57 C :    0.034516
  58 C :   -0.100648
  59 C :    0.314745
  60 C :   -0.362273
  61 C :   -0.183917
  62 N :    0.142709
  63 C :   -0.198887
  64 N :    0.152481
  65 C :    0.045221
  66 C :    0.004944
  67 C :    0.158789
  68 O :   -0.166310
  69 C :   -0.088604
  70 C :    0.099768
  71 C :    0.095278
  72 C :   -0.083979
  73 C :   -0.020214
  74 C :    0.036097
  75 C :    0.034848
  76 C :   -0.018941
  77 H :   -0.012815
  78 H :   -0.006232
  79 H :   -0.012294
  80 H :   -0.006696
  81 H :   -0.006067
  82 H :   -0.017950
  83 H :    0.027396
  84 H :   -0.010278
  85 H :    0.036918
  86 H :    0.015520
  87 H :    0.010795
  88 H :    0.022062
  89 H :    0.011170
  90 H :    0.014920
  91 H :   -0.001592
  92 H :   -0.006789
  93 H :    0.001050
  94 H :   -0.009728
  95 H :   -0.010222
  96 H :    0.024643
  97 H :    0.014061
  98 H :    0.022812
  99 H :    0.015913
 100 H :    0.024635
 101 H :    0.012870
 102 H :    0.010069
 103 H :    0.008442
 104 H :   -0.016605
 105 H :   -0.007962
 106 H :   -0.008819
 107 H :   -0.006305
 108 H :   -0.006728
 109 H :   -0.018978
Sum of atomic charges:   -0.0000000

LOEWDIN ATOMIC CHARGES
----------------------
   0 C :    0.062055
   1 C :   -0.147702
   2 C :   -0.019725
   3 N :   -0.056874
   4 C :   -0.032028
   5 N :   -0.056483
   6 C :   -0.022385
   7 C :   -0.055825
   8 C :    0.030676
   9 C :   -0.009489
  10 C :   -0.005996
  11 C :    0.014247
  12 C :   -0.007311
  13 C :   -0.014080
  14 C :   -0.014409
  15 C :   -0.009732
  16 C :    0.082331
  17 O :   -0.148542
  18 C :   -0.105791
  19 C :    0.051415
  20 C :   -0.179172
  21 C :   -0.006515
  22 C :   -0.037576
  23 C :   -0.166111
  24 S :    0.473942
  25 C :   -0.194857
  26 C :   -0.026478
  27 C :   -0.034732
  28 C :   -0.021989
  29 C :   -0.023892
  30 C :   -0.045115
  31 C :   -0.195195
  32 S :    0.449345
  33 C :   -0.163916
  34 C :   -0.080383
  35 C :   -0.033899
  36 C :    0.013077
  37 C :   -0.071329
  38 C :    0.005805
  39 C :   -0.029317
  40 C :   -0.143325
  41 S :    0.421839
  42 C :   -0.030159
  43 N :   -0.058259
  44 C :   -0.156488
  45 C :   -0.055342
  46 C :   -0.026557
  47 C :   -0.206383
  48 S :    0.464546
  49 C :   -0.168039
  50 C :   -0.044624
  51 C :   -0.035624
  52 C :   -0.022217
  53 C :   -0.023467
  54 C :   -0.002689
  55 C :   -0.178101
  56 S :    0.459912
  57 C :    0.045128
  58 C :   -0.107164
  59 C :    0.078048
  60 C :   -0.149620
  61 C :   -0.017269
  62 N :   -0.060891
  63 C :   -0.025718
  64 N :   -0.058125
  65 C :   -0.025606
  66 C :   -0.053747
  67 C :    0.087577
  68 O :   -0.154407
  69 C :    0.028164
  70 C :   -0.009133
  71 C :   -0.007069
  72 C :    0.017965
  73 C :   -0.005824
  74 C :   -0.015220
  75 C :   -0.014155
  76 C :   -0.011214
  77 H :    0.038910
  78 H :    0.038296
  79 H :    0.033686
  80 H :    0.032509
  81 H :    0.032244
  82 H :    0.031594
  83 H :    0.051486
  84 H :    0.037207
  85 H :    0.036355
  86 H :    0.026211
  87 H :    0.023616
  88 H :    0.029991
  89 H :    0.024135
  90 H :    0.025656
  91 H :    0.033274
  92 H :    0.039005
  93 H :    0.041109
  94 H :    0.036563
  95 H :    0.033849
  96 H :    0.031315
  97 H :    0.024853
  98 H :    0.029176
  99 H :    0.027975
 100 H :    0.029865
 101 H :    0.024501
 102 H :    0.035145
 103 H :    0.042582
 104 H :    0.037119
 105 H :    0.038794
 106 H :    0.034631
 107 H :    0.032540
 108 H :    0.032028
 109 H :    0.030994

  Mayer bond orders larger than 0.100000
B(  0-C ,  1-C ) :   1.6447 B(  0-C ,  6-C ) :   1.0011 B(  0-C , 18-C ) :   1.0440
B(  1-C ,  2-C ) :   1.1395 B(  1-C ,  4-C ) :   1.1556 B(  2-C ,  3-N ) :   2.9886
B(  4-C ,  5-N ) :   3.0191 B(  6-C ,  7-C ) :   1.2158 B(  6-C , 11-C ) :   1.4615
B(  7-C ,  8-C ) :   1.4767 B(  7-C , 16-C ) :   0.9197 B(  8-C ,  9-C ) :   1.1822
B(  8-C , 77-H ) :   1.0161 B(  9-C , 10-C ) :   1.2593 B(  9-C , 15-C ) :   1.2447
B( 10-C , 11-C ) :   1.2000 B( 10-C , 12-C ) :   1.2428 B( 11-C , 78-H ) :   0.9940
B( 12-C , 13-C ) :   1.4886 B( 12-C , 79-H ) :   0.9973 B( 13-C , 14-C ) :   1.2619
B( 13-C , 80-H ) :   0.9882 B( 14-C , 15-C ) :   1.4886 B( 14-C , 81-H ) :   0.9884
B( 15-C , 82-H ) :   0.9976 B( 16-C , 17-O ) :   2.2696 B( 16-C , 18-C ) :   0.9434
B( 18-C , 19-C ) :   1.6165 B( 19-C , 20-C ) :   1.1533 B( 19-C , 83-H ) :   0.9484
B( 20-C , 21-C ) :   1.3833 B( 20-C , 24-S ) :   1.0956 B( 21-C , 22-C ) :   1.3357
B( 21-C , 84-H ) :   1.0087 B( 22-C , 23-C ) :   1.4912 B( 22-C , 27-C ) :   0.9354
B( 23-C , 24-S ) :   1.1137 B( 23-C , 25-C ) :   1.1855 B( 25-C , 26-C ) :   1.5206
B( 25-C , 32-S ) :   1.0844 B( 26-C , 27-C ) :   0.9413 B( 26-C , 30-C ) :   1.3145
B( 27-C , 28-C ) :   1.0332 B( 27-C , 29-C ) :   1.0362 B( 28-C , 85-H ) :   0.9637
B( 28-C , 86-H ) :   0.9644 B( 28-C , 87-H ) :   0.9648 B( 29-C , 88-H ) :   0.9640
B( 29-C , 89-H ) :   0.9641 B( 29-C , 90-H ) :   0.9639 B( 30-C , 31-C ) :   1.4788
B( 30-C , 91-H ) :   0.9995 B( 31-C , 32-S ) :   1.1146 B( 31-C , 33-C ) :   1.0899
B( 33-C , 34-C ) :   1.5790 B( 33-C , 41-S ) :   1.0875 B( 34-C , 35-C ) :   1.1524
B( 34-C , 44-C ) :   1.0078 B( 35-C , 36-C ) :   1.3008 B( 35-C , 40-C ) :   1.3085
B( 36-C , 37-C ) :   1.4139 B( 36-C , 92-H ) :   0.9925 B( 37-C , 38-C ) :   1.3260
B( 37-C , 42-C ) :   1.0576 B( 38-C , 39-C ) :   1.4269 B( 38-C , 93-H ) :   0.9926
B( 39-C , 40-C ) :   1.3391 B( 39-C , 94-H ) :   0.9957 B( 40-C , 41-S ) :   1.0647
B( 42-C , 43-N ) :   3.0535 B( 44-C , 45-C ) :   1.4850 B( 44-C , 48-S ) :   1.1471
B( 45-C , 46-C ) :   1.2792 B( 45-C , 95-H ) :   1.0083 B( 46-C , 47-C ) :   1.5387
B( 46-C , 51-C ) :   0.9414 B( 47-C , 48-S ) :   1.0721 B( 47-C , 49-C ) :   1.1735
B( 49-C , 50-C ) :   1.4624 B( 49-C , 56-S ) :   1.1324 B( 50-C , 51-C ) :   0.9336
B( 50-C , 54-C ) :   1.3441 B( 51-C , 52-C ) :   1.0314 B( 51-C , 53-C ) :   1.0387
B( 52-C , 96-H ) :   0.9643 B( 52-C , 97-H ) :   0.9651 B( 52-C , 98-H ) :   0.9648
B( 53-C , 99-H ) :   0.9637 B( 53-C ,100-H ) :   0.9645 B( 53-C ,101-H ) :   0.9645
B( 54-C , 55-C ) :   1.3776 B( 54-C ,102-H ) :   0.9800 B( 55-C , 56-S ) :   1.0698
B( 55-C , 57-C ) :   1.2522 B( 57-C , 58-C ) :   1.5496 B( 57-C ,103-H ) :   0.9130
B( 58-C , 59-C ) :   1.0906 B( 58-C , 67-C ) :   0.9504 B( 59-C , 60-C ) :   1.6105
B( 59-C , 65-C ) :   0.9800 B( 60-C , 61-C ) :   1.1514 B( 60-C , 63-C ) :   1.1407
B( 61-C , 62-N ) :   2.9633 B( 63-C , 64-N ) :   2.9805 B( 65-C , 66-C ) :   1.2176
B( 65-C , 72-C ) :   1.4553 B( 66-C , 67-C ) :   0.9543 B( 66-C , 69-C ) :   1.4715
B( 67-C , 68-O ) :   2.1519 B( 69-C , 70-C ) :   1.1764 B( 69-C ,104-H ) :   1.0161
B( 70-C , 71-C ) :   1.2584 B( 70-C , 76-C ) :   1.2450 B( 71-C , 72-C ) :   1.2038
B( 71-C , 73-C ) :   1.2421 B( 72-C ,105-H ) :   0.9890 B( 73-C , 74-C ) :   1.4883
B( 73-C ,106-H ) :   0.9968 B( 74-C , 75-C ) :   1.2614 B( 74-C ,107-H ) :   0.9883
B( 75-C , 76-C ) :   1.4887 B( 75-C ,108-H ) :   0.9884 B( 76-C ,109-H ) :   0.9970

-----------------------------------------------------------------------------
         ABSORPTION SPECTRUM VIA TRANSITION ELECTRIC DIPOLE MOMENTS
-----------------------------------------------------------------------------
State   Energy  Wavelength   fosc         T2         TX        TY        TZ
        (cm-1)    (nm)                  (au**2)     (au)      (au)      (au)
-----------------------------------------------------------------------------
   0   17051.5    586.5   1.277744837  24.66932  -0.90099   4.69524   1.34621
   1   19859.7    503.5   0.986181943  16.34780  -2.25473  -2.08004   2.63390
   2   23374.8    427.8   0.192237583   2.70749   0.84427   0.86138  -1.11925
   3   24434.2    409.3   0.218346935   2.94188   1.12855   0.66656  -1.10632
   4   26152.6    382.4   0.042455463   0.53443   0.03048  -0.04541   0.72900
   5   26830.3    372.7   0.050013582   0.61367  -0.61070   0.11077   0.47796
   6   27297.1    366.3   0.461393493   5.56456   1.53100  -1.38521  -1.14096
   7   27908.9    358.3   0.288124188   3.39870   0.10198  -1.30336   1.29983
   8   28463.5    351.3   0.207095349   2.39529  -1.01995   0.10547   1.15925
   9   28980.2    345.1   0.036182299   0.41103   0.15036   0.42050  -0.46000
  10   29406.1    340.1   0.040773724   0.45648   0.58510  -0.12420   0.31417
  11   29854.6    335.0   0.050789918   0.56007  -0.44732   0.47547  -0.36593
  12   29955.8    333.8   0.061278664   0.67345   0.66408  -0.19457  -0.44113
  13   30867.7    324.0   0.102536611   1.09358  -0.09827   0.66907  -0.79766
  14   31688.4    315.6   0.138106210   1.43479  -0.86909   0.05603   0.82239
  15   32569.0    307.0   0.022323085   0.22565   0.26500  -0.36914   0.13839
  16   33117.5    302.0   0.150416629   1.49525  -0.66737  -0.23784   0.99664
  17   33453.0    298.9   0.362215182   3.56457   0.85410  -1.43119   0.88700
  18   33611.7    297.5   0.145103061   1.42122   1.01787   0.18317  -0.59297
  19   33843.5    295.5   0.677533911   6.59070  -1.76133   1.73931  -0.68059
  20   34026.7    293.9   0.144840484   1.40135   0.22118  -0.77553   0.86659
  21   34481.3    290.0   0.047418040   0.45273  -0.30987   0.55295  -0.22571
  22   34532.4    289.6   0.041016206   0.39103  -0.31270  -0.23781   0.48651
  23   34613.5    288.9   0.297071459   2.82548   0.90259  -1.36938   0.36824
  24   34953.1    286.1   0.035737233   0.33660   0.47321  -0.24257   0.23201
  25   35325.6    283.1   0.050298253   0.46875   0.67174  -0.11388  -0.06743
  26   35586.3    281.0   0.004424499   0.04093   0.14990   0.07195   0.11527
  27   35809.8    279.3   0.035042248   0.32216  -0.12004   0.51723  -0.20055
  28   36004.0    277.7   0.031904316   0.29173  -0.48363   0.22619   0.08167
  29   36086.9    277.1   0.053599802   0.48898  -0.35323   0.56925  -0.20041
  30   36792.8    271.8   0.007785448   0.06966   0.12679  -0.00295   0.23147
  31   37148.6    269.2   0.016412154   0.14545   0.29976   0.11355  -0.20662
  32   37423.1    267.2   0.093246800   0.82029   0.78276  -0.45114   0.06370
  33   37838.9    264.3   0.077769085   0.67662  -0.75095   0.23185  -0.24277
  34   38052.7    262.8   0.028368253   0.24543  -0.28458   0.19327   0.35649
  35   38460.1    260.0   0.105849116   0.90605   0.95022   0.04926  -0.02669
  36   38983.1    256.5   0.023405327   0.19766  -0.31470   0.08144   0.30330
  37   39308.3    254.4   0.151668801   1.27025   1.11326   0.15921  -0.07456
  38   39553.4    252.8   0.024015853   0.19989  -0.26363   0.23354  -0.27541
  39   39786.7    251.3   0.032158454   0.26609  -0.44573  -0.04004   0.25655
  40   40088.4    249.4   0.006040047   0.04960   0.12855  -0.13335   0.12367

FINAL SINGLE POINT ENERGY     -4907.548074139651

DIPOLE MOMENT
-------------
                                X             Y             Z
Electronic contribution:     15.29061     -25.95748      19.07404
Nuclear contribution   :    -16.40571      25.34597     -19.75199
                        -----------------------------------------
Total Dipole Moment    :     -1.11511      -0.61152      -0.67795
                        -----------------------------------------
Magnitude (a.u.)       :      1.44119
Magnitude (Debye)      :      3.66322

Rotational constants in cm-1:     0.000837     0.000300     0.000234
Rotational constants in MHz :    25.079463     8.993018     7.029768

                             ****ORCA TERMINATED NORMALLY****
TOTAL RUN TIME: 0 days 0 hours 12 minutes 13 seconds 631 msec
