                         Program Version 4.2.0 -  RELEASE  -
|  1> # ORCA input file
|  2> # SCF done       -206.357469890764          0.000753823865
|  3> ! CAM-B3LYP def2-SVP def2/J RIJCOSX Grid4 TightSCF
|  4> %maxcore 5000
|  5> %tddft
|  6>     Mode sTDDFT
|  7>     Ethresh 5.0
|  8>     maxcore 5000
|  9> end
| 10>
| 11> %pal
| 12>   nprocs 6
| 13>   end
| 14> * xyz 0 1
| 15>    C        8.69563        -8.34289         3.33790
| 16>    C        8.36298        -9.72389         2.90585
| 17>    O        7.43848       -10.04466         2.18806
| 18>    C        9.41053       -10.58152         3.49512
| 19>    C       10.23934        -9.80438         4.30279
| 20>    C        9.73232        -8.43209         4.33154
| 21>    C       10.04020        -7.49538         5.29021
| 22>    C        9.32592        -6.29809         5.47965
| 23>    N        8.74977        -5.33268         5.71705
| 24>    C       11.04562        -7.65128         6.26290
| 25>    N       11.86787        -7.70172         7.06370
| 26>    C       11.34047       -10.37566         4.95233
| 27>    C       11.58256       -11.71466         4.78473
| 28>    C       10.75049       -12.53326         3.99120
| 29>    C        9.62952       -11.96105         3.32189
| 30>    C        8.79933       -12.78289         2.53195
| 31>    C        9.06783       -14.11810         2.41209
| 32>    C       10.17177       -14.68684         3.06826
| 33>    C       10.99516       -13.91351         3.83893
| 34>    C        8.04604        -7.28780         2.75323
| 35>    C        8.37948        -5.92588         2.72882
| 36>    S        7.10366        -4.76563         2.51129
| 37>    C        8.14339        -3.41952         2.76444
| 38>    C        9.47845        -3.84139         2.88009
| 39>    C        9.61631        -5.26612         2.85688
| 40>    C       10.89155        -5.85829         2.86819
| 41>    C       12.00612        -5.06985         2.95537
| 42>    C       11.89547        -3.67282         2.99107
| 43>    C       10.66435        -3.08074         2.92876
| 44>    F       10.61734        -1.73181         2.86122
| 45>    C        7.56989        -2.10901         2.90924
| 46>    C        8.07057        -1.22116         3.83389
| 47>    C        7.46256         0.03658         3.99868
| 48>    C        7.77952         1.09565         4.83862
| 49>    C        8.98092         1.17233         5.72064
| 50>    C        9.96100         2.24405         5.21393
| 51>    N       10.18991         2.07934         3.78554
| 52>    C        8.63738         1.35538         7.21699
| 53>    N        8.35907         2.73701         7.58260
| 54>    C        6.80569         2.12735         4.58663
| 55>    C        6.64061         3.34321         5.14009
| 56>    C        5.61412         4.28895         4.63028
| 57>    C        4.66072         3.70418         3.62841
| 58>    C        4.82090         2.47110         3.11357
| 59>    C        5.88927         1.64766         3.54329
| 60>    C        6.29068         0.37236         3.20074
| 61>    C        5.78264        -0.57489         2.28114
| 62>    C        6.40087        -1.77386         2.14732
| 63>    C        6.28980         5.42714         3.90201
| 64>    C        7.44603         5.28275         3.23807
| 65>    C        8.08685         6.30890         2.49012
| 66>    S        7.48520         7.92106         2.43041
| 67>    C        8.77344         8.47771         1.40128
| 68>    C        9.65294         7.41547         1.12521
| 69>    C        9.25835         6.18213         1.72731
| 70>    C       10.01440         5.01037         1.52074
| 71>    C       11.12856         5.06425         0.73160
| 72>    C       11.53098         6.26608         0.12398
| 73>    C       10.80689         7.40868         0.31776
| 74>    F       11.21425         8.54695        -0.27613
| 75>    C        8.91239         9.82833         1.03438
| 76>    C        7.97333        10.82052         1.04531
| 77>    C        8.40344        12.24110         1.12695
| 78>    O        9.52986        12.66017         0.96818
| 79>    C        7.18663        12.99184         1.49791
| 80>    C        6.09344        12.12618         1.50713
| 81>    C        6.53144        10.79916         1.08103
| 82>    C        5.72060         9.83258         0.54053
| 83>    C        6.21762         8.70276        -0.14040
| 84>    N        6.58264         7.79420        -0.74027
| 85>    C        4.31429         9.89193         0.52114
| 86>    N        3.16620         9.86877         0.49922
| 87>    C        4.81813        12.58861         1.85456
| 88>    C        4.66445        13.91059         2.18221
| 89>    C        5.74743        14.81666         2.16997
| 90>    C        7.05034        14.35567         1.82059
| 91>    C        8.12817        15.26481         1.81008
| 92>    C        7.92292        16.57816         2.13088
| 93>    C        6.64148        17.03773         2.47564
| 94>    C        5.57799        16.17794         2.49564
| 95>    H       11.99463        -9.77526         5.56333
| 96>    H       12.43260       -12.16951         5.27271
| 97>    H        7.95550       -12.33395         2.03230
| 98>    H        8.43004       -14.74775         1.80968
| 99>    H       10.36515       -15.74382         2.95907
|100>    H       11.84450       -14.34875         4.34570
|101>    H        7.14539        -7.56543         2.21228
|102>    H       10.98477        -6.92738         2.76586
|103>    H       12.98767        -5.51742         2.97092
|104>    H       12.77743        -3.05347         3.02796
|105>    H        8.88935        -1.51225         4.47291
|106>    H        9.49232         0.20649         5.64242
|107>    H       10.88652         2.17608         5.81295
|108>    H        9.53325         3.23990         5.35502
|109>    H       10.39271         1.10822         3.56813
|110>    H       10.99218         2.63109         3.49889
|111>    H        9.46613         0.93224         7.80723
|112>    H        7.74282         0.76483         7.42973
|113>    H        9.22371         3.26340         7.65142
|114>    H        7.90876         2.76876         8.49021
|115>    H        7.27069         3.67561         5.95321
|116>    H        5.05368         4.70890         5.47528
|117>    H        3.85983         4.34971         3.30257
|118>    H        4.12786         2.09033         2.37727
|119>    H        4.90726        -0.33551         1.69598
|120>    H        6.02988        -2.51017         1.44878
|121>    H        5.75629         6.36755         3.87546
|122>    H        7.94889         4.32543         3.24826
|123>    H        9.70599         4.08254         1.97623
|124>    H       11.71299         4.17426         0.55754
|125>    H       12.40766         6.29807        -0.50314
|126>    H        9.91731        10.15846         0.79122
|127>    H        3.97487        11.91719         1.87618
|128>    H        3.68883        14.28380         2.45892
|129>    H        9.10759        14.89978         1.54387
|130>    H        8.74847        17.27418         2.12137
|131>    H        6.50234        18.07900         2.72646
|132>    H        4.59074        16.52935         2.75950
|133> *
|134>
|135>                          ****END OF INPUT****

CARTESIAN COORDINATES (ANGSTROEM)
---------------------------------
  C      8.695630   -8.342890    3.337900
  C      8.362980   -9.723890    2.905850
  O      7.438480  -10.044660    2.188060
  C      9.410530  -10.581520    3.495120
  C     10.239340   -9.804380    4.302790
  C      9.732320   -8.432090    4.331540
  C     10.040200   -7.495380    5.290210
  C      9.325920   -6.298090    5.479650
  N      8.749770   -5.332680    5.717050
  C     11.045620   -7.651280    6.262900
  N     11.867870   -7.701720    7.063700
  C     11.340470  -10.375660    4.952330
  C     11.582560  -11.714660    4.784730
  C     10.750490  -12.533260    3.991200
  C      9.629520  -11.961050    3.321890
  C      8.799330  -12.782890    2.531950
  C      9.067830  -14.118100    2.412090
  C     10.171770  -14.686840    3.068260
  C     10.995160  -13.913510    3.838930
  C      8.046040   -7.287800    2.753230
  C      8.379480   -5.925880    2.728820
  S      7.103660   -4.765630    2.511290
  C      8.143390   -3.419520    2.764440
  C      9.478450   -3.841390    2.880090
  C      9.616310   -5.266120    2.856880
  C     10.891550   -5.858290    2.868190
  C     12.006120   -5.069850    2.955370
  C     11.895470   -3.672820    2.991070
  C     10.664350   -3.080740    2.928760
  F     10.617340   -1.731810    2.861220
  C      7.569890   -2.109010    2.909240
  C      8.070570   -1.221160    3.833890
  C      7.462560    0.036580    3.998680
  C      7.779520    1.095650    4.838620
  C      8.980920    1.172330    5.720640
  C      9.961000    2.244050    5.213930
  N     10.189910    2.079340    3.785540
  C      8.637380    1.355380    7.216990
  N      8.359070    2.737010    7.582600
  C      6.805690    2.127350    4.586630
  C      6.640610    3.343210    5.140090
  C      5.614120    4.288950    4.630280
  C      4.660720    3.704180    3.628410
  C      4.820900    2.471100    3.113570
  C      5.889270    1.647660    3.543290
  C      6.290680    0.372360    3.200740
  C      5.782640   -0.574890    2.281140
  C      6.400870   -1.773860    2.147320
  C      6.289800    5.427140    3.902010
  C      7.446030    5.282750    3.238070
  C      8.086850    6.308900    2.490120
  S      7.485200    7.921060    2.430410
  C      8.773440    8.477710    1.401280
  C      9.652940    7.415470    1.125210
  C      9.258350    6.182130    1.727310
  C     10.014400    5.010370    1.520740
  C     11.128560    5.064250    0.731600
  C     11.530980    6.266080    0.123980
  C     10.806890    7.408680    0.317760
  F     11.214250    8.546950   -0.276130
  C      8.912390    9.828330    1.034380
  C      7.973330   10.820520    1.045310
  C      8.403440   12.241100    1.126950
  O      9.529860   12.660170    0.968180
  C      7.186630   12.991840    1.497910
  C      6.093440   12.126180    1.507130
  C      6.531440   10.799160    1.081030
  C      5.720600    9.832580    0.540530
  C      6.217620    8.702760   -0.140400
  N      6.582640    7.794200   -0.740270
  C      4.314290    9.891930    0.521140
  N      3.166200    9.868770    0.499220
  C      4.818130   12.588610    1.854560
  C      4.664450   13.910590    2.182210
  C      5.747430   14.816660    2.169970
  C      7.050340   14.355670    1.820590
  C      8.128170   15.264810    1.810080
  C      7.922920   16.578160    2.130880
  C      6.641480   17.037730    2.475640
  C      5.577990   16.177940    2.495640
  H     11.994630   -9.775260    5.563330
  H     12.432600  -12.169510    5.272710
  H      7.955500  -12.333950    2.032300
  H      8.430040  -14.747750    1.809680
  H     10.365150  -15.743820    2.959070
  H     11.844500  -14.348750    4.345700
  H      7.145390   -7.565430    2.212280
  H     10.984770   -6.927380    2.765860
  H     12.987670   -5.517420    2.970920
  H     12.777430   -3.053470    3.027960
  H      8.889350   -1.512250    4.472910
  H      9.492320    0.206490    5.642420
  H     10.886520    2.176080    5.812950
  H      9.533250    3.239900    5.355020
  H     10.392710    1.108220    3.568130
  H     10.992180    2.631090    3.498890
  H      9.466130    0.932240    7.807230
  H      7.742820    0.764830    7.429730
  H      9.223710    3.263400    7.651420
  H      7.908760    2.768760    8.490210
  H      7.270690    3.675610    5.953210
  H      5.053680    4.708900    5.475280
  H      3.859830    4.349710    3.302570
  H      4.127860    2.090330    2.377270
  H      4.907260   -0.335510    1.695980
  H      6.029880   -2.510170    1.448780
  H      5.756290    6.367550    3.875460
  H      7.948890    4.325430    3.248260
  H      9.705990    4.082540    1.976230
  H     11.712990    4.174260    0.557540
  H     12.407660    6.298070   -0.503140
  H      9.917310   10.158460    0.791220
  H      3.974870   11.917190    1.876180
  H      3.688830   14.283800    2.458920
  H      9.107590   14.899780    1.543870
  H      8.748470   17.274180    2.121370
  H      6.502340   18.079000    2.726460
  H      4.590740   16.529350    2.759500

 Total Charge           Charge          ....    0
 Multiplicity           Mult            ....    1
 Number of Electrons    NEL             ....  554
 Basis Dimension        Dim             .... 1318

ORBITAL ENERGIES
----------------

  NO   OCC          E(Eh)            E(eV)
   0   2.0000     -88.976611     -2421.1767
   1   2.0000     -88.976464     -2421.1727
   2   2.0000     -24.792986      -674.6514
   3   2.0000     -24.785296      -674.4422
   4   2.0000     -19.207466      -522.6617
   5   2.0000     -19.205832      -522.6173
   6   2.0000     -14.406379      -392.0175
   7   2.0000     -14.405512      -391.9939
   8   2.0000     -14.404506      -391.9665
   9   2.0000     -14.403994      -391.9526
  10   2.0000     -14.401491      -391.8845
  11   2.0000     -14.391968      -391.6254
  12   2.0000     -10.370853      -282.2053
  13   2.0000     -10.362250      -281.9712
  14   2.0000     -10.357493      -281.8417
  15   2.0000     -10.356929      -281.8264
  16   2.0000     -10.332444      -281.1601
  17   2.0000     -10.331324      -281.1296
  18   2.0000     -10.331313      -281.1293
  19   2.0000     -10.329672      -281.0847
  20   2.0000     -10.329276      -281.0739
  21   2.0000     -10.324609      -280.9469
  22   2.0000     -10.313211      -280.6367
  23   2.0000     -10.310360      -280.5591
  24   2.0000     -10.309813      -280.5443
  25   2.0000     -10.309505      -280.5359
  26   2.0000     -10.308751      -280.5154
  27   2.0000     -10.307722      -280.4874
  28   2.0000     -10.307633      -280.4849
  29   2.0000     -10.306255      -280.4474
  30   2.0000     -10.300078      -280.2794
  31   2.0000     -10.299965      -280.2763
  32   2.0000     -10.299742      -280.2702
  33   2.0000     -10.299643      -280.2675
  34   2.0000     -10.299522      -280.2643
  35   2.0000     -10.297717      -280.2151
  36   2.0000     -10.296905      -280.1930
  37   2.0000     -10.296182      -280.1734
  38   2.0000     -10.294287      -280.1218
  39   2.0000     -10.293798      -280.1085
  40   2.0000     -10.291914      -280.0572
  41   2.0000     -10.290500      -280.0187
  42   2.0000     -10.288728      -279.9705
  43   2.0000     -10.288697      -279.9697
  44   2.0000     -10.288296      -279.9588
  45   2.0000     -10.287828      -279.9460
  46   2.0000     -10.287605      -279.9400
  47   2.0000     -10.287519      -279.9376
  48   2.0000     -10.287243      -279.9301
  49   2.0000     -10.287190      -279.9287
  50   2.0000     -10.285843      -279.8920
  51   2.0000     -10.285003      -279.8692
  52   2.0000     -10.283785      -279.8360
  53   2.0000     -10.283380      -279.8250
  54   2.0000     -10.282969      -279.8138
  55   2.0000     -10.282809      -279.8095
  56   2.0000     -10.282202      -279.7929
  57   2.0000     -10.282171      -279.7921
  58   2.0000     -10.281937      -279.7857
  59   2.0000     -10.280251      -279.7399
  60   2.0000     -10.279410      -279.7170
  61   2.0000     -10.278093      -279.6811
  62   2.0000     -10.277342      -279.6607
  63   2.0000     -10.277233      -279.6577
  64   2.0000     -10.277061      -279.6530
  65   2.0000     -10.276718      -279.6437
  66   2.0000     -10.276517      -279.6383
  67   2.0000     -10.274627      -279.5868
  68   2.0000     -10.274576      -279.5854
  69   2.0000     -10.271063      -279.4898
  70   2.0000     -10.271025      -279.4888
  71   2.0000     -10.270408      -279.4720
  72   2.0000     -10.270322      -279.4697
  73   2.0000     -10.270180      -279.4658
  74   2.0000     -10.269282      -279.4414
  75   2.0000     -10.269026      -279.4344
  76   2.0000     -10.264569      -279.3131
  77   2.0000     -10.263410      -279.2816
  78   2.0000     -10.261384      -279.2265
  79   2.0000     -10.260530      -279.2032
  80   2.0000      -8.071857      -219.6464
  81   2.0000      -8.071055      -219.6246
  82   2.0000      -6.040757      -164.3774
  83   2.0000      -6.039996      -164.3566
  84   2.0000      -6.036578      -164.2636
  85   2.0000      -6.035927      -164.2459
  86   2.0000      -6.034804      -164.2154
  87   2.0000      -6.033900      -164.1908
  88   2.0000      -1.305001       -35.5109
  89   2.0000      -1.298715       -35.3398
  90   2.0000      -1.121538       -30.5186
  91   2.0000      -1.120562       -30.4920
  92   2.0000      -1.014417       -27.6037
  93   2.0000      -1.013162       -27.5695
  94   2.0000      -1.005274       -27.3549
  95   2.0000      -1.004929       -27.3455
  96   2.0000      -0.990366       -26.9492
  97   2.0000      -0.989807       -26.9340
  98   2.0000      -0.989773       -26.9331
  99   2.0000      -0.983482       -26.7619
 100   2.0000      -0.983297       -26.7569
 101   2.0000      -0.976016       -26.5587
 102   2.0000      -0.965875       -26.2828
 103   2.0000      -0.960407       -26.1340
 104   2.0000      -0.960069       -26.1248
 105   2.0000      -0.952095       -25.9078
 106   2.0000      -0.943668       -25.6785
 107   2.0000      -0.939391       -25.5621
 108   2.0000      -0.923327       -25.1250
 109   2.0000      -0.915891       -24.9227
 110   2.0000      -0.912025       -24.8174
 111   2.0000      -0.902736       -24.5647
 112   2.0000      -0.893905       -24.3244
 113   2.0000      -0.890606       -24.2346
 114   2.0000      -0.886178       -24.1141
 115   2.0000      -0.875868       -23.8336
 116   2.0000      -0.865543       -23.5526
 117   2.0000      -0.859670       -23.3928
 118   2.0000      -0.851490       -23.1702
 119   2.0000      -0.847282       -23.0557
 120   2.0000      -0.844960       -22.9925
 121   2.0000      -0.843931       -22.9645
 122   2.0000      -0.841401       -22.8957
 123   2.0000      -0.838761       -22.8239
 124   2.0000      -0.834703       -22.7134
 125   2.0000      -0.831397       -22.6235
 126   2.0000      -0.830129       -22.5890
 127   2.0000      -0.818858       -22.2822
 128   2.0000      -0.798251       -21.7215
 129   2.0000      -0.787881       -21.4393
 130   2.0000      -0.769903       -20.9501
 131   2.0000      -0.764546       -20.8043
 132   2.0000      -0.760592       -20.6968
 133   2.0000      -0.757766       -20.6199
 134   2.0000      -0.750677       -20.4270
 135   2.0000      -0.739596       -20.1254
 136   2.0000      -0.736455       -20.0400
 137   2.0000      -0.720527       -19.6065
 138   2.0000      -0.719245       -19.5717
 139   2.0000      -0.708501       -19.2793
 140   2.0000      -0.707274       -19.2459
 141   2.0000      -0.706010       -19.2115
 142   2.0000      -0.704245       -19.1635
 143   2.0000      -0.696138       -18.9429
 144   2.0000      -0.694228       -18.8909
 145   2.0000      -0.692525       -18.8446
 146   2.0000      -0.689048       -18.7499
 147   2.0000      -0.678445       -18.4614
 148   2.0000      -0.668384       -18.1876
 149   2.0000      -0.665684       -18.1142
 150   2.0000      -0.665406       -18.1066
 151   2.0000      -0.659675       -17.9507
 152   2.0000      -0.658993       -17.9321
 153   2.0000      -0.651244       -17.7212
 154   2.0000      -0.644937       -17.5496
 155   2.0000      -0.635680       -17.2977
 156   2.0000      -0.629096       -17.1186
 157   2.0000      -0.623254       -16.9596
 158   2.0000      -0.619289       -16.8517
 159   2.0000      -0.618593       -16.8328
 160   2.0000      -0.607960       -16.5434
 161   2.0000      -0.599091       -16.3021
 162   2.0000      -0.596200       -16.2234
 163   2.0000      -0.593407       -16.1474
 164   2.0000      -0.592679       -16.1276
 165   2.0000      -0.587896       -15.9975
 166   2.0000      -0.585706       -15.9379
 167   2.0000      -0.583877       -15.8881
 168   2.0000      -0.580476       -15.7956
 169   2.0000      -0.580197       -15.7880
 170   2.0000      -0.579595       -15.7716
 171   2.0000      -0.576089       -15.6762
 172   2.0000      -0.572792       -15.5865
 173   2.0000      -0.566222       -15.4077
 174   2.0000      -0.565359       -15.3842
 175   2.0000      -0.563857       -15.3433
 176   2.0000      -0.562425       -15.3044
 177   2.0000      -0.561066       -15.2674
 178   2.0000      -0.558157       -15.1882
 179   2.0000      -0.556310       -15.1380
 180   2.0000      -0.553634       -15.0651
 181   2.0000      -0.547079       -14.8868
 182   2.0000      -0.539306       -14.6753
 183   2.0000      -0.535967       -14.5844
 184   2.0000      -0.534284       -14.5386
 185   2.0000      -0.529866       -14.4184
 186   2.0000      -0.526938       -14.3387
 187   2.0000      -0.526058       -14.3148
 188   2.0000      -0.525460       -14.2985
 189   2.0000      -0.523700       -14.2506
 190   2.0000      -0.519650       -14.1404
 191   2.0000      -0.518240       -14.1020
 192   2.0000      -0.514345       -13.9961
 193   2.0000      -0.513126       -13.9629
 194   2.0000      -0.512260       -13.9393
 195   2.0000      -0.510450       -13.8900
 196   2.0000      -0.509295       -13.8586
 197   2.0000      -0.506125       -13.7724
 198   2.0000      -0.505545       -13.7566
 199   2.0000      -0.502713       -13.6795
 200   2.0000      -0.501692       -13.6517
 201   2.0000      -0.501149       -13.6369
 202   2.0000      -0.499499       -13.5920
 203   2.0000      -0.497890       -13.5483
 204   2.0000      -0.497135       -13.5277
 205   2.0000      -0.493211       -13.4210
 206   2.0000      -0.491662       -13.3788
 207   2.0000      -0.488300       -13.2873
 208   2.0000      -0.487071       -13.2539
 209   2.0000      -0.485727       -13.2173
 210   2.0000      -0.483915       -13.1680
 211   2.0000      -0.482117       -13.1191
 212   2.0000      -0.479026       -13.0350
 213   2.0000      -0.477123       -12.9832
 214   2.0000      -0.472971       -12.8702
 215   2.0000      -0.469722       -12.7818
 216   2.0000      -0.468552       -12.7499
 217   2.0000      -0.466831       -12.7031
 218   2.0000      -0.463202       -12.6044
 219   2.0000      -0.460804       -12.5391
 220   2.0000      -0.459182       -12.4950
 221   2.0000      -0.452071       -12.3015
 222   2.0000      -0.450085       -12.2474
 223   2.0000      -0.447465       -12.1761
 224   2.0000      -0.442905       -12.0521
 225   2.0000      -0.442652       -12.0452
 226   2.0000      -0.441441       -12.0122
 227   2.0000      -0.441177       -12.0050
 228   2.0000      -0.437242       -11.8980
 229   2.0000      -0.435326       -11.8458
 230   2.0000      -0.434445       -11.8219
 231   2.0000      -0.431402       -11.7390
 232   2.0000      -0.430922       -11.7260
 233   2.0000      -0.430106       -11.7038
 234   2.0000      -0.429589       -11.6897
 235   2.0000      -0.426259       -11.5991
 236   2.0000      -0.424890       -11.5618
 237   2.0000      -0.424264       -11.5448
 238   2.0000      -0.424064       -11.5394
 239   2.0000      -0.422599       -11.4995
 240   2.0000      -0.422361       -11.4930
 241   2.0000      -0.421332       -11.4650
 242   2.0000      -0.418510       -11.3882
 243   2.0000      -0.418090       -11.3768
 244   2.0000      -0.415863       -11.3162
 245   2.0000      -0.414585       -11.2814
 246   2.0000      -0.411411       -11.1951
 247   2.0000      -0.408594       -11.1184
 248   2.0000      -0.407876       -11.0989
 249   2.0000      -0.398732       -10.8501
 250   2.0000      -0.396656       -10.7935
 251   2.0000      -0.395699       -10.7675
 252   2.0000      -0.390767       -10.6333
 253   2.0000      -0.387910       -10.5556
 254   2.0000      -0.378616       -10.3027
 255   2.0000      -0.372043       -10.1238
 256   2.0000      -0.367585       -10.0025
 257   2.0000      -0.360710        -9.8154
 258   2.0000      -0.358881        -9.7656
 259   2.0000      -0.340944        -9.2775
 260   2.0000      -0.331527        -9.0213
 261   2.0000      -0.330622        -8.9967
 262   2.0000      -0.327433        -8.9099
 263   2.0000      -0.325706        -8.8629
 264   2.0000      -0.324598        -8.8328
 265   2.0000      -0.323360        -8.7991
 266   2.0000      -0.322880        -8.7860
 267   2.0000      -0.322508        -8.7759
 268   2.0000      -0.315460        -8.5841
 269   2.0000      -0.308782        -8.4024
 270   2.0000      -0.305997        -8.3266
 271   2.0000      -0.303050        -8.2464
 272   2.0000      -0.286188        -7.7876
 273   2.0000      -0.286112        -7.7855
 274   2.0000      -0.255651        -6.9566
 275   2.0000      -0.247274        -6.7287
 276   2.0000      -0.219570        -5.9748
 277   0.0000      -0.091223        -2.4823
 278   0.0000      -0.088647        -2.4122
 279   0.0000      -0.067182        -1.8281
 280   0.0000      -0.063389        -1.7249
 281   0.0000      -0.057353        -1.5607

MULLIKEN ATOMIC CHARGES
-----------------------
   0 C :   -0.140541
   1 C :    0.114954
   2 O :   -0.159814
   3 C :    0.014629
   4 C :   -0.008782
   5 C :    0.248236
   6 C :   -0.346482
   7 C :   -0.189259
   8 N :    0.157857
   9 C :   -0.188486
  10 N :    0.149184
  11 C :   -0.027756
  12 C :    0.001340
  13 C :    0.080653
  14 C :    0.031419
  15 C :   -0.027437
  16 C :    0.035960
  17 C :    0.035082
  18 C :   -0.020661
  19 C :    0.066719
  20 C :   -0.168641
  21 S :    0.205795
  22 C :   -0.104161
  23 C :    0.096261
  24 C :    0.079639
  25 C :    0.012304
  26 C :    0.029268
  27 C :   -0.052254
  28 C :    0.201992
  29 F :   -0.190547
  30 C :    0.070822
  31 C :   -0.057531
  32 C :    0.031273
  33 C :    0.008507
  34 C :   -0.050549
  35 C :    0.122455
  36 N :   -0.205058
  37 C :    0.122205
  38 N :   -0.215330
  39 C :    0.078355
  40 C :   -0.135553
  41 C :    0.155013
  42 C :   -0.019558
  43 C :    0.016273
  44 C :    0.022982
  45 C :    0.037997
  46 C :    0.002604
  47 C :   -0.019032
  48 C :   -0.089297
  49 C :    0.027927
  50 C :   -0.064412
  51 S :    0.175389
  52 C :   -0.164193
  53 C :    0.139125
  54 C :    0.096350
  55 C :   -0.028361
  56 C :    0.027701
  57 C :   -0.050996
  58 C :    0.212173
  59 F :   -0.185193
  60 C :    0.023098
  61 C :   -0.138557
  62 C :    0.120655
  63 O :   -0.155438
  64 C :    0.008824
  65 C :   -0.012068
  66 C :    0.252188
  67 C :   -0.334085
  68 C :   -0.210253
  69 N :    0.168854
  70 C :   -0.176354
  71 N :    0.145479
  72 C :   -0.022298
  73 C :    0.001625
  74 C :    0.080257
  75 C :    0.031352
  76 C :   -0.024982
  77 C :    0.034604
  78 C :    0.036730
  79 C :   -0.021004
  80 H :   -0.003374
  81 H :   -0.016865
  82 H :   -0.001171
  83 H :   -0.008711
  84 H :   -0.008713
  85 H :   -0.023947
  86 H :    0.018241
  87 H :   -0.010482
  88 H :   -0.000793
  89 H :   -0.008137
  90 H :   -0.021000
  91 H :   -0.017149
  92 H :   -0.011465
  93 H :   -0.005070
  94 H :    0.096933
  95 H :    0.098103
  96 H :   -0.003183
  97 H :    0.015579
  98 H :    0.103281
  99 H :    0.105393
 100 H :   -0.013978
 101 H :    0.022906
 102 H :   -0.007690
 103 H :   -0.034060
 104 H :   -0.032801
 105 H :   -0.022331
 106 H :    0.013212
 107 H :    0.031683
 108 H :   -0.022141
 109 H :   -0.009222
 110 H :   -0.001083
 111 H :    0.030058
 112 H :   -0.001094
 113 H :   -0.016654
 114 H :   -0.000265
 115 H :   -0.008103
 116 H :   -0.008977
 117 H :   -0.024119
Sum of atomic charges:   -0.0000000

LOEWDIN ATOMIC CHARGES
----------------------
   0 C :   -0.112540
   1 C :    0.086508
   2 O :   -0.150830
   3 C :   -0.035259
   4 C :   -0.005802
   5 C :    0.059002
   6 C :   -0.144628
   7 C :   -0.011476
   8 N :   -0.061617
   9 C :   -0.020509
  10 N :   -0.063809
  11 C :   -0.020311
  12 C :    0.014015
  13 C :   -0.011244
  14 C :   -0.003302
  15 C :   -0.003241
  16 C :   -0.015033
  17 C :   -0.016250
  18 C :   -0.013989
  19 C :    0.036262
  20 C :   -0.201365
  21 S :    0.523570
  22 C :   -0.111621
  23 C :   -0.073505
  24 C :   -0.016214
  25 C :   -0.028791
  26 C :    0.005018
  27 C :   -0.062876
  28 C :    0.104327
  29 F :   -0.062229
  30 C :   -0.061931
  31 C :    0.016796
  32 C :   -0.026676
  33 C :   -0.013621
  34 C :   -0.040696
  35 C :    0.022787
  36 N :   -0.112631
  37 C :    0.028877
  38 N :   -0.093081
  39 C :   -0.023649
  40 C :    0.079956
  41 C :   -0.031869
  42 C :   -0.024797
  43 C :   -0.017994
  44 C :   -0.032833
  45 C :   -0.029709
  46 C :   -0.002577
  47 C :   -0.039659
  48 C :    0.021487
  49 C :   -0.047373
  50 C :   -0.131918
  51 S :    0.519023
  52 C :   -0.190467
  53 C :   -0.038439
  54 C :   -0.041764
  55 C :   -0.016968
  56 C :   -0.021515
  57 C :   -0.042495
  58 C :    0.090524
  59 F :   -0.058689
  60 C :    0.044917
  61 C :   -0.110702
  62 C :    0.085743
  63 O :   -0.148275
  64 C :   -0.032452
  65 C :   -0.005781
  66 C :    0.061353
  67 C :   -0.151488
  68 C :   -0.036049
  69 N :   -0.051583
  70 C :   -0.021569
  71 N :   -0.060179
  72 C :   -0.018770
  73 C :    0.014081
  74 C :   -0.010494
  75 C :   -0.003949
  76 C :   -0.002299
  77 C :   -0.015180
  78 C :   -0.015452
  79 C :   -0.014128
  80 H :    0.038247
  81 H :    0.033803
  82 H :    0.034837
  83 H :    0.031497
  84 H :    0.030806
  85 H :    0.029147
  86 H :    0.043755
  87 H :    0.033681
  88 H :    0.036321
  89 H :    0.038053
  90 H :    0.025517
  91 H :    0.028134
  92 H :    0.000125
  93 H :    0.011944
  94 H :    0.056658
  95 H :    0.055481
  96 H :    0.006106
  97 H :    0.026627
  98 H :    0.055389
  99 H :    0.061547
 100 H :    0.020038
 101 H :    0.052618
 102 H :    0.025841
 103 H :    0.030916
 104 H :    0.029578
 105 H :    0.019948
 106 H :    0.022555
 107 H :    0.042977
 108 H :    0.029866
 109 H :    0.031660
 110 H :    0.040553
 111 H :    0.048602
 112 H :    0.038527
 113 H :    0.033852
 114 H :    0.035155
 115 H :    0.031615
 116 H :    0.030808
 117 H :    0.029112

  Mayer bond orders larger than 0.100000
B(  0-C ,  1-C ) :   0.9727 B(  0-C ,  5-C ) :   1.0735 B(  0-C , 19-C ) :   1.5849
B(  1-C ,  2-O ) :   2.1845 B(  1-C ,  3-C ) :   0.9353 B(  3-C ,  4-C ) :   1.4265
B(  3-C , 14-C ) :   1.2369 B(  4-C ,  5-C ) :   0.9963 B(  4-C , 11-C ) :   1.2627
B(  5-C ,  6-C ) :   1.6124 B(  6-C ,  7-C ) :   1.1689 B(  6-C ,  9-C ) :   1.1389
B(  7-C ,  8-N ) :   3.0100 B(  9-C , 10-N ) :   2.9886 B( 11-C , 12-C ) :   1.4622
B( 11-C , 80-H ) :   0.9868 B( 12-C , 13-C ) :   1.2281 B( 12-C , 81-H ) :   0.9938
B( 13-C , 14-C ) :   1.2382 B( 13-C , 18-C ) :   1.2363 B( 14-C , 15-C ) :   1.2726
B( 15-C , 16-C ) :   1.4785 B( 15-C , 82-H ) :   0.9863 B( 16-C , 17-C ) :   1.2515
B( 16-C , 83-H ) :   0.9877 B( 17-C , 18-C ) :   1.4988 B( 17-C , 84-H ) :   0.9888
B( 18-C , 85-H ) :   0.9975 B( 19-C , 20-C ) :   1.2014 B( 19-C , 86-H ) :   0.9258
B( 20-C , 21-S ) :   1.1143 B( 20-C , 22-C ) :   0.1008 B( 20-C , 24-C ) :   1.2849
B( 21-S , 22-C ) :   1.2373 B( 22-C , 23-C ) :   1.3202 B( 22-C , 30-C ) :   1.0520
B( 23-C , 24-C ) :   1.2183 B( 23-C , 28-C ) :   1.1582 B( 24-C , 25-C ) :   1.2602
B( 25-C , 26-C ) :   1.4942 B( 25-C , 87-H ) :   0.9819 B( 26-C , 27-C ) :   1.2133
B( 26-C , 88-H ) :   0.9892 B( 27-C , 28-C ) :   1.5132 B( 27-C , 89-H ) :   0.9887
B( 28-C , 29-F ) :   1.0947 B( 30-C , 31-C ) :   1.5353 B( 30-C , 47-C ) :   1.1074
B( 31-C , 32-C ) :   1.1653 B( 31-C , 90-H ) :   0.9810 B( 32-C , 33-C ) :   1.4835
B( 32-C , 45-C ) :   1.1215 B( 33-C , 34-C ) :   1.0326 B( 33-C , 39-C ) :   1.0915
B( 34-C , 35-C ) :   1.0492 B( 34-C , 37-C ) :   1.0346 B( 34-C , 91-H ) :   0.8821
B( 35-C , 36-N ) :   1.0988 B( 35-C , 92-H ) :   0.9438 B( 35-C , 93-H ) :   0.9256
B( 36-N , 94-H ) :   0.9622 B( 36-N , 95-H ) :   0.9518 B( 37-C , 38-N ) :   1.0814
B( 37-C , 96-H ) :   0.9445 B( 37-C , 97-H ) :   0.9484 B( 38-N , 98-H ) :   0.9628
B( 38-N , 99-H ) :   0.9653 B( 38-N ,100-H ) :   0.1476 B( 39-C , 40-C ) :   1.6428
B( 39-C , 44-C ) :   1.0627 B( 40-C , 41-C ) :   0.9687 B( 40-C ,100-H ) :   0.9411
B( 41-C , 42-C ) :   0.9800 B( 41-C , 48-C ) :   0.9682 B( 41-C ,101-H ) :   0.8734
B( 42-C , 43-C ) :   1.7373 B( 42-C ,102-H ) :   0.9644 B( 43-C , 44-C ) :   1.1275
B( 43-C ,103-H ) :   0.9885 B( 44-C , 45-C ) :   1.4322 B( 45-C , 46-C ) :   1.1397
B( 46-C , 47-C ) :   1.6128 B( 46-C ,104-H ) :   0.9928 B( 47-C ,105-H ) :   0.9814
B( 48-C , 49-C ) :   1.7704 B( 48-C ,106-H ) :   0.9730 B( 49-C , 50-C ) :   1.1557
B( 49-C ,107-H ) :   0.9504 B( 50-C , 51-S ) :   1.1977 B( 50-C , 54-C ) :   1.3105
B( 51-S , 52-C ) :   1.1173 B( 52-C , 53-C ) :   1.3029 B( 52-C , 60-C ) :   1.1929
B( 53-C , 54-C ) :   1.2167 B( 53-C , 58-C ) :   1.1568 B( 54-C , 55-C ) :   1.2107
B( 55-C , 56-C ) :   1.5336 B( 55-C ,108-H ) :   0.9797 B( 56-C , 57-C ) :   1.1975
B( 56-C ,109-H ) :   0.9863 B( 57-C , 58-C ) :   1.5315 B( 57-C ,110-H ) :   0.9850
B( 58-C , 59-F ) :   1.1023 B( 60-C , 61-C ) :   1.5837 B( 60-C ,111-H ) :   0.9409
B( 61-C , 62-C ) :   0.9701 B( 61-C , 66-C ) :   1.0523 B( 62-C , 63-O ) :   2.1866
B( 62-C , 64-C ) :   0.9369 B( 64-C , 65-C ) :   1.4241 B( 64-C , 75-C ) :   1.2389
B( 65-C , 66-C ) :   1.0004 B( 65-C , 72-C ) :   1.2619 B( 66-C , 67-C ) :   1.6294
B( 67-C , 68-C ) :   1.1567 B( 67-C , 70-C ) :   1.1321 B( 68-C , 69-N ) :   3.0257
B( 70-C , 71-N ) :   2.9914 B( 72-C , 73-C ) :   1.4652 B( 72-C ,112-H ) :   0.9865
B( 73-C , 74-C ) :   1.2279 B( 73-C ,113-H ) :   0.9938 B( 74-C , 75-C ) :   1.2407
B( 74-C , 79-C ) :   1.2381 B( 75-C , 76-C ) :   1.2752 B( 76-C , 77-C ) :   1.4758
B( 76-C ,114-H ) :   0.9860 B( 77-C , 78-C ) :   1.2531 B( 77-C ,115-H ) :   0.9882
B( 78-C , 79-C ) :   1.4971 B( 78-C ,116-H ) :   0.9890 B( 79-C ,117-H ) :   0.9974

-----------------------------------------------------------------------------
         ABSORPTION SPECTRUM VIA TRANSITION ELECTRIC DIPOLE MOMENTS
-----------------------------------------------------------------------------
State   Energy  Wavelength   fosc         T2         TX        TY        TZ
        (cm-1)    (nm)                  (au**2)     (au)      (au)      (au)
-----------------------------------------------------------------------------
   0   12900.7    775.2   0.281287232   7.17817  -0.03560   2.67262   0.18448
   1   14295.8    699.5   0.274581384   6.32322   0.36341  -2.35159   0.81313
   2   16729.7    597.7   0.673675389  13.25675   1.16205  -3.35316   0.81408
   3   17355.1    576.2   0.132318575   2.50997  -0.67465   1.37778  -0.39565
   4   19555.6    511.4   0.084446566   1.42163  -0.16770  -1.11552   0.38616
   5   21201.4    471.7   0.490267049   7.61278  -0.26245   2.74615   0.05051
   6   22009.4    454.4   0.104644353   1.56524   0.15180   1.20567  -0.29761
   7   22963.5    435.5   0.005224898   0.07491   0.05904  -0.25189   0.08929
   8   24893.0    401.7   0.006715137   0.08881   0.12124  -0.27181   0.01514
   9   25255.7    395.9   0.038040822   0.49587  -0.11315   0.64936   0.24779
  10   26247.3    381.0   0.225991552   2.83454  -0.09711  -1.61750  -0.45695
  11   26337.0    379.7   0.003754500   0.04693  -0.15892  -0.06539  -0.13191
  12   26890.4    371.9   0.112473166   1.37698  -0.15221  -1.03243  -0.53656
  13   27422.2    364.7   0.071144279   0.85411  -0.32680   0.34759   0.79151
  14   28442.6    351.6   0.043714215   0.50598   0.42892  -0.48677  -0.29165
  15   28607.0    349.6   0.007533876   0.08670   0.02241   0.28146   0.08353
  16   28676.3    348.7   0.008385657   0.09627   0.26853  -0.10076  -0.11837
  17   29332.6    340.9   0.003134042   0.03517   0.12024  -0.12113   0.07774
  18   29676.1    337.0   0.061978443   0.68756   0.09826   0.75739   0.32289
  19   29838.3    335.1   0.045625209   0.50339  -0.46318  -0.52957   0.09170
  20   29921.4    334.2   0.034264223   0.37699   0.26037  -0.39934  -0.38695
  21   30642.5    326.3   0.070094347   0.75307  -0.11071  -0.75021  -0.42189
  22   31190.0    320.6   0.107618428   1.13592   1.03774   0.22960  -0.07935
  23   31350.7    319.0   0.231182465   2.42764   0.70092   1.31507   0.45490
  24   31529.4    317.2   0.169547739   1.77032   0.62119   0.77605   0.88441
  25   31719.7    315.3   0.071240996   0.73939   0.29668   0.66018   0.46426
  26   31907.3    313.4   0.075324510   0.77718   0.27758   0.52668   0.65018
  27   32119.0    311.3   0.154864288   1.58732  -0.05375   1.17789   0.44385
  28   32669.0    306.1   0.030726600   0.30964   0.18211  -0.28995  -0.43864
  29   32846.6    304.4   0.306009886   3.06704   0.15386   1.74450  -0.01032
  30   33065.8    302.4   0.206016994   2.05116  -1.36224   0.13258   0.42176
  31   33420.7    299.2   0.214550347   2.11344  -0.43572   1.36189   0.26238
  32   33510.8    298.4   0.068530383   0.67325   0.05385  -0.71347  -0.40163
  33   33541.5    298.1   0.016300895   0.15999   0.02306  -0.34516  -0.20081
  34   33586.6    297.7   0.053975158   0.52906  -0.03568  -0.67778  -0.26152
  35   33950.4    294.5   0.261153587   2.53237   0.32339  -1.38374  -0.71628
  36   34264.0    291.9   0.094476207   0.90774  -0.28502  -0.90908   0.00823
  37   34428.7    290.5   0.054598590   0.52208   0.36606   0.61844  -0.07492
  38   34565.4    289.3   0.170812695   1.62688  -0.89263   0.90810   0.07377
  39   34657.5    288.5   0.087002863   0.82644   0.77845  -0.36995   0.28911
  40   34895.9    286.6   0.104808947   0.98878   0.85111  -0.47285  -0.20199
  41   35502.5    281.7   0.025647918   0.23783   0.25573  -0.33064  -0.25122
  42   36104.5    277.0   0.160670036   1.46504   1.16240   0.15638  -0.29903
  43   36202.3    276.2   0.001407934   0.01280   0.06764  -0.06312  -0.06515
  44   36820.1    271.6   0.053476760   0.47814  -0.08072   0.67546   0.12399
  45   36891.8    271.1   0.067677388   0.60393  -0.44736   0.60605   0.19107
  46   37060.3    269.8   0.014581516   0.12953  -0.31065  -0.04628  -0.17574
  47   37200.3    268.8   0.003438671   0.03043   0.11796   0.09955  -0.08128
  48   37409.8    267.3   0.099213517   0.87309  -0.88774  -0.26646   0.11836
  49   37948.6    263.5   0.025157011   0.21824  -0.05654  -0.41569  -0.20554
  50   38402.3    260.4   0.148012891   1.26887   0.13229  -1.06029  -0.35658
  51   38467.5    260.0   0.036267662   0.31039  -0.50332  -0.17289  -0.16480
  52   38645.5    258.8   0.098101538   0.83570  -0.29556   0.86104   0.08337
  53   39289.6    254.5   0.064897503   0.54378  -0.33518  -0.65682  -0.00430
  54   39357.5    254.1   0.039695917   0.33204  -0.15083  -0.54315  -0.11950
  55   39452.3    253.5   0.272879654   2.27706  -0.21188   1.41271   0.48623
  56   39584.8    252.6   0.024723522   0.20562  -0.06021  -0.44340  -0.07340
  57   39810.4    251.2   0.030995595   0.25632   0.21726  -0.30292  -0.34257
  58   39943.0    250.4   0.000103355   0.00085   0.00431  -0.02604   0.01245
  59   40128.3    249.2   0.018172349   0.14909  -0.25081   0.00408   0.29353
  60   40215.1    248.7   0.030672852   0.25110  -0.44100   0.22406  -0.08009

FINAL SINGLE POINT ENERGY     -4084.603860378704

DIPOLE MOMENT
-------------
                                X             Y             Z
Electronic contribution:     -3.09359       2.57918     -25.92354
Nuclear contribution   :      4.54599      -2.54327      27.76105
                        -----------------------------------------
Total Dipole Moment    :      1.45240       0.03591       1.83751
                        -----------------------------------------
Magnitude (a.u.)       :      2.34248
Magnitude (Debye)      :      5.95411

Rotational constants in cm-1:     0.002790     0.000201     0.000199
Rotational constants in MHz :    83.654630     6.029504     5.958521

                             ****ORCA TERMINATED NORMALLY****
TOTAL RUN TIME: 0 days 0 hours 13 minutes 32 seconds 913 msec
