                         Program Version 4.2.0 -  RELEASE  -
|  1> # ORCA input file
|  2> # SCF done       -177.367381840058          0.000945768279
|  3> ! CAM-B3LYP def2-SVP def2/J RIJCOSX Grid4 TightSCF
|  4> %maxcore 5000
|  5> %tddft
|  6>     Mode sTDDFT
|  7>     Ethresh 5.0
|  8>     maxcore 5000
|  9> end
| 10>
| 11> %pal
| 12>   nprocs 6
| 13>   end
| 14> * xyz 0 1
| 15>    C      -13.00002         2.72520        -2.82949
| 16>    C      -13.60579         2.87133        -4.04616
| 17>    C      -14.91889         2.43784        -4.32897
| 18>    N      -15.97784         2.09965        -4.61239
| 19>    C      -12.97114         3.42776        -5.17711
| 20>    N      -12.49277         3.87054        -6.12169
| 21>    C      -13.57631         2.13248        -1.63264
| 22>    C      -12.55326         1.95704        -0.66057
| 23>    C      -12.80616         1.46694         0.60015
| 24>    C      -14.12844         1.15921         0.92349
| 25>    C      -15.14042         1.31789        -0.05786
| 26>    C      -14.88467         1.79579        -1.33723
| 27>    S      -16.69234         0.86946         0.57096
| 28>    C      -15.99133         0.50398         2.11234
| 29>    C      -14.65548         0.69534         2.16069
| 30>    C      -11.27526         2.41267        -1.21999
| 31>    O      -10.15714         2.18427        -0.81873
| 32>    C      -11.64669         3.14063        -2.47899
| 33>    C      -10.88232         4.08711        -3.06775
| 34>    C       -9.72268         4.64526        -2.44061
| 35>    C       -8.48378         5.09876        -3.09171
| 36>    N       -7.58065         5.54244        -2.26980
| 37>    C       -8.13029         5.44895        -1.02454
| 38>    C       -9.51010         4.92212        -1.11647
| 39>    C      -10.10533         4.86413         0.19170
| 40>    S      -11.70316         4.69235         0.54729
| 41>    C       -9.01722         5.16403         1.08295
| 42>    C       -7.83354         5.59279         0.30189
| 43>    N       -6.80441         5.91455         1.13864
| 44>    C       -7.24161         5.69169         2.33958
| 45>    C       -8.62005         5.18429         2.39742
| 46>    C       -9.29852         4.72558         3.55882
| 47>    S       -8.72423         5.08045         5.16706
| 48>    C       -9.99149         4.15134         5.89084
| 49>    C      -10.80813         3.60104         4.90731
| 50>    C      -10.41861         3.92953         3.60168
| 51>    N      -12.00791         2.86703         5.15253
| 52>    O      -12.55058         3.00048         6.22948
| 53>    O      -12.42862         2.18394         4.24341
| 54>    C      -10.05387         4.01324         7.30726
| 55>    C       -9.78091         5.09429         8.26997
| 56>    N       -9.92332         4.74569         9.50908
| 57>    C      -10.25490         3.42175         9.48646
| 58>    C      -10.36362         2.93963         8.10032
| 59>    C      -10.61709         1.51711         8.08864
| 60>    S      -10.70535         0.55760         6.75001
| 61>    C      -10.65469         1.14530         9.47059
| 62>    C      -10.47410         2.35668        10.31330
| 63>    N      -10.53852         2.04205        11.63306
| 64>    C      -10.72028         0.75884        11.67836
| 65>    C      -10.75016         0.09101        10.36504
| 66>    C      -10.89192        -1.31032        10.28225
| 67>    C      -10.59225        -2.23327         9.32268
| 68>    C       -9.85685        -2.21940         8.09135
| 69>    C       -8.90653        -1.29396         7.71197
| 70>    C       -8.18235        -1.34427         6.49893
| 71>    N       -7.56423        -1.31872         5.53343
| 72>    C       -8.37729        -0.33007         8.59038
| 73>    N       -7.91715         0.46378         9.28004
| 74>    C      -10.19115        -3.43380         7.35751
| 75>    C      -10.95951        -4.28151         8.19832
| 76>    C      -11.18624        -3.60590         9.48202
| 77>    O      -11.74712        -4.02217        10.46756
| 78>    C      -11.38788        -5.52494         7.79884
| 79>    C      -11.05488        -5.94618         6.50768
| 80>    C      -10.30704        -5.08358         5.66915
| 81>    C       -9.86500        -3.82889         6.07551
| 82>    S      -10.02245        -5.80579         4.11915
| 83>    C      -10.88108        -7.22898         4.59629
| 84>    C      -11.36579        -7.17262         5.85629
| 85>    H      -12.01849         1.34683         1.32714
| 86>    H      -15.68715         1.91339        -2.04692
| 87>    H      -16.63814         0.16575         2.89843
| 88>    H      -14.04628         0.54872         3.03366
| 89>    H      -11.15895         4.50524        -4.02758
| 90>    H       -8.29622         5.05917        -4.15075
| 91>    H       -6.61509         5.86154         3.19846
| 92>    H      -10.95390         3.59735         2.73029
| 93>    H       -9.52378         6.10298         7.99727
| 94>    H      -10.81710         0.24715        12.62064
| 95>    H      -11.35759        -1.75491        11.16118
| 96>    H      -11.96193        -6.15281         8.46238
| 97>    H       -9.30336        -3.20493         5.40039
| 98>    H      -10.97156        -8.03335         3.89242
| 99>    H      -11.92442        -7.96366         6.32266
|100> *
|101>
|102>                          ****END OF INPUT****

CARTESIAN COORDINATES (ANGSTROEM)
---------------------------------
  C    -13.000020    2.725200   -2.829490
  C    -13.605790    2.871330   -4.046160
  C    -14.918890    2.437840   -4.328970
  N    -15.977840    2.099650   -4.612390
  C    -12.971140    3.427760   -5.177110
  N    -12.492770    3.870540   -6.121690
  C    -13.576310    2.132480   -1.632640
  C    -12.553260    1.957040   -0.660570
  C    -12.806160    1.466940    0.600150
  C    -14.128440    1.159210    0.923490
  C    -15.140420    1.317890   -0.057860
  C    -14.884670    1.795790   -1.337230
  S    -16.692340    0.869460    0.570960
  C    -15.991330    0.503980    2.112340
  C    -14.655480    0.695340    2.160690
  C    -11.275260    2.412670   -1.219990
  O    -10.157140    2.184270   -0.818730
  C    -11.646690    3.140630   -2.478990
  C    -10.882320    4.087110   -3.067750
  C     -9.722680    4.645260   -2.440610
  C     -8.483780    5.098760   -3.091710
  N     -7.580650    5.542440   -2.269800
  C     -8.130290    5.448950   -1.024540
  C     -9.510100    4.922120   -1.116470
  C    -10.105330    4.864130    0.191700
  S    -11.703160    4.692350    0.547290
  C     -9.017220    5.164030    1.082950
  C     -7.833540    5.592790    0.301890
  N     -6.804410    5.914550    1.138640
  C     -7.241610    5.691690    2.339580
  C     -8.620050    5.184290    2.397420
  C     -9.298520    4.725580    3.558820
  S     -8.724230    5.080450    5.167060
  C     -9.991490    4.151340    5.890840
  C    -10.808130    3.601040    4.907310
  C    -10.418610    3.929530    3.601680
  N    -12.007910    2.867030    5.152530
  O    -12.550580    3.000480    6.229480
  O    -12.428620    2.183940    4.243410
  C    -10.053870    4.013240    7.307260
  C     -9.780910    5.094290    8.269970
  N     -9.923320    4.745690    9.509080
  C    -10.254900    3.421750    9.486460
  C    -10.363620    2.939630    8.100320
  C    -10.617090    1.517110    8.088640
  S    -10.705350    0.557600    6.750010
  C    -10.654690    1.145300    9.470590
  C    -10.474100    2.356680   10.313300
  N    -10.538520    2.042050   11.633060
  C    -10.720280    0.758840   11.678360
  C    -10.750160    0.091010   10.365040
  C    -10.891920   -1.310320   10.282250
  C    -10.592250   -2.233270    9.322680
  C     -9.856850   -2.219400    8.091350
  C     -8.906530   -1.293960    7.711970
  C     -8.182350   -1.344270    6.498930
  N     -7.564230   -1.318720    5.533430
  C     -8.377290   -0.330070    8.590380
  N     -7.917150    0.463780    9.280040
  C    -10.191150   -3.433800    7.357510
  C    -10.959510   -4.281510    8.198320
  C    -11.186240   -3.605900    9.482020
  O    -11.747120   -4.022170   10.467560
  C    -11.387880   -5.524940    7.798840
  C    -11.054880   -5.946180    6.507680
  C    -10.307040   -5.083580    5.669150
  C     -9.865000   -3.828890    6.075510
  S    -10.022450   -5.805790    4.119150
  C    -10.881080   -7.228980    4.596290
  C    -11.365790   -7.172620    5.856290
  H    -12.018490    1.346830    1.327140
  H    -15.687150    1.913390   -2.046920
  H    -16.638140    0.165750    2.898430
  H    -14.046280    0.548720    3.033660
  H    -11.158950    4.505240   -4.027580
  H     -8.296220    5.059170   -4.150750
  H     -6.615090    5.861540    3.198460
  H    -10.953900    3.597350    2.730290
  H     -9.523780    6.102980    7.997270
  H    -10.817100    0.247150   12.620640
  H    -11.357590   -1.754910   11.161180
  H    -11.961930   -6.152810    8.462380
  H     -9.303360   -3.204930    5.400390
  H    -10.971560   -8.033350    3.892420
  H    -11.924420   -7.963660    6.322660

 Total Charge           Charge          ....    0
 Multiplicity           Mult            ....    1
 Number of Electrons    NEL             ....  502
 Basis Dimension        Dim             .... 1075

ORBITAL ENERGIES
----------------

  NO   OCC          E(Eh)            E(eV)
   0   2.0000     -89.001866     -2421.8639
   1   2.0000     -88.972768     -2421.0721
   2   2.0000     -88.966114     -2420.8910
   3   2.0000     -88.925681     -2419.7908
   4   2.0000     -88.920980     -2419.6629
   5   2.0000     -19.259599      -524.0803
   6   2.0000     -19.256874      -524.0062
   7   2.0000     -19.229692      -523.2665
   8   2.0000     -19.219212      -522.9814
   9   2.0000     -14.665337      -399.0641
  10   2.0000     -14.433051      -392.7433
  11   2.0000     -14.431421      -392.6989
  12   2.0000     -14.429615      -392.6498
  13   2.0000     -14.429158      -392.6373
  14   2.0000     -14.426992      -392.5784
  15   2.0000     -14.426354      -392.5611
  16   2.0000     -14.420671      -392.4064
  17   2.0000     -14.418943      -392.3594
  18   2.0000     -10.377557      -282.3877
  19   2.0000     -10.373377      -282.2739
  20   2.0000     -10.362288      -281.9722
  21   2.0000     -10.359322      -281.8915
  22   2.0000     -10.358501      -281.8691
  23   2.0000     -10.356940      -281.8267
  24   2.0000     -10.354147      -281.7507
  25   2.0000     -10.351339      -281.6742
  26   2.0000     -10.350737      -281.6579
  27   2.0000     -10.349658      -281.6285
  28   2.0000     -10.349643      -281.6281
  29   2.0000     -10.348999      -281.6106
  30   2.0000     -10.348403      -281.5944
  31   2.0000     -10.348320      -281.5921
  32   2.0000     -10.347576      -281.5719
  33   2.0000     -10.347258      -281.5632
  34   2.0000     -10.346913      -281.5538
  35   2.0000     -10.344482      -281.4877
  36   2.0000     -10.342532      -281.4346
  37   2.0000     -10.330975      -281.1201
  38   2.0000     -10.329697      -281.0853
  39   2.0000     -10.329579      -281.0821
  40   2.0000     -10.329028      -281.0671
  41   2.0000     -10.328199      -281.0446
  42   2.0000     -10.327780      -281.0332
  43   2.0000     -10.327555      -281.0270
  44   2.0000     -10.326691      -281.0035
  45   2.0000     -10.323188      -280.9082
  46   2.0000     -10.322961      -280.9020
  47   2.0000     -10.322171      -280.8806
  48   2.0000     -10.321180      -280.8536
  49   2.0000     -10.319416      -280.8056
  50   2.0000     -10.317948      -280.7657
  51   2.0000     -10.317436      -280.7517
  52   2.0000     -10.316916      -280.7376
  53   2.0000     -10.315414      -280.6967
  54   2.0000     -10.314420      -280.6696
  55   2.0000     -10.314151      -280.6623
  56   2.0000     -10.312553      -280.6188
  57   2.0000     -10.311986      -280.6034
  58   2.0000     -10.310616      -280.5661
  59   2.0000     -10.310466      -280.5620
  60   2.0000     -10.309862      -280.5456
  61   2.0000     -10.307920      -280.4928
  62   2.0000     -10.307528      -280.4821
  63   2.0000     -10.306013      -280.4409
  64   2.0000     -10.301528      -280.3188
  65   2.0000     -10.299983      -280.2768
  66   2.0000     -10.298312      -280.2313
  67   2.0000     -10.295939      -280.1667
  68   2.0000     -10.294746      -280.1343
  69   2.0000     -10.283995      -279.8417
  70   2.0000      -8.097147      -220.3346
  71   2.0000      -8.069059      -219.5703
  72   2.0000      -8.062288      -219.3860
  73   2.0000      -8.020808      -218.2573
  74   2.0000      -8.016008      -218.1267
  75   2.0000      -6.066364      -165.0742
  76   2.0000      -6.062169      -164.9600
  77   2.0000      -6.059453      -164.8861
  78   2.0000      -6.038538      -164.3170
  79   2.0000      -6.034244      -164.2001
  80   2.0000      -6.031812      -164.1339
  81   2.0000      -6.030770      -164.1056
  82   2.0000      -6.027495      -164.0165
  83   2.0000      -6.023992      -163.9211
  84   2.0000      -5.990087      -162.9985
  85   2.0000      -5.989174      -162.9737
  86   2.0000      -5.984733      -162.8529
  87   2.0000      -5.984359      -162.8427
  88   2.0000      -5.979766      -162.7177
  89   2.0000      -5.975592      -162.6041
  90   2.0000      -1.338660       -36.4268
  91   2.0000      -1.157447       -31.4957
  92   2.0000      -1.144608       -31.1464
  93   2.0000      -1.136821       -30.9345
  94   2.0000      -1.101440       -29.9717
  95   2.0000      -1.099846       -29.9283
  96   2.0000      -1.082121       -29.4460
  97   2.0000      -1.079985       -29.3879
  98   2.0000      -1.031750       -28.0753
  99   2.0000      -1.031548       -28.0698
 100   2.0000      -1.023991       -27.8642
 101   2.0000      -1.017381       -27.6843
 102   2.0000      -1.010003       -27.4836
 103   2.0000      -1.007137       -27.4056
 104   2.0000      -0.998366       -27.1669
 105   2.0000      -0.994236       -27.0545
 106   2.0000      -0.988647       -26.9024
 107   2.0000      -0.981801       -26.7162
 108   2.0000      -0.980762       -26.6879
 109   2.0000      -0.942703       -25.6523
 110   2.0000      -0.937643       -25.5146
 111   2.0000      -0.935839       -25.4655
 112   2.0000      -0.926373       -25.2079
 113   2.0000      -0.921455       -25.0741
 114   2.0000      -0.916496       -24.9391
 115   2.0000      -0.898889       -24.4600
 116   2.0000      -0.890633       -24.2354
 117   2.0000      -0.889818       -24.2132
 118   2.0000      -0.889088       -24.1933
 119   2.0000      -0.882777       -24.0216
 120   2.0000      -0.873398       -23.7664
 121   2.0000      -0.870209       -23.6796
 122   2.0000      -0.850133       -23.1333
 123   2.0000      -0.841873       -22.9085
 124   2.0000      -0.838221       -22.8092
 125   2.0000      -0.830522       -22.5996
 126   2.0000      -0.823644       -22.4125
 127   2.0000      -0.808153       -21.9910
 128   2.0000      -0.804026       -21.8787
 129   2.0000      -0.789617       -21.4866
 130   2.0000      -0.783987       -21.3334
 131   2.0000      -0.775256       -21.0958
 132   2.0000      -0.765573       -20.8323
 133   2.0000      -0.759801       -20.6752
 134   2.0000      -0.759167       -20.6580
 135   2.0000      -0.751000       -20.4357
 136   2.0000      -0.728930       -19.8352
 137   2.0000      -0.721982       -19.6461
 138   2.0000      -0.716230       -19.4896
 139   2.0000      -0.714424       -19.4405
 140   2.0000      -0.711225       -19.3534
 141   2.0000      -0.699558       -19.0359
 142   2.0000      -0.692917       -18.8552
 143   2.0000      -0.691481       -18.8162
 144   2.0000      -0.685846       -18.6628
 145   2.0000      -0.681825       -18.5534
 146   2.0000      -0.670364       -18.2415
 147   2.0000      -0.665018       -18.0960
 148   2.0000      -0.664296       -18.0764
 149   2.0000      -0.659612       -17.9490
 150   2.0000      -0.653319       -17.7777
 151   2.0000      -0.645522       -17.5655
 152   2.0000      -0.638285       -17.3686
 153   2.0000      -0.637568       -17.3491
 154   2.0000      -0.628933       -17.1141
 155   2.0000      -0.622014       -16.9259
 156   2.0000      -0.614981       -16.7345
 157   2.0000      -0.612375       -16.6636
 158   2.0000      -0.610779       -16.6201
 159   2.0000      -0.607324       -16.5261
 160   2.0000      -0.598860       -16.2958
 161   2.0000      -0.595676       -16.2092
 162   2.0000      -0.593691       -16.1552
 163   2.0000      -0.591758       -16.1026
 164   2.0000      -0.586227       -15.9520
 165   2.0000      -0.580212       -15.7884
 166   2.0000      -0.572419       -15.5763
 167   2.0000      -0.565657       -15.3923
 168   2.0000      -0.563935       -15.3455
 169   2.0000      -0.561401       -15.2765
 170   2.0000      -0.560119       -15.2416
 171   2.0000      -0.554706       -15.0943
 172   2.0000      -0.550699       -14.9853
 173   2.0000      -0.549215       -14.9449
 174   2.0000      -0.547173       -14.8893
 175   2.0000      -0.541035       -14.7223
 176   2.0000      -0.540808       -14.7161
 177   2.0000      -0.539046       -14.6682
 178   2.0000      -0.536238       -14.5918
 179   2.0000      -0.532542       -14.4912
 180   2.0000      -0.528448       -14.3798
 181   2.0000      -0.526309       -14.3216
 182   2.0000      -0.521507       -14.1909
 183   2.0000      -0.519274       -14.1302
 184   2.0000      -0.516137       -14.0448
 185   2.0000      -0.513100       -13.9622
 186   2.0000      -0.510027       -13.8785
 187   2.0000      -0.506485       -13.7821
 188   2.0000      -0.505519       -13.7559
 189   2.0000      -0.504085       -13.7169
 190   2.0000      -0.502026       -13.6608
 191   2.0000      -0.500940       -13.6313
 192   2.0000      -0.499790       -13.6000
 193   2.0000      -0.497561       -13.5393
 194   2.0000      -0.496206       -13.5025
 195   2.0000      -0.493964       -13.4414
 196   2.0000      -0.490091       -13.3361
 197   2.0000      -0.489234       -13.3127
 198   2.0000      -0.488333       -13.2882
 199   2.0000      -0.474603       -12.9146
 200   2.0000      -0.473194       -12.8763
 201   2.0000      -0.465179       -12.6582
 202   2.0000      -0.464317       -12.6347
 203   2.0000      -0.461967       -12.5708
 204   2.0000      -0.459463       -12.5026
 205   2.0000      -0.458491       -12.4762
 206   2.0000      -0.455059       -12.3828
 207   2.0000      -0.453264       -12.3339
 208   2.0000      -0.451340       -12.2816
 209   2.0000      -0.450949       -12.2709
 210   2.0000      -0.447953       -12.1894
 211   2.0000      -0.445878       -12.1330
 212   2.0000      -0.442703       -12.0466
 213   2.0000      -0.440245       -11.9797
 214   2.0000      -0.436277       -11.8717
 215   2.0000      -0.433788       -11.8040
 216   2.0000      -0.432406       -11.7664
 217   2.0000      -0.428920       -11.6715
 218   2.0000      -0.426518       -11.6061
 219   2.0000      -0.425257       -11.5718
 220   2.0000      -0.423103       -11.5132
 221   2.0000      -0.416756       -11.3405
 222   2.0000      -0.415637       -11.3101
 223   2.0000      -0.409737       -11.1495
 224   2.0000      -0.409596       -11.1457
 225   2.0000      -0.400365       -10.8945
 226   2.0000      -0.394298       -10.7294
 227   2.0000      -0.388773       -10.5791
 228   2.0000      -0.386791       -10.5251
 229   2.0000      -0.384424       -10.4607
 230   2.0000      -0.375455       -10.2167
 231   2.0000      -0.371514       -10.1094
 232   2.0000      -0.370889       -10.0924
 233   2.0000      -0.369740       -10.0611
 234   2.0000      -0.368001       -10.0138
 235   2.0000      -0.363189        -9.8829
 236   2.0000      -0.362577        -9.8662
 237   2.0000      -0.350226        -9.5301
 238   2.0000      -0.347263        -9.4495
 239   2.0000      -0.339620        -9.2415
 240   2.0000      -0.334735        -9.1086
 241   2.0000      -0.332144        -9.0381
 242   2.0000      -0.326036        -8.8719
 243   2.0000      -0.319196        -8.6858
 244   2.0000      -0.317447        -8.6382
 245   2.0000      -0.312286        -8.4977
 246   2.0000      -0.309114        -8.4114
 247   2.0000      -0.299136        -8.1399
 248   2.0000      -0.295871        -8.0511
 249   2.0000      -0.293385        -7.9834
 250   2.0000      -0.286062        -7.7841
 251   0.0000      -0.133768        -3.6400
 252   0.0000      -0.125642        -3.4189
 253   0.0000      -0.108700        -2.9579
 254   0.0000      -0.098635        -2.6840
 255   0.0000      -0.087716        -2.3869

MULLIKEN ATOMIC CHARGES
-----------------------
   0 C :    0.283451
   1 C :   -0.341083
   2 C :   -0.185236
   3 N :    0.159584
   4 C :   -0.186104
   5 N :    0.157995
   6 C :    0.031951
   7 C :    0.027893
   8 C :   -0.066370
   9 C :    0.098466
  10 C :   -0.087586
  11 C :   -0.031938
  12 S :    0.137459
  13 C :   -0.051511
  14 C :    0.041265
  15 C :    0.087604
  16 O :   -0.144745
  17 C :   -0.038745
  18 C :   -0.031024
  19 C :   -0.008347
  20 C :    0.080642
  21 N :   -0.032099
  22 C :    0.018717
  23 C :    0.032018
  24 C :   -0.006088
  25 S :   -0.097839
  26 C :   -0.016356
  27 C :    0.022717
  28 N :   -0.022991
  29 C :    0.054391
  30 C :    0.047001
  31 C :   -0.080900
  32 S :    0.188317
  33 C :   -0.181439
  34 C :    0.223707
  35 C :   -0.007843
  36 N :    0.270104
  37 O :   -0.227482
  38 O :   -0.239776
  39 C :   -0.020229
  40 C :    0.061522
  41 N :   -0.018284
  42 C :    0.027245
  43 C :    0.035753
  44 C :   -0.015913
  45 S :   -0.078861
  46 C :   -0.008107
  47 C :    0.018011
  48 N :   -0.015293
  49 C :    0.076740
  50 C :    0.029048
  51 C :   -0.030742
  52 C :   -0.083318
  53 C :    0.331571
  54 C :   -0.374242
  55 C :   -0.169560
  56 N :    0.164265
  57 C :   -0.201450
  58 N :    0.168473
  59 C :    0.016677
  60 C :    0.003367
  61 C :    0.129071
  62 O :   -0.134432
  63 C :   -0.066412
  64 C :    0.110608
  65 C :   -0.092108
  66 C :   -0.034490
  67 S :    0.145902
  68 C :   -0.050038
  69 C :    0.025958
  70 H :   -0.003269
  71 H :   -0.003333
  72 H :    0.039214
  73 H :    0.003459
  74 H :    0.030229
  75 H :    0.021159
  76 H :    0.019652
  77 H :   -0.018024
  78 H :    0.012157
  79 H :    0.019300
  80 H :    0.026486
  81 H :   -0.008597
  82 H :   -0.003860
  83 H :    0.041828
  84 H :   -0.004915
Sum of atomic charges:   -0.0000000

LOEWDIN ATOMIC CHARGES
----------------------
   0 C :    0.078154
   1 C :   -0.134890
   2 C :   -0.019696
   3 N :   -0.046306
   4 C :   -0.019380
   5 N :   -0.049008
   6 C :   -0.020616
   7 C :   -0.054475
   8 C :    0.023602
   9 C :   -0.029761
  10 C :   -0.143515
  11 C :   -0.008211
  12 S :    0.427538
  13 C :   -0.147016
  14 C :   -0.048134
  15 C :    0.070179
  16 O :   -0.141351
  17 C :   -0.047478
  18 C :    0.045058
  19 C :   -0.043475
  20 C :    0.102619
  21 N :   -0.078877
  22 C :    0.049235
  23 C :   -0.003565
  24 C :   -0.133958
  25 S :    0.113045
  26 C :   -0.022499
  27 C :    0.046242
  28 N :   -0.069542
  29 C :    0.085395
  30 C :   -0.055458
  31 C :   -0.165248
  32 S :    0.482436
  33 C :   -0.143562
  34 C :   -0.057507
  35 C :   -0.011754
  36 N :    0.289719
  37 O :   -0.192442
  38 O :   -0.201650
  39 C :   -0.068103
  40 C :    0.086353
  41 N :   -0.071720
  42 C :    0.042508
  43 C :   -0.004174
  44 C :   -0.146689
  45 S :    0.129285
  46 C :    0.006954
  47 C :    0.051734
  48 N :   -0.066620
  49 C :    0.103650
  50 C :   -0.050240
  51 C :    0.044183
  52 C :   -0.053908
  53 C :    0.056955
  54 C :   -0.135607
  55 C :   -0.027764
  56 N :   -0.041631
  57 C :   -0.015426
  58 N :   -0.047030
  59 C :   -0.016415
  60 C :   -0.061080
  61 C :    0.087853
  62 O :   -0.130777
  63 C :    0.029528
  64 C :   -0.037386
  65 C :   -0.142771
  66 C :   -0.012684
  67 S :    0.435095
  68 C :   -0.148932
  69 C :   -0.056446
  70 H :    0.040828
  71 H :    0.041122
  72 H :    0.029817
  73 H :    0.037432
  74 H :    0.047525
  75 H :    0.031987
  76 H :    0.025961
  77 H :    0.026710
  78 H :    0.025805
  79 H :    0.031283
  80 H :    0.049965
  81 H :    0.041715
  82 H :    0.040780
  83 H :    0.030482
  84 H :    0.036038

  Mayer bond orders larger than 0.100000
B(  0-C ,  1-C ) :   1.6612 B(  0-C ,  6-C ) :   1.0278 B(  0-C , 17-C ) :   1.0337
B(  1-C ,  2-C ) :   1.1338 B(  1-C ,  4-C ) :   1.1415 B(  2-C ,  3-N ) :   2.9864
B(  4-C ,  5-N ) :   2.9907 B(  6-C ,  7-C ) :   1.2549 B(  6-C , 11-C ) :   1.4028
B(  7-C ,  8-C ) :   1.3865 B(  7-C , 15-C ) :   0.9274 B(  8-C ,  9-C ) :   1.2681
B(  8-C , 70-H ) :   1.0182 B(  9-C , 10-C ) :   1.2834 B(  9-C , 14-C ) :   1.1841
B( 10-C , 11-C ) :   1.3303 B( 10-C , 12-S ) :   1.1010 B( 11-C , 71-H ) :   0.9862
B( 12-S , 13-C ) :   1.1198 B( 13-C , 14-C ) :   1.6236 B( 13-C , 72-H ) :   0.9681
B( 14-C , 73-H ) :   0.9932 B( 15-C , 16-O ) :   2.2415 B( 15-C , 17-C ) :   0.8946
B( 17-C , 18-C ) :   1.7428 B( 18-C , 19-C ) :   1.0503 B( 18-C , 74-H ) :   0.9360
B( 19-C , 20-C ) :   1.0200 B( 19-C , 23-C ) :   1.5738 B( 20-C , 21-N ) :   1.7136
B( 20-C , 75-H ) :   0.9944 B( 21-N , 22-C ) :   1.2699 B( 22-C , 23-C ) :   1.0603
B( 22-C , 27-C ) :   1.5182 B( 23-C , 24-C ) :   1.0121 B( 24-C , 25-S ) :   1.6700
B( 24-C , 26-C ) :   1.0394 B( 26-C , 27-C ) :   1.0598 B( 26-C , 30-C ) :   1.5623
B( 27-C , 28-N ) :   1.2633 B( 28-N , 29-C ) :   1.7373 B( 29-C , 30-C ) :   1.0268
B( 29-C , 76-H ) :   0.9880 B( 30-C , 31-C ) :   1.0801 B( 31-C , 32-S ) :   1.0985
B( 31-C , 33-C ) :   0.1038 B( 31-C , 35-C ) :   1.4821 B( 32-S , 33-C ) :   1.1888
B( 33-C , 34-C ) :   1.4878 B( 33-C , 39-C ) :   1.0336 B( 34-C , 35-C ) :   1.2618
B( 34-C , 36-N ) :   0.9041 B( 35-C , 77-H ) :   0.9888 B( 36-N , 37-O ) :   1.5380
B( 36-N , 38-O ) :   1.5204 B( 37-O , 38-O ) :   0.2662 B( 39-C , 40-C ) :   1.0268
B( 39-C , 43-C ) :   1.6007 B( 40-C , 41-N ) :   1.7412 B( 40-C , 78-H ) :   0.9923
B( 41-N , 42-C ) :   1.2630 B( 42-C , 43-C ) :   1.0597 B( 42-C , 47-C ) :   1.5170
B( 43-C , 44-C ) :   1.0142 B( 44-C , 45-S ) :   1.6442 B( 44-C , 46-C ) :   1.0705
B( 45-S , 54-C ) :   0.1607 B( 46-C , 47-C ) :   1.0470 B( 46-C , 50-C ) :   1.4426
B( 47-C , 48-N ) :   1.2805 B( 48-N , 49-C ) :   1.7188 B( 49-C , 50-C ) :   1.0153
B( 49-C , 79-H ) :   0.9925 B( 50-C , 51-C ) :   1.1162 B( 51-C , 52-C ) :   1.6452
B( 51-C , 80-H ) :   0.9276 B( 52-C , 53-C ) :   1.0974 B( 52-C , 61-C ) :   0.9140
B( 53-C , 54-C ) :   1.5393 B( 53-C , 59-C ) :   1.0237 B( 54-C , 55-C ) :   1.1108
B( 54-C , 57-C ) :   1.1804 B( 55-C , 56-N ) :   2.9938 B( 57-C , 58-N ) :   2.9872
B( 59-C , 60-C ) :   1.2570 B( 59-C , 66-C ) :   1.4214 B( 60-C , 61-C ) :   0.9329
B( 60-C , 63-C ) :   1.4248 B( 61-C , 62-O ) :   2.2595 B( 63-C , 64-C ) :   1.2517
B( 63-C , 81-H ) :   1.0159 B( 64-C , 65-C ) :   1.2994 B( 64-C , 69-C ) :   1.1731
B( 65-C , 66-C ) :   1.3158 B( 65-C , 67-S ) :   1.1052 B( 66-C , 82-H ) :   0.9841
B( 67-S , 68-C ) :   1.1265 B( 68-C , 69-C ) :   1.6298 B( 68-C , 83-H ) :   0.9681
B( 69-C , 84-H ) :   0.9995

-----------------------------------------------------------------------------
         ABSORPTION SPECTRUM VIA TRANSITION ELECTRIC DIPOLE MOMENTS
-----------------------------------------------------------------------------
State   Energy  Wavelength   fosc         T2         TX        TY        TZ
        (cm-1)    (nm)                  (au**2)     (au)      (au)      (au)
-----------------------------------------------------------------------------
   0   13408.1    745.8   0.006409967   0.15739  -0.13742   0.04320   0.36964
   1   16438.0    608.3   0.006969486   0.13958  -0.08042   0.10050  -0.35073
   2   16495.2    606.2   0.018548767   0.37020  -0.09521   0.56145  -0.21425
   3   17650.8    566.5   0.134905470   2.51618   0.20759  -0.45366   1.50575
   4   17816.6    561.3   0.049233594   0.90973  -0.17305  -0.49963   0.79382
   5   18252.1    547.9   0.054744415   0.98742  -0.04836   0.75848  -0.64015
   6   19774.6    505.7   0.010960203   0.18247  -0.32371  -0.26662  -0.08119
   7   20737.5    482.2   0.035313351   0.56061  -0.01765   0.06196  -0.74596
   8   21736.6    460.1   0.058432375   0.88499  -0.23992   0.19681  -0.88808
   9   21950.2    455.6   0.291499581   4.37195   0.31355  -1.49594   1.42682
  10   22629.3    441.9   0.222620053   3.23869  -0.16780   0.25754  -1.77319
  11   23089.0    433.1   0.015993557   0.22804   0.15338   0.40290   0.20539
  12   23814.9    419.9   0.044920110   0.62096   0.18244   0.69692  -0.31935
  13   23951.6    417.5   0.023443475   0.32223  -0.23656   0.05879  -0.51265
  14   24106.0    414.8   0.023747668   0.32432  -0.32854  -0.39282  -0.24915
  15   24167.1    413.8   0.021356129   0.29092   0.31370   0.43202   0.07665
  16   24362.5    410.5   0.032465433   0.43871  -0.02521   0.64652   0.14170
  17   24517.3    407.9   0.071854946   0.96485  -0.43720  -0.57150  -0.66865
  18   24992.5    400.1   0.008002871   0.10542  -0.19903   0.05167  -0.25127
  19   25130.6    397.9   0.009829752   0.12877  -0.23708  -0.15973  -0.21691
  20   25400.2    393.7   0.003974193   0.05151   0.00130  -0.18883   0.12591
  21   25538.1    391.6   0.049816510   0.64219   0.04780  -0.56035   0.57088
  22   26021.8    384.3   0.025653121   0.32455   0.03040   0.12084   0.55590
  23   26080.9    383.4   0.008324713   0.10508  -0.25563  -0.13285   0.14862
  24   26233.1    381.2   0.022251790   0.27925  -0.14907   0.44378   0.24513
  25   26602.3    375.9   0.025877722   0.32024  -0.25369  -0.49619   0.09840
  26   26980.7    370.6   0.120767982   1.47358  -0.53905   0.18741  -1.07140
  27   27270.2    366.7   0.128259904   1.54838   0.04407   1.22397   0.21983
  28   27751.0    360.3   0.026788206   0.31779   0.40166   0.28436   0.27495
  29   27899.1    358.4   0.058001549   0.68442   0.08470   0.80990   0.14597
  30   28234.6    354.2   0.009987687   0.11646  -0.05796   0.21639  -0.25743
  31   28251.3    354.0   0.017133383   0.19965  -0.16554  -0.24993  -0.33134
  32   28281.2    353.6   0.017635740   0.20529  -0.27298  -0.31559  -0.17657
  33   28715.7    348.2   0.335063762   3.84135  -0.38844  -1.90954  -0.21009
  34   28926.2    345.7   0.195654598   2.22676  -1.27045  -0.72909  -0.28485
  35   29117.3    343.4   0.040502554   0.45794  -0.06694  -0.67334   0.00859
  36   29428.0    339.8   0.493447970   5.52022  -0.06227  -2.15897  -0.92477
  37   29612.9    337.7   0.269665931   2.99792  -0.83593   0.00322   1.51629
  38   29706.2    336.6   0.102920607   1.14059   0.40608   0.79463  -0.58673
  39   29851.6    335.0   0.037294033   0.41129  -0.34918  -0.31517   0.43592
  40   30212.3    331.0   0.134496159   1.46555  -0.06008  -0.34392  -1.15916
  41   30305.4    330.0   0.037246429   0.40461   0.40281   0.28063  -0.40448
  42   30414.5    328.8   0.007621700   0.08250  -0.05462   0.23172   0.16069
  43   30613.8    326.7   0.029241114   0.31445   0.25843  -0.16678  -0.46888
  44   30856.4    324.1   0.100560262   1.07289   0.90417   0.48221  -0.15114
  45   30981.6    322.8   0.019968318   0.21218   0.42783   0.15675  -0.06767
  46   31087.6    321.7   0.025722184   0.27239  -0.34567   0.38854  -0.04405
  47   31340.0    319.1   0.061634218   0.64744  -0.55652  -0.58112   0.00441
  48   31615.5    316.3   0.047551312   0.49515   0.66887  -0.09545   0.19661
  49   31737.7    315.1   0.033285229   0.34526   0.49467   0.02425  -0.31619
  50   31976.5    312.7   0.051175910   0.52688   0.02869   0.72529   0.00163
  51   32151.8    311.0   0.120813635   1.23705   0.17979   0.06421   1.09572
  52   32236.2    310.2   0.018591318   0.18986   0.18927   0.14157  -0.36605
  53   32382.9    308.8   0.099167125   1.00816   0.68300   0.13424   0.72364
  54   32772.1    305.1   0.001915050   0.01924  -0.12181  -0.05747  -0.03313
  55   32945.1    303.5   0.042525489   0.42495  -0.31107  -0.57287  -0.00216
  56   33022.2    302.8   0.118502005   1.18140   0.57518   0.91578   0.10911
  57   33369.1    299.7   0.053366313   0.52650  -0.23095  -0.68563   0.05549
  58   33444.1    299.0   0.161689837   1.59162   0.31205  -0.10720   1.21768
  59   33497.1    298.5   0.013829024   0.13591   0.30298  -0.04281  -0.20563
  60   33742.2    296.4   0.045085244   0.43988   0.56309   0.32662   0.12701
  61   33931.0    294.7   0.020910665   0.20288   0.30047   0.32828  -0.06955
  62   34147.9    292.8   0.106305013   1.02486  -0.84191  -0.35894  -0.43267
  63   34414.7    290.6   0.077564012   0.74198  -0.48669  -0.20129  -0.68161
  64   34529.5    289.6   0.001396904   0.01332   0.06423  -0.02703   0.09199
  65   34652.9    288.6   0.046331521   0.44016  -0.50159  -0.30638   0.30773
  66   34828.6    287.1   0.005743635   0.05429  -0.01333  -0.20092  -0.11724
  67   34846.4    287.0   0.011233416   0.10613   0.20667   0.21834   0.12547
  68   34908.7    286.5   0.018825093   0.17753  -0.09162  -0.09835  -0.39933
  69   34967.3    286.0   0.014073265   0.13250   0.13036   0.25329   0.22660
  70   35051.6    285.3   0.008357379   0.07849  -0.16843  -0.15353  -0.16296
  71   35201.0    284.1   0.003907521   0.03654   0.11686  -0.12038  -0.09163
  72   35247.2    283.7   0.053165341   0.49657   0.53174   0.24256  -0.39368
  73   35292.5    283.3   0.005254176   0.04901  -0.14151  -0.12258   0.11815
  74   35466.5    282.0   0.026324259   0.24435  -0.32073   0.36582   0.08749
  75   35592.9    281.0   0.040082016   0.37073  -0.27903   0.46738   0.27283
  76   35758.1    279.7   0.037776850   0.34780   0.15165   0.25698  -0.50869
  77   35988.8    277.9   0.067066127   0.61350   0.49889  -0.07070   0.59967
  78   36039.1    277.5   0.008615101   0.07870   0.18999   0.17688  -0.10638
  79   36079.7    277.2   0.067103034   0.61229   0.12208   0.54430  -0.54874
  80   36155.3    276.6   0.008977140   0.08174  -0.00513   0.17304  -0.22754
  81   36202.0    276.2   0.133107901   1.21045  -0.09296  -0.51978   0.96521
  82   36303.6    275.5   0.049173898   0.44592  -0.06797   0.19108   0.63623
  83   36642.4    272.9   0.196967649   1.76964   0.07804  -0.39221   1.26875
  84   36649.9    272.9   0.043648226   0.39208  -0.14828   0.47463   0.38055
  85   36763.1    272.0   0.008539006   0.07647   0.00576  -0.06187   0.26945
  86   36886.1    271.1   0.076662423   0.68422   0.65437   0.48592  -0.14109
  87   37020.1    270.1   0.036474429   0.32436   0.28017   0.49268   0.05593
  88   37384.0    267.5   0.026489434   0.23327  -0.02802   0.02586   0.48148
  89   37435.7    267.1   0.037177493   0.32694  -0.14000  -0.51120   0.21451
  90   37522.4    266.5   0.006283528   0.05513  -0.09571  -0.09453  -0.19244
  91   37684.1    265.4   0.021520616   0.18801   0.23820   0.03420  -0.36069
  92   37870.0    264.1   0.147041889   1.27827  -0.61115  -0.94788   0.07920
  93   37943.4    263.6   0.018791602   0.16304   0.02168   0.32375  -0.24033
  94   38466.2    260.0   0.014997850   0.12836   0.16103  -0.07738  -0.31055
  95   38600.5    259.1   0.126852041   1.08188   0.65084   0.80848   0.06818
  96   38724.4    258.2   0.091455997   0.77751   0.01584  -0.74234  -0.47559
  97   38814.3    257.6   0.044034289   0.37349  -0.25413  -0.45042   0.32562
  98   39172.3    255.3   0.024791322   0.20835  -0.40667  -0.05737   0.19919
  99   39235.0    254.9   0.096301848   0.80805   0.02668  -0.23188  -0.86808
 100   39426.5    253.6   0.000963847   0.00805  -0.07898   0.01107  -0.04107
 101   39541.8    252.9   0.044395944   0.36963  -0.27467  -0.20486   0.50221
 102   39689.0    252.0   0.067458575   0.55955  -0.09981   0.04703   0.73985
 103   39769.9    251.4   0.003138040   0.02598   0.10194   0.10447  -0.06833
 104   39960.4    250.2   0.007719894   0.06360  -0.03914  -0.12226   0.21708
 105   40057.1    249.6   0.020309512   0.16691  -0.33522  -0.20242   0.11649
 106   40178.4    248.9   0.038703886   0.31713  -0.38174   0.01855   0.41360
 107   40226.8    248.6   0.025232832   0.20650  -0.36792  -0.26633   0.01445

FINAL SINGLE POINT ENERGY     -4770.718145126089

DIPOLE MOMENT
-------------
                                X             Y             Z
Electronic contribution:      5.36734      15.08008      -1.80018
Nuclear contribution   :     -5.91932     -16.81178       3.66573
                        -----------------------------------------
Total Dipole Moment    :     -0.55198      -1.73170       1.86555
                        -----------------------------------------
Magnitude (a.u.)       :      2.60456
Magnitude (Debye)      :      6.62027

Rotational constants in cm-1:     0.001260     0.000584     0.000480
Rotational constants in MHz :    37.774821    17.509418    14.378998

                             ****ORCA TERMINATED NORMALLY****
TOTAL RUN TIME: 0 days 0 hours 9 minutes 42 seconds 300 msec
