                         Program Version 4.2.0 -  RELEASE  -
|  1> # ORCA input file
|  2> # SCF done       -183.316458390021          0.000750994318
|  3> ! CAM-B3LYP def2-SVP def2/J RIJCOSX Grid4 TightSCF
|  4> %maxcore 5000
|  5> %tddft
|  6>     Mode sTDDFT
|  7>     Ethresh 5.0
|  8>     maxcore 5000
|  9> end
| 10>
| 11> %pal
| 12>   nprocs 6
| 13>   end
| 14> * xyz 0 1
| 15>    C      -11.92559         5.40813         8.07938
| 16>    C      -13.23905         5.80395         7.88001
| 17>    C      -13.85034         5.65975         6.64122
| 18>    C      -13.16415         5.12326         5.56163
| 19>    C      -11.84999         4.72630         5.74554
| 20>    C      -11.22946         4.86210         7.01111
| 21>    C       -9.87435         4.34615         6.92662
| 22>    C       -8.88332         4.46181         7.86121
| 23>    C       -9.05100         5.10196         9.10982
| 24>    N       -9.12845         5.60879        10.13555
| 25>    C       -7.55661         4.00910         7.68663
| 26>    N       -6.46340         3.66850         7.59700
| 27>    C       -9.75805         3.70136         5.61542
| 28>    C      -10.88374         4.17159         4.80818
| 29>    C      -10.92147         4.27125         3.45009
| 30>    C       -9.81373         4.00978         2.61064
| 31>    N       -8.91653         3.94314         1.89858
| 32>    C      -12.02443         4.79182         2.73725
| 33>    N      -12.89703         5.21151         2.12307
| 34>    C       -8.85883         2.71848         5.35501
| 35>    C       -8.80660         1.82624         4.24964
| 36>    N       -9.80621         1.63896         3.40585
| 37>    C       -9.39347         0.67257         2.55546
| 38>    C       -8.04297         0.21046         2.88538
| 39>    C       -7.60918        -0.82723         1.93607
| 40>    O       -6.56987        -1.44812         1.91744
| 41>    C       -8.76430        -0.92930         1.01905
| 42>    C       -9.83783        -0.00330         1.44621
| 43>    N      -10.90433        -0.08799         0.61369
| 44>    C      -10.56438        -0.97411        -0.28754
| 45>    C       -9.23598        -1.53750        -0.09587
| 46>    C       -7.64243         0.94731         3.97658
| 47>    C       -6.43424         0.96357         4.71596
| 48>    C       -5.40916         0.08941         4.51827
| 49>    C       -4.21219         0.07426         5.27925
| 50>    C       -3.80600         1.03790         6.15806
| 51>    C       -2.63277         0.92535         6.93139
| 52>    C       -2.18661         1.92002         7.75669
| 53>    C       -1.05322         1.84728         8.59683
| 54>    C       -0.38741         0.70361         8.94122
| 55>    C        0.71629         0.71727         9.81805
| 56>    N        1.26953         1.84964        10.25497
| 57>    C        2.26640         1.48632        11.06934
| 58>    C        2.37876         0.02048        11.17094
| 59>    C        3.45566        -0.35027        12.10652
| 60>    O        3.82386        -1.46362        12.42803
| 61>    C        3.96430         0.95189        12.54841
| 62>    C        3.22294         2.04770        11.88966
| 63>    N        3.68105         3.24873        12.30201
| 64>    C        4.63630         2.97602        13.16440
| 65>    C        4.86039         1.56426        13.36935
| 66>    C        1.38158        -0.48820        10.37533
| 67>    C        0.97777        -1.83431        10.16785
| 68>    C        1.59112        -2.87674        10.78255
| 69>    C        1.14723        -4.21506        10.66173
| 70>    C        1.53099        -5.23516        11.48260
| 71>    C        1.37825        -6.65708        11.19596
| 72>    C        0.51058        -7.22688        10.30395
| 73>    C       -0.43548        -6.51781         9.53372
| 74>    N       -1.23210        -6.00234         8.88690
| 75>    C        0.41590        -8.61480        10.06629
| 76>    N        0.28853        -9.72932         9.82399
| 77>    C        2.32865        -7.35720        12.04805
| 78>    C        2.92726        -6.42759        12.93040
| 79>    C        3.89134        -6.83630        13.83679
| 80>    C        4.25086        -8.17548        13.86186
| 81>    C        3.65595        -9.09149        13.00526
| 82>    C        2.69155        -8.69465        12.09156
| 83>    C        2.32248        -5.12329        12.70534
| 84>    C        2.30571        -4.08179        13.59033
| 85>    C        3.06885        -4.04997        14.77786
| 86>    N        3.66669        -3.97678        15.75409
| 87>    C        1.42192        -2.98149        13.51245
| 88>    N        0.66901        -2.11651        13.55349
| 89>    H      -11.46657         5.51725         9.04858
| 90>    H      -13.79443         6.22545         8.70359
| 91>    H      -14.87665         5.96816         6.51449
| 92>    H      -13.65224         5.00886         4.60753
| 93>    H       -8.12157         2.51917         6.11936
| 94>    H      -11.24499        -1.23289        -1.07992
| 95>    H       -8.77574        -2.27300        -0.72538
| 96>    H       -6.34684         1.70945         5.49335
| 97>    H       -5.51737        -0.67150         3.75637
| 98>    H       -3.56745        -0.78352         5.13347
| 99>    H       -4.38930         1.93877         6.28981
|100>    H       -2.06953         0.00599         6.84237
|101>    H       -2.73441         2.85371         7.76251
|102>    H       -0.69989         2.76424         9.04916
|103>    H       -0.72490        -0.25617         8.57909
|104>    H        5.17416         3.77404        13.64605
|105>    H        5.58505         1.13473        14.03231
|106>    H        0.10172        -2.01656         9.55963
|107>    H        2.46442        -2.67929        11.38897
|108>    H        0.50086        -4.44111         9.82420
|109>    H        4.36439        -6.13223        14.50180
|110>    H        5.00507        -8.50787        14.55862
|111>    H        3.94946       -10.12928        13.04568
|112>    H        2.24375        -9.41767        11.42957
|113> *
|114>
|115>                          ****END OF INPUT****

CARTESIAN COORDINATES (ANGSTROEM)
---------------------------------
  C    -11.925590    5.408130    8.079380
  C    -13.239050    5.803950    7.880010
  C    -13.850340    5.659750    6.641220
  C    -13.164150    5.123260    5.561630
  C    -11.849990    4.726300    5.745540
  C    -11.229460    4.862100    7.011110
  C     -9.874350    4.346150    6.926620
  C     -8.883320    4.461810    7.861210
  C     -9.051000    5.101960    9.109820
  N     -9.128450    5.608790   10.135550
  C     -7.556610    4.009100    7.686630
  N     -6.463400    3.668500    7.597000
  C     -9.758050    3.701360    5.615420
  C    -10.883740    4.171590    4.808180
  C    -10.921470    4.271250    3.450090
  C     -9.813730    4.009780    2.610640
  N     -8.916530    3.943140    1.898580
  C    -12.024430    4.791820    2.737250
  N    -12.897030    5.211510    2.123070
  C     -8.858830    2.718480    5.355010
  C     -8.806600    1.826240    4.249640
  N     -9.806210    1.638960    3.405850
  C     -9.393470    0.672570    2.555460
  C     -8.042970    0.210460    2.885380
  C     -7.609180   -0.827230    1.936070
  O     -6.569870   -1.448120    1.917440
  C     -8.764300   -0.929300    1.019050
  C     -9.837830   -0.003300    1.446210
  N    -10.904330   -0.087990    0.613690
  C    -10.564380   -0.974110   -0.287540
  C     -9.235980   -1.537500   -0.095870
  C     -7.642430    0.947310    3.976580
  C     -6.434240    0.963570    4.715960
  C     -5.409160    0.089410    4.518270
  C     -4.212190    0.074260    5.279250
  C     -3.806000    1.037900    6.158060
  C     -2.632770    0.925350    6.931390
  C     -2.186610    1.920020    7.756690
  C     -1.053220    1.847280    8.596830
  C     -0.387410    0.703610    8.941220
  C      0.716290    0.717270    9.818050
  N      1.269530    1.849640   10.254970
  C      2.266400    1.486320   11.069340
  C      2.378760    0.020480   11.170940
  C      3.455660   -0.350270   12.106520
  O      3.823860   -1.463620   12.428030
  C      3.964300    0.951890   12.548410
  C      3.222940    2.047700   11.889660
  N      3.681050    3.248730   12.302010
  C      4.636300    2.976020   13.164400
  C      4.860390    1.564260   13.369350
  C      1.381580   -0.488200   10.375330
  C      0.977770   -1.834310   10.167850
  C      1.591120   -2.876740   10.782550
  C      1.147230   -4.215060   10.661730
  C      1.530990   -5.235160   11.482600
  C      1.378250   -6.657080   11.195960
  C      0.510580   -7.226880   10.303950
  C     -0.435480   -6.517810    9.533720
  N     -1.232100   -6.002340    8.886900
  C      0.415900   -8.614800   10.066290
  N      0.288530   -9.729320    9.823990
  C      2.328650   -7.357200   12.048050
  C      2.927260   -6.427590   12.930400
  C      3.891340   -6.836300   13.836790
  C      4.250860   -8.175480   13.861860
  C      3.655950   -9.091490   13.005260
  C      2.691550   -8.694650   12.091560
  C      2.322480   -5.123290   12.705340
  C      2.305710   -4.081790   13.590330
  C      3.068850   -4.049970   14.777860
  N      3.666690   -3.976780   15.754090
  C      1.421920   -2.981490   13.512450
  N      0.669010   -2.116510   13.553490
  H    -11.466570    5.517250    9.048580
  H    -13.794430    6.225450    8.703590
  H    -14.876650    5.968160    6.514490
  H    -13.652240    5.008860    4.607530
  H     -8.121570    2.519170    6.119360
  H    -11.244990   -1.232890   -1.079920
  H     -8.775740   -2.273000   -0.725380
  H     -6.346840    1.709450    5.493350
  H     -5.517370   -0.671500    3.756370
  H     -3.567450   -0.783520    5.133470
  H     -4.389300    1.938770    6.289810
  H     -2.069530    0.005990    6.842370
  H     -2.734410    2.853710    7.762510
  H     -0.699890    2.764240    9.049160
  H     -0.724900   -0.256170    8.579090
  H      5.174160    3.774040   13.646050
  H      5.585050    1.134730   14.032310
  H      0.101720   -2.016560    9.559630
  H      2.464420   -2.679290   11.388970
  H      0.500860   -4.441110    9.824200
  H      4.364390   -6.132230   14.501800
  H      5.005070   -8.507870   14.558620
  H      3.949460  -10.129280   13.045680
  H      2.243750   -9.417670   11.429570

 Total Charge           Charge          ....    0
 Multiplicity           Mult            ....    1
 Number of Electrons    NEL             ....  484
 Basis Dimension        Dim             .... 1156

ORBITAL ENERGIES
----------------

  NO   OCC          E(Eh)            E(eV)
   0   2.0000     -19.224509      -523.1255
   1   2.0000     -19.214134      -522.8432
   2   2.0000     -14.449329      -393.1862
   3   2.0000     -14.440483      -392.9455
   4   2.0000     -14.435911      -392.8211
   5   2.0000     -14.435176      -392.8011
   6   2.0000     -14.428648      -392.6235
   7   2.0000     -14.423428      -392.4814
   8   2.0000     -14.420821      -392.4105
   9   2.0000     -14.420392      -392.3988
  10   2.0000     -14.417206      -392.3121
  11   2.0000     -14.414007      -392.2251
  12   2.0000     -14.403674      -391.9439
  13   2.0000     -14.400021      -391.8445
  14   2.0000     -10.384100      -282.5657
  15   2.0000     -10.376351      -282.3549
  16   2.0000     -10.373849      -282.2868
  17   2.0000     -10.370554      -282.1971
  18   2.0000     -10.370498      -282.1956
  19   2.0000     -10.361668      -281.9553
  20   2.0000     -10.359621      -281.8996
  21   2.0000     -10.353055      -281.7210
  22   2.0000     -10.351418      -281.6764
  23   2.0000     -10.350849      -281.6609
  24   2.0000     -10.350169      -281.6424
  25   2.0000     -10.348090      -281.5858
  26   2.0000     -10.347245      -281.5628
  27   2.0000     -10.342683      -281.4387
  28   2.0000     -10.342547      -281.4350
  29   2.0000     -10.342355      -281.4298
  30   2.0000     -10.341651      -281.4106
  31   2.0000     -10.341010      -281.3932
  32   2.0000     -10.339549      -281.3534
  33   2.0000     -10.335249      -281.2364
  34   2.0000     -10.331961      -281.1469
  35   2.0000     -10.331019      -281.1213
  36   2.0000     -10.330314      -281.1021
  37   2.0000     -10.329761      -281.0871
  38   2.0000     -10.325822      -280.9799
  39   2.0000     -10.322870      -280.8996
  40   2.0000     -10.320011      -280.8218
  41   2.0000     -10.319149      -280.7983
  42   2.0000     -10.318714      -280.7865
  43   2.0000     -10.318264      -280.7742
  44   2.0000     -10.318005      -280.7672
  45   2.0000     -10.317351      -280.7494
  46   2.0000     -10.317200      -280.7453
  47   2.0000     -10.316773      -280.7337
  48   2.0000     -10.315082      -280.6877
  49   2.0000     -10.314507      -280.6720
  50   2.0000     -10.313108      -280.6339
  51   2.0000     -10.311728      -280.5964
  52   2.0000     -10.311413      -280.5878
  53   2.0000     -10.307514      -280.4817
  54   2.0000     -10.306262      -280.4477
  55   2.0000     -10.306081      -280.4427
  56   2.0000     -10.305769      -280.4342
  57   2.0000     -10.303795      -280.3805
  58   2.0000     -10.302912      -280.3565
  59   2.0000     -10.301009      -280.3047
  60   2.0000     -10.300077      -280.2793
  61   2.0000     -10.298967      -280.2492
  62   2.0000     -10.298738      -280.2429
  63   2.0000     -10.298531      -280.2373
  64   2.0000     -10.297689      -280.2144
  65   2.0000     -10.297669      -280.2138
  66   2.0000     -10.296609      -280.1850
  67   2.0000     -10.295152      -280.1453
  68   2.0000     -10.294912      -280.1388
  69   2.0000     -10.292997      -280.0867
  70   2.0000     -10.291526      -280.0467
  71   2.0000     -10.291247      -280.0391
  72   2.0000     -10.284368      -279.8519
  73   2.0000     -10.283765      -279.8355
  74   2.0000      -1.139044       -30.9950
  75   2.0000      -1.127647       -30.6848
  76   2.0000      -1.098073       -29.8801
  77   2.0000      -1.077231       -29.3129
  78   2.0000      -1.074742       -29.2452
  79   2.0000      -1.054931       -28.7061
  80   2.0000      -1.054154       -28.6850
  81   2.0000      -1.037026       -28.2189
  82   2.0000      -1.034517       -28.1506
  83   2.0000      -1.023803       -27.8591
  84   2.0000      -1.020725       -27.7753
  85   2.0000      -1.016508       -27.6606
  86   2.0000      -1.009369       -27.4663
  87   2.0000      -1.004905       -27.3449
  88   2.0000      -1.000030       -27.2122
  89   2.0000      -0.993850       -27.0440
  90   2.0000      -0.977199       -26.5909
  91   2.0000      -0.959568       -26.1112
  92   2.0000      -0.959162       -26.1001
  93   2.0000      -0.951807       -25.9000
  94   2.0000      -0.946945       -25.7677
  95   2.0000      -0.939042       -25.5526
  96   2.0000      -0.938433       -25.5361
  97   2.0000      -0.932632       -25.3782
  98   2.0000      -0.926703       -25.2169
  99   2.0000      -0.916552       -24.9406
 100   2.0000      -0.908329       -24.7169
 101   2.0000      -0.899081       -24.4652
 102   2.0000      -0.893957       -24.3258
 103   2.0000      -0.886980       -24.1360
 104   2.0000      -0.881835       -23.9959
 105   2.0000      -0.873214       -23.7614
 106   2.0000      -0.868329       -23.6284
 107   2.0000      -0.864810       -23.5327
 108   2.0000      -0.851264       -23.1641
 109   2.0000      -0.837909       -22.8006
 110   2.0000      -0.831236       -22.6191
 111   2.0000      -0.822566       -22.3832
 112   2.0000      -0.808751       -22.0072
 113   2.0000      -0.791605       -21.5407
 114   2.0000      -0.789652       -21.4875
 115   2.0000      -0.788292       -21.4505
 116   2.0000      -0.772813       -21.0293
 117   2.0000      -0.764769       -20.8104
 118   2.0000      -0.753666       -20.5083
 119   2.0000      -0.738673       -20.1003
 120   2.0000      -0.736114       -20.0307
 121   2.0000      -0.732649       -19.9364
 122   2.0000      -0.728881       -19.8339
 123   2.0000      -0.719962       -19.5912
 124   2.0000      -0.715898       -19.4806
 125   2.0000      -0.714702       -19.4480
 126   2.0000      -0.705080       -19.1862
 127   2.0000      -0.694724       -18.9044
 128   2.0000      -0.686234       -18.6734
 129   2.0000      -0.684896       -18.6370
 130   2.0000      -0.677984       -18.4489
 131   2.0000      -0.675762       -18.3884
 132   2.0000      -0.670564       -18.2470
 133   2.0000      -0.666137       -18.1265
 134   2.0000      -0.660336       -17.9686
 135   2.0000      -0.655015       -17.8239
 136   2.0000      -0.649455       -17.6726
 137   2.0000      -0.646728       -17.5984
 138   2.0000      -0.638732       -17.3808
 139   2.0000      -0.632807       -17.2195
 140   2.0000      -0.630246       -17.1499
 141   2.0000      -0.622389       -16.9361
 142   2.0000      -0.616773       -16.7832
 143   2.0000      -0.609775       -16.5928
 144   2.0000      -0.609150       -16.5758
 145   2.0000      -0.605271       -16.4703
 146   2.0000      -0.593839       -16.1592
 147   2.0000      -0.588129       -16.0038
 148   2.0000      -0.585486       -15.9319
 149   2.0000      -0.582407       -15.8481
 150   2.0000      -0.577498       -15.7145
 151   2.0000      -0.575150       -15.6506
 152   2.0000      -0.567226       -15.4350
 153   2.0000      -0.566056       -15.4032
 154   2.0000      -0.562151       -15.2969
 155   2.0000      -0.560674       -15.2567
 156   2.0000      -0.555177       -15.1071
 157   2.0000      -0.552590       -15.0367
 158   2.0000      -0.550405       -14.9773
 159   2.0000      -0.545004       -14.8303
 160   2.0000      -0.544564       -14.8183
 161   2.0000      -0.542571       -14.7641
 162   2.0000      -0.540421       -14.7056
 163   2.0000      -0.538915       -14.6646
 164   2.0000      -0.535533       -14.5726
 165   2.0000      -0.532564       -14.4918
 166   2.0000      -0.528427       -14.3792
 167   2.0000      -0.526102       -14.3160
 168   2.0000      -0.524096       -14.2614
 169   2.0000      -0.521358       -14.1869
 170   2.0000      -0.518158       -14.0998
 171   2.0000      -0.513830       -13.9820
 172   2.0000      -0.512430       -13.9439
 173   2.0000      -0.510528       -13.8922
 174   2.0000      -0.506786       -13.7903
 175   2.0000      -0.503363       -13.6972
 176   2.0000      -0.497389       -13.5347
 177   2.0000      -0.495454       -13.4820
 178   2.0000      -0.494623       -13.4594
 179   2.0000      -0.490851       -13.3567
 180   2.0000      -0.487092       -13.2545
 181   2.0000      -0.483881       -13.1671
 182   2.0000      -0.482790       -13.1374
 183   2.0000      -0.480238       -13.0679
 184   2.0000      -0.478749       -13.0274
 185   2.0000      -0.477985       -13.0066
 186   2.0000      -0.473512       -12.8849
 187   2.0000      -0.471989       -12.8435
 188   2.0000      -0.470908       -12.8140
 189   2.0000      -0.468065       -12.7367
 190   2.0000      -0.466433       -12.6923
 191   2.0000      -0.464681       -12.6446
 192   2.0000      -0.464150       -12.6302
 193   2.0000      -0.461332       -12.5535
 194   2.0000      -0.458699       -12.4818
 195   2.0000      -0.457411       -12.4468
 196   2.0000      -0.455886       -12.4053
 197   2.0000      -0.455460       -12.3937
 198   2.0000      -0.455290       -12.3891
 199   2.0000      -0.453743       -12.3470
 200   2.0000      -0.452429       -12.3112
 201   2.0000      -0.452183       -12.3045
 202   2.0000      -0.451099       -12.2750
 203   2.0000      -0.448330       -12.1997
 204   2.0000      -0.448118       -12.1939
 205   2.0000      -0.446909       -12.1610
 206   2.0000      -0.442870       -12.0511
 207   2.0000      -0.442588       -12.0434
 208   2.0000      -0.442336       -12.0366
 209   2.0000      -0.439152       -11.9499
 210   2.0000      -0.434490       -11.8231
 211   2.0000      -0.433203       -11.7881
 212   2.0000      -0.428732       -11.6664
 213   2.0000      -0.427326       -11.6281
 214   2.0000      -0.426523       -11.6063
 215   2.0000      -0.424712       -11.5570
 216   2.0000      -0.421104       -11.4588
 217   2.0000      -0.414136       -11.2692
 218   2.0000      -0.410851       -11.1798
 219   2.0000      -0.401650       -10.9295
 220   2.0000      -0.397735       -10.8229
 221   2.0000      -0.392114       -10.6700
 222   2.0000      -0.388101       -10.5608
 223   2.0000      -0.383499       -10.4356
 224   2.0000      -0.378690       -10.3047
 225   2.0000      -0.368592       -10.0299
 226   2.0000      -0.359588        -9.7849
 227   2.0000      -0.357497        -9.7280
 228   2.0000      -0.352109        -9.5814
 229   2.0000      -0.349824        -9.5192
 230   2.0000      -0.349233        -9.5031
 231   2.0000      -0.346686        -9.4338
 232   2.0000      -0.343357        -9.3432
 233   2.0000      -0.338746        -9.2177
 234   2.0000      -0.332936        -9.0596
 235   2.0000      -0.330431        -8.9915
 236   2.0000      -0.329477        -8.9655
 237   2.0000      -0.318175        -8.6580
 238   2.0000      -0.314805        -8.5663
 239   2.0000      -0.305838        -8.3223
 240   2.0000      -0.281525        -7.6607
 241   2.0000      -0.259303        -7.0560
 242   0.0000      -0.146316        -3.9815
 243   0.0000      -0.124400        -3.3851
 244   0.0000      -0.102692        -2.7944
 245   0.0000      -0.100448        -2.7333
 246   0.0000      -0.086089        -2.3426

MULLIKEN ATOMIC CHARGES
-----------------------
   0 C :   -0.030279
   1 C :    0.049368
   2 C :    0.054292
   3 C :   -0.031933
   4 C :    0.018220
   5 C :    0.014699
   6 C :    0.264276
   7 C :   -0.326525
   8 C :   -0.188717
   9 N :    0.178327
  10 C :   -0.169534
  11 N :    0.161837
  12 C :    0.006356
  13 C :    0.210382
  14 C :   -0.240679
  15 C :   -0.176343
  16 N :    0.171305
  17 C :   -0.195785
  18 N :    0.175804
  19 C :   -0.015176
  20 C :    0.025522
  21 N :   -0.057061
  22 C :    0.087035
  23 C :   -0.163555
  24 C :    0.223488
  25 O :   -0.130870
  26 C :   -0.009226
  27 C :   -0.022039
  28 N :   -0.049963
  29 C :    0.100862
  30 C :   -0.094773
  31 C :    0.087587
  32 C :   -0.042108
  33 C :    0.034630
  34 C :    0.013173
  35 C :    0.026760
  36 C :    0.042998
  37 C :   -0.000757
  38 C :    0.088283
  39 C :   -0.053061
  40 C :    0.052030
  41 N :   -0.042452
  42 C :    0.063714
  43 C :   -0.145592
  44 C :    0.236758
  45 O :   -0.160043
  46 C :   -0.013400
  47 C :   -0.038781
  48 N :   -0.052049
  49 C :    0.091171
  50 C :   -0.095573
  51 C :    0.054507
  52 C :   -0.018043
  53 C :    0.002827
  54 C :    0.029976
  55 C :   -0.053055
  56 C :    0.297240
  57 C :   -0.340434
  58 C :   -0.184644
  59 N :    0.153984
  60 C :   -0.189773
  61 N :    0.160778
  62 C :    0.009145
  63 C :    0.012545
  64 C :   -0.032819
  65 C :    0.049324
  66 C :    0.045823
  67 C :   -0.032251
  68 C :    0.231901
  69 C :   -0.295807
  70 C :   -0.180249
  71 N :    0.160288
  72 C :   -0.205075
  73 N :    0.176906
  74 H :    0.009125
  75 H :    0.009693
  76 H :    0.011440
  77 H :    0.012578
  78 H :    0.016154
  79 H :    0.019054
  80 H :    0.003790
  81 H :   -0.013148
  82 H :    0.014996
  83 H :    0.003476
  84 H :    0.019218
  85 H :    0.004946
  86 H :    0.014801
  87 H :    0.029994
  88 H :   -0.016620
  89 H :    0.007845
  90 H :   -0.004904
  91 H :   -0.009646
  92 H :    0.045085
  93 H :    0.013743
  94 H :    0.009054
  95 H :    0.005067
  96 H :    0.003519
  97 H :    0.005043
Sum of atomic charges:   -0.0000000

LOEWDIN ATOMIC CHARGES
----------------------
   0 C :    0.009392
   1 C :    0.003805
   2 C :    0.014051
   3 C :    0.003789
   4 C :   -0.002130
   5 C :   -0.018582
   6 C :    0.079302
   7 C :   -0.119923
   8 C :   -0.020297
   9 N :   -0.028240
  10 C :   -0.011234
  11 N :   -0.046440
  12 C :    0.011916
  13 C :    0.059312
  14 C :   -0.082911
  15 C :   -0.016675
  16 N :   -0.037145
  17 C :   -0.015414
  18 N :   -0.026763
  19 C :    0.022008
  20 C :    0.054657
  21 N :   -0.072729
  22 C :    0.045919
  23 C :   -0.049487
  24 C :    0.071439
  25 O :   -0.131824
  26 C :   -0.035255
  27 C :    0.042760
  28 N :   -0.093174
  29 C :    0.090353
  30 C :   -0.023515
  31 C :   -0.014573
  32 C :   -0.026700
  33 C :    0.016398
  34 C :   -0.006491
  35 C :   -0.001560
  36 C :    0.025422
  37 C :   -0.031169
  38 C :    0.064286
  39 C :   -0.054210
  40 C :    0.073949
  41 N :   -0.111240
  42 C :    0.047657
  43 C :   -0.019169
  44 C :    0.075566
  45 O :   -0.152196
  46 C :   -0.042413
  47 C :    0.018635
  48 N :   -0.096275
  49 C :    0.071203
  50 C :   -0.036946
  51 C :   -0.033797
  52 C :    0.019999
  53 C :   -0.005823
  54 C :    0.057064
  55 C :   -0.046681
  56 C :    0.079290
  57 C :   -0.132436
  58 C :   -0.019417
  59 N :   -0.049644
  60 C :   -0.019287
  61 N :   -0.045860
  62 C :   -0.015493
  63 C :   -0.006400
  64 C :    0.002374
  65 C :    0.006122
  66 C :    0.000143
  67 C :    0.005155
  68 C :    0.067217
  69 C :   -0.108970
  70 C :   -0.013031
  71 N :   -0.041270
  72 C :   -0.018098
  73 N :   -0.044369
  74 H :    0.042669
  75 H :    0.040028
  76 H :    0.040696
  77 H :    0.043457
  78 H :    0.046813
  79 H :    0.027717
  80 H :    0.037970
  81 H :    0.028035
  82 H :    0.036583
  83 H :    0.035391
  84 H :    0.034958
  85 H :    0.031371
  86 H :    0.039443
  87 H :    0.046466
  88 H :    0.026193
  89 H :    0.023109
  90 H :    0.034648
  91 H :    0.032945
  92 H :    0.034268
  93 H :    0.044718
  94 H :    0.042070
  95 H :    0.037874
  96 H :    0.037398
  97 H :    0.041247

  Mayer bond orders larger than 0.100000
B(  0-C ,  1-C ) :   1.3779 B(  0-C ,  5-C ) :   1.3728 B(  0-C , 74-H ) :   0.9862
B(  1-C ,  2-C ) :   1.3719 B(  1-C , 75-H ) :   0.9856 B(  2-C ,  3-C ) :   1.3676
B(  2-C , 76-H ) :   0.9861 B(  3-C ,  4-C ) :   1.3854 B(  3-C , 77-H ) :   0.9869
B(  4-C ,  5-C ) :   1.3019 B(  4-C , 13-C ) :   1.0101 B(  5-C ,  6-C ) :   1.0163
B(  6-C ,  7-C ) :   1.6665 B(  6-C , 12-C ) :   1.0113 B(  7-C ,  8-C ) :   1.1425
B(  7-C , 10-C ) :   1.1299 B(  8-C ,  9-N ) :   2.9881 B( 10-C , 11-N ) :   2.9852
B( 12-C , 13-C ) :   0.9976 B( 12-C , 19-C ) :   1.6793 B( 13-C , 14-C ) :   1.7225
B( 14-C , 15-C ) :   1.1404 B( 14-C , 17-C ) :   1.1453 B( 15-C , 16-N ) :   2.9802
B( 17-C , 18-N ) :   2.9921 B( 19-C , 20-C ) :   1.1062 B( 19-C , 78-H ) :   0.9262
B( 20-C , 21-N ) :   1.5695 B( 20-C , 22-C ) :   0.1137 B( 20-C , 31-C ) :   1.0227
B( 21-N , 22-C ) :   1.2944 B( 22-C , 23-C ) :   1.0704 B( 22-C , 27-C ) :   1.4340
B( 23-C , 24-C ) :   0.9001 B( 23-C , 31-C ) :   1.5214 B( 24-C , 25-O ) :   2.2078
B( 24-C , 26-C ) :   0.9188 B( 26-C , 27-C ) :   1.0566 B( 26-C , 30-C ) :   1.6292
B( 27-C , 28-N ) :   1.3031 B( 28-N , 29-C ) :   1.6684 B( 29-C , 30-C ) :   1.0442
B( 29-C , 79-H ) :   0.9888 B( 30-C , 80-H ) :   1.0119 B( 31-C , 32-C ) :   1.1496
B( 32-C , 33-C ) :   1.6482 B( 32-C , 81-H ) :   0.9453 B( 33-C , 34-C ) :   1.1389
B( 33-C , 82-H ) :   0.9612 B( 34-C , 35-C ) :   1.6047 B( 34-C , 83-H ) :   0.9792
B( 35-C , 36-C ) :   1.1812 B( 35-C , 84-H ) :   0.9749 B( 36-C , 37-C ) :   1.5915
B( 36-C , 85-H ) :   0.9776 B( 37-C , 38-C ) :   1.1436 B( 37-C , 86-H ) :   0.9791
B( 38-C , 39-C ) :   1.5987 B( 38-C , 87-H ) :   0.9735 B( 39-C , 40-C ) :   1.2022
B( 39-C , 88-H ) :   0.9499 B( 40-C , 41-N ) :   1.5433 B( 40-C , 42-C ) :   0.1085
B( 40-C , 51-C ) :   0.9916 B( 41-N , 42-C ) :   1.4050 B( 42-C , 43-C ) :   1.0560
B( 42-C , 47-C ) :   1.3672 B( 43-C , 44-C ) :   0.8932 B( 43-C , 51-C ) :   1.5560
B( 44-C , 45-O ) :   2.1310 B( 44-C , 46-C ) :   0.9510 B( 45-O , 92-H ) :   0.1133
B( 46-C , 47-C ) :   1.0777 B( 46-C , 50-C ) :   1.5689 B( 47-C , 48-N ) :   1.3463
B( 48-N , 49-C ) :   1.6185 B( 49-C , 50-C ) :   1.0969 B( 49-C , 89-H ) :   0.9894
B( 50-C , 90-H ) :   1.0118 B( 51-C , 52-C ) :   1.1034 B( 52-C , 53-C ) :   1.6510
B( 52-C , 91-H ) :   0.9786 B( 53-C , 54-C ) :   1.1249 B( 53-C , 92-H ) :   0.9297
B( 54-C , 55-C ) :   1.5958 B( 54-C , 93-H ) :   0.9530 B( 55-C , 56-C ) :   1.0400
B( 55-C , 68-C ) :   1.0107 B( 56-C , 57-C ) :   1.6439 B( 56-C , 62-C ) :   1.0069
B( 57-C , 58-C ) :   1.1386 B( 57-C , 60-C ) :   1.1439 B( 58-C , 59-N ) :   2.9813
B( 60-C , 61-N ) :   2.9804 B( 62-C , 63-C ) :   1.3106 B( 62-C , 67-C ) :   1.3798
B( 63-C , 64-C ) :   1.3835 B( 63-C , 68-C ) :   1.0109 B( 64-C , 65-C ) :   1.3662
B( 64-C , 94-H ) :   0.9866 B( 65-C , 66-C ) :   1.3738 B( 65-C , 95-H ) :   0.9870
B( 66-C , 67-C ) :   1.3739 B( 66-C , 96-H ) :   0.9861 B( 67-C , 97-H ) :   0.9843
B( 68-C , 69-C ) :   1.6710 B( 69-C , 70-C ) :   1.1438 B( 69-C , 72-C ) :   1.1522
B( 70-C , 71-N ) :   2.9921 B( 72-C , 73-N ) :   3.0011

-----------------------------------------------------------------------------
         ABSORPTION SPECTRUM VIA TRANSITION ELECTRIC DIPOLE MOMENTS
-----------------------------------------------------------------------------
State   Energy  Wavelength   fosc         T2         TX        TY        TZ
        (cm-1)    (nm)                  (au**2)     (au)      (au)      (au)
-----------------------------------------------------------------------------
   0   10281.2    972.7   0.109584690   3.50899  -1.21647  -0.45069  -1.35132
   1   15691.9    637.3   1.329173856  27.88581   4.20300  -0.19552   3.19098
   2   17690.8    565.3   0.252983245   4.70783  -1.55148  -1.29643  -0.78739
   3   19237.1    519.8   0.092855373   1.58907   0.09436   1.03231   0.71728
   4   20097.6    497.6   0.379142303   6.21060  -1.24691   1.95852  -0.90555
   5   20576.5    486.0   0.094791351   1.51660  -0.50419  -0.17281  -1.11019
   6   20699.2    483.1   0.099572683   1.58366   0.68295   0.20552   1.03682
   7   21461.4    466.0   0.000762410   0.01170   0.01094  -0.09094  -0.05749
   8   21696.6    460.9   0.038727140   0.58762  -0.38985   0.45550  -0.47766
   9   22365.7    447.1   0.191162020   2.81381  -1.07500  -1.22854  -0.38585
  10   22931.1    436.1   0.134729497   1.93426  -0.82196  -1.06606   0.34949
  11   23480.2    425.9   0.001191783   0.01671   0.04021   0.10345   0.06627
  12   23690.1    422.1   0.078197116   1.08667   0.23698   0.90250   0.46478
  13   23863.3    419.1   0.073489941   1.01385  -0.44280  -0.61369  -0.66420
  14   24363.5    410.5   0.015649558   0.21146  -0.17549  -0.28655  -0.31394
  15   24642.5    405.8   0.191653816   2.56040   0.71817   1.02702   0.99492
  16   24941.8    400.9   0.005082314   0.06708   0.14576   0.16575   0.13552
  17   25289.1    395.4   0.403105929   5.24761   0.11088  -1.56343  -1.67063
  18   25887.0    386.3   0.026854064   0.34151   0.49259   0.30040   0.09286
  19   26185.8    381.9   0.226899174   2.85261   0.43038   1.60500   0.30223
  20   26455.0    378.0   0.042515768   0.52908  -0.31461  -0.43187  -0.49354
  21   26602.8    375.9   0.035658777   0.44128   0.16889   0.51140   0.38887
  22   27109.6    368.9   0.011440690   0.13893   0.24689  -0.19340   0.20143
  23   27496.3    363.7   0.102485261   1.22705   0.25850  -0.70841  -0.81141
  24   27822.9    359.4   0.046085954   0.54531   0.17845   0.61398   0.36945
  25   29225.8    342.2   0.033805542   0.38080   0.20257  -0.46227   0.35506
  26   29530.7    338.6   0.024210174   0.26990   0.24204   0.02051   0.45923
  27   29594.5    337.9   0.007090493   0.07888   0.07880  -0.10523   0.24818
  28   30068.2    332.6   0.160088807   1.75278   0.66601  -0.31196   1.10086
  29   30111.1    332.1   0.048999328   0.53572  -0.40605   0.21719  -0.56892
  30   30206.2    331.1   0.166044643   1.80969  -0.35045  -0.53486  -1.18355
  31   30583.4    327.0   0.088658676   0.95436  -0.35435  -0.10691  -0.90408
  32   30862.8    324.0   0.038677765   0.41257  -0.01313  -0.53261  -0.35879
  33   30910.6    323.5   0.010327190   0.10999   0.03981  -0.32876   0.01785
  34   31352.3    319.0   0.045100106   0.47357   0.25947   0.45478   0.44656
  35   31730.7    315.2   0.022811282   0.23667  -0.35870   0.17001  -0.28125
  36   32300.8    309.6   0.064004392   0.65234  -0.22833  -0.34179  -0.69526
  37   32381.3    308.8   0.117670486   1.19632  -0.53772   0.53354  -0.78900
  38   32820.9    304.7   0.584357144   5.86142  -0.71229  -1.70455  -1.56480
  39   32997.8    303.1   0.060281346   0.60141   0.77161  -0.03299   0.07035
  40   33184.9    301.3   0.013932148   0.13821  -0.09435  -0.26471  -0.24339
  41   33265.2    300.6   0.013339925   0.13202   0.01484   0.25322   0.26016
  42   33456.3    298.9   0.259111363   2.54967  -0.74205  -0.43718  -1.34458
  43   33587.4    297.7   0.013670257   0.13399   0.21538  -0.14522  -0.25790
  44   34131.5    293.0   0.006845637   0.06603   0.12961   0.07416   0.20912
  45   34285.3    291.7   0.032088903   0.30812  -0.25200  -0.35798  -0.34128
  46   34557.9    289.4   0.006686613   0.06370  -0.05724   0.23650   0.06701
  47   34847.5    287.0   0.021957999   0.20744   0.01843  -0.45506   0.00506
  48   34999.2    285.7   0.220345431   2.07263  -0.93124   1.06891  -0.25071
  49   35454.6    282.1   0.178747892   1.65975   0.71323  -1.00769   0.36825
  50   35690.7    280.2   0.144267174   1.33072   0.72887  -0.42029  -0.78919
  51   35882.5    278.7   0.005700600   0.05230  -0.20951   0.08167  -0.04167
  52   35939.5    278.2   0.014524073   0.13304   0.29733  -0.21115   0.00737
  53   36364.4    275.0   0.260221696   2.35582  -1.07419   0.84154   0.70268
  54   36450.6    274.3   0.001583066   0.01430   0.06440   0.04488   0.09020
  55   36640.7    272.9   0.082505261   0.74130   0.70123  -0.23352  -0.44164
  56   36650.6    272.8   0.047796714   0.42933  -0.55701  -0.26950  -0.21551
  57   36998.0    270.3   0.025203165   0.22426  -0.15802  -0.02321  -0.44582
  58   37066.0    269.8   0.072114083   0.64050   0.18810  -0.04068   0.77683
  59   37224.0    268.6   0.051984721   0.45976   0.39750   0.13633   0.53214
  60   37265.3    268.3   0.161738358   1.42884  -0.73389  -0.37743  -0.86475
  61   37349.8    267.7   0.021351196   0.18820  -0.20719   0.37826   0.04680
  62   37582.9    266.1   0.044597570   0.39066   0.47382  -0.40760   0.00443
  63   37677.9    265.4   0.032543011   0.28435   0.10902  -0.36142  -0.37661
  64   37932.9    263.6   0.009379405   0.08140   0.00631   0.25820   0.12122
  65   38031.5    262.9   0.020568516   0.17805  -0.18187   0.17033  -0.34053
  66   38167.3    262.0   0.009784679   0.08440   0.08627   0.22606   0.16079
  67   38403.0    260.4   0.034309957   0.29412   0.39058  -0.20371  -0.31635
  68   38660.6    258.7   0.119444588   1.01712   0.66914  -0.11291   0.74607
  69   38674.7    258.6   0.007662594   0.06523  -0.14418   0.04087  -0.20680
  70   38974.1    256.6   0.138302866   1.16823   0.17802   0.47380   0.95501
  71   39476.2    253.3   0.007803796   0.06508   0.08246   0.15294   0.18679
  72   39530.8    253.0   0.056684029   0.47206   0.20714   0.19091   0.62667
  73   39571.9    252.7   0.039618187   0.32960  -0.33460   0.18922  -0.42642
  74   39614.5    252.4   0.065027372   0.54040   0.44342  -0.20361   0.54984
  75   39858.4    250.9   0.176095132   1.45446   0.84715  -0.08774  -0.85388
  76   40112.8    249.3   0.046805367   0.38414   0.59989   0.05435   0.14599

FINAL SINGLE POINT ENERGY     -3103.928779611903

DIPOLE MOMENT
-------------
                                X             Y             Z
Electronic contribution:     -9.48348       3.41606      -4.13259
Nuclear contribution   :      7.67502      -3.46506       3.25613
                        -----------------------------------------
Total Dipole Moment    :     -1.80846      -0.04899      -0.87646
                        -----------------------------------------
Magnitude (a.u.)       :      2.01025
Magnitude (Debye)      :      5.10965

Rotational constants in cm-1:     0.001324     0.000291     0.000259
Rotational constants in MHz :    39.682994     8.721411     7.773489

                             ****ORCA TERMINATED NORMALLY****
TOTAL RUN TIME: 0 days 0 hours 14 minutes 21 seconds 841 msec
