                         Program Version 4.2.0 -  RELEASE  -
|  1> # ORCA input file
|  2> # SCF done       -171.724457476818          0.000405563251
|  3> ! CAM-B3LYP def2-SVP def2/J RIJCOSX Grid4 TightSCF
|  4> %maxcore 5000
|  5> %tddft
|  6>     Mode sTDDFT
|  7>     Ethresh 5.0
|  8>     maxcore 5000
|  9> end
| 10>
| 11> %pal
| 12>   nprocs 6
| 13>   end
| 14> * xyz 0 1
| 15>    C       -6.19811        -4.34243        -3.79931
| 16>    C       -5.42899        -3.16406        -3.88210
| 17>    C       -4.01017        -3.22591        -3.93045
| 18>    C       -3.52032        -4.47095        -4.43350
| 19>    C       -4.27525        -5.62004        -4.30915
| 20>    C       -5.59827        -5.57069        -3.86786
| 21>    C       -2.43816        -4.52017        -5.43086
| 22>    O       -1.99283        -5.56088        -5.87555
| 23>    N       -0.92208        -2.67319        -3.05374
| 24>    C        0.37756        -2.12855        -2.68950
| 25>    C       -1.81054        -1.77903        -3.60476
| 26>    O       -1.39780        -0.67050        -3.89238
| 27>    C       -3.28023        -2.04335        -3.65158
| 28>    C       -3.99190        -0.87443        -3.40188
| 29>    C       -5.35288        -0.76249        -3.66124
| 30>    C       -6.04799        -1.89159        -4.02098
| 31>    N       -7.28160        -1.85188        -4.65848
| 32>    C       -7.52769        -2.54946        -5.81061
| 33>    S       -9.19834        -2.71800        -6.26741
| 34>    C       -8.73622        -3.72801        -7.59891
| 35>    N       -9.74239        -4.20394        -8.44066
| 36>    O       -9.41443        -4.91507        -9.37319
| 37>    O      -10.88542        -3.86901        -8.17377
| 38>    C       -7.38311        -3.92336        -7.66507
| 39>    C       -6.66013        -3.23436        -6.67265
| 40>    C       -5.19933        -3.30792        -6.67770
| 41>    C       -4.34908        -2.27217        -6.59032
| 42>    C       -2.90874        -2.29657        -6.55355
| 43>    C       -2.04223        -3.20567        -6.02786
| 44>    C       -0.62012        -3.00303        -6.13531
| 45>    C        0.33738        -3.72266        -5.50821
| 46>    C        0.18312        -4.66850        -4.43708
| 47>    S       -0.97925        -4.36014        -3.12340
| 48>    C        0.96533        -5.77958        -4.30381
| 49>    C        1.89365        -6.30493        -5.24934
| 50>    C        2.54684        -7.41292        -4.83450
| 51>    C        2.16424        -7.86628        -3.53438
| 52>    S        0.89893        -6.81697        -2.88933
| 53>    C        2.58511        -8.93362        -2.80875
| 54>    N        3.64308        -9.76371        -3.10721
| 55>    C        4.84550        -9.42115        -3.63470
| 56>    S        5.35949        -7.76612        -3.75661
| 57>    C        6.93604        -8.30636        -4.25566
| 58>    N        7.87537        -7.32615        -4.56524
| 59>    O        8.98350        -7.68666        -4.92309
| 60>    O        7.51049        -6.16454        -4.45181
| 61>    C        7.05243        -9.67018        -4.30244
| 62>    C        5.85939       -10.33268        -3.96626
| 63>    C        5.74907       -11.77104        -3.95998
| 64>    C        4.62397       -12.48789        -4.12050
| 65>    C        4.53569       -13.93513        -4.08954
| 66>    C        3.36891       -14.55184        -4.58171
| 67>    C        3.21717       -15.91563        -4.57826
| 68>    C        4.23097       -16.73059        -4.06581
| 69>    C        5.40539       -16.13666        -3.55592
| 70>    C        5.53779       -14.74609        -3.57687
| 71>    C        6.41058       -16.99827        -3.03041
| 72>    C        6.25028       -18.34798        -3.01725
| 73>    C        5.03734       -18.98884        -3.54349
| 74>    O        4.81057       -20.17749        -3.56987
| 75>    N        4.10910       -18.08838        -4.03818
| 76>    C        7.25825       -19.18434        -2.48721
| 77>    N        8.09256       -19.83481        -2.04714
| 78>    H       -7.26460        -4.25691        -3.65562
| 79>    H       -3.84384        -6.54613        -4.65984
| 80>    H       -6.16206        -6.47786        -3.71968
| 81>    H        1.02153        -2.01684        -3.56482
| 82>    H        0.84147        -2.80473        -1.97518
| 83>    H        0.23474        -1.14790        -2.23916
| 84>    H       -3.43798         0.01152        -3.13312
| 85>    H       -5.82536         0.20799        -3.66323
| 86>    H       -7.93573        -1.11990        -4.41847
| 87>    H       -6.92375        -4.51765        -8.43466
| 88>    H       -4.80551        -4.30054        -6.85666
| 89>    H       -4.76355        -1.27060        -6.55447
| 90>    H       -2.45266        -1.39075        -6.93949
| 91>    H       -0.30149        -2.24193        -6.83511
| 92>    H        1.36396        -3.56351        -5.81744
| 93>    H        2.03093        -5.84395        -6.21054
| 94>    H        3.25456        -7.95158        -5.43782
| 95>    H        2.04680        -9.19620        -1.90878
| 96>    H        3.61481       -10.69098        -2.69780
| 97>    H        7.96248       -10.16347        -4.59229
| 98>    H        6.69583       -12.28266        -3.85637
| 99>    H        3.69498       -11.98467        -4.35614
|100>    H        2.57866       -13.93201        -4.97952
|101>    H        2.31676       -16.36883        -4.96581
|102>    H        6.43827       -14.31444        -3.16838
|103>    H        7.31662       -16.55930        -2.63516
|104>    H        3.26201       -18.50560        -4.40799
|105> *
|106>
|107>                          ****END OF INPUT****

CARTESIAN COORDINATES (ANGSTROEM)
---------------------------------
  C     -6.198110   -4.342430   -3.799310
  C     -5.428990   -3.164060   -3.882100
  C     -4.010170   -3.225910   -3.930450
  C     -3.520320   -4.470950   -4.433500
  C     -4.275250   -5.620040   -4.309150
  C     -5.598270   -5.570690   -3.867860
  C     -2.438160   -4.520170   -5.430860
  O     -1.992830   -5.560880   -5.875550
  N     -0.922080   -2.673190   -3.053740
  C      0.377560   -2.128550   -2.689500
  C     -1.810540   -1.779030   -3.604760
  O     -1.397800   -0.670500   -3.892380
  C     -3.280230   -2.043350   -3.651580
  C     -3.991900   -0.874430   -3.401880
  C     -5.352880   -0.762490   -3.661240
  C     -6.047990   -1.891590   -4.020980
  N     -7.281600   -1.851880   -4.658480
  C     -7.527690   -2.549460   -5.810610
  S     -9.198340   -2.718000   -6.267410
  C     -8.736220   -3.728010   -7.598910
  N     -9.742390   -4.203940   -8.440660
  O     -9.414430   -4.915070   -9.373190
  O    -10.885420   -3.869010   -8.173770
  C     -7.383110   -3.923360   -7.665070
  C     -6.660130   -3.234360   -6.672650
  C     -5.199330   -3.307920   -6.677700
  C     -4.349080   -2.272170   -6.590320
  C     -2.908740   -2.296570   -6.553550
  C     -2.042230   -3.205670   -6.027860
  C     -0.620120   -3.003030   -6.135310
  C      0.337380   -3.722660   -5.508210
  C      0.183120   -4.668500   -4.437080
  S     -0.979250   -4.360140   -3.123400
  C      0.965330   -5.779580   -4.303810
  C      1.893650   -6.304930   -5.249340
  C      2.546840   -7.412920   -4.834500
  C      2.164240   -7.866280   -3.534380
  S      0.898930   -6.816970   -2.889330
  C      2.585110   -8.933620   -2.808750
  N      3.643080   -9.763710   -3.107210
  C      4.845500   -9.421150   -3.634700
  S      5.359490   -7.766120   -3.756610
  C      6.936040   -8.306360   -4.255660
  N      7.875370   -7.326150   -4.565240
  O      8.983500   -7.686660   -4.923090
  O      7.510490   -6.164540   -4.451810
  C      7.052430   -9.670180   -4.302440
  C      5.859390  -10.332680   -3.966260
  C      5.749070  -11.771040   -3.959980
  C      4.623970  -12.487890   -4.120500
  C      4.535690  -13.935130   -4.089540
  C      3.368910  -14.551840   -4.581710
  C      3.217170  -15.915630   -4.578260
  C      4.230970  -16.730590   -4.065810
  C      5.405390  -16.136660   -3.555920
  C      5.537790  -14.746090   -3.576870
  C      6.410580  -16.998270   -3.030410
  C      6.250280  -18.347980   -3.017250
  C      5.037340  -18.988840   -3.543490
  O      4.810570  -20.177490   -3.569870
  N      4.109100  -18.088380   -4.038180
  C      7.258250  -19.184340   -2.487210
  N      8.092560  -19.834810   -2.047140
  H     -7.264600   -4.256910   -3.655620
  H     -3.843840   -6.546130   -4.659840
  H     -6.162060   -6.477860   -3.719680
  H      1.021530   -2.016840   -3.564820
  H      0.841470   -2.804730   -1.975180
  H      0.234740   -1.147900   -2.239160
  H     -3.437980    0.011520   -3.133120
  H     -5.825360    0.207990   -3.663230
  H     -7.935730   -1.119900   -4.418470
  H     -6.923750   -4.517650   -8.434660
  H     -4.805510   -4.300540   -6.856660
  H     -4.763550   -1.270600   -6.554470
  H     -2.452660   -1.390750   -6.939490
  H     -0.301490   -2.241930   -6.835110
  H      1.363960   -3.563510   -5.817440
  H      2.030930   -5.843950   -6.210540
  H      3.254560   -7.951580   -5.437820
  H      2.046800   -9.196200   -1.908780
  H      3.614810  -10.690980   -2.697800
  H      7.962480  -10.163470   -4.592290
  H      6.695830  -12.282660   -3.856370
  H      3.694980  -11.984670   -4.356140
  H      2.578660  -13.932010   -4.979520
  H      2.316760  -16.368830   -4.965810
  H      6.438270  -14.314440   -3.168380
  H      7.316620  -16.559300   -2.635160
  H      3.262010  -18.505600   -4.407990

 Total Charge           Charge          ....    0
 Multiplicity           Mult            ....    1
 Number of Electrons    NEL             ....  466
 Basis Dimension        Dim             .... 1033

ORBITAL ENERGIES
----------------

  NO   OCC          E(Eh)            E(eV)
   0   2.0000     -88.983918     -2421.3755
   1   2.0000     -88.979550     -2421.2567
   2   2.0000     -88.975292     -2421.1408
   3   2.0000     -88.949076     -2420.4274
   4   2.0000     -19.232248      -523.3361
   5   2.0000     -19.232124      -523.3327
   6   2.0000     -19.232063      -523.3310
   7   2.0000     -19.231322      -523.3109
   8   2.0000     -19.202273      -522.5204
   9   2.0000     -19.195384      -522.3329
  10   2.0000     -19.192444      -522.2530
  11   2.0000     -14.644119      -398.4867
  12   2.0000     -14.643943      -398.4819
  13   2.0000     -14.486837      -394.2069
  14   2.0000     -14.478892      -393.9907
  15   2.0000     -14.476970      -393.9384
  16   2.0000     -14.458250      -393.4290
  17   2.0000     -14.404540      -391.9675
  18   2.0000     -10.396607      -282.9061
  19   2.0000     -10.384929      -282.5883
  20   2.0000     -10.371911      -282.2341
  21   2.0000     -10.370053      -282.1835
  22   2.0000     -10.361523      -281.9514
  23   2.0000     -10.354216      -281.7525
  24   2.0000     -10.337929      -281.3094
  25   2.0000     -10.337896      -281.3085
  26   2.0000     -10.336901      -281.2814
  27   2.0000     -10.336862      -281.2803
  28   2.0000     -10.330043      -281.0948
  29   2.0000     -10.326657      -281.0026
  30   2.0000     -10.319133      -280.7979
  31   2.0000     -10.317495      -280.7533
  32   2.0000     -10.311256      -280.5836
  33   2.0000     -10.310858      -280.5727
  34   2.0000     -10.309279      -280.5298
  35   2.0000     -10.306626      -280.4576
  36   2.0000     -10.306070      -280.4424
  37   2.0000     -10.305888      -280.4375
  38   2.0000     -10.304797      -280.4078
  39   2.0000     -10.303831      -280.3815
  40   2.0000     -10.303654      -280.3767
  41   2.0000     -10.302980      -280.3583
  42   2.0000     -10.301914      -280.3293
  43   2.0000     -10.301426      -280.3160
  44   2.0000     -10.299127      -280.2535
  45   2.0000     -10.297761      -280.2163
  46   2.0000     -10.297686      -280.2143
  47   2.0000     -10.297001      -280.1956
  48   2.0000     -10.296134      -280.1721
  49   2.0000     -10.295450      -280.1534
  50   2.0000     -10.294242      -280.1206
  51   2.0000     -10.293588      -280.1028
  52   2.0000     -10.292627      -280.0766
  53   2.0000     -10.291284      -280.0401
  54   2.0000     -10.288714      -279.9701
  55   2.0000     -10.287989      -279.9504
  56   2.0000     -10.286901      -279.9208
  57   2.0000     -10.286796      -279.9180
  58   2.0000     -10.286205      -279.9019
  59   2.0000     -10.284860      -279.8653
  60   2.0000     -10.284732      -279.8618
  61   2.0000     -10.282517      -279.8015
  62   2.0000     -10.281023      -279.7608
  63   2.0000      -8.078861      -219.8370
  64   2.0000      -8.075626      -219.7490
  65   2.0000      -8.066771      -219.5080
  66   2.0000      -8.045427      -218.9272
  67   2.0000      -6.048596      -164.5907
  68   2.0000      -6.045324      -164.5016
  69   2.0000      -6.044053      -164.4671
  70   2.0000      -6.040907      -164.3814
  71   2.0000      -6.040312      -164.3652
  72   2.0000      -6.038846      -164.3254
  73   2.0000      -6.036940      -164.2735
  74   2.0000      -6.032743      -164.1593
  75   2.0000      -6.025558      -163.9638
  76   2.0000      -6.015474      -163.6894
  77   2.0000      -6.011440      -163.5796
  78   2.0000      -6.005672      -163.4226
  79   2.0000      -1.312723       -35.7210
  80   2.0000      -1.312170       -35.7060
  81   2.0000      -1.144239       -31.1363
  82   2.0000      -1.138051       -30.9679
  83   2.0000      -1.131571       -30.7916
  84   2.0000      -1.131139       -30.7799
  85   2.0000      -1.122572       -30.5467
  86   2.0000      -1.091232       -29.6939
  87   2.0000      -1.086216       -29.5574
  88   2.0000      -1.066232       -29.0136
  89   2.0000      -1.038550       -28.2604
  90   2.0000      -1.003843       -27.3160
  91   2.0000      -1.003085       -27.2953
  92   2.0000      -0.991015       -26.9669
  93   2.0000      -0.990836       -26.9620
  94   2.0000      -0.984044       -26.7772
  95   2.0000      -0.979321       -26.6487
  96   2.0000      -0.941061       -25.6076
  97   2.0000      -0.938433       -25.5361
  98   2.0000      -0.932580       -25.3768
  99   2.0000      -0.925457       -25.1830
 100   2.0000      -0.919432       -25.0190
 101   2.0000      -0.903279       -24.5795
 102   2.0000      -0.893218       -24.3057
 103   2.0000      -0.891634       -24.2626
 104   2.0000      -0.873445       -23.7676
 105   2.0000      -0.871922       -23.7262
 106   2.0000      -0.869017       -23.6472
 107   2.0000      -0.862138       -23.4600
 108   2.0000      -0.853753       -23.2318
 109   2.0000      -0.847760       -23.0687
 110   2.0000      -0.839122       -22.8337
 111   2.0000      -0.835465       -22.7341
 112   2.0000      -0.832657       -22.6578
 113   2.0000      -0.824958       -22.4483
 114   2.0000      -0.803263       -21.8579
 115   2.0000      -0.792918       -21.5764
 116   2.0000      -0.778719       -21.1900
 117   2.0000      -0.774538       -21.0762
 118   2.0000      -0.766832       -20.8666
 119   2.0000      -0.757173       -20.6037
 120   2.0000      -0.752535       -20.4775
 121   2.0000      -0.751202       -20.4412
 122   2.0000      -0.739401       -20.1201
 123   2.0000      -0.731278       -19.8991
 124   2.0000      -0.722147       -19.6506
 125   2.0000      -0.711343       -19.3566
 126   2.0000      -0.700907       -19.0726
 127   2.0000      -0.696304       -18.9474
 128   2.0000      -0.693920       -18.8825
 129   2.0000      -0.677472       -18.4350
 130   2.0000      -0.675987       -18.3945
 131   2.0000      -0.662274       -18.0214
 132   2.0000      -0.661782       -18.0080
 133   2.0000      -0.655585       -17.8394
 134   2.0000      -0.651807       -17.7366
 135   2.0000      -0.648577       -17.6487
 136   2.0000      -0.638676       -17.3793
 137   2.0000      -0.629727       -17.1357
 138   2.0000      -0.627624       -17.0785
 139   2.0000      -0.626161       -17.0387
 140   2.0000      -0.625352       -17.0167
 141   2.0000      -0.625168       -17.0117
 142   2.0000      -0.623392       -16.9634
 143   2.0000      -0.614659       -16.7257
 144   2.0000      -0.608017       -16.5450
 145   2.0000      -0.605828       -16.4854
 146   2.0000      -0.601344       -16.3634
 147   2.0000      -0.596813       -16.2401
 148   2.0000      -0.594307       -16.1719
 149   2.0000      -0.589416       -16.0388
 150   2.0000      -0.588437       -16.0122
 151   2.0000      -0.585714       -15.9381
 152   2.0000      -0.576669       -15.6920
 153   2.0000      -0.574853       -15.6426
 154   2.0000      -0.571231       -15.5440
 155   2.0000      -0.567777       -15.4500
 156   2.0000      -0.562744       -15.3130
 157   2.0000      -0.561366       -15.2755
 158   2.0000      -0.558802       -15.2058
 159   2.0000      -0.558492       -15.1973
 160   2.0000      -0.552291       -15.0286
 161   2.0000      -0.546117       -14.8606
 162   2.0000      -0.541579       -14.7371
 163   2.0000      -0.539601       -14.6833
 164   2.0000      -0.532356       -14.4862
 165   2.0000      -0.530538       -14.4367
 166   2.0000      -0.526122       -14.3165
 167   2.0000      -0.524826       -14.2812
 168   2.0000      -0.523455       -14.2439
 169   2.0000      -0.522454       -14.2167
 170   2.0000      -0.519628       -14.1398
 171   2.0000      -0.514285       -13.9944
 172   2.0000      -0.509480       -13.8636
 173   2.0000      -0.506646       -13.7865
 174   2.0000      -0.504490       -13.7279
 175   2.0000      -0.501015       -13.6333
 176   2.0000      -0.500457       -13.6181
 177   2.0000      -0.497064       -13.5258
 178   2.0000      -0.494189       -13.4476
 179   2.0000      -0.491510       -13.3747
 180   2.0000      -0.490283       -13.3413
 181   2.0000      -0.487967       -13.2782
 182   2.0000      -0.485164       -13.2020
 183   2.0000      -0.480868       -13.0851
 184   2.0000      -0.476739       -12.9727
 185   2.0000      -0.472362       -12.8536
 186   2.0000      -0.471232       -12.8229
 187   2.0000      -0.464534       -12.6406
 188   2.0000      -0.463246       -12.6056
 189   2.0000      -0.460158       -12.5215
 190   2.0000      -0.458233       -12.4691
 191   2.0000      -0.454740       -12.3741
 192   2.0000      -0.452850       -12.3227
 193   2.0000      -0.450444       -12.2572
 194   2.0000      -0.447732       -12.1834
 195   2.0000      -0.445361       -12.1189
 196   2.0000      -0.442136       -12.0311
 197   2.0000      -0.436436       -11.8760
 198   2.0000      -0.433257       -11.7895
 199   2.0000      -0.432711       -11.7747
 200   2.0000      -0.431115       -11.7312
 201   2.0000      -0.419538       -11.4162
 202   2.0000      -0.417251       -11.3540
 203   2.0000      -0.411980       -11.2105
 204   2.0000      -0.410504       -11.1704
 205   2.0000      -0.404950       -11.0193
 206   2.0000      -0.401073       -10.9138
 207   2.0000      -0.389619       -10.6021
 208   2.0000      -0.387412       -10.5420
 209   2.0000      -0.380804       -10.3622
 210   2.0000      -0.380131       -10.3439
 211   2.0000      -0.374592       -10.1932
 212   2.0000      -0.372693       -10.1415
 213   2.0000      -0.369970       -10.0674
 214   2.0000      -0.368934       -10.0392
 215   2.0000      -0.361105        -9.8262
 216   2.0000      -0.360431        -9.8078
 217   2.0000      -0.356226        -9.6934
 218   2.0000      -0.351928        -9.5764
 219   2.0000      -0.347908        -9.4671
 220   2.0000      -0.346285        -9.4229
 221   2.0000      -0.338834        -9.2201
 222   2.0000      -0.337400        -9.1811
 223   2.0000      -0.328118        -8.9285
 224   2.0000      -0.325952        -8.8696
 225   2.0000      -0.320874        -8.7314
 226   2.0000      -0.316292        -8.6067
 227   2.0000      -0.305001        -8.2995
 228   2.0000      -0.297364        -8.0917
 229   2.0000      -0.287669        -7.8279
 230   2.0000      -0.275376        -7.4934
 231   2.0000      -0.269936        -7.3453
 232   2.0000      -0.233330        -6.3492
 233   0.0000      -0.077560        -2.1105
 234   0.0000      -0.060135        -1.6363
 235   0.0000      -0.056852        -1.5470
 236   0.0000      -0.050254        -1.3675
 237   0.0000      -0.046843        -1.2747

MULLIKEN ATOMIC CHARGES
-----------------------
   0 C :    0.029560
   1 C :   -0.040074
   2 C :    0.122621
   3 C :   -0.054947
   4 C :    0.003437
   5 C :    0.038604
   6 C :    0.034287
   7 O :   -0.174744
   8 N :   -0.406261
   9 C :    0.177104
  10 C :    0.195666
  11 O :   -0.234918
  12 C :   -0.024030
  13 C :    0.004908
  14 C :   -0.015547
  15 C :    0.071821
  16 N :   -0.045655
  17 C :   -0.135340
  18 S :    0.155939
  19 C :   -0.003720
  20 N :    0.280116
  21 O :   -0.255847
  22 O :   -0.271192
  23 C :   -0.011410
  24 C :    0.107234
  25 C :   -0.014333
  26 C :    0.036437
  27 C :    0.044042
  28 C :   -0.049375
  29 C :    0.069223
  30 C :   -0.032007
  31 C :   -0.114376
  32 S :    0.198959
  33 C :   -0.008133
  34 C :    0.044089
  35 C :    0.044208
  36 C :   -0.091083
  37 S :    0.075289
  38 C :    0.040920
  39 N :   -0.044838
  40 C :   -0.115402
  41 S :    0.173015
  42 C :   -0.018683
  43 N :    0.278319
  44 O :   -0.257753
  45 O :   -0.273616
  46 C :    0.011951
  47 C :    0.104691
  48 C :   -0.003861
  49 C :   -0.045836
  50 C :    0.119254
  51 C :   -0.010624
  52 C :   -0.015057
  53 C :    0.084750
  54 C :    0.045558
  55 C :   -0.080029
  56 C :    0.086819
  57 C :   -0.226553
  58 C :    0.129756
  59 O :   -0.165582
  60 N :   -0.029287
  61 C :   -0.137676
  62 N :    0.125895
  63 H :   -0.011717
  64 H :    0.005130
  65 H :   -0.009513
  66 H :    0.028397
  67 H :    0.027746
  68 H :    0.040941
  69 H :    0.006698
  70 H :   -0.027708
  71 H :    0.137270
  72 H :    0.009919
  73 H :    0.020504
  74 H :    0.004456
  75 H :    0.000650
  76 H :   -0.011108
  77 H :    0.016724
  78 H :    0.001139
  79 H :    0.007288
  80 H :    0.009934
  81 H :    0.148607
  82 H :    0.006889
  83 H :   -0.005553
  84 H :   -0.015862
  85 H :   -0.010755
  86 H :   -0.027434
  87 H :   -0.024061
  88 H :    0.009525
  89 H :    0.135213
Sum of atomic charges:   -0.0000000

LOEWDIN ATOMIC CHARGES
----------------------
   0 C :   -0.004368
   1 C :   -0.027557
   2 C :    0.005132
   3 C :   -0.082717
   4 C :    0.010490
   5 C :   -0.022743
   6 C :    0.056851
   7 O :   -0.155519
   8 N :   -0.191560
   9 C :    0.016750
  10 C :    0.071781
  11 O :   -0.194139
  12 C :   -0.072732
  13 C :    0.024149
  14 C :   -0.052771
  15 C :    0.030195
  16 N :    0.014229
  17 C :   -0.099077
  18 S :    0.442081
  19 C :   -0.218114
  20 N :    0.274104
  21 O :   -0.221041
  22 O :   -0.236773
  23 C :    0.007975
  24 C :   -0.105739
  25 C :   -0.001129
  26 C :   -0.030671
  27 C :    0.014964
  28 C :   -0.064708
  29 C :   -0.004440
  30 C :   -0.045405
  31 C :   -0.202140
  32 S :    0.471132
  33 C :   -0.158877
  34 C :   -0.011011
  35 C :   -0.045359
  36 C :   -0.184860
  37 S :    0.352564
  38 C :   -0.027580
  39 N :    0.032165
  40 C :   -0.101241
  41 S :    0.482554
  42 C :   -0.219553
  43 N :    0.273577
  44 O :   -0.223829
  45 O :   -0.240009
  46 C :   -0.000198
  47 C :   -0.111134
  48 C :   -0.013838
  49 C :   -0.044788
  50 C :   -0.042547
  51 C :    0.009936
  52 C :   -0.046743
  53 C :    0.051128
  54 C :   -0.059433
  55 C :    0.011126
  56 C :    0.067075
  57 C :   -0.110482
  58 C :    0.070898
  59 O :   -0.189450
  60 N :    0.047805
  61 C :   -0.024819
  62 N :   -0.041359
  63 H :    0.031610
  64 H :    0.035469
  65 H :    0.031805
  66 H :    0.021649
  67 H :    0.021319
  68 H :    0.031142
  69 H :    0.037588
  70 H :    0.030599
  71 H :    0.088258
  72 H :    0.046626
  73 H :    0.037246
  74 H :    0.033910
  75 H :    0.038848
  76 H :    0.034846
  77 H :    0.036579
  78 H :    0.038824
  79 H :    0.027864
  80 H :    0.028632
  81 H :    0.095092
  82 H :    0.044617
  83 H :    0.031260
  84 H :    0.023462
  85 H :    0.033997
  86 H :    0.032805
  87 H :    0.030316
  88 H :    0.047257
  89 H :    0.100173

  Mayer bond orders larger than 0.100000
B(  0-C ,  1-C ) :   1.2616 B(  0-C ,  5-C ) :   1.4728 B(  0-C , 63-H ) :   0.9887
B(  1-C ,  2-C ) :   1.2860 B(  1-C , 15-C ) :   1.2245 B(  2-C ,  3-C ) :   1.1713
B(  2-C , 12-C ) :   1.2423 B(  3-C ,  4-C ) :   1.5438 B(  3-C ,  6-C ) :   0.9173
B(  4-C ,  5-C ) :   1.2364 B(  4-C , 64-H ) :   0.9762 B(  5-C , 65-H ) :   0.9945
B(  6-C ,  7-O ) :   2.1876 B(  6-C , 28-C ) :   0.9052 B(  8-N ,  9-C ) :   0.9327
B(  8-N , 10-C ) :   1.0730 B(  8-N , 32-S ) :   0.9821 B(  9-C , 66-H ) :   0.9654
B(  9-C , 67-H ) :   0.9644 B(  9-C , 68-H ) :   0.9660 B( 10-C , 11-O ) :   2.0943
B( 10-C , 12-C ) :   0.9010 B( 12-C , 13-C ) :   1.5038 B( 13-C , 14-C ) :   1.2628
B( 13-C , 69-H ) :   0.9737 B( 14-C , 15-C ) :   1.4526 B( 14-C , 70-H ) :   0.9969
B( 15-C , 16-N ) :   1.0667 B( 16-N , 17-C ) :   1.1756 B( 16-N , 71-H ) :   0.9063
B( 17-C , 18-S ) :   1.1403 B( 17-C , 24-C ) :   1.4001 B( 18-S , 19-C ) :   1.0728
B( 19-C , 20-N ) :   0.9770 B( 19-C , 23-C ) :   1.4733 B( 20-N , 21-O ) :   1.5328
B( 20-N , 22-O ) :   1.5062 B( 21-O , 22-O ) :   0.2548 B( 23-C , 24-C ) :   1.2382
B( 23-C , 72-H ) :   1.0115 B( 24-C , 25-C ) :   1.0223 B( 25-C , 26-C ) :   1.8204
B( 25-C , 73-H ) :   0.9446 B( 26-C , 27-C ) :   1.1204 B( 26-C , 74-H ) :   0.9450
B( 27-C , 28-C ) :   1.7383 B( 27-C , 75-H ) :   0.9448 B( 28-C , 29-C ) :   1.0879
B( 29-C , 30-C ) :   1.7534 B( 29-C , 76-H ) :   0.9668 B( 30-C , 31-C ) :   1.0752
B( 30-C , 77-H ) :   0.9561 B( 31-C , 32-S ) :   0.9845 B( 31-C , 33-C ) :   1.6144
B( 33-C , 34-C ) :   1.1528 B( 33-C , 37-S ) :   1.0412 B( 34-C , 35-C ) :   1.6654
B( 34-C , 78-H ) :   0.9886 B( 35-C , 36-C ) :   1.0900 B( 35-C , 79-H ) :   0.9831
B( 36-C , 37-S ) :   1.0082 B( 36-C , 38-C ) :   1.6760 B( 38-C , 39-N ) :   1.1183
B( 38-C , 80-H ) :   0.9483 B( 39-N , 40-C ) :   1.2140 B( 39-N , 81-H ) :   0.9042
B( 40-C , 41-S ) :   1.1372 B( 40-C , 47-C ) :   1.3601 B( 41-S , 42-C ) :   1.0691
B( 42-C , 43-N ) :   0.9844 B( 42-C , 46-C ) :   1.4724 B( 43-N , 44-O ) :   1.5273
B( 43-N , 45-O ) :   1.5027 B( 44-O , 45-O ) :   0.2524 B( 46-C , 47-C ) :   1.2354
B( 46-C , 82-H ) :   1.0058 B( 47-C , 48-C ) :   1.0813 B( 48-C , 49-C ) :   1.7119
B( 48-C , 83-H ) :   0.9631 B( 49-C , 50-C ) :   1.0604 B( 49-C , 84-H ) :   0.9764
B( 50-C , 51-C ) :   1.2779 B( 50-C , 55-C ) :   1.3751 B( 51-C , 52-C ) :   1.4267
B( 51-C , 85-H ) :   0.9943 B( 52-C , 53-C ) :   1.2981 B( 52-C , 86-H ) :   0.9917
B( 53-C , 54-C ) :   1.2907 B( 53-C , 60-N ) :   1.2020 B( 54-C , 55-C ) :   1.2887
B( 54-C , 56-C ) :   1.1268 B( 55-C , 87-H ) :   0.9972 B( 56-C , 57-C ) :   1.6479
B( 56-C , 88-H ) :   0.9856 B( 57-C , 58-C ) :   0.9474 B( 57-C , 61-C ) :   1.1104
B( 58-C , 59-O ) :   2.2447 B( 58-C , 60-N ) :   1.0845 B( 60-N , 89-H ) :   0.9019
B( 61-C , 62-N ) :   3.0430

-----------------------------------------------------------------------------
         ABSORPTION SPECTRUM VIA TRANSITION ELECTRIC DIPOLE MOMENTS
-----------------------------------------------------------------------------
State   Energy  Wavelength   fosc         T2         TX        TY        TZ
        (cm-1)    (nm)                  (au**2)     (au)      (au)      (au)
-----------------------------------------------------------------------------
   0   17833.3    560.7   1.297887369  23.95969   3.91059  -2.86479   0.67821
   1   22224.3    450.0   0.019202708   0.28445   0.36450   0.09442  -0.37773
   2   23667.6    422.5   0.009115560   0.12680  -0.14916  -0.05512   0.31861
   3   25367.0    394.2   0.036063017   0.46802   0.45834   0.41401   0.29418
   4   25699.4    389.1   0.252873987   3.23934  -0.12290   1.74391  -0.42781
   5   26787.8    373.3   0.078370405   0.96314   0.07656  -0.76570   0.60908
   6   27103.2    369.0   0.123272227   1.49734   0.38906   1.15936  -0.04311
   7   27908.0    358.3   0.085786709   1.01197   0.31974   0.94387   0.13728
   8   28383.2    352.3   0.167167440   1.93895  -1.22795   0.01294  -0.65645
   9   29077.2    343.9   0.048009767   0.54357   0.62954   0.01676   0.38336
  10   29536.6    338.6   0.036408632   0.40581   0.51269   0.05023   0.37474
  11   30725.4    325.5   0.176339304   1.88941  -0.81972  -0.40457  -1.02654
  12   30802.9    324.6   0.212961187   2.27607   1.47851   0.00919   0.29998
  13   31084.4    321.7   0.218342793   2.31245  -0.03062   1.50740   0.19814
  14   31138.6    321.1   0.178782728   1.89017  -0.47612   0.06878  -1.28793
  15   31456.2    317.9   0.003663753   0.03834  -0.04104  -0.15925   0.10629
  16   32349.9    309.1   0.010660277   0.10849  -0.09584  -0.23094  -0.21440
  17   32478.9    307.9   0.047725783   0.48376  -0.57469   0.38653  -0.06389
  18   33131.0    301.8   0.031675963   0.31475  -0.14918   0.31966  -0.43626
  19   33349.4    299.9   0.012750667   0.12587  -0.20175   0.03159  -0.29012
  20   33621.3    297.4   0.008148135   0.07978   0.13895  -0.14705  -0.19711
  21   34159.5    292.7   0.110348084   1.06348  -0.53033   0.87653   0.11805
  22   34385.4    290.8   0.345950349   3.31219   1.06242   1.47614   0.06674
  23   34826.1    287.1   0.035662907   0.33712   0.45205  -0.35382  -0.08709
  24   35231.3    283.8   0.108288175   1.01188   0.40475   0.91990  -0.04290
  25   35832.7    279.1   0.068483632   0.62919  -0.40881   0.64494  -0.21475
  26   35843.0    279.0   0.107379410   0.98626  -0.80946   0.57509  -0.01741
  27   36237.2    276.0   0.019259425   0.17497   0.01950   0.39141   0.14625
  28   36489.7    274.0   0.260395941   2.34930   0.54560   1.43234   0.00664
  29   37016.4    270.2   0.167897165   1.49322   0.86330  -0.74220   0.44391
  30   37209.0    268.8   0.286068259   2.53103  -1.58445   0.10545  -0.09711
  31   37528.4    266.5   0.001070302   0.00939  -0.06036   0.00331   0.07573
  32   37616.9    265.8   0.026887293   0.23531   0.34959   0.29270   0.16560
  33   38014.2    263.1   0.121445858   1.05175   0.13466  -0.98039   0.26918
  34   38446.5    260.1   0.141977248   1.21573  -0.34877   1.03726   0.13483
  35   38682.7    258.5   0.128712199   1.09541  -0.92615  -0.39744  -0.28232
  36   39016.1    256.3   0.008382856   0.07073  -0.23768   0.09662  -0.07004
  37   39661.5    252.1   0.008104142   0.06727  -0.14085  -0.12949  -0.17511
  38   39866.5    250.8   0.071509498   0.59052   0.54900   0.40791   0.35032
  39   40060.8    249.6   0.013979524   0.11488   0.26430   0.17982   0.11265
  40   40281.7    248.3   0.076494623   0.62517   0.74641   0.09644   0.24235

FINAL SINGLE POINT ENERGY     -4229.558780954390

DIPOLE MOMENT
-------------
                                X             Y             Z
Electronic contribution:     -5.17363      -6.07502       0.27895
Nuclear contribution   :      3.30556       8.08417       0.97699
                        -----------------------------------------
Total Dipole Moment    :     -1.86808       2.00915       1.25594
                        -----------------------------------------
Magnitude (a.u.)       :      3.01725
Magnitude (Debye)      :      7.66924

Rotational constants in cm-1:     0.001765     0.000349     0.000305
Rotational constants in MHz :    52.905601    10.468841     9.148688

                             ****ORCA TERMINATED NORMALLY****
TOTAL RUN TIME: 0 days 0 hours 8 minutes 48 seconds 831 msec
