                         Program Version 4.2.0 -  RELEASE  -
|  1> # ORCA input file
|  2> # SCF done       -207.685231968863          0.000790472221
|  3> ! CAM-B3LYP def2-SVP def2/J RIJCOSX Grid4 TightSCF
|  4> %maxcore 5000
|  5> %tddft
|  6>     Mode sTDDFT
|  7>     Ethresh 5.0
|  8>     maxcore 5000
|  9> end
| 10>
| 11> %pal
| 12>   nprocs 6
| 13>   end
| 14> * xyz 0 1
| 15>    C      -14.72612         5.47649         1.13416
| 16>    C      -15.52198         6.09887         2.05916
| 17>    C      -16.87768         5.77663         2.27861
| 18>    N      -17.98098         5.55106         2.50055
| 19>    C      -15.10856         7.16206         2.89042
| 20>    N      -14.85536         8.04393         3.58014
| 21>    C      -15.15133         4.44902         0.19221
| 22>    C      -14.07066         4.15012        -0.67388
| 23>    C      -14.16338         3.21880        -1.67977
| 24>    C      -15.38284         2.55433        -1.84445
| 25>    C      -16.45642         2.85672        -0.97234
| 26>    C      -16.36117         3.79505         0.04791
| 27>    S      -17.86731         1.91466        -1.34609
| 28>    C      -17.00962         1.14022        -2.65202
| 29>    C      -15.73166         1.56311        -2.80183
| 30>   Br      -17.88032        -0.15385        -3.69257
| 31>    C      -12.89523         4.95576        -0.29557
| 32>    O      -11.77915         4.85600        -0.76120
| 33>    C      -13.33678         5.78828         0.85402
| 34>    C      -12.50185         6.54583         1.61701
| 35>    C      -11.19579         6.95522         1.21404
| 36>    C      -10.14486         7.03270         2.14870
| 37>    C       -8.79351         7.29540         1.73330
| 38>    N       -7.78304         7.25914         2.61273
| 39>    C       -8.05705         7.01444         3.87831
| 40>    C       -9.40895         6.79789         4.30172
| 41>    N      -10.40020         6.79125         3.44760
| 42>    C       -9.66886         6.57770         5.67924
| 43>    N       -9.81917         6.40215         6.80063
| 44>    C       -7.00447         6.96293         4.81849
| 45>    N       -6.17084         6.91587         5.60463
| 46>    C       -8.45805         7.55290         0.37506
| 47>    C       -9.52940         7.62465        -0.53098
| 48>    C      -10.87983         7.32815        -0.11051
| 49>    N      -11.74515         7.50237        -1.10707
| 50>    S      -10.96127         7.94020        -2.43092
| 51>    N       -9.47790         7.96659        -1.81814
| 52>    N       -7.13126         7.67533         0.11886
| 53>    C       -6.38510         7.80483        -0.99669
| 54>    S       -7.01073         8.09049        -2.58522
| 55>    C       -5.38576         8.05211        -3.20348
| 56>    N       -5.21615         8.24597        -4.58303
| 57>    O       -4.08497         8.22019        -5.02692
| 58>    O       -6.22939         8.42754        -5.23419
| 59>    C       -4.42727         7.82100        -2.25945
| 60>    C       -4.97321         7.67797        -0.96667
| 61>    C       -4.22809         7.41364         0.21689
| 62>    C       -2.94685         6.94565         0.24213
| 63>    C       -2.20640         6.64146         1.39902
| 64>    C       -2.46047         6.97538         2.71035
| 65>    C       -1.69266         6.52980         3.81638
| 66>    C       -2.09344         7.02437         5.02012
| 67>    C       -3.18361         7.91687         4.93432
| 68>    S       -3.71669         8.06204         3.28109
| 69>    C       -3.77170         8.63453         5.96117
| 70>    C       -3.51357         8.52058         7.34435
| 71>    C       -4.23104         9.39146         8.10762
| 72>    C       -5.07620        10.24737         7.36356
| 73>    S       -4.95757         9.87836         5.66062
| 74>    C       -5.82646        11.29039         7.86389
| 75>    C       -6.60246        12.13747         7.07449
| 76>    C       -7.21511        13.30864         7.45330
| 77>    C       -7.05234        14.13989         8.61630
| 78>    C       -5.93092        14.24465         9.40618
| 79>    C       -5.82529        15.11518        10.50894
| 80>    N       -5.69235        15.78594        11.43160
| 81>    C       -4.70866        13.59439         9.14437
| 82>    N       -3.67262        13.13411         8.95928
| 83>    C       -8.20236        15.04097         8.67195
| 84>    C       -8.94103        14.90835         7.46863
| 85>    C       -8.31784        13.86240         6.63180
| 86>    O       -8.64966        13.49986         5.52410
| 87>    C      -10.05397        15.66642         7.19983
| 88>    C      -10.46371        16.59156         8.16677
| 89>    C       -9.72907        16.70402         9.37068
| 90>    C       -8.59807        15.94184         9.64057
| 91>    S      -10.41213        17.90119        10.42754
| 92>    C      -11.65672        18.23384         9.25236
| 93>    C      -11.56765        17.48680         8.12646
| 94>   Br      -12.95134        19.53935         9.62137
| 95>    H      -13.32164         3.01081        -2.32161
| 96>    H      -17.20464         3.98492         0.69044
| 97>    H      -15.06132         1.19146        -3.55517
| 98>    H      -12.78675         6.82374         2.62360
| 99>    H       -6.60533         7.57730         0.99365
|100>    H       -3.37969         7.77932        -2.49393
|101>    H       -4.73555         7.54371         1.16218
|102>    H       -2.46270         6.71530        -0.69634
|103>    H       -1.30302         6.06466         1.24485
|104>    H       -0.86818         5.85168         3.68425
|105>    H       -1.61978         6.79386         5.95669
|106>    H       -2.82367         7.79689         7.73823
|107>    H       -4.16880         9.46154         9.17860
|108>    H       -5.79225        11.44125         8.93337
|109>    H       -6.80422        11.82385         6.05420
|110>    H      -10.59218        15.55242         6.27202
|111>    H       -8.07296        16.06058        10.57378
|112>    H      -12.25088        17.56265         7.30041
|113> *
|114>
|115>                          ****END OF INPUT****

CARTESIAN COORDINATES (ANGSTROEM)
---------------------------------
  C    -14.726120    5.476490    1.134160
  C    -15.521980    6.098870    2.059160
  C    -16.877680    5.776630    2.278610
  N    -17.980980    5.551060    2.500550
  C    -15.108560    7.162060    2.890420
  N    -14.855360    8.043930    3.580140
  C    -15.151330    4.449020    0.192210
  C    -14.070660    4.150120   -0.673880
  C    -14.163380    3.218800   -1.679770
  C    -15.382840    2.554330   -1.844450
  C    -16.456420    2.856720   -0.972340
  C    -16.361170    3.795050    0.047910
  S    -17.867310    1.914660   -1.346090
  C    -17.009620    1.140220   -2.652020
  C    -15.731660    1.563110   -2.801830
  Br   -17.880320   -0.153850   -3.692570
  C    -12.895230    4.955760   -0.295570
  O    -11.779150    4.856000   -0.761200
  C    -13.336780    5.788280    0.854020
  C    -12.501850    6.545830    1.617010
  C    -11.195790    6.955220    1.214040
  C    -10.144860    7.032700    2.148700
  C     -8.793510    7.295400    1.733300
  N     -7.783040    7.259140    2.612730
  C     -8.057050    7.014440    3.878310
  C     -9.408950    6.797890    4.301720
  N    -10.400200    6.791250    3.447600
  C     -9.668860    6.577700    5.679240
  N     -9.819170    6.402150    6.800630
  C     -7.004470    6.962930    4.818490
  N     -6.170840    6.915870    5.604630
  C     -8.458050    7.552900    0.375060
  C     -9.529400    7.624650   -0.530980
  C    -10.879830    7.328150   -0.110510
  N    -11.745150    7.502370   -1.107070
  S    -10.961270    7.940200   -2.430920
  N     -9.477900    7.966590   -1.818140
  N     -7.131260    7.675330    0.118860
  C     -6.385100    7.804830   -0.996690
  S     -7.010730    8.090490   -2.585220
  C     -5.385760    8.052110   -3.203480
  N     -5.216150    8.245970   -4.583030
  O     -4.084970    8.220190   -5.026920
  O     -6.229390    8.427540   -5.234190
  C     -4.427270    7.821000   -2.259450
  C     -4.973210    7.677970   -0.966670
  C     -4.228090    7.413640    0.216890
  C     -2.946850    6.945650    0.242130
  C     -2.206400    6.641460    1.399020
  C     -2.460470    6.975380    2.710350
  C     -1.692660    6.529800    3.816380
  C     -2.093440    7.024370    5.020120
  C     -3.183610    7.916870    4.934320
  S     -3.716690    8.062040    3.281090
  C     -3.771700    8.634530    5.961170
  C     -3.513570    8.520580    7.344350
  C     -4.231040    9.391460    8.107620
  C     -5.076200   10.247370    7.363560
  S     -4.957570    9.878360    5.660620
  C     -5.826460   11.290390    7.863890
  C     -6.602460   12.137470    7.074490
  C     -7.215110   13.308640    7.453300
  C     -7.052340   14.139890    8.616300
  C     -5.930920   14.244650    9.406180
  C     -5.825290   15.115180   10.508940
  N     -5.692350   15.785940   11.431600
  C     -4.708660   13.594390    9.144370
  N     -3.672620   13.134110    8.959280
  C     -8.202360   15.040970    8.671950
  C     -8.941030   14.908350    7.468630
  C     -8.317840   13.862400    6.631800
  O     -8.649660   13.499860    5.524100
  C    -10.053970   15.666420    7.199830
  C    -10.463710   16.591560    8.166770
  C     -9.729070   16.704020    9.370680
  C     -8.598070   15.941840    9.640570
  S    -10.412130   17.901190   10.427540
  C    -11.656720   18.233840    9.252360
  C    -11.567650   17.486800    8.126460
  Br   -12.951340   19.539350    9.621370
  H    -13.321640    3.010810   -2.321610
  H    -17.204640    3.984920    0.690440
  H    -15.061320    1.191460   -3.555170
  H    -12.786750    6.823740    2.623600
  H     -6.605330    7.577300    0.993650
  H     -3.379690    7.779320   -2.493930
  H     -4.735550    7.543710    1.162180
  H     -2.462700    6.715300   -0.696340
  H     -1.303020    6.064660    1.244850
  H     -0.868180    5.851680    3.684250
  H     -1.619780    6.793860    5.956690
  H     -2.823670    7.796890    7.738230
  H     -4.168800    9.461540    9.178600
  H     -5.792250   11.441250    8.933370
  H     -6.804220   11.823850    6.054200
  H    -10.592180   15.552420    6.272020
  H     -8.072960   16.060580   10.573780
  H    -12.250880   17.562650    7.300410

 Total Charge           Charge          ....    0
 Multiplicity           Mult            ....    1
 Number of Electrons    NEL             ....  636
 Basis Dimension        Dim             .... 1270

ORBITAL ENERGIES
----------------

  NO   OCC          E(Eh)            E(eV)
   0   2.0000    -482.889397    -13140.0885
   1   2.0000    -482.879576    -13139.8213
   2   2.0000     -89.061396     -2423.4838
   3   2.0000     -88.995009     -2421.6773
   4   2.0000     -88.979486     -2421.2549
   5   2.0000     -88.972197     -2421.0566
   6   2.0000     -88.968571     -2420.9579
   7   2.0000     -88.964725     -2420.8533
   8   2.0000     -62.567104     -1702.5375
   9   2.0000     -62.557300     -1702.2707
  10   2.0000     -56.401058     -1534.7508
  11   2.0000     -56.398335     -1534.6767
  12   2.0000     -56.398305     -1534.6759
  13   2.0000     -56.391242     -1534.4837
  14   2.0000     -56.388539     -1534.4102
  15   2.0000     -56.388505     -1534.4092
  16   2.0000     -19.246859      -523.7337
  17   2.0000     -19.246633      -523.7275
  18   2.0000     -19.221794      -523.0516
  19   2.0000     -19.204939      -522.5930
  20   2.0000     -14.657887      -398.8614
  21   2.0000     -14.520980      -395.1360
  22   2.0000     -14.493394      -394.3853
  23   2.0000     -14.476786      -393.9334
  24   2.0000     -14.476710      -393.9313
  25   2.0000     -14.461883      -393.5279
  26   2.0000     -14.445311      -393.0769
  27   2.0000     -14.442925      -393.0120
  28   2.0000     -14.418527      -392.3481
  29   2.0000     -14.416941      -392.3049
  30   2.0000     -14.406762      -392.0279
  31   2.0000     -14.404879      -391.9767
  32   2.0000     -10.401494      -283.0390
  33   2.0000     -10.396890      -282.9138
  34   2.0000     -10.395557      -282.8775
  35   2.0000     -10.386171      -282.6221
  36   2.0000     -10.372620      -282.2533
  37   2.0000     -10.370360      -282.1918
  38   2.0000     -10.370085      -282.1844
  39   2.0000     -10.367249      -282.1072
  40   2.0000     -10.363175      -281.9963
  41   2.0000     -10.360062      -281.9116
  42   2.0000     -10.355580      -281.7897
  43   2.0000     -10.351739      -281.6851
  44   2.0000     -10.349687      -281.6293
  45   2.0000     -10.346369      -281.5390
  46   2.0000     -10.343868      -281.4710
  47   2.0000     -10.339494      -281.3519
  48   2.0000     -10.335102      -281.2324
  49   2.0000     -10.334775      -281.2235
  50   2.0000     -10.332713      -281.1674
  51   2.0000     -10.331957      -281.1468
  52   2.0000     -10.331920      -281.1458
  53   2.0000     -10.330693      -281.1124
  54   2.0000     -10.329975      -281.0929
  55   2.0000     -10.329264      -281.0736
  56   2.0000     -10.321917      -280.8736
  57   2.0000     -10.321010      -280.8489
  58   2.0000     -10.319295      -280.8023
  59   2.0000     -10.319131      -280.7978
  60   2.0000     -10.317945      -280.7656
  61   2.0000     -10.317865      -280.7634
  62   2.0000     -10.315496      -280.6989
  63   2.0000     -10.312517      -280.6179
  64   2.0000     -10.312264      -280.6110
  65   2.0000     -10.310033      -280.5503
  66   2.0000     -10.309761      -280.5429
  67   2.0000     -10.309169      -280.5267
  68   2.0000     -10.308334      -280.5040
  69   2.0000     -10.306538      -280.4552
  70   2.0000     -10.306523      -280.4548
  71   2.0000     -10.306462      -280.4531
  72   2.0000     -10.305990      -280.4402
  73   2.0000     -10.305800      -280.4351
  74   2.0000     -10.304100      -280.3888
  75   2.0000     -10.303727      -280.3787
  76   2.0000     -10.303691      -280.3777
  77   2.0000     -10.300867      -280.3008
  78   2.0000     -10.300275      -280.2847
  79   2.0000     -10.299495      -280.2635
  80   2.0000     -10.297508      -280.2094
  81   2.0000     -10.297252      -280.2025
  82   2.0000     -10.296945      -280.1941
  83   2.0000     -10.293321      -280.0955
  84   2.0000     -10.289953      -280.0038
  85   2.0000     -10.289670      -279.9961
  86   2.0000     -10.284927      -279.8671
  87   2.0000     -10.284084      -279.8441
  88   2.0000      -8.796531      -239.3658
  89   2.0000      -8.786733      -239.0992
  90   2.0000      -8.152329      -221.8361
  91   2.0000      -8.089012      -220.1132
  92   2.0000      -8.075557      -219.7471
  93   2.0000      -8.067726      -219.5340
  94   2.0000      -8.064594      -219.4488
  95   2.0000      -8.060926      -219.3489
  96   2.0000      -6.632844      -180.4888
  97   2.0000      -6.623011      -180.2213
  98   2.0000      -6.618263      -180.0921
  99   2.0000      -6.618054      -180.0864
 100   2.0000      -6.608481      -179.8259
 101   2.0000      -6.608288      -179.8207
 102   2.0000      -6.123357      -166.6250
 103   2.0000      -6.115597      -166.4139
 104   2.0000      -6.115189      -166.4028
 105   2.0000      -6.058677      -164.8650
 106   2.0000      -6.054290      -164.7456
 107   2.0000      -6.050318      -164.6375
 108   2.0000      -6.045246      -164.4995
 109   2.0000      -6.040972      -164.3832
 110   2.0000      -6.037374      -164.2853
 111   2.0000      -6.036742      -164.2681
 112   2.0000      -6.034283      -164.2012
 113   2.0000      -6.033363      -164.1761
 114   2.0000      -6.030540      -164.0993
 115   2.0000      -6.030012      -164.0850
 116   2.0000      -6.028901      -164.0548
 117   2.0000      -6.026549      -163.9907
 118   2.0000      -6.025814      -163.9707
 119   2.0000      -6.022016      -163.8674
 120   2.0000      -2.748726       -74.7966
 121   2.0000      -2.744636       -74.6853
 122   2.0000      -2.744444       -74.6801
 123   2.0000      -2.738880       -74.5287
 124   2.0000      -2.734787       -74.4173
 125   2.0000      -2.734688       -74.4147
 126   2.0000      -2.732873       -74.3653
 127   2.0000      -2.732861       -74.3649
 128   2.0000      -2.723120       -74.0999
 129   2.0000      -2.723102       -74.0994
 130   2.0000      -1.328402       -36.1477
 131   2.0000      -1.162116       -31.6228
 132   2.0000      -1.147594       -31.2276
 133   2.0000      -1.145419       -31.1684
 134   2.0000      -1.136342       -30.9214
 135   2.0000      -1.121842       -30.5269
 136   2.0000      -1.119255       -30.4565
 137   2.0000      -1.065332       -28.9892
 138   2.0000      -1.030410       -28.0389
 139   2.0000      -1.026721       -27.9385
 140   2.0000      -1.020113       -27.7587
 141   2.0000      -1.018174       -27.7059
 142   2.0000      -1.016449       -27.6590
 143   2.0000      -1.015817       -27.6418
 144   2.0000      -1.014568       -27.6078
 145   2.0000      -1.011761       -27.5314
 146   2.0000      -1.004775       -27.3413
 147   2.0000      -0.996341       -27.1118
 148   2.0000      -0.994531       -27.0626
 149   2.0000      -0.993695       -27.0398
 150   2.0000      -0.987797       -26.8793
 151   2.0000      -0.984703       -26.7951
 152   2.0000      -0.980701       -26.6862
 153   2.0000      -0.947411       -25.7804
 154   2.0000      -0.940571       -25.5942
 155   2.0000      -0.935877       -25.4665
 156   2.0000      -0.928147       -25.2562
 157   2.0000      -0.923509       -25.1300
 158   2.0000      -0.913991       -24.8710
 159   2.0000      -0.912203       -24.8223
 160   2.0000      -0.902916       -24.5696
 161   2.0000      -0.900257       -24.4972
 162   2.0000      -0.891702       -24.2644
 163   2.0000      -0.890098       -24.2208
 164   2.0000      -0.880885       -23.9701
 165   2.0000      -0.878012       -23.8919
 166   2.0000      -0.875249       -23.8167
 167   2.0000      -0.867208       -23.5979
 168   2.0000      -0.857910       -23.3449
 169   2.0000      -0.850914       -23.1546
 170   2.0000      -0.847176       -23.0528
 171   2.0000      -0.843187       -22.9443
 172   2.0000      -0.833279       -22.6747
 173   2.0000      -0.830828       -22.6080
 174   2.0000      -0.821847       -22.3636
 175   2.0000      -0.820973       -22.3398
 176   2.0000      -0.807277       -21.9671
 177   2.0000      -0.798194       -21.7200
 178   2.0000      -0.777141       -21.1471
 179   2.0000      -0.770635       -20.9700
 180   2.0000      -0.763159       -20.7666
 181   2.0000      -0.756738       -20.5919
 182   2.0000      -0.754867       -20.5410
 183   2.0000      -0.745903       -20.2971
 184   2.0000      -0.733811       -19.9680
 185   2.0000      -0.726195       -19.7608
 186   2.0000      -0.713202       -19.4072
 187   2.0000      -0.708371       -19.2758
 188   2.0000      -0.702065       -19.1042
 189   2.0000      -0.697386       -18.9768
 190   2.0000      -0.694049       -18.8860
 191   2.0000      -0.691905       -18.8277
 192   2.0000      -0.685641       -18.6572
 193   2.0000      -0.679779       -18.4977
 194   2.0000      -0.677717       -18.4416
 195   2.0000      -0.669669       -18.2226
 196   2.0000      -0.662280       -18.0216
 197   2.0000      -0.661815       -18.0089
 198   2.0000      -0.657421       -17.8893
 199   2.0000      -0.651833       -17.7373
 200   2.0000      -0.651129       -17.7181
 201   2.0000      -0.645671       -17.5696
 202   2.0000      -0.641065       -17.4443
 203   2.0000      -0.639459       -17.4006
 204   2.0000      -0.634229       -17.2582
 205   2.0000      -0.631280       -17.1780
 206   2.0000      -0.629154       -17.1202
 207   2.0000      -0.625512       -17.0210
 208   2.0000      -0.622107       -16.9284
 209   2.0000      -0.615119       -16.7382
 210   2.0000      -0.612007       -16.6536
 211   2.0000      -0.606938       -16.5156
 212   2.0000      -0.604789       -16.4571
 213   2.0000      -0.601113       -16.3571
 214   2.0000      -0.593217       -16.1423
 215   2.0000      -0.588941       -16.0259
 216   2.0000      -0.587881       -15.9971
 217   2.0000      -0.584299       -15.8996
 218   2.0000      -0.580910       -15.8074
 219   2.0000      -0.576676       -15.6922
 220   2.0000      -0.576275       -15.6812
 221   2.0000      -0.562407       -15.3039
 222   2.0000      -0.559936       -15.2366
 223   2.0000      -0.558945       -15.2097
 224   2.0000      -0.552672       -15.0390
 225   2.0000      -0.549888       -14.9632
 226   2.0000      -0.543122       -14.7791
 227   2.0000      -0.542150       -14.7527
 228   2.0000      -0.539681       -14.6855
 229   2.0000      -0.535610       -14.5747
 230   2.0000      -0.533716       -14.5232
 231   2.0000      -0.529043       -14.3960
 232   2.0000      -0.527718       -14.3599
 233   2.0000      -0.525306       -14.2943
 234   2.0000      -0.522867       -14.2279
 235   2.0000      -0.522250       -14.2111
 236   2.0000      -0.521676       -14.1955
 237   2.0000      -0.516204       -14.0466
 238   2.0000      -0.512151       -13.9363
 239   2.0000      -0.511329       -13.9140
 240   2.0000      -0.507680       -13.8147
 241   2.0000      -0.505532       -13.7562
 242   2.0000      -0.503725       -13.7071
 243   2.0000      -0.500832       -13.6283
 244   2.0000      -0.500063       -13.6074
 245   2.0000      -0.499044       -13.5797
 246   2.0000      -0.496568       -13.5123
 247   2.0000      -0.496231       -13.5031
 248   2.0000      -0.494209       -13.4481
 249   2.0000      -0.490480       -13.3466
 250   2.0000      -0.489196       -13.3117
 251   2.0000      -0.487629       -13.2690
 252   2.0000      -0.483862       -13.1666
 253   2.0000      -0.480744       -13.0817
 254   2.0000      -0.479124       -13.0376
 255   2.0000      -0.474712       -12.9176
 256   2.0000      -0.473023       -12.8716
 257   2.0000      -0.469289       -12.7700
 258   2.0000      -0.467875       -12.7315
 259   2.0000      -0.466130       -12.6840
 260   2.0000      -0.463048       -12.6002
 261   2.0000      -0.461487       -12.5577
 262   2.0000      -0.460303       -12.5255
 263   2.0000      -0.457888       -12.4598
 264   2.0000      -0.453654       -12.3446
 265   2.0000      -0.451858       -12.2957
 266   2.0000      -0.451549       -12.2873
 267   2.0000      -0.450891       -12.2694
 268   2.0000      -0.448385       -12.2012
 269   2.0000      -0.445894       -12.1334
 270   2.0000      -0.442583       -12.0433
 271   2.0000      -0.441909       -12.0249
 272   2.0000      -0.439553       -11.9608
 273   2.0000      -0.439208       -11.9514
 274   2.0000      -0.437498       -11.9049
 275   2.0000      -0.434831       -11.8323
 276   2.0000      -0.432869       -11.7790
 277   2.0000      -0.431885       -11.7522
 278   2.0000      -0.429977       -11.7003
 279   2.0000      -0.429297       -11.6818
 280   2.0000      -0.428594       -11.6626
 281   2.0000      -0.424011       -11.5379
 282   2.0000      -0.420963       -11.4550
 283   2.0000      -0.419512       -11.4155
 284   2.0000      -0.419348       -11.4110
 285   2.0000      -0.415679       -11.3112
 286   2.0000      -0.415318       -11.3014
 287   2.0000      -0.411120       -11.1872
 288   2.0000      -0.410771       -11.1777
 289   2.0000      -0.400842       -10.9075
 290   2.0000      -0.399186       -10.8624
 291   2.0000      -0.393037       -10.6951
 292   2.0000      -0.392408       -10.6780
 293   2.0000      -0.386835       -10.5263
 294   2.0000      -0.386440       -10.5156
 295   2.0000      -0.381715       -10.3870
 296   2.0000      -0.380692       -10.3591
 297   2.0000      -0.378666       -10.3040
 298   2.0000      -0.377409       -10.2698
 299   2.0000      -0.375118       -10.2075
 300   2.0000      -0.372576       -10.1383
 301   2.0000      -0.369111       -10.0440
 302   2.0000      -0.368379       -10.0241
 303   2.0000      -0.356122        -9.6906
 304   2.0000      -0.353641        -9.6231
 305   2.0000      -0.351600        -9.5675
 306   2.0000      -0.343298        -9.3416
 307   2.0000      -0.340553        -9.2669
 308   2.0000      -0.336758        -9.1637
 309   2.0000      -0.329067        -8.9544
 310   2.0000      -0.321109        -8.7378
 311   2.0000      -0.319459        -8.6929
 312   2.0000      -0.307772        -8.3749
 313   2.0000      -0.298756        -8.1296
 314   2.0000      -0.295160        -8.0317
 315   2.0000      -0.286418        -7.7938
 316   2.0000      -0.270257        -7.3541
 317   2.0000      -0.231354        -6.2955
 318   0.0000      -0.137909        -3.7527
 319   0.0000      -0.111702        -3.0396
 320   0.0000      -0.090335        -2.4581
 321   0.0000      -0.068461        -1.8629
 322   0.0000      -0.066248        -1.8027

MULLIKEN ATOMIC CHARGES
-----------------------
   0 C :    0.295053
   1 C :   -0.333606
   2 C :   -0.185519
   3 N :    0.154736
   4 C :   -0.200797
   5 N :    0.165405
   6 C :    0.019302
   7 C :   -0.018453
   8 C :   -0.070973
   9 C :    0.116916
  10 C :   -0.090284
  11 C :   -0.020735
  12 S :    0.189684
  13 C :   -0.121379
  14 C :    0.036346
  15 Br:    0.026538
  16 C :    0.156505
  17 O :   -0.165786
  18 C :   -0.065669
  19 C :   -0.088128
  20 C :    0.033740
  21 C :   -0.026865
  22 C :   -0.036602
  23 N :   -0.005796
  24 C :   -0.133329
  25 C :   -0.126695
  26 N :    0.072629
  27 C :   -0.202351
  28 N :    0.244764
  29 C :   -0.208362
  30 N :    0.237954
  31 C :    0.037595
  32 C :    0.009011
  33 C :    0.057737
  34 N :   -0.269058
  35 S :    0.579427
  36 N :   -0.335207
  37 N :    0.091526
  38 C :   -0.107354
  39 S :    0.197513
  40 C :    0.018676
  41 N :    0.267853
  42 O :   -0.243882
  43 O :   -0.258598
  44 C :    0.008925
  45 C :    0.129362
  46 C :   -0.063838
  47 C :    0.018859
  48 C :   -0.006651
  49 C :   -0.024184
  50 C :    0.037872
  51 C :    0.039470
  52 C :   -0.025231
  53 S :    0.072156
  54 C :   -0.025543
  55 C :    0.049933
  56 C :    0.049043
  57 C :   -0.012714
  58 S :    0.102644
  59 C :    0.000532
  60 C :    0.015504
  61 C :   -0.115755
  62 C :    0.281885
  63 C :   -0.341545
  64 C :   -0.176432
  65 N :    0.140398
  66 C :   -0.219858
  67 N :    0.159962
  68 C :    0.004599
  69 C :   -0.002130
  70 C :    0.134056
  71 O :   -0.154104
  72 C :   -0.072405
  73 C :    0.113616
  74 C :   -0.088758
  75 C :   -0.022273
  76 S :    0.182407
  77 C :   -0.126242
  78 C :    0.038838
  79 Br:    0.019172
  80 H :   -0.013829
  81 H :   -0.004467
  82 H :   -0.003253
  83 H :    0.045726
  84 H :    0.155318
  85 H :    0.013053
  86 H :   -0.002949
  87 H :   -0.007639
  88 H :   -0.001987
  89 H :   -0.002399
  90 H :   -0.003792
  91 H :   -0.001844
  92 H :    0.005751
  93 H :    0.016711
  94 H :    0.012341
  95 H :   -0.011801
  96 H :   -0.006859
  97 H :   -0.003131
Sum of atomic charges:   -0.0000000

LOEWDIN ATOMIC CHARGES
----------------------
   0 C :    0.073653
   1 C :   -0.132878
   2 C :   -0.017941
   3 N :   -0.049890
   4 C :   -0.023750
   5 N :   -0.044520
   6 C :   -0.020010
   7 C :   -0.049512
   8 C :    0.020414
   9 C :   -0.032313
  10 C :   -0.143417
  11 C :   -0.009168
  12 S :    0.434728
  13 C :   -0.270796
  14 C :   -0.071094
  15 Br:    0.139082
  16 C :    0.085605
  17 O :   -0.154880
  18 C :   -0.080718
  19 C :    0.080058
  20 C :   -0.071977
  21 C :    0.020243
  22 C :   -0.035152
  23 N :   -0.010680
  24 C :   -0.038350
  25 C :   -0.010027
  26 N :    0.000081
  27 C :   -0.033588
  28 N :    0.008387
  29 C :   -0.037167
  30 N :   -0.012227
  31 C :    0.048159
  32 C :   -0.067538
  33 C :   -0.011940
  34 N :   -0.270787
  35 S :    0.702130
  36 N :   -0.291676
  37 N :    0.090833
  38 C :   -0.116924
  39 S :    0.509871
  40 C :   -0.203832
  41 N :    0.272690
  42 O :   -0.210280
  43 O :   -0.225562
  44 C :   -0.002555
  45 C :   -0.080469
  46 C :   -0.038055
  47 C :   -0.023239
  48 C :   -0.050026
  49 C :   -0.139843
  50 C :   -0.020230
  51 C :   -0.027265
  52 C :   -0.156397
  53 S :    0.398387
  54 C :   -0.166264
  55 C :   -0.001243
  56 C :   -0.021406
  57 C :   -0.099681
  58 S :    0.405990
  59 C :   -0.058920
  60 C :    0.049911
  61 C :   -0.098973
  62 C :    0.068530
  63 C :   -0.148979
  64 C :   -0.019937
  65 N :   -0.059943
  66 C :   -0.023596
  67 N :   -0.060063
  68 C :   -0.016567
  69 C :   -0.051861
  70 C :    0.079563
  71 O :   -0.154636
  72 C :    0.020716
  73 C :   -0.035285
  74 C :   -0.144240
  75 C :   -0.014500
  76 S :    0.430102
  77 C :   -0.273916
  78 C :   -0.070243
  79 Br:    0.133307
  80 H :    0.039656
  81 H :    0.041570
  82 H :    0.038836
  83 H :    0.048261
  84 H :    0.093898
  85 H :    0.044375
  86 H :    0.007701
  87 H :    0.033217
  88 H :    0.039501
  89 H :    0.037650
  90 H :    0.036613
  91 H :    0.037411
  92 H :    0.042073
  93 H :    0.040233
  94 H :    0.034513
  95 H :    0.040335
  96 H :    0.040095
  97 H :    0.038547

  Mayer bond orders larger than 0.100000
B(  0-C ,  1-C ) :   1.6537 B(  0-C ,  6-C ) :   1.0066 B(  0-C , 18-C ) :   1.0582
B(  1-C ,  2-C ) :   1.1372 B(  1-C ,  4-C ) :   1.1416 B(  2-C ,  3-N ) :   2.9727
B(  4-C ,  5-N ) :   2.9881 B(  6-C ,  7-C ) :   1.2736 B(  6-C , 11-C ) :   1.4085
B(  7-C ,  8-C ) :   1.4227 B(  7-C , 16-C ) :   0.9530 B(  8-C ,  9-C ) :   1.2475
B(  8-C , 80-H ) :   1.0165 B(  9-C , 10-C ) :   1.3045 B(  9-C , 14-C ) :   1.1616
B( 10-C , 11-C ) :   1.3308 B( 10-C , 12-S ) :   1.0867 B( 11-C , 81-H ) :   0.9795
B( 12-S , 13-C ) :   1.0866 B( 13-C , 14-C ) :   1.6185 B( 13-C , 15-Br) :   1.0207
B( 14-C , 82-H ) :   1.0003 B( 16-C , 17-O ) :   2.2000 B( 16-C , 18-C ) :   0.9442
B( 18-C , 19-C ) :   1.6165 B( 19-C , 20-C ) :   1.1694 B( 19-C , 83-H ) :   0.9315
B( 20-C , 21-C ) :   1.2627 B( 20-C , 33-C ) :   1.1620 B( 21-C , 22-C ) :   1.1532
B( 21-C , 26-N ) :   1.4556 B( 22-C , 23-N ) :   1.4147 B( 22-C , 31-C ) :   1.2099
B( 23-N , 24-C ) :   1.6816 B( 23-N , 84-H ) :   0.1041 B( 24-C , 25-C ) :   1.2173
B( 24-C , 29-C ) :   1.1732 B( 25-C , 26-N ) :   1.7474 B( 25-C , 27-C ) :   1.1540
B( 27-C , 28-N ) :   3.0441 B( 29-C , 30-N ) :   2.9987 B( 31-C , 32-C ) :   1.2473
B( 31-C , 37-N ) :   1.3683 B( 32-C , 33-C ) :   1.1232 B( 32-C , 36-N ) :   1.4269
B( 33-C , 34-N ) :   1.5307 B( 34-N , 35-S ) :   1.2854 B( 34-N , 36-N ) :   0.1417
B( 35-S , 36-N ) :   1.2868 B( 37-N , 38-C ) :   1.2092 B( 37-N , 84-H ) :   0.8186
B( 38-C , 39-S ) :   1.1361 B( 38-C , 45-C ) :   1.3215 B( 39-S , 40-C ) :   1.0684
B( 40-C , 41-N ) :   0.9636 B( 40-C , 44-C ) :   1.4928 B( 41-N , 42-O ) :   1.5397
B( 41-N , 43-O ) :   1.5178 B( 42-O , 43-O ) :   0.2638 B( 44-C , 45-C ) :   1.2334
B( 44-C , 85-H ) :   0.9995 B( 45-C , 46-C ) :   1.1245 B( 46-C , 47-C ) :   1.6452
B( 46-C , 86-H ) :   0.9370 B( 47-C , 48-C ) :   1.2014 B( 47-C , 87-H ) :   0.9697
B( 48-C , 49-C ) :   1.5626 B( 48-C , 88-H ) :   0.9607 B( 49-C , 50-C ) :   1.1533
B( 49-C , 53-S ) :   1.0387 B( 50-C , 51-C ) :   1.5783 B( 50-C , 89-H ) :   0.9995
B( 51-C , 52-C ) :   1.1950 B( 51-C , 90-H ) :   0.9942 B( 52-C , 53-S ) :   1.0592
B( 52-C , 54-C ) :   1.4843 B( 54-C , 55-C ) :   1.2018 B( 54-C , 58-S ) :   1.0483
B( 55-C , 56-C ) :   1.5661 B( 55-C , 91-H ) :   0.9933 B( 56-C , 57-C ) :   1.1676
B( 56-C , 92-H ) :   0.9987 B( 57-C , 58-S ) :   1.0775 B( 57-C , 59-C ) :   1.5253
B( 59-C , 60-C ) :   1.1956 B( 59-C , 93-H ) :   0.9592 B( 60-C , 61-C ) :   1.5541
B( 60-C , 94-H ) :   0.9409 B( 61-C , 62-C ) :   1.0804 B( 61-C , 70-C ) :   0.9584
B( 62-C , 63-C ) :   1.6049 B( 62-C , 68-C ) :   1.0088 B( 63-C , 64-C ) :   1.1310
B( 63-C , 66-C ) :   1.1668 B( 64-C , 65-N ) :   2.9785 B( 66-C , 67-N ) :   3.0130
B( 68-C , 69-C ) :   1.2723 B( 68-C , 75-C ) :   1.4234 B( 69-C , 70-C ) :   0.9217
B( 69-C , 72-C ) :   1.4287 B( 70-C , 71-O ) :   2.2525 B( 72-C , 73-C ) :   1.2493
B( 72-C , 95-H ) :   1.0160 B( 73-C , 74-C ) :   1.3124 B( 73-C , 78-C ) :   1.1615
B( 74-C , 75-C ) :   1.3201 B( 74-C , 76-S ) :   1.0844 B( 75-C , 96-H ) :   0.9817
B( 76-S , 77-C ) :   1.0863 B( 77-C , 78-C ) :   1.6212 B( 77-C , 79-Br) :   1.0161
B( 78-C , 97-H ) :   0.9997

-----------------------------------------------------------------------------
         ABSORPTION SPECTRUM VIA TRANSITION ELECTRIC DIPOLE MOMENTS
-----------------------------------------------------------------------------
State   Energy  Wavelength   fosc         T2         TX        TY        TZ
        (cm-1)    (nm)                  (au**2)     (au)      (au)      (au)
-----------------------------------------------------------------------------
   0    6409.6   1560.2   0.173987669   8.93647   1.95604   1.70390   1.48563
   1   11981.1    834.6   0.459775856  12.63354  -0.07987  -2.74528  -2.25624
   2   13305.9    751.5   0.957763203  23.69672  -3.08071   1.82992   3.29504
   3   18129.3    551.6   0.122639472   2.22702   1.41727   0.39906   0.24317
   4   19612.0    509.9   0.074413171   1.24912   0.58180  -0.83426  -0.46328
   5   20828.3    480.1   0.084236276   1.33144  -0.76022   0.85698   0.13817
   6   21053.4    475.0   0.160650031   2.51208   1.30803  -0.76269   0.46845
   7   21775.4    459.2   0.212638889   3.21479   1.58373   0.70230  -0.46193
   8   21940.0    455.8   0.039223311   0.58855   0.12370   0.75507   0.05588
   9   22828.6    438.0   0.059523609   0.85839   0.82721  -0.06603  -0.41201
  10   23003.4    434.7   0.136700600   1.95638   1.16694   0.59137   0.49489
  11   23734.6    421.3   0.058007962   0.80460   0.85721   0.18990  -0.18368
  12   24195.9    413.3   0.064574846   0.87861  -0.65788   0.52056  -0.41812
  13   24374.2    410.3   0.067570690   0.91265   0.88278   0.32616  -0.16421
  14   24908.9    401.5   0.015210374   0.20103   0.22016  -0.37460  -0.11060
  15   25557.5    391.3   0.044913842   0.57854  -0.74659   0.08190   0.12015
  16   26032.8    384.1   0.048966699   0.61924   0.48690   0.07324   0.61384
  17   26114.6    382.9   0.061021724   0.76927  -0.31416  -0.04259  -0.81777
  18   26555.6    376.6   0.070418185   0.87298   0.26164  -0.58200  -0.68249
  19   26959.1    370.9   0.051660506   0.63085   0.31479   0.04450   0.72786
  20   27191.4    367.8   0.074362847   0.90033  -0.63557   0.66400  -0.23552
  21   27405.0    364.9   0.125025576   1.50191  -0.09260  -0.60385   1.06240
  22   27452.1    364.3   0.123232716   1.47784   0.92732  -0.68300   0.38915
  23   28292.6    353.4   0.045444776   0.52879   0.01259  -0.10675   0.71920
  24   28474.9    351.2   0.093417841   1.08005   0.58726   0.08549   0.85315
  25   28892.7    346.1   0.203192815   2.31524   0.86856  -0.87331   0.89340
  26   29380.3    340.4   0.016642219   0.18648  -0.21257   0.24997   0.28073
  27   29539.9    338.5   0.268201976   2.98901   0.31520   1.39247   0.97503
  28   29562.6    338.3   0.013310060   0.14822   0.02839   0.31940  -0.21308
  29   29896.9    334.5   0.134733659   1.48363   0.57334   0.93228   0.53457
  30   30198.8    331.1   0.014035333   0.15301  -0.27263  -0.10328   0.26080
  31   30349.2    329.5   0.005479287   0.05944   0.10346  -0.21079  -0.06558
  32   30856.8    324.1   0.143322309   1.52911  -0.33798   0.64828   0.99730
  33   31036.4    322.2   0.290344131   3.07976   0.59595  -0.01407   1.65058
  34   31247.6    320.0   0.041397443   0.43615  -0.31230  -0.00152   0.58190
  35   31301.2    319.5   0.020428400   0.21486  -0.31884  -0.24929  -0.22594
  36   31543.6    317.0   0.069571834   0.72610  -0.32698   0.38173   0.68809
  37   31853.6    313.9   0.138233520   1.42866  -0.89415   0.67055  -0.42370
  38   31906.6    313.4   0.230230527   2.37552  -1.46421   0.38924   0.28303
  39   32196.9    310.6   0.096657400   0.98832   0.60857  -0.78611   0.00086
  40   32455.2    308.1   0.176853399   1.79393   1.12200  -0.54592   0.48685
  41   32571.2    307.0   0.065193851   0.65894  -0.02635  -0.70573  -0.40024
  42   32645.4    306.3   0.068376485   0.68954  -0.72035   0.07944  -0.40537
  43   33105.1    302.1   0.017436348   0.17339   0.30504  -0.27151  -0.08143
  44   33323.7    300.1   0.082014147   0.81024   0.58345  -0.30676   0.61296
  45   33688.4    296.8   0.123314810   1.20506   0.45664  -0.03829   0.99754
  46   33983.6    294.3   0.387563383   3.75447  -0.88714   0.65036  -1.59514
  47   34332.4    291.3   0.438818530   4.20782   0.42444  -1.23382  -1.58283
  48   34552.1    289.4   0.030360102   0.28927   0.38424  -0.35637  -0.12095
  49   34624.9    288.8   0.010257394   0.09753   0.23521  -0.20381   0.02578
  50   34749.1    287.8   0.016629844   0.15755  -0.13762   0.21672   0.30273
  51   34959.1    286.0   0.007177641   0.06759   0.07872   0.01322   0.24743
  52   35158.3    284.4   0.010338551   0.09681   0.20764  -0.17870   0.14752
  53   35587.0    281.0   0.005570949   0.05154  -0.05941   0.20883  -0.06632
  54   35801.8    279.3   0.352805401   3.24419   0.89933  -0.23015   1.54351
  55   35945.0    278.2   0.074086391   0.67854  -0.12181  -0.13544   0.80334
  56   36595.7    273.3   0.016821632   0.15133  -0.18481   0.00119  -0.34230
  57   36941.6    270.7   0.101427708   0.90389   0.80135  -0.39023   0.33085
  58   37125.8    269.4   0.003138330   0.02783  -0.07694   0.04865   0.13979
  59   37524.8    266.5   0.024260852   0.21285   0.44820  -0.05272   0.09585
  60   37566.4    266.2   0.002384243   0.02089  -0.08714   0.02483  -0.11262
  61   37614.9    265.9   0.042980272   0.37617  -0.50782   0.25587   0.22983
  62   37698.0    265.3   0.011487773   0.10032  -0.06233   0.08071  -0.29987
  63   38130.9    262.3   0.241362369   2.08386  -1.12175  -0.31684  -0.85155
  64   38260.2    261.4   0.106447332   0.91593  -0.86576   0.15373  -0.37783
  65   38322.4    260.9   0.009952713   0.08550  -0.16853   0.20039   0.13016
  66   38571.2    259.3   0.020424094   0.17432   0.10680   0.07693   0.39623
  67   38725.3    258.2   0.079539650   0.67618   0.34389  -0.04614   0.74552
  68   38765.7    258.0   0.077236177   0.65592  -0.13198  -0.05580  -0.79711
  69   39042.8    256.1   0.056343813   0.47509  -0.50247  -0.09527  -0.46210
  70   39199.2    255.1   0.135123964   1.13483   0.93817   0.27329   0.42423
  71   39239.7    254.8   0.040020645   0.33576  -0.01581   0.10638  -0.56938
  72   39480.9    253.3   0.010939890   0.09122  -0.24326  -0.02183   0.17768
  73   39769.3    251.5   0.017935758   0.14847   0.15537  -0.02393   0.35179
  74   40077.9    249.5   0.063221294   0.51932   0.62331   0.30643  -0.19211
  75   40158.6    249.0   0.010368166   0.08500   0.27204   0.08250   0.06469
  76   40228.1    248.6   0.041079508   0.33618  -0.50470  -0.07007   0.27668

FINAL SINGLE POINT ENERGY    -10634.884958733071

DIPOLE MOMENT
-------------
                                X             Y             Z
Electronic contribution:   -146.86225      18.41810     -11.89382
Nuclear contribution   :    148.05586     -21.52761       9.24262
                        -----------------------------------------
Total Dipole Moment    :      1.19360      -3.10951      -2.65120
                        -----------------------------------------
Magnitude (a.u.)       :      4.25706
Magnitude (Debye)      :     10.82060

Rotational constants in cm-1:     0.000584     0.000247     0.000196
Rotational constants in MHz :    17.520081     7.396465     5.886644

                             ****ORCA TERMINATED NORMALLY****
TOTAL RUN TIME: 0 days 0 hours 13 minutes 48 seconds 736 msec
