                         Program Version 4.2.0 -  RELEASE  -
|  1> # ORCA input file
|  2> # SCF done       -192.009311901110          0.000607087139
|  3> ! CAM-B3LYP def2-SVP def2/J RIJCOSX Grid4 TightSCF
|  4> %maxcore 5000
|  5> %tddft
|  6>     Mode sTDDFT
|  7>     Ethresh 5.0
|  8>     maxcore 5000
|  9> end
| 10>
| 11> %pal
| 12>   nprocs 6
| 13>   end
| 14> * xyz 0 1
| 15>    C      -15.22203        -8.40185        -9.70327
| 16>    C      -14.18144        -9.00737        -9.03917
| 17>    C      -13.46738       -10.11692        -9.53424
| 18>    N      -12.84799       -11.02055        -9.87936
| 19>    C      -13.67181        -8.62433        -7.78202
| 20>    N      -13.19470        -8.38212        -6.76512
| 21>    C      -15.73723        -8.81217       -11.00826
| 22>    C      -16.80852        -7.95694       -11.36296
| 23>    C      -17.50352        -8.08589       -12.53998
| 24>    C      -17.12286        -9.11021       -13.41364
| 25>    C      -16.05039        -9.95865       -13.05285
| 26>    C      -15.34764        -9.82760       -11.86069
| 27>    S      -15.74189       -11.15395       -14.27633
| 28>    C      -17.04281       -10.50727       -15.24069
| 29>    C      -17.67532        -9.45011       -14.67912
| 30>   Br      -17.43986       -11.28610       -16.90044
| 31>    C      -17.01429        -6.96235       -10.29036
| 32>    O      -17.85275        -6.08221       -10.28040
| 33>    C      -15.99613        -7.26650        -9.26318
| 34>    C      -15.82824        -6.55441        -8.09485
| 35>    C      -16.58537        -5.44248        -7.72862
| 36>    C      -16.36605        -4.72251        -6.57335
| 37>    C      -17.06087        -3.55286        -6.17663
| 38>    C      -16.60923        -3.00437        -5.01601
| 39>    C      -15.54073        -3.72189        -4.42723
| 40>    S      -15.13565        -5.12174        -5.39551
| 41>    C      -14.84736        -3.40502        -3.27583
| 42>    C      -15.00743        -2.24886        -2.46694
| 43>    C      -14.12632        -2.17411        -1.44046
| 44>    C      -13.22953        -3.28296        -1.35533
| 45>    S      -13.57427        -4.41864        -2.65097
| 46>    C      -12.19835        -3.37545        -0.47087
| 47>    C      -11.27906        -4.46809        -0.29629
| 48>    C       -9.93601        -4.19778         0.02235
| 49>    F       -9.54496        -2.92172         0.13299
| 50>    C       -9.01147        -5.20333         0.20047
| 51>    F       -7.72389        -4.91079         0.46954
| 52>    C       -9.36448        -6.55920         0.11678
| 53>    C      -10.70291        -6.83797        -0.18476
| 54>    C      -11.62644        -5.82461        -0.37836
| 55>    F      -12.89948        -6.17161        -0.59304
| 56>    F      -11.09987        -8.11278        -0.30984
| 57>    N       -8.39576        -7.52724         0.26832
| 58>    C       -8.54641        -8.74286         0.88323
| 59>    S       -9.76255        -9.00763         2.08988
| 60>    C       -9.08580       -10.56977         2.40931
| 61>    N       -9.70642       -11.36117         3.38420
| 62>    O       -9.23410       -12.45939         3.60696
| 63>    O      -10.67492       -10.87864         3.94501
| 64>    C       -7.98918       -10.85528         1.64307
| 65>    C       -7.66703        -9.81945         0.74255
| 66>    C       -6.58718        -9.92722        -0.20098
| 67>    C       -6.44581        -9.21334        -1.33774
| 68>    C       -5.38293        -9.37798        -2.26603
| 69>    S       -4.09078       -10.50316        -2.01884
| 70>    C       -3.34265       -10.10067        -3.49700
| 71>    C       -4.03740        -9.13149        -4.18806
| 72>    C       -5.21172        -8.70783        -3.48181
| 73>    C       -6.02569        -7.71124        -4.05257
| 74>    C       -5.68448        -7.17461        -5.26010
| 75>    C       -6.52814        -6.10074        -5.88537
| 76>    F       -7.57304        -5.75746        -5.10901
| 77>    F       -5.84519        -4.96354        -6.09873
| 78>    F       -7.04806        -6.46358        -7.06695
| 79>    C       -4.52034        -7.60151        -5.97965
| 80>    O       -4.33269        -6.98139        -7.16424
| 81>    C       -3.22275        -7.34648        -7.94998
| 82>    C       -3.71129        -8.56586        -5.44275
| 83>    H      -18.31600        -7.41795       -12.77971
| 84>    H      -14.53750       -10.50019       -11.63449
| 85>    H      -18.49725        -8.93000       -15.13624
| 86>    H      -15.04785        -6.86024        -7.40898
| 87>    H      -17.37307        -5.10928        -8.38921
| 88>    H      -17.86412        -3.15429        -6.77029
| 89>    H      -17.01400        -2.11432        -4.56929
| 90>    H      -15.75354        -1.50527        -2.68079
| 91>    H      -14.08040        -1.36842        -0.72975
| 92>    H      -11.99417        -2.50082         0.13324
| 93>    H       -7.43858        -7.20871         0.15775
| 94>    H       -7.45614       -11.78596         1.71492
| 95>    H       -5.86245       -10.69982         0.01990
| 96>    H       -7.19783        -8.49424        -1.62765
| 97>    H       -2.43593       -10.59340        -3.78487
| 98>    H       -6.91410        -7.37131        -3.54432
| 99>    H       -3.28594        -6.73165        -8.84548
|100>    H       -3.26413        -8.40365        -8.22898
|101>    H       -2.28230        -7.13958        -7.43028
|102>    H       -2.82622        -8.91307        -5.94897
|103> *
|104>
|105>                          ****END OF INPUT****

CARTESIAN COORDINATES (ANGSTROEM)
---------------------------------
  C    -15.222030   -8.401850   -9.703270
  C    -14.181440   -9.007370   -9.039170
  C    -13.467380  -10.116920   -9.534240
  N    -12.847990  -11.020550   -9.879360
  C    -13.671810   -8.624330   -7.782020
  N    -13.194700   -8.382120   -6.765120
  C    -15.737230   -8.812170  -11.008260
  C    -16.808520   -7.956940  -11.362960
  C    -17.503520   -8.085890  -12.539980
  C    -17.122860   -9.110210  -13.413640
  C    -16.050390   -9.958650  -13.052850
  C    -15.347640   -9.827600  -11.860690
  S    -15.741890  -11.153950  -14.276330
  C    -17.042810  -10.507270  -15.240690
  C    -17.675320   -9.450110  -14.679120
  Br   -17.439860  -11.286100  -16.900440
  C    -17.014290   -6.962350  -10.290360
  O    -17.852750   -6.082210  -10.280400
  C    -15.996130   -7.266500   -9.263180
  C    -15.828240   -6.554410   -8.094850
  C    -16.585370   -5.442480   -7.728620
  C    -16.366050   -4.722510   -6.573350
  C    -17.060870   -3.552860   -6.176630
  C    -16.609230   -3.004370   -5.016010
  C    -15.540730   -3.721890   -4.427230
  S    -15.135650   -5.121740   -5.395510
  C    -14.847360   -3.405020   -3.275830
  C    -15.007430   -2.248860   -2.466940
  C    -14.126320   -2.174110   -1.440460
  C    -13.229530   -3.282960   -1.355330
  S    -13.574270   -4.418640   -2.650970
  C    -12.198350   -3.375450   -0.470870
  C    -11.279060   -4.468090   -0.296290
  C     -9.936010   -4.197780    0.022350
  F     -9.544960   -2.921720    0.132990
  C     -9.011470   -5.203330    0.200470
  F     -7.723890   -4.910790    0.469540
  C     -9.364480   -6.559200    0.116780
  C    -10.702910   -6.837970   -0.184760
  C    -11.626440   -5.824610   -0.378360
  F    -12.899480   -6.171610   -0.593040
  F    -11.099870   -8.112780   -0.309840
  N     -8.395760   -7.527240    0.268320
  C     -8.546410   -8.742860    0.883230
  S     -9.762550   -9.007630    2.089880
  C     -9.085800  -10.569770    2.409310
  N     -9.706420  -11.361170    3.384200
  O     -9.234100  -12.459390    3.606960
  O    -10.674920  -10.878640    3.945010
  C     -7.989180  -10.855280    1.643070
  C     -7.667030   -9.819450    0.742550
  C     -6.587180   -9.927220   -0.200980
  C     -6.445810   -9.213340   -1.337740
  C     -5.382930   -9.377980   -2.266030
  S     -4.090780  -10.503160   -2.018840
  C     -3.342650  -10.100670   -3.497000
  C     -4.037400   -9.131490   -4.188060
  C     -5.211720   -8.707830   -3.481810
  C     -6.025690   -7.711240   -4.052570
  C     -5.684480   -7.174610   -5.260100
  C     -6.528140   -6.100740   -5.885370
  F     -7.573040   -5.757460   -5.109010
  F     -5.845190   -4.963540   -6.098730
  F     -7.048060   -6.463580   -7.066950
  C     -4.520340   -7.601510   -5.979650
  O     -4.332690   -6.981390   -7.164240
  C     -3.222750   -7.346480   -7.949980
  C     -3.711290   -8.565860   -5.442750
  H    -18.316000   -7.417950  -12.779710
  H    -14.537500  -10.500190  -11.634490
  H    -18.497250   -8.930000  -15.136240
  H    -15.047850   -6.860240   -7.408980
  H    -17.373070   -5.109280   -8.389210
  H    -17.864120   -3.154290   -6.770290
  H    -17.014000   -2.114320   -4.569290
  H    -15.753540   -1.505270   -2.680790
  H    -14.080400   -1.368420   -0.729750
  H    -11.994170   -2.500820    0.133240
  H     -7.438580   -7.208710    0.157750
  H     -7.456140  -11.785960    1.714920
  H     -5.862450  -10.699820    0.019900
  H     -7.197830   -8.494240   -1.627650
  H     -2.435930  -10.593400   -3.784870
  H     -6.914100   -7.371310   -3.544320
  H     -3.285940   -6.731650   -8.845480
  H     -3.264130   -8.403650   -8.228980
  H     -2.282300   -7.139580   -7.430280
  H     -2.826220   -8.913070   -5.948970

 Total Charge           Charge          ....    0
 Multiplicity           Mult            ....    1
 Number of Electrons    NEL             ....  540
 Basis Dimension        Dim             .... 1090

ORBITAL ENERGIES
----------------

  NO   OCC          E(Eh)            E(eV)
   0   2.0000    -482.879132    -13139.8092
   1   2.0000     -88.981284     -2421.3038
   2   2.0000     -88.970255     -2421.0037
   3   2.0000     -88.967154     -2420.9193
   4   2.0000     -88.963183     -2420.8113
   5   2.0000     -88.961171     -2420.7565
   6   2.0000     -62.556830     -1702.2579
   7   2.0000     -56.390771     -1534.4709
   8   2.0000     -56.388073     -1534.3975
   9   2.0000     -56.388039     -1534.3965
  10   2.0000     -24.817503      -675.3186
  11   2.0000     -24.813469      -675.2088
  12   2.0000     -24.811027      -675.1424
  13   2.0000     -24.810792      -675.1360
  14   2.0000     -24.786776      -674.4825
  15   2.0000     -24.778494      -674.2571
  16   2.0000     -24.778186      -674.2487
  17   2.0000     -19.252482      -523.8867
  18   2.0000     -19.233085      -523.3589
  19   2.0000     -19.232663      -523.3474
  20   2.0000     -19.204563      -522.5827
  21   2.0000     -14.644745      -398.5038
  22   2.0000     -14.485537      -394.1715
  23   2.0000     -14.403721      -391.9452
  24   2.0000     -14.401863      -391.8946
  25   2.0000     -10.503509      -285.8150
  26   2.0000     -10.393518      -282.8220
  27   2.0000     -10.392743      -282.8009
  28   2.0000     -10.390421      -282.7377
  29   2.0000     -10.389421      -282.7105
  30   2.0000     -10.367333      -282.1095
  31   2.0000     -10.366113      -282.0763
  32   2.0000     -10.354702      -281.7658
  33   2.0000     -10.350865      -281.6614
  34   2.0000     -10.344997      -281.5017
  35   2.0000     -10.338721      -281.3309
  36   2.0000     -10.336142      -281.2607
  37   2.0000     -10.331066      -281.1226
  38   2.0000     -10.329626      -281.0834
  39   2.0000     -10.327791      -281.0335
  40   2.0000     -10.326681      -281.0033
  41   2.0000     -10.326596      -281.0010
  42   2.0000     -10.326261      -280.9918
  43   2.0000     -10.323677      -280.9215
  44   2.0000     -10.315941      -280.7110
  45   2.0000     -10.310223      -280.5554
  46   2.0000     -10.309410      -280.5333
  47   2.0000     -10.308575      -280.5106
  48   2.0000     -10.307757      -280.4883
  49   2.0000     -10.307185      -280.4728
  50   2.0000     -10.307097      -280.4704
  51   2.0000     -10.305767      -280.4342
  52   2.0000     -10.304757      -280.4067
  53   2.0000     -10.302112      -280.3347
  54   2.0000     -10.299322      -280.2588
  55   2.0000     -10.297926      -280.2208
  56   2.0000     -10.297112      -280.1987
  57   2.0000     -10.297011      -280.1959
  58   2.0000     -10.296501      -280.1820
  59   2.0000     -10.296131      -280.1720
  60   2.0000     -10.294869      -280.1376
  61   2.0000     -10.294741      -280.1341
  62   2.0000     -10.294547      -280.1289
  63   2.0000     -10.293689      -280.1055
  64   2.0000     -10.290909      -280.0299
  65   2.0000     -10.289011      -279.9782
  66   2.0000     -10.287633      -279.9407
  67   2.0000     -10.286834      -279.9190
  68   2.0000     -10.282050      -279.7888
  69   2.0000     -10.280966      -279.7593
  70   2.0000     -10.277707      -279.6706
  71   2.0000     -10.274297      -279.5778
  72   2.0000      -8.786244      -239.0858
  73   2.0000      -8.076815      -219.7813
  74   2.0000      -8.065555      -219.4749
  75   2.0000      -8.063166      -219.4099
  76   2.0000      -8.059575      -219.3122
  77   2.0000      -8.057201      -219.2476
  78   2.0000      -6.622494      -180.2072
  79   2.0000      -6.608004      -179.8129
  80   2.0000      -6.607813      -179.8077
  81   2.0000      -6.046365      -164.5299
  82   2.0000      -6.041959      -164.4101
  83   2.0000      -6.038449      -164.3146
  84   2.0000      -6.034435      -164.2053
  85   2.0000      -6.032870      -164.1628
  86   2.0000      -6.030261      -164.0917
  87   2.0000      -6.029299      -164.0656
  88   2.0000      -6.028664      -164.0483
  89   2.0000      -6.028586      -164.0462
  90   2.0000      -6.026830      -163.9984
  91   2.0000      -6.025207      -163.9542
  92   2.0000      -6.024367      -163.9314
  93   2.0000      -6.022807      -163.8889
  94   2.0000      -6.020369      -163.8226
  95   2.0000      -6.018286      -163.7659
  96   2.0000      -2.738380       -74.5151
  97   2.0000      -2.734281       -74.4036
  98   2.0000      -2.734187       -74.4010
  99   2.0000      -2.722638       -74.0867
 100   2.0000      -2.722632       -74.0866
 101   2.0000      -1.371790       -37.3283
 102   2.0000      -1.336967       -36.3807
 103   2.0000      -1.335011       -36.3275
 104   2.0000      -1.321959       -35.9723
 105   2.0000      -1.318634       -35.8818
 106   2.0000      -1.314554       -35.7708
 107   2.0000      -1.275024       -34.6952
 108   2.0000      -1.270821       -34.5808
 109   2.0000      -1.160032       -31.5661
 110   2.0000      -1.133641       -30.8479
 111   2.0000      -1.118168       -30.4269
 112   2.0000      -1.093602       -29.7584
 113   2.0000      -1.014948       -27.6181
 114   2.0000      -1.012315       -27.5465
 115   2.0000      -1.009291       -27.4642
 116   2.0000      -1.002131       -27.2694
 117   2.0000      -1.000669       -27.2296
 118   2.0000      -0.993890       -27.0451
 119   2.0000      -0.986729       -26.8503
 120   2.0000      -0.981862       -26.7178
 121   2.0000      -0.977763       -26.6063
 122   2.0000      -0.944193       -25.6928
 123   2.0000      -0.933873       -25.4120
 124   2.0000      -0.925059       -25.1721
 125   2.0000      -0.916535       -24.9402
 126   2.0000      -0.906209       -24.6592
 127   2.0000      -0.898013       -24.4362
 128   2.0000      -0.889138       -24.1947
 129   2.0000      -0.879000       -23.9188
 130   2.0000      -0.875828       -23.8325
 131   2.0000      -0.870499       -23.6875
 132   2.0000      -0.867254       -23.5992
 133   2.0000      -0.865714       -23.5573
 134   2.0000      -0.858480       -23.3604
 135   2.0000      -0.857359       -23.3299
 136   2.0000      -0.848150       -23.0793
 137   2.0000      -0.841357       -22.8945
 138   2.0000      -0.833563       -22.6824
 139   2.0000      -0.819595       -22.3023
 140   2.0000      -0.811461       -22.0810
 141   2.0000      -0.805055       -21.9067
 142   2.0000      -0.786869       -21.4118
 143   2.0000      -0.780540       -21.2396
 144   2.0000      -0.770625       -20.9698
 145   2.0000      -0.761407       -20.7189
 146   2.0000      -0.753813       -20.5123
 147   2.0000      -0.747114       -20.3300
 148   2.0000      -0.742096       -20.1935
 149   2.0000      -0.723780       -19.6951
 150   2.0000      -0.719620       -19.5819
 151   2.0000      -0.710313       -19.3286
 152   2.0000      -0.705547       -19.1989
 153   2.0000      -0.702167       -19.1069
 154   2.0000      -0.686466       -18.6797
 155   2.0000      -0.683150       -18.5895
 156   2.0000      -0.679942       -18.5022
 157   2.0000      -0.678009       -18.4496
 158   2.0000      -0.672604       -18.3025
 159   2.0000      -0.664075       -18.0704
 160   2.0000      -0.662030       -18.0147
 161   2.0000      -0.660267       -17.9668
 162   2.0000      -0.654090       -17.7987
 163   2.0000      -0.653754       -17.7896
 164   2.0000      -0.647913       -17.6306
 165   2.0000      -0.645315       -17.5599
 166   2.0000      -0.639765       -17.4089
 167   2.0000      -0.635926       -17.3044
 168   2.0000      -0.631436       -17.1822
 169   2.0000      -0.626223       -17.0404
 170   2.0000      -0.624829       -17.0025
 171   2.0000      -0.623238       -16.9592
 172   2.0000      -0.621934       -16.9237
 173   2.0000      -0.620249       -16.8778
 174   2.0000      -0.614865       -16.7313
 175   2.0000      -0.613255       -16.6875
 176   2.0000      -0.610426       -16.6105
 177   2.0000      -0.599564       -16.3150
 178   2.0000      -0.597562       -16.2605
 179   2.0000      -0.594362       -16.1734
 180   2.0000      -0.590143       -16.0586
 181   2.0000      -0.588700       -16.0193
 182   2.0000      -0.585185       -15.9237
 183   2.0000      -0.581052       -15.8112
 184   2.0000      -0.579252       -15.7623
 185   2.0000      -0.571978       -15.5643
 186   2.0000      -0.565952       -15.4003
 187   2.0000      -0.561534       -15.2801
 188   2.0000      -0.558186       -15.1890
 189   2.0000      -0.557625       -15.1737
 190   2.0000      -0.552308       -15.0291
 191   2.0000      -0.547132       -14.8882
 192   2.0000      -0.542864       -14.7721
 193   2.0000      -0.537699       -14.6315
 194   2.0000      -0.533770       -14.5246
 195   2.0000      -0.532095       -14.4790
 196   2.0000      -0.531791       -14.4708
 197   2.0000      -0.531146       -14.4532
 198   2.0000      -0.529542       -14.4096
 199   2.0000      -0.528743       -14.3878
 200   2.0000      -0.520657       -14.1678
 201   2.0000      -0.519381       -14.1331
 202   2.0000      -0.517147       -14.0723
 203   2.0000      -0.514374       -13.9968
 204   2.0000      -0.512637       -13.9496
 205   2.0000      -0.510482       -13.8909
 206   2.0000      -0.507469       -13.8089
 207   2.0000      -0.504697       -13.7335
 208   2.0000      -0.504118       -13.7178
 209   2.0000      -0.502429       -13.6718
 210   2.0000      -0.499875       -13.6023
 211   2.0000      -0.499320       -13.5872
 212   2.0000      -0.496924       -13.5220
 213   2.0000      -0.493337       -13.4244
 214   2.0000      -0.488832       -13.3018
 215   2.0000      -0.486826       -13.2472
 216   2.0000      -0.484741       -13.1905
 217   2.0000      -0.483843       -13.1660
 218   2.0000      -0.483357       -13.1528
 219   2.0000      -0.482464       -13.1285
 220   2.0000      -0.481875       -13.1125
 221   2.0000      -0.479428       -13.0459
 222   2.0000      -0.469942       -12.7878
 223   2.0000      -0.468109       -12.7379
 224   2.0000      -0.466615       -12.6972
 225   2.0000      -0.462404       -12.5827
 226   2.0000      -0.461854       -12.5677
 227   2.0000      -0.458018       -12.4633
 228   2.0000      -0.450066       -12.2469
 229   2.0000      -0.449119       -12.2211
 230   2.0000      -0.448538       -12.2053
 231   2.0000      -0.446945       -12.1620
 232   2.0000      -0.441250       -12.0070
 233   2.0000      -0.440653       -11.9908
 234   2.0000      -0.438757       -11.9392
 235   2.0000      -0.436456       -11.8766
 236   2.0000      -0.432544       -11.7701
 237   2.0000      -0.432220       -11.7613
 238   2.0000      -0.429382       -11.6841
 239   2.0000      -0.420687       -11.4475
 240   2.0000      -0.415908       -11.3174
 241   2.0000      -0.414951       -11.2914
 242   2.0000      -0.413914       -11.2632
 243   2.0000      -0.411812       -11.2060
 244   2.0000      -0.409182       -11.1344
 245   2.0000      -0.408753       -11.1227
 246   2.0000      -0.399813       -10.8795
 247   2.0000      -0.395749       -10.7689
 248   2.0000      -0.391857       -10.6630
 249   2.0000      -0.381981       -10.3942
 250   2.0000      -0.380650       -10.3580
 251   2.0000      -0.375153       -10.2084
 252   2.0000      -0.373814       -10.1720
 253   2.0000      -0.368639       -10.0312
 254   2.0000      -0.362237        -9.8570
 255   2.0000      -0.361629        -9.8404
 256   2.0000      -0.358055        -9.7432
 257   2.0000      -0.352681        -9.5969
 258   2.0000      -0.342157        -9.3106
 259   2.0000      -0.336488        -9.1563
 260   2.0000      -0.332982        -9.0609
 261   2.0000      -0.328468        -8.9381
 262   2.0000      -0.324339        -8.8257
 263   2.0000      -0.309543        -8.4231
 264   2.0000      -0.306198        -8.3321
 265   2.0000      -0.301530        -8.2051
 266   2.0000      -0.286457        -7.7949
 267   2.0000      -0.282934        -7.6990
 268   2.0000      -0.246603        -6.7104
 269   2.0000      -0.233880        -6.3642
 270   0.0000      -0.109044        -2.9672
 271   0.0000      -0.063374        -1.7245
 272   0.0000      -0.056281        -1.5315
 273   0.0000      -0.050632        -1.3778
 274   0.0000      -0.040343        -1.0978

MULLIKEN ATOMIC CHARGES
-----------------------
   0 C :    0.327247
   1 C :   -0.361205
   2 C :   -0.186731
   3 N :    0.139124
   4 C :   -0.189037
   5 N :    0.140367
   6 C :    0.014206
   7 C :   -0.006076
   8 C :   -0.077810
   9 C :    0.120567
  10 C :   -0.090196
  11 C :   -0.027776
  12 S :    0.181604
  13 C :   -0.123383
  14 C :    0.035342
  15 Br:    0.016745
  16 C :    0.135620
  17 O :   -0.162911
  18 C :   -0.084558
  19 C :   -0.038011
  20 C :   -0.028931
  21 C :    0.006206
  22 C :    0.029861
  23 C :    0.046327
  24 C :   -0.056480
  25 S :    0.118659
  26 C :   -0.046896
  27 C :    0.036549
  28 C :    0.043222
  29 C :   -0.014445
  30 S :    0.137161
  31 C :   -0.034721
  32 C :   -0.072656
  33 C :    0.160471
  34 F :   -0.163613
  35 C :    0.208820
  36 F :   -0.178400
  37 C :   -0.051640
  38 C :    0.190637
  39 C :    0.165595
  40 F :   -0.155863
  41 F :   -0.159849
  42 N :   -0.062246
  43 C :   -0.089353
  44 S :    0.192746
  45 C :   -0.013781
  46 N :    0.277348
  47 O :   -0.250236
  48 O :   -0.264897
  49 C :    0.008355
  50 C :    0.113201
  51 C :   -0.032427
  52 C :   -0.016842
  53 C :   -0.124293
  54 S :    0.147890
  55 C :   -0.130355
  56 C :    0.112589
  57 C :    0.138686
  58 C :   -0.056307
  59 C :   -0.149093
  60 C :    0.539787
  61 F :   -0.167836
  62 F :   -0.166123
  63 F :   -0.159563
  64 C :    0.252695
  65 O :   -0.296631
  66 C :    0.181674
  67 C :   -0.147725
  68 H :   -0.014638
  69 H :   -0.009301
  70 H :   -0.005677
  71 H :    0.015828
  72 H :    0.019254
  73 H :    0.002062
  74 H :   -0.004026
  75 H :   -0.003739
  76 H :    0.002141
  77 H :    0.017300
  78 H :    0.150815
  79 H :    0.009194
  80 H :   -0.004994
  81 H :   -0.005584
  82 H :    0.015683
  83 H :   -0.018101
  84 H :    0.045371
  85 H :    0.026510
  86 H :    0.023730
  87 H :   -0.042231
Sum of atomic charges:   -0.0000000

LOEWDIN ATOMIC CHARGES
----------------------
   0 C :    0.072807
   1 C :   -0.150620
   2 C :   -0.018069
   3 N :   -0.064597
   4 C :   -0.021240
   5 N :   -0.060598
   6 C :   -0.018232
   7 C :   -0.049332
   8 C :    0.018363
   9 C :   -0.035106
  10 C :   -0.145036
  11 C :   -0.012673
  12 S :    0.428689
  13 C :   -0.274005
  14 C :   -0.070861
  15 Br:    0.131453
  16 C :    0.082852
  17 O :   -0.155545
  18 C :   -0.102524
  19 C :    0.052017
  20 C :   -0.069517
  21 C :   -0.104181
  22 C :   -0.035080
  23 C :   -0.008211
  24 C :   -0.185698
  25 S :    0.412127
  26 C :   -0.154608
  27 C :   -0.028769
  28 C :   -0.013250
  29 C :   -0.136108
  30 S :    0.408235
  31 C :   -0.041909
  32 C :   -0.089295
  33 C :    0.071922
  34 F :   -0.042042
  35 C :    0.035720
  36 F :   -0.055675
  37 C :   -0.028738
  38 C :    0.030326
  39 C :    0.064153
  40 F :   -0.035553
  41 F :   -0.042394
  42 N :    0.022988
  43 C :   -0.108495
  44 S :    0.475416
  45 C :   -0.210089
  46 N :    0.273772
  47 O :   -0.215834
  48 O :   -0.230290
  49 C :   -0.001770
  50 C :   -0.093470
  51 C :   -0.031003
  52 C :   -0.045628
  53 C :   -0.180238
  54 S :    0.484630
  55 C :   -0.203901
  56 C :   -0.039047
  57 C :   -0.055518
  58 C :    0.014687
  59 C :   -0.093847
  60 C :    0.169029
  61 F :   -0.066210
  62 F :   -0.064411
  63 F :   -0.058790
  64 C :    0.060982
  65 O :   -0.090059
  66 C :    0.081434
  67 C :   -0.081291
  68 H :    0.039152
  69 H :    0.040237
  70 H :    0.037813
  71 H :    0.032909
  72 H :    0.039065
  73 H :    0.039785
  74 H :    0.035547
  75 H :    0.035558
  76 H :    0.038616
  77 H :    0.042235
  78 H :    0.095391
  79 H :    0.045470
  80 H :    0.026115
  81 H :    0.028412
  82 H :    0.023373
  83 H :    0.031748
  84 H :    0.032829
  85 H :    0.017765
  86 H :    0.016481
  87 H :    0.029256

  Mayer bond orders larger than 0.100000
B(  0-C ,  1-C ) :   1.5982 B(  0-C ,  6-C ) :   0.9911 B(  0-C , 18-C ) :   1.1009
B(  1-C ,  2-C ) :   1.1480 B(  1-C ,  4-C ) :   1.1507 B(  2-C ,  3-N ) :   2.9620
B(  4-C ,  5-N ) :   2.9568 B(  6-C ,  7-C ) :   1.2777 B(  6-C , 11-C ) :   1.4163
B(  7-C ,  8-C ) :   1.4268 B(  7-C , 16-C ) :   0.9389 B(  8-C ,  9-C ) :   1.2407
B(  8-C , 68-H ) :   1.0174 B(  9-C , 10-C ) :   1.3124 B(  9-C , 14-C ) :   1.1588
B( 10-C , 11-C ) :   1.3229 B( 10-C , 12-S ) :   1.0843 B( 11-C , 69-H ) :   0.9803
B( 12-S , 13-C ) :   1.0852 B( 13-C , 14-C ) :   1.6203 B( 13-C , 15-Br) :   1.0148
B( 14-C , 70-H ) :   1.0009 B( 16-C , 17-O ) :   2.1856 B( 16-C , 18-C ) :   0.9620
B( 18-C , 19-C ) :   1.5032 B( 19-C , 20-C ) :   1.2357 B( 19-C , 71-H ) :   0.9447
B( 20-C , 21-C ) :   1.4420 B( 20-C , 72-H ) :   0.9766 B( 21-C , 22-C ) :   1.1609
B( 21-C , 25-S ) :   1.0802 B( 22-C , 23-C ) :   1.5665 B( 22-C , 73-H ) :   1.0023
B( 23-C , 24-C ) :   1.1920 B( 23-C , 74-H ) :   0.9942 B( 24-C , 25-S ) :   1.0453
B( 24-C , 26-C ) :   1.5078 B( 26-C , 27-C ) :   1.1606 B( 26-C , 30-S ) :   1.0789
B( 27-C , 28-C ) :   1.6276 B( 27-C , 75-H ) :   0.9936 B( 28-C , 29-C ) :   1.1137
B( 28-C , 76-H ) :   0.9979 B( 29-C , 30-S ) :   1.0367 B( 29-C , 31-C ) :   1.6686
B( 31-C , 32-C ) :   1.0566 B( 31-C , 77-H ) :   0.9614 B( 32-C , 33-C ) :   1.2883
B( 32-C , 37-C ) :   0.1135 B( 32-C , 39-C ) :   1.3060 B( 33-C , 34-F ) :   1.1787
B( 33-C , 35-C ) :   1.3151 B( 35-C , 36-F ) :   1.1520 B( 35-C , 37-C ) :   1.2694
B( 37-C , 38-C ) :   1.2912 B( 37-C , 42-N ) :   1.1370 B( 38-C , 39-C ) :   1.2824
B( 38-C , 41-F ) :   1.1677 B( 39-C , 40-F ) :   1.1697 B( 42-N , 43-C ) :   1.1262
B( 42-N , 78-H ) :   0.9006 B( 43-C , 44-S ) :   1.1445 B( 43-C , 50-C ) :   1.4141
B( 44-S , 45-C ) :   1.1022 B( 45-C , 46-N ) :   0.9662 B( 45-C , 49-C ) :   1.4842
B( 46-N , 47-O ) :   1.5378 B( 46-N , 48-O ) :   1.5139 B( 47-O , 48-O ) :   0.2589
B( 49-C , 50-C ) :   1.2177 B( 49-C , 79-H ) :   1.0064 B( 50-C , 51-C ) :   1.0953
B( 51-C , 52-C ) :   1.6761 B( 51-C , 80-H ) :   0.9687 B( 52-C , 53-C ) :   1.1711
B( 52-C , 81-H ) :   0.9604 B( 53-C , 54-S ) :   1.1726 B( 53-C , 55-C ) :   0.1065
B( 53-C , 57-C ) :   1.3400 B( 54-S , 55-C ) :   1.1788 B( 55-C , 56-C ) :   1.4438
B( 55-C , 82-H ) :   0.9689 B( 56-C , 57-C ) :   1.2046 B( 56-C , 67-C ) :   1.1211
B( 57-C , 58-C ) :   1.1625 B( 58-C , 59-C ) :   1.6124 B( 58-C , 83-H ) :   0.9913
B( 59-C , 60-C ) :   0.9373 B( 59-C , 64-C ) :   1.1826 B( 60-C , 61-F ) :   1.1428
B( 60-C , 62-F ) :   1.1650 B( 60-C , 63-F ) :   1.1749 B( 64-C , 65-O ) :   1.2080
B( 64-C , 67-C ) :   1.4788 B( 65-O , 66-C ) :   0.9571 B( 66-C , 84-H ) :   0.9788
B( 66-C , 85-H ) :   0.9688 B( 66-C , 86-H ) :   0.9689 B( 67-C , 87-H ) :   1.0102

-----------------------------------------------------------------------------
         ABSORPTION SPECTRUM VIA TRANSITION ELECTRIC DIPOLE MOMENTS
-----------------------------------------------------------------------------
State   Energy  Wavelength   fosc         T2         TX        TY        TZ
        (cm-1)    (nm)                  (au**2)     (au)      (au)      (au)
-----------------------------------------------------------------------------
   0   13291.0    752.4   1.222489780  30.28049  -2.07201  -1.85299  -4.74907
   1   19750.7    506.3   0.231735465   3.86265   0.90307  -1.48902  -0.91101
   2   22589.8    442.7   0.255719752   3.72673  -1.54847   1.12126  -0.26783
   3   24428.1    409.4   0.447958949   6.03704   1.97813  -1.30669  -0.64543
   4   24935.3    401.0   0.210900509   2.78444   1.05895  -0.56832   1.15762
   5   25411.5    393.5   0.471237503   6.10500   0.52666  -0.21813  -2.40417
   6   26189.1    381.8   0.330327798   4.15241  -0.80406  -1.60610   0.96247
   7   27046.4    369.7   0.153102241   1.86358  -0.58810   1.21482   0.20478
   8   27169.5    368.1   0.002411369   0.02922  -0.06759   0.15449   0.02800
   9   28317.6    353.1   0.014849428   0.17264   0.36958   0.03385  -0.18681
  10   28674.2    348.7   0.023525373   0.27010   0.49449  -0.15604  -0.03502
  11   29453.3    339.5   0.064535064   0.72134  -0.78286   0.26205   0.19948
  12   30286.6    330.2   0.004913275   0.05341   0.03149   0.22293  -0.05212
  13   30831.1    324.3   0.017810089   0.19017   0.13516   0.14555   0.38823
  14   31242.4    320.1   0.149122541   1.57135   0.62590  -0.95369  -0.51969
  15   32178.4    310.8   0.244751908   2.50402  -0.37331  -0.27143  -1.51360
  16   32490.0    307.8   0.367130569   3.72003   0.92238   0.57343   1.59387
  17   32610.4    306.7   0.020492465   0.20688  -0.15723   0.06128  -0.42238
  18   32989.9    303.1   0.003338197   0.03331   0.06276   0.00911  -0.17115
  19   33973.8    294.3   0.072056975   0.69824   0.30946  -0.31726   0.70840
  20   34285.7    291.7   0.067191539   0.64517  -0.69958  -0.39314  -0.03459
  21   34788.0    287.5   0.022136817   0.20949  -0.12032  -0.44069   0.02834
  22   35176.7    284.3   0.350920798   3.28420  -0.18955  -1.08630   1.43813
  23   35957.1    278.1   0.009759520   0.08936  -0.27982  -0.07656  -0.07207
  24   36377.7    274.9   0.145700702   1.31857  -0.57999   0.70872  -0.69275
  25   36607.2    273.2   0.074571772   0.67063  -0.63202   0.37706   0.35918
  26   37026.1    270.1   0.037185492   0.33063  -0.50829   0.25734   0.07776
  27   37411.2    267.3   0.010521966   0.09259   0.24447  -0.17509   0.04658
  28   37585.5    266.1   0.036065202   0.31590  -0.31638  -0.31992  -0.33682
  29   38046.2    262.8   0.100325590   0.86811  -0.61803   0.39550   0.57423
  30   38297.8    261.1   0.258847886   2.22508   0.13340  -0.54608   1.38170
  31   38493.6    259.8   0.269612083   2.30582  -0.09357  -1.00181   1.13729
  32   38719.6    258.3   0.000138486   0.00118  -0.03189   0.00850  -0.00940
  33   39303.5    254.4   0.157337010   1.31788  -1.10377   0.16246   0.27050
  34   39871.5    250.8   0.047201169   0.38973  -0.33070   0.30841  -0.43041

FINAL SINGLE POINT ENERGY     -7582.354665559395

DIPOLE MOMENT
-------------
                                X             Y             Z
Electronic contribution:    -56.55749     -32.70252     -89.97140
Nuclear contribution   :     57.42225      35.75836      89.67137
                        -----------------------------------------
Total Dipole Moment    :      0.86476       3.05584      -0.30003
                        -----------------------------------------
Magnitude (a.u.)       :      3.18998
Magnitude (Debye)      :      8.10829

Rotational constants in cm-1:     0.000898     0.000317     0.000277
Rotational constants in MHz :    26.918321     9.499415     8.292111

                             ****ORCA TERMINATED NORMALLY****
TOTAL RUN TIME: 0 days 0 hours 8 minutes 59 seconds 604 msec
