                         Program Version 4.2.0 -  RELEASE  -
|  1> # ORCA input file
|  2> # SCF done       -183.477549554217          0.000471954037
|  3> ! CAM-B3LYP def2-SVP def2/J RIJCOSX Grid4 TightSCF
|  4> %maxcore 5000
|  5> %tddft
|  6>     Mode sTDDFT
|  7>     Ethresh 5.0
|  8>     maxcore 5000
|  9> end
| 10>
| 11> %pal
| 12>   nprocs 6
| 13>   end
| 14> * xyz 0 1
| 15>    C       -7.67600         1.31317        -7.45296
| 16>    C       -9.03743         1.51708        -7.43973
| 17>    C       -9.74120         2.21881        -8.43733
| 18>    N      -10.36846         2.78661        -9.21442
| 19>    C       -9.91073         1.05597        -6.43627
| 20>    N      -10.68115         0.70852        -5.65671
| 21>    C       -6.76604         1.74655        -8.51047
| 22>    C       -5.45810         1.31889        -8.17794
| 23>    C       -4.36977         1.57748        -8.97294
| 24>    C       -4.58369         2.28547       -10.16148
| 25>    C       -5.89367         2.70730       -10.48597
| 26>    C       -6.99478         2.45050        -9.67632
| 27>    S       -5.93265         3.56837       -11.99512
| 28>    C       -4.21167         3.34974       -12.16807
| 29>    C       -3.63555         2.66880       -11.14930
| 30>   Br       -3.33724         4.04155       -13.67701
| 31>    C       -5.49209         0.59307        -6.88950
| 32>    O       -4.52603         0.18080        -6.27499
| 33>    C       -6.90655         0.58950        -6.47504
| 34>    C       -7.36718         0.17749        -5.23614
| 35>    C       -6.75572        -0.70668        -4.35335
| 36>    C       -5.81414        -1.72557        -4.59715
| 37>    C       -5.35467        -2.28074        -5.80303
| 38>    C       -4.36389        -3.22186        -5.76654
| 39>    C       -3.79225        -3.63721        -4.54368
| 40>    C       -4.28714        -3.20347        -3.34824
| 41>    C       -5.35714        -2.28151        -3.34446
| 42>    C       -6.07422        -1.67514        -2.31240
| 43>    C       -7.01109        -0.71300        -2.90584
| 44>    C       -7.96021        -0.03728        -2.24824
| 45>    N       -6.00254        -1.84974        -0.96657
| 46>    C       -5.66467        -2.95830        -0.26084
| 47>    S       -5.75058        -4.54791        -0.95358
| 48>    C       -5.29545        -5.21757         0.58351
| 49>    N       -5.16283        -6.61105         0.66428
| 50>    O       -4.83876        -7.08729         1.73497
| 51>    O       -5.38467        -7.23727        -0.35741
| 52>    C       -5.10400        -4.28420         1.56106
| 53>    C       -5.31820        -2.96372         1.10652
| 54>    C       -5.19579        -1.78761         1.90057
| 55>    C       -4.60963        -1.74816         3.13200
| 56>    C       -4.46379        -0.60565         3.93458
| 57>    C       -5.18424         0.60554         3.93148
| 58>    C       -6.36053         0.99422         3.26327
| 59>    C       -6.85825         2.25301         3.46260
| 60>    C       -6.22386         3.16094         4.33401
| 61>    C       -5.10163         2.80530         5.03281
| 62>    C       -4.56959         1.51915         4.85694
| 63>    C       -3.43264         0.90727         5.43317
| 64>    C       -3.44076        -0.48279         4.98219
| 65>    C       -2.80951        -1.49670         5.58789
| 66>    C       -2.52129         1.54164         6.27410
| 67>    C       -1.19788         1.21061         6.50387
| 68>    C       -0.36929         1.79714         7.52644
| 69>    C       -0.80934         2.49297         8.62871
| 70>    C        0.04200         3.03046         9.61330
| 71>    N        0.68888         3.49586        10.44058
| 72>    C       -2.16326         2.73231         8.93624
| 73>    N       -3.24499         2.94840         9.25886
| 74>    C        1.01933         1.45341         7.23695
| 75>    C        1.04537         0.64762         6.07335
| 76>    C       -0.33333         0.44892         5.57756
| 77>    O       -0.64484        -0.14732         4.56482
| 78>    C        2.21179         0.16849         5.53039
| 79>    C        3.41209         0.49711         6.17046
| 80>    C        3.37579         1.30070         7.33391
| 81>    C        2.19393         1.78723         7.88194
| 82>    S        4.97049         1.59271         7.95885
| 83>    C        5.65493         0.64310         6.66654
| 84>    C        4.73845         0.13262         5.81038
| 85>   Br        7.51476         0.41816         6.56730
| 86>    H       -3.38427         1.24163        -8.69051
| 87>    H       -7.97252         2.79840        -9.96488
| 88>    H       -2.58562         2.44578       -11.09460
| 89>    H       -8.28314         0.63608        -4.88527
| 90>    H       -5.79430        -1.97709        -6.73911
| 91>    H       -3.99431        -3.65300        -6.68453
| 92>    H       -2.96662        -4.33201        -4.56358
| 93>    H       -3.84648        -3.53994        -2.42388
| 94>    H       -8.10476        -0.12243        -1.18308
| 95>    H       -8.65554         0.60353        -2.76143
| 96>    H       -6.33789        -1.06756        -0.41320
| 97>    H       -4.83262        -4.55683         2.56388
| 98>    H       -5.52748        -0.85752         1.46161
| 99>    H       -4.12600        -2.64588         3.48943
|100>    H       -6.88899         0.29420         2.63452
|101>    H       -7.76360         2.56151         2.96116
|102>    H       -6.65355         4.14266         4.46453
|103>    H       -4.64461         3.49297         5.72755
|104>    H       -2.17410        -1.32800         6.43984
|105>    H       -2.92492        -2.51977         5.27420
|106>    H       -2.88282         2.44572         6.75046
|107>    H        2.19985        -0.44048         4.64003
|108>    H        2.21824         2.40228         8.76594
|109>    H        4.98571        -0.47406         4.95843
|110> *
|111>
|112>                          ****END OF INPUT****

CARTESIAN COORDINATES (ANGSTROEM)
---------------------------------
  C     -7.676000    1.313170   -7.452960
  C     -9.037430    1.517080   -7.439730
  C     -9.741200    2.218810   -8.437330
  N    -10.368460    2.786610   -9.214420
  C     -9.910730    1.055970   -6.436270
  N    -10.681150    0.708520   -5.656710
  C     -6.766040    1.746550   -8.510470
  C     -5.458100    1.318890   -8.177940
  C     -4.369770    1.577480   -8.972940
  C     -4.583690    2.285470  -10.161480
  C     -5.893670    2.707300  -10.485970
  C     -6.994780    2.450500   -9.676320
  S     -5.932650    3.568370  -11.995120
  C     -4.211670    3.349740  -12.168070
  C     -3.635550    2.668800  -11.149300
  Br    -3.337240    4.041550  -13.677010
  C     -5.492090    0.593070   -6.889500
  O     -4.526030    0.180800   -6.274990
  C     -6.906550    0.589500   -6.475040
  C     -7.367180    0.177490   -5.236140
  C     -6.755720   -0.706680   -4.353350
  C     -5.814140   -1.725570   -4.597150
  C     -5.354670   -2.280740   -5.803030
  C     -4.363890   -3.221860   -5.766540
  C     -3.792250   -3.637210   -4.543680
  C     -4.287140   -3.203470   -3.348240
  C     -5.357140   -2.281510   -3.344460
  C     -6.074220   -1.675140   -2.312400
  C     -7.011090   -0.713000   -2.905840
  C     -7.960210   -0.037280   -2.248240
  N     -6.002540   -1.849740   -0.966570
  C     -5.664670   -2.958300   -0.260840
  S     -5.750580   -4.547910   -0.953580
  C     -5.295450   -5.217570    0.583510
  N     -5.162830   -6.611050    0.664280
  O     -4.838760   -7.087290    1.734970
  O     -5.384670   -7.237270   -0.357410
  C     -5.104000   -4.284200    1.561060
  C     -5.318200   -2.963720    1.106520
  C     -5.195790   -1.787610    1.900570
  C     -4.609630   -1.748160    3.132000
  C     -4.463790   -0.605650    3.934580
  C     -5.184240    0.605540    3.931480
  C     -6.360530    0.994220    3.263270
  C     -6.858250    2.253010    3.462600
  C     -6.223860    3.160940    4.334010
  C     -5.101630    2.805300    5.032810
  C     -4.569590    1.519150    4.856940
  C     -3.432640    0.907270    5.433170
  C     -3.440760   -0.482790    4.982190
  C     -2.809510   -1.496700    5.587890
  C     -2.521290    1.541640    6.274100
  C     -1.197880    1.210610    6.503870
  C     -0.369290    1.797140    7.526440
  C     -0.809340    2.492970    8.628710
  C      0.042000    3.030460    9.613300
  N      0.688880    3.495860   10.440580
  C     -2.163260    2.732310    8.936240
  N     -3.244990    2.948400    9.258860
  C      1.019330    1.453410    7.236950
  C      1.045370    0.647620    6.073350
  C     -0.333330    0.448920    5.577560
  O     -0.644840   -0.147320    4.564820
  C      2.211790    0.168490    5.530390
  C      3.412090    0.497110    6.170460
  C      3.375790    1.300700    7.333910
  C      2.193930    1.787230    7.881940
  S      4.970490    1.592710    7.958850
  C      5.654930    0.643100    6.666540
  C      4.738450    0.132620    5.810380
  Br     7.514760    0.418160    6.567300
  H     -3.384270    1.241630   -8.690510
  H     -7.972520    2.798400   -9.964880
  H     -2.585620    2.445780  -11.094600
  H     -8.283140    0.636080   -4.885270
  H     -5.794300   -1.977090   -6.739110
  H     -3.994310   -3.653000   -6.684530
  H     -2.966620   -4.332010   -4.563580
  H     -3.846480   -3.539940   -2.423880
  H     -8.104760   -0.122430   -1.183080
  H     -8.655540    0.603530   -2.761430
  H     -6.337890   -1.067560   -0.413200
  H     -4.832620   -4.556830    2.563880
  H     -5.527480   -0.857520    1.461610
  H     -4.126000   -2.645880    3.489430
  H     -6.888990    0.294200    2.634520
  H     -7.763600    2.561510    2.961160
  H     -6.653550    4.142660    4.464530
  H     -4.644610    3.492970    5.727550
  H     -2.174100   -1.328000    6.439840
  H     -2.924920   -2.519770    5.274200
  H     -2.882820    2.445720    6.750460
  H      2.199850   -0.440480    4.640030
  H      2.218240    2.402280    8.765940
  H      4.985710   -0.474060    4.958430

 Total Charge           Charge          ....    0
 Multiplicity           Mult            ....    1
 Number of Electrons    NEL             ....  552
 Basis Dimension        Dim             .... 1162

ORBITAL ENERGIES
----------------

  NO   OCC          E(Eh)            E(eV)
   0   2.0000    -482.883418    -13139.9258
   1   2.0000    -482.880980    -13139.8595
   2   2.0000     -89.007951     -2422.0295
   3   2.0000     -88.972129     -2421.0547
   4   2.0000     -88.969012     -2420.9699
   5   2.0000     -62.561114     -1702.3745
   6   2.0000     -62.558713     -1702.3091
   7   2.0000     -56.395061     -1534.5876
   8   2.0000     -56.392652     -1534.5221
   9   2.0000     -56.392355     -1534.5140
  10   2.0000     -56.392320     -1534.5130
  11   2.0000     -56.389956     -1534.4487
  12   2.0000     -56.389917     -1534.4477
  13   2.0000     -19.256148      -523.9864
  14   2.0000     -19.255760      -523.9759
  15   2.0000     -19.206949      -522.6476
  16   2.0000     -19.202879      -522.5369
  17   2.0000     -14.667433      -399.1211
  18   2.0000     -14.520527      -395.1236
  19   2.0000     -14.406901      -392.0317
  20   2.0000     -14.406646      -392.0248
  21   2.0000     -14.406153      -392.0113
  22   2.0000     -14.403134      -391.9292
  23   2.0000     -10.394775      -282.8562
  24   2.0000     -10.375317      -282.3267
  25   2.0000     -10.365436      -282.0579
  26   2.0000     -10.360605      -281.9264
  27   2.0000     -10.355582      -281.7897
  28   2.0000     -10.353435      -281.7313
  29   2.0000     -10.352728      -281.7120
  30   2.0000     -10.331638      -281.1382
  31   2.0000     -10.331349      -281.1303
  32   2.0000     -10.331120      -281.1241
  33   2.0000     -10.330215      -281.0994
  34   2.0000     -10.329111      -281.0694
  35   2.0000     -10.328372      -281.0493
  36   2.0000     -10.326794      -281.0064
  37   2.0000     -10.326582      -281.0006
  38   2.0000     -10.326015      -280.9852
  39   2.0000     -10.323755      -280.9237
  40   2.0000     -10.322952      -280.9018
  41   2.0000     -10.320965      -280.8477
  42   2.0000     -10.317190      -280.7450
  43   2.0000     -10.316131      -280.7162
  44   2.0000     -10.312119      -280.6070
  45   2.0000     -10.311504      -280.5903
  46   2.0000     -10.311284      -280.5843
  47   2.0000     -10.311125      -280.5800
  48   2.0000     -10.310056      -280.5509
  49   2.0000     -10.309079      -280.5243
  50   2.0000     -10.308494      -280.5084
  51   2.0000     -10.308099      -280.4976
  52   2.0000     -10.307662      -280.4857
  53   2.0000     -10.307448      -280.4799
  54   2.0000     -10.304725      -280.4058
  55   2.0000     -10.304211      -280.3918
  56   2.0000     -10.303053      -280.3603
  57   2.0000     -10.302417      -280.3430
  58   2.0000     -10.301798      -280.3262
  59   2.0000     -10.301141      -280.3083
  60   2.0000     -10.300209      -280.2829
  61   2.0000     -10.299673      -280.2684
  62   2.0000     -10.299277      -280.2576
  63   2.0000     -10.298629      -280.2400
  64   2.0000     -10.297939      -280.2212
  65   2.0000     -10.296954      -280.1944
  66   2.0000     -10.296410      -280.1795
  67   2.0000     -10.295645      -280.1588
  68   2.0000     -10.294660      -280.1319
  69   2.0000     -10.293788      -280.1082
  70   2.0000     -10.292537      -280.0742
  71   2.0000     -10.291275      -280.0398
  72   2.0000     -10.291037      -280.0334
  73   2.0000     -10.290930      -280.0304
  74   2.0000     -10.288774      -279.9718
  75   2.0000     -10.286675      -279.9146
  76   2.0000     -10.286220      -279.9023
  77   2.0000     -10.282787      -279.8089
  78   2.0000     -10.280066      -279.7348
  79   2.0000      -8.790527      -239.2024
  80   2.0000      -8.788153      -239.1378
  81   2.0000      -8.102949      -220.4924
  82   2.0000      -8.068110      -219.5444
  83   2.0000      -8.065050      -219.4612
  84   2.0000      -6.626801      -180.3244
  85   2.0000      -6.624415      -180.2595
  86   2.0000      -6.612273      -179.9291
  87   2.0000      -6.612081      -179.9239
  88   2.0000      -6.609891      -179.8643
  89   2.0000      -6.609727      -179.8598
  90   2.0000      -6.072653      -165.2453
  91   2.0000      -6.068159      -165.1230
  92   2.0000      -6.064356      -165.0195
  93   2.0000      -6.037808      -164.2971
  94   2.0000      -6.034743      -164.2137
  95   2.0000      -6.033523      -164.1805
  96   2.0000      -6.030473      -164.0975
  97   2.0000      -6.029336      -164.0666
  98   2.0000      -6.026257      -163.9828
  99   2.0000      -2.742669       -74.6318
 100   2.0000      -2.740289       -74.5671
 101   2.0000      -2.738581       -74.5206
 102   2.0000      -2.738479       -74.5178
 103   2.0000      -2.736229       -74.4566
 104   2.0000      -2.736080       -74.4525
 105   2.0000      -2.726911       -74.2030
 106   2.0000      -2.726893       -74.2025
 107   2.0000      -2.724548       -74.1387
 108   2.0000      -2.724532       -74.1383
 109   2.0000      -1.337305       -36.3899
 110   2.0000      -1.156882       -31.4804
 111   2.0000      -1.124896       -30.6100
 112   2.0000      -1.122535       -30.5457
 113   2.0000      -1.117337       -30.4043
 114   2.0000      -1.032127       -28.0856
 115   2.0000      -1.017452       -27.6863
 116   2.0000      -1.014130       -27.5959
 117   2.0000      -1.013276       -27.5726
 118   2.0000      -1.006763       -27.3954
 119   2.0000      -1.006078       -27.3768
 120   2.0000      -1.003845       -27.3160
 121   2.0000      -0.985739       -26.8233
 122   2.0000      -0.984362       -26.7859
 123   2.0000      -0.982662       -26.7396
 124   2.0000      -0.979230       -26.6462
 125   2.0000      -0.954023       -25.9603
 126   2.0000      -0.950495       -25.8643
 127   2.0000      -0.943979       -25.6870
 128   2.0000      -0.936138       -25.4736
 129   2.0000      -0.933829       -25.4108
 130   2.0000      -0.914245       -24.8779
 131   2.0000      -0.902976       -24.5712
 132   2.0000      -0.900484       -24.5034
 133   2.0000      -0.898786       -24.4572
 134   2.0000      -0.893814       -24.3219
 135   2.0000      -0.882931       -24.0258
 136   2.0000      -0.881273       -23.9807
 137   2.0000      -0.879001       -23.9188
 138   2.0000      -0.877896       -23.8888
 139   2.0000      -0.872163       -23.7328
 140   2.0000      -0.871979       -23.7277
 141   2.0000      -0.862052       -23.4576
 142   2.0000      -0.850821       -23.1520
 143   2.0000      -0.848711       -23.0946
 144   2.0000      -0.829846       -22.5813
 145   2.0000      -0.824603       -22.4386
 146   2.0000      -0.821342       -22.3498
 147   2.0000      -0.806270       -21.9397
 148   2.0000      -0.791914       -21.5491
 149   2.0000      -0.788601       -21.4589
 150   2.0000      -0.779596       -21.2139
 151   2.0000      -0.765245       -20.8234
 152   2.0000      -0.756229       -20.5780
 153   2.0000      -0.752332       -20.4720
 154   2.0000      -0.748268       -20.3614
 155   2.0000      -0.742664       -20.2089
 156   2.0000      -0.720866       -19.6158
 157   2.0000      -0.712042       -19.3757
 158   2.0000      -0.706752       -19.2317
 159   2.0000      -0.700702       -19.0671
 160   2.0000      -0.690172       -18.7805
 161   2.0000      -0.689724       -18.7683
 162   2.0000      -0.684482       -18.6257
 163   2.0000      -0.680978       -18.5303
 164   2.0000      -0.677547       -18.4370
 165   2.0000      -0.674372       -18.3506
 166   2.0000      -0.667001       -18.1500
 167   2.0000      -0.658873       -17.9288
 168   2.0000      -0.653710       -17.7884
 169   2.0000      -0.651319       -17.7233
 170   2.0000      -0.650424       -17.6989
 171   2.0000      -0.649290       -17.6681
 172   2.0000      -0.648133       -17.6366
 173   2.0000      -0.641006       -17.4427
 174   2.0000      -0.636464       -17.3191
 175   2.0000      -0.619054       -16.8453
 176   2.0000      -0.616071       -16.7641
 177   2.0000      -0.614433       -16.7196
 178   2.0000      -0.609442       -16.5838
 179   2.0000      -0.605499       -16.4765
 180   2.0000      -0.600220       -16.3328
 181   2.0000      -0.593054       -16.1378
 182   2.0000      -0.590210       -16.0604
 183   2.0000      -0.588084       -16.0026
 184   2.0000      -0.585855       -15.9419
 185   2.0000      -0.582352       -15.8466
 186   2.0000      -0.581945       -15.8355
 187   2.0000      -0.578407       -15.7393
 188   2.0000      -0.572152       -15.5690
 189   2.0000      -0.567404       -15.4399
 190   2.0000      -0.562282       -15.3005
 191   2.0000      -0.554950       -15.1010
 192   2.0000      -0.549228       -14.9452
 193   2.0000      -0.545179       -14.8351
 194   2.0000      -0.540580       -14.7099
 195   2.0000      -0.538834       -14.6624
 196   2.0000      -0.536978       -14.6119
 197   2.0000      -0.535634       -14.5753
 198   2.0000      -0.533670       -14.5219
 199   2.0000      -0.532155       -14.4807
 200   2.0000      -0.529354       -14.4045
 201   2.0000      -0.525956       -14.3120
 202   2.0000      -0.523644       -14.2491
 203   2.0000      -0.521979       -14.2038
 204   2.0000      -0.520757       -14.1705
 205   2.0000      -0.518375       -14.1057
 206   2.0000      -0.517559       -14.0835
 207   2.0000      -0.514850       -14.0098
 208   2.0000      -0.513240       -13.9660
 209   2.0000      -0.505432       -13.7535
 210   2.0000      -0.504133       -13.7181
 211   2.0000      -0.503699       -13.7063
 212   2.0000      -0.500792       -13.6272
 213   2.0000      -0.499909       -13.6032
 214   2.0000      -0.494799       -13.4642
 215   2.0000      -0.491412       -13.3720
 216   2.0000      -0.489498       -13.3199
 217   2.0000      -0.486430       -13.2364
 218   2.0000      -0.484189       -13.1754
 219   2.0000      -0.483030       -13.1439
 220   2.0000      -0.481480       -13.1017
 221   2.0000      -0.478818       -13.0293
 222   2.0000      -0.473077       -12.8731
 223   2.0000      -0.468554       -12.7500
 224   2.0000      -0.466998       -12.7077
 225   2.0000      -0.464007       -12.6263
 226   2.0000      -0.455409       -12.3923
 227   2.0000      -0.452391       -12.3102
 228   2.0000      -0.449146       -12.2219
 229   2.0000      -0.447361       -12.1733
 230   2.0000      -0.443621       -12.0715
 231   2.0000      -0.442925       -12.0526
 232   2.0000      -0.442269       -12.0347
 233   2.0000      -0.441690       -12.0190
 234   2.0000      -0.440951       -11.9989
 235   2.0000      -0.440126       -11.9764
 236   2.0000      -0.436958       -11.8902
 237   2.0000      -0.435007       -11.8372
 238   2.0000      -0.434410       -11.8209
 239   2.0000      -0.433680       -11.8010
 240   2.0000      -0.432517       -11.7694
 241   2.0000      -0.430024       -11.7016
 242   2.0000      -0.429370       -11.6838
 243   2.0000      -0.419271       -11.4089
 244   2.0000      -0.418192       -11.3796
 245   2.0000      -0.415166       -11.2972
 246   2.0000      -0.415138       -11.2965
 247   2.0000      -0.406319       -11.0565
 248   2.0000      -0.405696       -11.0395
 249   2.0000      -0.402711       -10.9583
 250   2.0000      -0.400820       -10.9069
 251   2.0000      -0.398909       -10.8549
 252   2.0000      -0.395914       -10.7734
 253   2.0000      -0.388916       -10.5829
 254   2.0000      -0.384545       -10.4640
 255   2.0000      -0.383107       -10.4249
 256   2.0000      -0.382493       -10.4082
 257   2.0000      -0.380494       -10.3538
 258   2.0000      -0.372954       -10.1486
 259   2.0000      -0.370548       -10.0831
 260   2.0000      -0.363649        -9.8954
 261   2.0000      -0.360800        -9.8179
 262   2.0000      -0.354214        -9.6387
 263   2.0000      -0.351898        -9.5756
 264   2.0000      -0.346333        -9.4242
 265   2.0000      -0.334418        -9.1000
 266   2.0000      -0.329793        -8.9741
 267   2.0000      -0.324134        -8.8201
 268   2.0000      -0.318461        -8.6658
 269   2.0000      -0.312132        -8.4935
 270   2.0000      -0.309994        -8.4354
 271   2.0000      -0.306941        -8.3523
 272   2.0000      -0.289571        -7.8796
 273   2.0000      -0.286893        -7.8067
 274   2.0000      -0.255765        -6.9597
 275   2.0000      -0.242136        -6.5889
 276   0.0000      -0.130030        -3.5383
 277   0.0000      -0.113723        -3.0946
 278   0.0000      -0.069478        -1.8906
 279   0.0000      -0.069291        -1.8855
 280   0.0000      -0.065669        -1.7870

MULLIKEN ATOMIC CHARGES
-----------------------
   0 C :    0.309373
   1 C :   -0.363351
   2 C :   -0.185427
   3 N :    0.137912
   4 C :   -0.203438
   5 N :    0.135450
   6 C :    0.019282
   7 C :   -0.010181
   8 C :   -0.086151
   9 C :    0.121729
  10 C :   -0.090087
  11 C :   -0.031561
  12 S :    0.180845
  13 C :   -0.124258
  14 C :    0.035592
  15 Br:    0.016354
  16 C :    0.112347
  17 O :   -0.163562
  18 C :   -0.133154
  19 C :   -0.053010
  20 C :    0.086078
  21 C :    0.046962
  22 C :    0.041665
  23 C :    0.035230
  24 C :    0.026079
  25 C :   -0.026933
  26 C :    0.003446
  27 C :    0.044078
  28 C :    0.024884
  29 C :   -0.041063
  30 N :    0.019011
  31 C :   -0.114076
  32 S :    0.198902
  33 C :   -0.006870
  34 N :    0.277484
  35 O :   -0.241148
  36 O :   -0.255065
  37 C :    0.010931
  38 C :    0.126276
  39 C :   -0.036319
  40 C :   -0.014791
  41 C :    0.101642
  42 C :    0.021898
  43 C :   -0.021145
  44 C :    0.026828
  45 C :    0.046375
  46 C :   -0.023210
  47 C :    0.067413
  48 C :    0.070220
  49 C :    0.019771
  50 C :    0.035238
  51 C :   -0.060708
  52 C :   -0.134564
  53 C :    0.296537
  54 C :   -0.354515
  55 C :   -0.186466
  56 N :    0.140557
  57 C :   -0.211941
  58 N :    0.150771
  59 C :    0.021375
  60 C :   -0.014375
  61 C :    0.115827
  62 O :   -0.165762
  63 C :   -0.076752
  64 C :    0.116913
  65 C :   -0.091064
  66 C :   -0.025200
  67 S :    0.183278
  68 C :   -0.124105
  69 C :    0.037300
  70 Br:    0.018392
  71 H :   -0.018295
  72 H :   -0.008594
  73 H :   -0.006901
  74 H :    0.001346
  75 H :   -0.010270
  76 H :    0.001948
  77 H :    0.000099
  78 H :   -0.008412
  79 H :    0.020695
  80 H :    0.062043
  81 H :    0.150684
  82 H :    0.016405
  83 H :   -0.027053
  84 H :   -0.020189
  85 H :   -0.035378
  86 H :   -0.006712
  87 H :    0.003314
  88 H :   -0.005417
  89 H :    0.054968
  90 H :    0.034169
  91 H :    0.021788
  92 H :   -0.016608
  93 H :   -0.007594
  94 H :   -0.006024
Sum of atomic charges:   -0.0000000

LOEWDIN ATOMIC CHARGES
----------------------
   0 C :    0.076873
   1 C :   -0.161995
   2 C :   -0.020212
   3 N :   -0.067717
   4 C :   -0.021287
   5 N :   -0.075835
   6 C :   -0.021283
   7 C :   -0.048068
   8 C :    0.013839
   9 C :   -0.035868
  10 C :   -0.147636
  11 C :   -0.012165
  12 S :    0.428417
  13 C :   -0.274708
  14 C :   -0.071766
  15 Br:    0.130995
  16 C :    0.069355
  17 O :   -0.158079
  18 C :   -0.131066
  19 C :    0.059467
  20 C :   -0.075712
  21 C :    0.054759
  22 C :    0.002521
  23 C :    0.018100
  24 C :   -0.015320
  25 C :   -0.020510
  26 C :   -0.059246
  27 C :    0.056587
  28 C :   -0.011999
  29 C :    0.040216
  30 N :    0.061225
  31 C :   -0.108630
  32 S :    0.500249
  33 C :   -0.199534
  34 N :    0.273043
  35 O :   -0.207917
  36 O :   -0.221669
  37 C :    0.002204
  38 C :   -0.092780
  39 C :   -0.009809
  40 C :   -0.013621
  41 C :    0.031732
  42 C :   -0.027396
  43 C :   -0.014652
  44 C :   -0.022332
  45 C :    0.008824
  46 C :   -0.013034
  47 C :    0.032770
  48 C :   -0.055690
  49 C :   -0.007685
  50 C :    0.097360
  51 C :    0.062386
  52 C :   -0.127185
  53 C :    0.073121
  54 C :   -0.156571
  55 C :   -0.020020
  56 N :   -0.064411
  57 C :   -0.025879
  58 N :   -0.066329
  59 C :   -0.019980
  60 C :   -0.049757
  61 C :    0.072689
  62 O :   -0.164271
  63 C :    0.016299
  64 C :   -0.035664
  65 C :   -0.145902
  66 C :   -0.012258
  67 S :    0.430514
  68 C :   -0.273769
  69 C :   -0.071564
  70 Br:    0.132846
  71 H :    0.037567
  72 H :    0.040171
  73 H :    0.037251
  74 H :    0.037659
  75 H :    0.035468
  76 H :    0.036544
  77 H :    0.035014
  78 H :    0.020650
  79 H :    0.025741
  80 H :    0.046221
  81 H :    0.097538
  82 H :    0.045698
  83 H :    0.023295
  84 H :    0.032271
  85 H :    0.023235
  86 H :    0.031897
  87 H :    0.036673
  88 H :    0.037217
  89 H :    0.041174
  90 H :    0.031953
  91 H :    0.042899
  92 H :    0.038085
  93 H :    0.040557
  94 H :    0.037615

  Mayer bond orders larger than 0.100000
B(  0-C ,  1-C ) :   1.5929 B(  0-C ,  6-C ) :   0.9900 B(  0-C , 18-C ) :   1.1177
B(  1-C ,  2-C ) :   1.1454 B(  1-C ,  4-C ) :   1.1501 B(  2-C ,  3-N ) :   2.9657
B(  4-C ,  5-N ) :   2.9871 B(  6-C ,  7-C ) :   1.2757 B(  6-C , 11-C ) :   1.4194
B(  7-C ,  8-C ) :   1.4326 B(  7-C , 16-C ) :   0.9274 B(  8-C ,  9-C ) :   1.2335
B(  8-C , 71-H ) :   1.0180 B(  9-C , 10-C ) :   1.3179 B(  9-C , 14-C ) :   1.1610
B( 10-C , 11-C ) :   1.3159 B( 10-C , 12-S ) :   1.0828 B( 11-C , 72-H ) :   0.9811
B( 12-S , 13-C ) :   1.0874 B( 13-C , 14-C ) :   1.6190 B( 13-C , 15-Br) :   1.0149
B( 14-C , 73-H ) :   1.0006 B( 16-C , 17-O ) :   2.1918 B( 16-C , 18-C ) :   0.9892
B( 18-C , 19-C ) :   1.4152 B( 19-C , 20-C ) :   1.3497 B( 19-C , 74-H ) :   0.9350
B( 20-C , 21-C ) :   1.2986 B( 20-C , 28-C ) :   0.9961 B( 21-C , 22-C ) :   1.2266
B( 21-C , 26-C ) :   1.1665 B( 22-C , 23-C ) :   1.5427 B( 22-C , 75-H ) :   0.9821
B( 23-C , 24-C ) :   1.1888 B( 23-C , 76-H ) :   0.9856 B( 24-C , 25-C ) :   1.5815
B( 24-C , 77-H ) :   0.9849 B( 25-C , 26-C ) :   1.1476 B( 25-C , 78-H ) :   0.9892
B( 26-C , 27-C ) :   1.3837 B( 27-C , 28-C ) :   1.0428 B( 27-C , 30-N ) :   1.2072
B( 28-C , 29-C ) :   1.8845 B( 29-C , 79-H ) :   0.9416 B( 29-C , 80-H ) :   0.9222
B( 30-N , 31-C ) :   1.1889 B( 30-N , 81-H ) :   0.8887 B( 31-C , 32-S ) :   1.1403
B( 31-C , 38-C ) :   1.3408 B( 32-S , 33-C ) :   1.0802 B( 33-C , 34-N ) :   0.9615
B( 33-C , 37-C ) :   1.5141 B( 34-N , 35-O ) :   1.5372 B( 34-N , 36-O ) :   1.5156
B( 35-O , 36-O ) :   0.2648 B( 37-C , 38-C ) :   1.2109 B( 37-C , 82-H ) :   0.9952
B( 38-C , 39-C ) :   1.1033 B( 39-C , 40-C ) :   1.6287 B( 39-C , 83-H ) :   0.9667
B( 40-C , 41-C ) :   1.2001 B( 40-C , 84-H ) :   0.9552 B( 41-C , 42-C ) :   1.3166
B( 41-C , 49-C ) :   1.0431 B( 42-C , 43-C ) :   1.1974 B( 42-C , 47-C ) :   1.1847
B( 43-C , 44-C ) :   1.5430 B( 43-C , 85-H ) :   0.9867 B( 44-C , 45-C ) :   1.2129
B( 44-C , 86-H ) :   0.9845 B( 45-C , 46-C ) :   1.5301 B( 45-C , 87-H ) :   0.9845
B( 46-C , 47-C ) :   1.2300 B( 46-C , 88-H ) :   0.9920 B( 47-C , 48-C ) :   1.2653
B( 48-C , 49-C ) :   1.0344 B( 48-C , 51-C ) :   1.3212 B( 49-C , 50-C ) :   1.8397
B( 50-C , 89-H ) :   0.9305 B( 50-C , 90-H ) :   0.9355 B( 51-C , 52-C ) :   1.4298
B( 51-C , 91-H ) :   0.9416 B( 52-C , 53-C ) :   1.1047 B( 52-C , 61-C ) :   0.9719
B( 53-C , 54-C ) :   1.6067 B( 53-C , 59-C ) :   0.9962 B( 54-C , 55-C ) :   1.1443
B( 54-C , 57-C ) :   1.1475 B( 55-C , 56-N ) :   2.9677 B( 57-C , 58-N ) :   2.9985
B( 59-C , 60-C ) :   1.2725 B( 59-C , 66-C ) :   1.4201 B( 60-C , 61-C ) :   0.9367
B( 60-C , 63-C ) :   1.4295 B( 61-C , 62-O ) :   2.2018 B( 63-C , 64-C ) :   1.2393
B( 63-C , 92-H ) :   1.0166 B( 64-C , 65-C ) :   1.3152 B( 64-C , 69-C ) :   1.1611
B( 65-C , 66-C ) :   1.3178 B( 65-C , 67-S ) :   1.0844 B( 66-C , 93-H ) :   0.9809
B( 67-S , 68-C ) :   1.0870 B( 68-C , 69-C ) :   1.6193 B( 68-C , 70-Br) :   1.0153
B( 69-C , 94-H ) :   1.0001

-----------------------------------------------------------------------------
         ABSORPTION SPECTRUM VIA TRANSITION ELECTRIC DIPOLE MOMENTS
-----------------------------------------------------------------------------
State   Energy  Wavelength   fosc         T2         TX        TY        TZ
        (cm-1)    (nm)                  (au**2)     (au)      (au)      (au)
-----------------------------------------------------------------------------
   0    8542.3   1170.6   0.599633072  23.10931   2.20172   0.24425   4.26639
   1   11024.3    907.1   0.175358809   5.23663   0.71702   2.12355  -0.46156
   2   14851.8    673.3   0.005848260   0.12964   0.07232  -0.24234   0.25627
   3   17053.7    586.4   0.073384579   1.41665   0.06898  -0.42427  -1.10990
   4   20852.1    479.6   0.345439060   5.45378   1.47939  -0.04039   1.80654
   5   21256.9    470.4   0.185473735   2.87248   0.30271   1.38142  -0.93409
   6   21664.5    461.6   0.047943263   0.72854   0.50061   0.01409   0.69118
   7   22071.9    453.1   0.129617446   1.93330  -0.92519   0.72731  -0.74050
   8   22276.2    448.9   0.106463992   1.57339   0.51667   0.53123   1.01205
   9   23086.4    433.2   0.031982316   0.45607  -0.59249   0.30320  -0.11441
  10   23641.9    423.0   0.098330200   1.36924  -0.07748   1.13203  -0.28591
  11   24235.8    412.6   0.077716532   1.05568  -0.29665   0.07825   0.98059
  12   25364.1    394.3   0.100649667   1.30638  -0.85277  -0.52800   0.54807
  13   25534.7    391.6   0.070828032   0.91317  -0.50405   0.54367  -0.60293
  14   25984.6    384.8   0.061465211   0.77873  -0.81822  -0.31588  -0.09728
  15   26475.1    377.7   0.196487352   2.44327   0.57952  -0.63844   1.30377
  16   26782.7    373.4   0.038109689   0.46844   0.17972  -0.64279   0.15154
  17   27175.4    368.0   0.113727393   1.37773   0.90220  -0.73212   0.16665
  18   28057.8    356.4   0.242946029   2.85057   1.58429   0.11038   0.57306
  19   28364.4    352.6   0.068787619   0.79839   0.60309   0.54750  -0.36731
  20   28697.5    348.5   0.096720483   1.10956  -0.02946  -0.64077   0.83553
  21   29361.3    340.6   0.028897351   0.32401   0.20021   0.43537   0.30721
  22   29793.4    335.6   0.022756492   0.25146   0.14778   0.20716   0.43209
  23   29909.8    334.3   0.074812347   0.82345  -0.26155   0.67904   0.54217
  24   30869.3    323.9   0.107994642   1.15173   0.24080  -0.63622   0.83004
  25   30911.0    323.5   0.311929587   3.32214   0.89809   0.40530  -1.53340
  26   31056.8    322.0   0.702533176   7.44707  -2.62517  -0.20014   0.71797
  27   31344.7    319.0   0.100283925   1.05328  -0.37951   0.93635   0.18027
  28   31436.4    318.1   0.168171717   1.76115   0.78515  -0.17414  -1.05563
  29   31611.2    316.3   0.014505393   0.15107   0.29685   0.18131   0.17341
  30   31747.9    315.0   0.130066291   1.34873   0.78900  -0.76040  -0.38471
  31   32051.7    312.0   0.138159241   1.41907  -0.50480   1.07899  -0.00656
  32   32933.4    303.6   0.070508350   0.70482   0.68919  -0.32995   0.34781
  33   33083.0    302.3   0.084778379   0.84364   0.79144   0.20986  -0.41619
  34   33430.7    299.1   0.037593351   0.37020  -0.48673   0.24752   0.26839
  35   33509.0    298.4   0.092823572   0.91195  -0.72860   0.54886   0.28256
  36   33894.8    295.0   0.195834395   1.90209   0.48743  -1.16766  -0.54870
  37   34034.7    293.8   0.097349888   0.94165  -0.65543   0.25742   0.66768
  38   34376.4    290.9   0.112935789   1.08155  -0.69560   0.73817   0.22975
  39   34416.5    290.6   0.037580690   0.35948  -0.44393   0.39882   0.05791
  40   34992.4    285.8   0.045763136   0.43054   0.09482   0.47774  -0.43968
  41   35267.9    283.5   0.009897238   0.09239   0.15266   0.25912   0.04403
  42   35379.3    282.7   0.077673107   0.72277   0.43495  -0.70968  -0.17302
  43   35654.2    280.5   0.008127059   0.07504  -0.02718  -0.23864   0.13174
  44   35997.4    277.8   0.019258218   0.17612  -0.10174  -0.03741  -0.40543
  45   36122.3    276.8   0.016611308   0.15139   0.21640   0.06920  -0.31587
  46   36266.3    275.7   0.116878573   1.06098  -0.99371   0.25881  -0.08080
  47   36390.3    274.8   0.009446537   0.08546  -0.24710  -0.02626  -0.15399
  48   36601.4    273.2   0.125244997   1.12652  -1.03231   0.24654   0.00872
  49   37146.6    269.2   0.196012311   1.73716   0.01730  -0.70956  -1.11058
  50   37913.6    263.8   0.059849124   0.51968   0.21283  -0.68454   0.07610
  51   37989.8    263.2   0.021868063   0.18950   0.04707  -0.42801  -0.06401
  52   38064.8    262.7   0.062245553   0.53834  -0.04881   0.54100   0.49323
  53   38274.1    261.3   0.166378072   1.43109   0.02310  -0.46498  -1.10197
  54   38698.1    258.4   0.324465594   2.76029  -1.49624   0.66268   0.28710
  55   38905.3    257.0   0.002630638   0.02226  -0.06753  -0.04323   0.12582
  56   39005.7    256.4   0.073237155   0.61813  -0.09710   0.76184   0.16823
  57   39009.2    256.4   0.032808450   0.27688  -0.42625  -0.15670  -0.26578
  58   39186.6    255.2   0.003049068   0.02562   0.12855   0.03230  -0.08971
  59   39255.5    254.7   0.077758505   0.65211  -0.55101   0.58817   0.05060
  60   39869.0    250.8   0.024649797   0.20354   0.19277   0.18538   0.36334
  61   40042.9    249.7   0.013616238   0.11195   0.01584   0.01559  -0.33384
  62   40270.0    248.3   0.038257448   0.31276  -0.03150   0.55516  -0.05972

FINAL SINGLE POINT ENERGY     -9116.163666516488

DIPOLE MOMENT
-------------
                                X             Y             Z
Electronic contribution:    123.22044      45.93347     -70.38730
Nuclear contribution   :   -121.73544     -47.11010      69.62026
                        -----------------------------------------
Total Dipole Moment    :      1.48500      -1.17663      -0.76705
                        -----------------------------------------
Magnitude (a.u.)       :      2.04402
Magnitude (Debye)      :      5.19549

Rotational constants in cm-1:     0.000821     0.000224     0.000203
Rotational constants in MHz :    24.601505     6.728108     6.077883

                             ****ORCA TERMINATED NORMALLY****
TOTAL RUN TIME: 0 days 0 hours 26 minutes 30 seconds 166 msec
