                         Program Version 4.2.0 -  RELEASE  -
|  1> # ORCA input file
|  2> # SCF done       -190.870053856410          0.000994259651
|  3> ! CAM-B3LYP def2-SVP def2/J RIJCOSX Grid4 TightSCF
|  4> %maxcore 5000
|  5> %tddft
|  6>     Mode sTDDFT
|  7>     Ethresh 5.0
|  8>     maxcore 5000
|  9> end
| 10>
| 11> %pal
| 12>   nprocs 6
| 13>   end
| 14> * xyz 0 1
| 15>    C       -7.62962        -3.35865         2.08100
| 16>    C       -8.71158        -3.68403         2.85790
| 17>    C       -9.09855        -5.00571         3.15678
| 18>    N       -9.45394        -6.06339         3.42814
| 19>    C       -9.60069        -2.74119         3.41551
| 20>    N      -10.38306        -2.03472         3.87009
| 21>    C       -6.76011        -4.29813         1.38313
| 22>    C       -5.87322        -3.56447         0.55800
| 23>    C       -4.92564        -4.16917        -0.23092
| 24>    C       -4.85180        -5.56591        -0.20803
| 25>    C       -5.73956        -6.29015         0.62203
| 26>    C       -6.69697        -5.67822         1.42232
| 27>    S       -5.46727        -8.00273         0.50704
| 28>    C       -4.18373        -7.72534        -0.64010
| 29>    C       -3.96803        -6.41935        -0.92399
| 30>   Br       -3.24749        -9.18570        -1.35316
| 31>    C       -6.12277        -2.11839         0.72502
| 32>    O       -5.46741        -1.22104         0.23672
| 33>    C       -7.22269        -2.01985         1.71465
| 34>    C       -7.59932        -0.85620         2.32153
| 35>    C       -7.32771         0.43686         1.79649
| 36>    C       -7.03768         1.52235         2.64918
| 37>    C       -6.63632         2.79528         2.11791
| 38>    N       -6.26402         3.79527         2.92788
| 39>    C       -6.29764         3.59619         4.23373
| 40>    C       -6.72745         2.34158         4.76421
| 41>    N       -7.06839         1.34430         3.98122
| 42>    C       -6.77551         2.16619         6.17078
| 43>    N       -6.79281         2.07105         7.31186
| 44>    C       -5.89085         4.65154         5.08172
| 45>    N       -5.55491         5.51120         5.76226
| 46>    C       -6.57474         3.04798         0.72028
| 47>    C       -6.99454         2.00868        -0.12735
| 48>    C       -7.36168         0.71928         0.41071
| 49>    N       -7.77580        -0.10416        -0.54746
| 50>    S       -7.67283         0.62773        -1.97012
| 51>    N       -7.12647         2.04999        -1.45105
| 52>    N       -6.09516         4.27187         0.38031
| 53>    C       -5.81537         4.89906        -0.77473
| 54>    S       -6.19001         4.28492        -2.35263
| 55>    C       -5.47407         5.71273        -3.04521
| 56>    N       -5.46371         5.82841        -4.44088
| 57>    O       -4.95133         6.82089        -4.92715
| 58>    O       -5.97135         4.91839        -5.07286
| 59>    C       -4.97169         6.59297        -2.13168
| 60>    C       -5.15376         6.15601        -0.80105
| 61>    C       -4.71153         6.85656         0.35137
| 62>    C       -3.91089         7.96604         0.30852
| 63>    C       -3.44190         8.65746         1.42648
| 64>    C       -2.56610         9.72194         1.32667
| 65>    C       -2.00690        10.49679         2.36324
| 66>    C       -1.14255        11.46827         1.93460
| 67>    C       -0.97752        11.50398         0.53938
| 68>    S       -1.96127        10.27733        -0.22088
| 69>    C       -0.17109        12.32801        -0.23585
| 70>    C        0.69754        13.36120         0.16368
| 71>    C        1.35359        13.95679        -0.87605
| 72>    C        1.04196        13.42843        -2.15126
| 73>    S       -0.13352        12.13825        -1.96701
| 74>    C        1.57295        13.85147        -3.34823
| 75>    C        1.31269        13.37463        -4.64517
| 76>    C        1.91203        13.88522        -5.81012
| 77>    C        1.41843        13.17929        -6.92627
| 78>    C        1.67621        13.29010        -8.28069
| 79>    C        0.99927        12.42279        -9.14430
| 80>    C        1.03064        12.28738       -10.53027
| 81>    C        0.13885        11.24494       -10.91695
| 82>    C       -0.44577        10.73078        -9.76809
| 83>    C        0.05960        11.43600        -8.63675
| 84>    C       -0.20041        11.31774        -7.29703
| 85>    C        0.47766        12.19272        -6.42270
| 86>    C        0.42374        12.32048        -5.04879
| 87>    C       -0.13269        10.78356       -12.25727
| 88>    C        0.41236        11.27121       -13.36841
| 89>    H       -4.26147        -3.58368        -0.84720
| 90>    H       -7.34575        -6.27181         2.04468
| 91>    H       -3.21633        -6.06974        -1.60793
| 92>    H       -8.07907        -0.88081         3.29167
| 93>    H       -5.86736         4.79026         1.23582
| 94>    H       -4.50550         7.51644        -2.42095
| 95>    H       -4.99833         6.48683         1.32777
| 96>    H       -3.58223         8.33592        -0.65309
| 97>    H       -3.75476         8.35054         2.41514
| 98>    H       -2.25311        10.31643         3.39458
| 99>    H       -0.62476        12.14747         2.58805
|100>    H        0.81849        13.63845         1.19538
|101>    H        2.05700        14.76323        -0.76306
|102>    H        2.28845        14.66273        -3.27998
|103>    H        2.62915        14.68489        -5.84226
|104>    H        2.37367        14.02142        -8.66409
|105>    H        1.63041        12.87489       -11.20079
|106>    H       -1.16446         9.93291        -9.72683
|107>    H       -0.89769        10.58827        -6.91078
|108>    H       -0.18544        11.72575        -4.39545
|109>    H       -0.84573         9.97138       -12.32222
|110>    H        1.12493        12.07799       -13.35439
|111>    H        0.16045        10.87691       -14.33728
|112> *
|113>
|114>                          ****END OF INPUT****

CARTESIAN COORDINATES (ANGSTROEM)
---------------------------------
  C     -7.629620   -3.358650    2.081000
  C     -8.711580   -3.684030    2.857900
  C     -9.098550   -5.005710    3.156780
  N     -9.453940   -6.063390    3.428140
  C     -9.600690   -2.741190    3.415510
  N    -10.383060   -2.034720    3.870090
  C     -6.760110   -4.298130    1.383130
  C     -5.873220   -3.564470    0.558000
  C     -4.925640   -4.169170   -0.230920
  C     -4.851800   -5.565910   -0.208030
  C     -5.739560   -6.290150    0.622030
  C     -6.696970   -5.678220    1.422320
  S     -5.467270   -8.002730    0.507040
  C     -4.183730   -7.725340   -0.640100
  C     -3.968030   -6.419350   -0.923990
  Br    -3.247490   -9.185700   -1.353160
  C     -6.122770   -2.118390    0.725020
  O     -5.467410   -1.221040    0.236720
  C     -7.222690   -2.019850    1.714650
  C     -7.599320   -0.856200    2.321530
  C     -7.327710    0.436860    1.796490
  C     -7.037680    1.522350    2.649180
  C     -6.636320    2.795280    2.117910
  N     -6.264020    3.795270    2.927880
  C     -6.297640    3.596190    4.233730
  C     -6.727450    2.341580    4.764210
  N     -7.068390    1.344300    3.981220
  C     -6.775510    2.166190    6.170780
  N     -6.792810    2.071050    7.311860
  C     -5.890850    4.651540    5.081720
  N     -5.554910    5.511200    5.762260
  C     -6.574740    3.047980    0.720280
  C     -6.994540    2.008680   -0.127350
  C     -7.361680    0.719280    0.410710
  N     -7.775800   -0.104160   -0.547460
  S     -7.672830    0.627730   -1.970120
  N     -7.126470    2.049990   -1.451050
  N     -6.095160    4.271870    0.380310
  C     -5.815370    4.899060   -0.774730
  S     -6.190010    4.284920   -2.352630
  C     -5.474070    5.712730   -3.045210
  N     -5.463710    5.828410   -4.440880
  O     -4.951330    6.820890   -4.927150
  O     -5.971350    4.918390   -5.072860
  C     -4.971690    6.592970   -2.131680
  C     -5.153760    6.156010   -0.801050
  C     -4.711530    6.856560    0.351370
  C     -3.910890    7.966040    0.308520
  C     -3.441900    8.657460    1.426480
  C     -2.566100    9.721940    1.326670
  C     -2.006900   10.496790    2.363240
  C     -1.142550   11.468270    1.934600
  C     -0.977520   11.503980    0.539380
  S     -1.961270   10.277330   -0.220880
  C     -0.171090   12.328010   -0.235850
  C      0.697540   13.361200    0.163680
  C      1.353590   13.956790   -0.876050
  C      1.041960   13.428430   -2.151260
  S     -0.133520   12.138250   -1.967010
  C      1.572950   13.851470   -3.348230
  C      1.312690   13.374630   -4.645170
  C      1.912030   13.885220   -5.810120
  C      1.418430   13.179290   -6.926270
  C      1.676210   13.290100   -8.280690
  C      0.999270   12.422790   -9.144300
  C      1.030640   12.287380  -10.530270
  C      0.138850   11.244940  -10.916950
  C     -0.445770   10.730780   -9.768090
  C      0.059600   11.436000   -8.636750
  C     -0.200410   11.317740   -7.297030
  C      0.477660   12.192720   -6.422700
  C      0.423740   12.320480   -5.048790
  C     -0.132690   10.783560  -12.257270
  C      0.412360   11.271210  -13.368410
  H     -4.261470   -3.583680   -0.847200
  H     -7.345750   -6.271810    2.044680
  H     -3.216330   -6.069740   -1.607930
  H     -8.079070   -0.880810    3.291670
  H     -5.867360    4.790260    1.235820
  H     -4.505500    7.516440   -2.420950
  H     -4.998330    6.486830    1.327770
  H     -3.582230    8.335920   -0.653090
  H     -3.754760    8.350540    2.415140
  H     -2.253110   10.316430    3.394580
  H     -0.624760   12.147470    2.588050
  H      0.818490   13.638450    1.195380
  H      2.057000   14.763230   -0.763060
  H      2.288450   14.662730   -3.279980
  H      2.629150   14.684890   -5.842260
  H      2.373670   14.021420   -8.664090
  H      1.630410   12.874890  -11.200790
  H     -1.164460    9.932910   -9.726830
  H     -0.897690   10.588270   -6.910780
  H     -0.185440   11.725750   -4.395450
  H     -0.845730    9.971380  -12.322220
  H      1.124930   12.077990  -13.354390
  H      0.160450   10.876910  -14.337280

 Total Charge           Charge          ....    0
 Multiplicity           Mult            ....    1
 Number of Electrons    NEL             ....  562
 Basis Dimension        Dim             .... 1189

ORBITAL ENERGIES
----------------

  NO   OCC          E(Eh)            E(eV)
   0   2.0000    -482.883394    -13139.9252
   1   2.0000     -89.048202     -2423.1248
   2   2.0000     -88.983004     -2421.3506
   3   2.0000     -88.972634     -2421.0685
   4   2.0000     -88.953224     -2420.5403
   5   2.0000     -88.948933     -2420.4235
   6   2.0000     -62.561103     -1702.3742
   7   2.0000     -56.395053     -1534.5874
   8   2.0000     -56.392338     -1534.5135
   9   2.0000     -56.392307     -1534.5127
  10   2.0000     -19.240154      -523.5512
  11   2.0000     -19.239365      -523.5297
  12   2.0000     -19.211095      -522.7605
  13   2.0000     -14.650491      -398.6601
  14   2.0000     -14.513512      -394.9328
  15   2.0000     -14.482948      -394.1011
  16   2.0000     -14.465802      -393.6345
  17   2.0000     -14.465641      -393.6301
  18   2.0000     -14.450046      -393.2057
  19   2.0000     -14.434292      -392.7770
  20   2.0000     -14.434055      -392.7706
  21   2.0000     -14.409749      -392.1092
  22   2.0000     -14.407296      -392.0425
  23   2.0000     -10.391319      -282.7622
  24   2.0000     -10.385963      -282.6164
  25   2.0000     -10.383706      -282.5550
  26   2.0000     -10.372156      -282.2407
  27   2.0000     -10.362068      -281.9662
  28   2.0000     -10.360651      -281.9276
  29   2.0000     -10.360340      -281.9192
  30   2.0000     -10.356368      -281.8111
  31   2.0000     -10.356113      -281.8042
  32   2.0000     -10.348985      -281.6102
  33   2.0000     -10.341463      -281.4055
  34   2.0000     -10.335914      -281.2545
  35   2.0000     -10.333931      -281.2006
  36   2.0000     -10.329122      -281.0697
  37   2.0000     -10.326579      -281.0005
  38   2.0000     -10.322122      -280.8792
  39   2.0000     -10.321118      -280.8519
  40   2.0000     -10.314591      -280.6743
  41   2.0000     -10.312698      -280.6228
  42   2.0000     -10.312506      -280.6175
  43   2.0000     -10.311695      -280.5955
  44   2.0000     -10.310686      -280.5680
  45   2.0000     -10.310164      -280.5538
  46   2.0000     -10.309994      -280.5492
  47   2.0000     -10.309679      -280.5406
  48   2.0000     -10.307948      -280.4935
  49   2.0000     -10.307245      -280.4744
  50   2.0000     -10.304159      -280.3904
  51   2.0000     -10.303574      -280.3745
  52   2.0000     -10.301874      -280.3283
  53   2.0000     -10.301634      -280.3217
  54   2.0000     -10.297344      -280.2050
  55   2.0000     -10.296356      -280.1781
  56   2.0000     -10.294769      -280.1349
  57   2.0000     -10.294733      -280.1339
  58   2.0000     -10.294687      -280.1327
  59   2.0000     -10.293950      -280.1126
  60   2.0000     -10.291215      -280.0382
  61   2.0000     -10.290586      -280.0211
  62   2.0000     -10.290499      -280.0187
  63   2.0000     -10.290003      -280.0052
  64   2.0000     -10.289043      -279.9791
  65   2.0000     -10.288053      -279.9522
  66   2.0000     -10.287261      -279.9306
  67   2.0000     -10.284965      -279.8681
  68   2.0000     -10.284369      -279.8519
  69   2.0000     -10.280827      -279.7555
  70   2.0000     -10.278232      -279.6849
  71   2.0000     -10.276279      -279.6318
  72   2.0000     -10.274697      -279.5887
  73   2.0000     -10.274423      -279.5813
  74   2.0000     -10.273819      -279.5648
  75   2.0000     -10.272939      -279.5409
  76   2.0000     -10.272502      -279.5290
  77   2.0000     -10.263401      -279.2813
  78   2.0000      -8.790527      -239.2024
  79   2.0000      -8.139159      -221.4778
  80   2.0000      -8.076957      -219.7852
  81   2.0000      -8.068568      -219.5569
  82   2.0000      -8.049243      -219.0310
  83   2.0000      -8.045348      -218.9250
  84   2.0000      -6.626826      -180.3251
  85   2.0000      -6.612272      -179.9291
  86   2.0000      -6.612052      -179.9231
  87   2.0000      -6.110308      -166.2699
  88   2.0000      -6.102531      -166.0583
  89   2.0000      -6.101819      -166.0389
  90   2.0000      -6.046679      -164.5385
  91   2.0000      -6.042358      -164.4209
  92   2.0000      -6.038272      -164.3097
  93   2.0000      -6.038106      -164.3052
  94   2.0000      -6.033983      -164.1930
  95   2.0000      -6.029797      -164.0791
  96   2.0000      -6.018948      -163.7839
  97   2.0000      -6.014992      -163.6763
  98   2.0000      -6.014878      -163.6731
  99   2.0000      -6.011055      -163.5691
 100   2.0000      -6.010290      -163.5483
 101   2.0000      -6.006356      -163.4412
 102   2.0000      -2.742681       -74.6321
 103   2.0000      -2.738596       -74.5210
 104   2.0000      -2.738497       -74.5183
 105   2.0000      -2.726889       -74.2024
 106   2.0000      -2.726881       -74.2022
 107   2.0000      -1.320354       -35.9287
 108   2.0000      -1.150120       -31.2963
 109   2.0000      -1.138873       -30.9903
 110   2.0000      -1.134893       -30.8820
 111   2.0000      -1.125506       -30.6266
 112   2.0000      -1.111803       -30.2537
 113   2.0000      -1.054320       -28.6895
 114   2.0000      -1.019596       -27.7446
 115   2.0000      -1.018475       -27.7141
 116   2.0000      -1.010030       -27.4843
 117   2.0000      -1.007787       -27.4233
 118   2.0000      -1.006603       -27.3911
 119   2.0000      -1.002420       -27.2772
 120   2.0000      -1.000561       -27.2267
 121   2.0000      -0.995564       -27.0907
 122   2.0000      -0.987239       -26.8641
 123   2.0000      -0.984569       -26.7915
 124   2.0000      -0.980071       -26.6691
 125   2.0000      -0.977353       -26.5951
 126   2.0000      -0.968827       -26.3631
 127   2.0000      -0.939082       -25.5537
 128   2.0000      -0.926403       -25.2087
 129   2.0000      -0.917744       -24.9731
 130   2.0000      -0.912651       -24.8345
 131   2.0000      -0.908637       -24.7253
 132   2.0000      -0.904122       -24.6024
 133   2.0000      -0.894662       -24.3450
 134   2.0000      -0.885385       -24.0925
 135   2.0000      -0.882067       -24.0023
 136   2.0000      -0.874292       -23.7907
 137   2.0000      -0.873105       -23.7584
 138   2.0000      -0.869266       -23.6539
 139   2.0000      -0.857530       -23.3346
 140   2.0000      -0.848268       -23.0826
 141   2.0000      -0.847814       -23.0702
 142   2.0000      -0.836753       -22.7692
 143   2.0000      -0.832804       -22.6618
 144   2.0000      -0.826048       -22.4779
 145   2.0000      -0.825302       -22.4576
 146   2.0000      -0.811663       -22.0865
 147   2.0000      -0.807237       -21.9660
 148   2.0000      -0.801263       -21.8035
 149   2.0000      -0.794017       -21.6063
 150   2.0000      -0.773531       -21.0488
 151   2.0000      -0.763856       -20.7856
 152   2.0000      -0.755473       -20.5575
 153   2.0000      -0.753373       -20.5003
 154   2.0000      -0.747896       -20.3513
 155   2.0000      -0.745235       -20.2789
 156   2.0000      -0.730026       -19.8650
 157   2.0000      -0.720286       -19.6000
 158   2.0000      -0.709081       -19.2951
 159   2.0000      -0.701167       -19.0797
 160   2.0000      -0.693861       -18.8809
 161   2.0000      -0.690110       -18.7788
 162   2.0000      -0.685146       -18.6438
 163   2.0000      -0.683572       -18.6009
 164   2.0000      -0.677114       -18.4252
 165   2.0000      -0.670188       -18.2368
 166   2.0000      -0.663711       -18.0605
 167   2.0000      -0.657992       -17.9049
 168   2.0000      -0.654072       -17.7982
 169   2.0000      -0.652162       -17.7462
 170   2.0000      -0.648975       -17.6595
 171   2.0000      -0.645110       -17.5543
 172   2.0000      -0.640857       -17.4386
 173   2.0000      -0.635676       -17.2976
 174   2.0000      -0.633999       -17.2520
 175   2.0000      -0.631826       -17.1929
 176   2.0000      -0.625171       -17.0118
 177   2.0000      -0.621430       -16.9100
 178   2.0000      -0.620736       -16.8911
 179   2.0000      -0.618593       -16.8328
 180   2.0000      -0.611983       -16.6529
 181   2.0000      -0.606919       -16.5151
 182   2.0000      -0.599849       -16.3227
 183   2.0000      -0.597058       -16.2468
 184   2.0000      -0.594702       -16.1827
 185   2.0000      -0.592358       -16.1189
 186   2.0000      -0.588076       -16.0024
 187   2.0000      -0.584294       -15.8995
 188   2.0000      -0.580459       -15.7951
 189   2.0000      -0.573570       -15.6076
 190   2.0000      -0.568177       -15.4609
 191   2.0000      -0.565837       -15.3972
 192   2.0000      -0.559886       -15.2353
 193   2.0000      -0.552533       -15.0352
 194   2.0000      -0.549114       -14.9421
 195   2.0000      -0.546662       -14.8754
 196   2.0000      -0.543272       -14.7832
 197   2.0000      -0.541051       -14.7227
 198   2.0000      -0.536746       -14.6056
 199   2.0000      -0.533716       -14.5232
 200   2.0000      -0.531812       -14.4713
 201   2.0000      -0.530168       -14.4266
 202   2.0000      -0.519854       -14.1460
 203   2.0000      -0.515993       -14.0409
 204   2.0000      -0.513839       -13.9823
 205   2.0000      -0.512692       -13.9511
 206   2.0000      -0.506874       -13.7928
 207   2.0000      -0.506072       -13.7709
 208   2.0000      -0.504911       -13.7393
 209   2.0000      -0.503554       -13.7024
 210   2.0000      -0.500722       -13.6253
 211   2.0000      -0.500417       -13.6170
 212   2.0000      -0.498491       -13.5646
 213   2.0000      -0.493810       -13.4373
 214   2.0000      -0.491158       -13.3651
 215   2.0000      -0.490156       -13.3378
 216   2.0000      -0.488974       -13.3057
 217   2.0000      -0.486613       -13.2414
 218   2.0000      -0.485111       -13.2005
 219   2.0000      -0.482655       -13.1337
 220   2.0000      -0.481433       -13.1005
 221   2.0000      -0.475661       -12.9434
 222   2.0000      -0.472052       -12.8452
 223   2.0000      -0.471590       -12.8326
 224   2.0000      -0.467080       -12.7099
 225   2.0000      -0.463545       -12.6137
 226   2.0000      -0.463148       -12.6029
 227   2.0000      -0.460416       -12.5286
 228   2.0000      -0.460139       -12.5210
 229   2.0000      -0.459113       -12.4931
 230   2.0000      -0.457495       -12.4491
 231   2.0000      -0.456061       -12.4101
 232   2.0000      -0.455029       -12.3820
 233   2.0000      -0.448215       -12.1966
 234   2.0000      -0.447779       -12.1847
 235   2.0000      -0.447041       -12.1646
 236   2.0000      -0.445277       -12.1166
 237   2.0000      -0.442491       -12.0408
 238   2.0000      -0.438238       -11.9251
 239   2.0000      -0.437058       -11.8929
 240   2.0000      -0.435941       -11.8626
 241   2.0000      -0.434447       -11.8219
 242   2.0000      -0.428213       -11.6523
 243   2.0000      -0.427083       -11.6215
 244   2.0000      -0.423779       -11.5316
 245   2.0000      -0.423318       -11.5191
 246   2.0000      -0.421539       -11.4706
 247   2.0000      -0.419630       -11.4187
 248   2.0000      -0.418891       -11.3986
 249   2.0000      -0.414119       -11.2687
 250   2.0000      -0.413428       -11.2499
 251   2.0000      -0.409252       -11.1363
 252   2.0000      -0.406413       -11.0591
 253   2.0000      -0.402499       -10.9525
 254   2.0000      -0.401815       -10.9340
 255   2.0000      -0.399905       -10.8820
 256   2.0000      -0.391387       -10.6502
 257   2.0000      -0.384730       -10.4690
 258   2.0000      -0.381903       -10.3921
 259   2.0000      -0.377993       -10.2857
 260   2.0000      -0.377237       -10.2651
 261   2.0000      -0.375530       -10.2187
 262   2.0000      -0.372836       -10.1454
 263   2.0000      -0.372121       -10.1259
 264   2.0000      -0.367792       -10.0081
 265   2.0000      -0.367314        -9.9951
 266   2.0000      -0.358221        -9.7477
 267   2.0000      -0.354839        -9.6557
 268   2.0000      -0.344366        -9.3707
 269   2.0000      -0.343113        -9.3366
 270   2.0000      -0.333721        -9.0810
 271   2.0000      -0.328600        -8.9417
 272   2.0000      -0.326843        -8.8939
 273   2.0000      -0.315615        -8.5883
 274   2.0000      -0.311544        -8.4775
 275   2.0000      -0.293027        -7.9737
 276   2.0000      -0.289248        -7.8708
 277   2.0000      -0.277028        -7.5383
 278   2.0000      -0.266537        -7.2528
 279   2.0000      -0.250271        -6.8102
 280   2.0000      -0.205247        -5.5851
 281   0.0000      -0.129275        -3.5178
 282   0.0000      -0.106564        -2.8998
 283   0.0000      -0.083219        -2.2645
 284   0.0000      -0.081252        -2.2110
 285   0.0000      -0.058850        -1.6014

MULLIKEN ATOMIC CHARGES
-----------------------
   0 C :    0.290265
   1 C :   -0.336857
   2 C :   -0.184679
   3 N :    0.147257
   4 C :   -0.205750
   5 N :    0.165387
   6 C :    0.018781
   7 C :   -0.014208
   8 C :   -0.073480
   9 C :    0.116615
  10 C :   -0.089379
  11 C :   -0.022886
  12 S :    0.184846
  13 C :   -0.123868
  14 C :    0.037820
  15 Br:    0.020683
  16 C :    0.152794
  17 O :   -0.165556
  18 C :   -0.075169
  19 C :   -0.077033
  20 C :    0.027694
  21 C :   -0.030878
  22 C :   -0.019930
  23 N :   -0.026662
  24 C :   -0.126120
  25 C :   -0.115224
  26 N :    0.062197
  27 C :   -0.208458
  28 N :    0.240747
  29 C :   -0.221240
  30 N :    0.235159
  31 C :    0.023777
  32 C :    0.005852
  33 C :    0.059164
  34 N :   -0.273826
  35 S :    0.563675
  36 N :   -0.333107
  37 N :    0.102127
  38 C :   -0.119771
  39 S :    0.188758
  40 C :    0.015613
  41 N :    0.267468
  42 O :   -0.250367
  43 O :   -0.259348
  44 C :    0.007851
  45 C :    0.151638
  46 C :   -0.072454
  47 C :    0.011036
  48 C :   -0.016155
  49 C :   -0.011443
  50 C :    0.023885
  51 C :    0.034174
  52 C :   -0.051233
  53 S :    0.053680
  54 C :   -0.014329
  55 C :    0.020100
  56 C :    0.040276
  57 C :   -0.034369
  58 S :    0.048279
  59 C :    0.005885
  60 C :    0.048867
  61 C :   -0.033272
  62 C :    0.064471
  63 C :    0.007714
  64 C :    0.040710
  65 C :   -0.009083
  66 C :    0.059340
  67 C :   -0.021245
  68 C :    0.057989
  69 C :    0.007621
  70 C :    0.033986
  71 C :   -0.023227
  72 C :    0.011749
  73 C :   -0.026574
  74 H :   -0.014436
  75 H :   -0.005744
  76 H :   -0.004235
  77 H :    0.043638
  78 H :    0.155330
  79 H :    0.008503
  80 H :   -0.020961
  81 H :    0.002715
  82 H :   -0.011719
  83 H :   -0.009190
  84 H :   -0.010575
  85 H :   -0.012939
  86 H :   -0.008571
  87 H :   -0.018002
  88 H :   -0.024618
  89 H :   -0.021160
  90 H :   -0.019525
  91 H :   -0.017667
  92 H :   -0.014865
  93 H :   -0.001952
  94 H :   -0.014559
  95 H :    0.008910
  96 H :    0.022872
Sum of atomic charges:   -0.0000000

LOEWDIN ATOMIC CHARGES
----------------------
   0 C :    0.074511
   1 C :   -0.138027
   2 C :   -0.017907
   3 N :   -0.055452
   4 C :   -0.023992
   5 N :   -0.050197
   6 C :   -0.019489
   7 C :   -0.047920
   8 C :    0.018872
   9 C :   -0.033688
  10 C :   -0.144188
  11 C :   -0.010316
  12 S :    0.431452
  13 C :   -0.272293
  14 C :   -0.071308
  15 Br:    0.134980
  16 C :    0.084294
  17 O :   -0.156492
  18 C :   -0.088397
  19 C :    0.083589
  20 C :   -0.083105
  21 C :    0.021468
  22 C :   -0.032500
  23 N :   -0.016684
  24 C :   -0.042546
  25 C :   -0.011880
  26 N :   -0.006554
  27 C :   -0.033329
  28 N :    0.004442
  29 C :   -0.041093
  30 N :   -0.012197
  31 C :    0.040525
  32 C :   -0.068748
  33 C :   -0.011131
  34 N :   -0.272465
  35 S :    0.686021
  36 N :   -0.290871
  37 N :    0.101718
  38 C :   -0.129619
  39 S :    0.497031
  40 C :   -0.202009
  41 N :    0.273541
  42 O :   -0.217942
  43 O :   -0.226207
  44 C :   -0.005518
  45 C :   -0.069805
  46 C :   -0.060218
  47 C :   -0.007467
  48 C :   -0.077549
  49 C :   -0.126795
  50 C :   -0.048227
  51 C :   -0.018588
  52 C :   -0.196948
  53 S :    0.372223
  54 C :   -0.159793
  55 C :   -0.048660
  56 C :   -0.016437
  57 C :   -0.166718
  58 S :    0.388482
  59 C :   -0.021960
  60 C :   -0.072297
  61 C :    0.025843
  62 C :   -0.065739
  63 C :    0.082951
  64 C :   -0.066631
  65 C :    0.057916
  66 C :   -0.060399
  67 C :    0.028902
  68 C :   -0.060941
  69 C :    0.079393
  70 C :   -0.062967
  71 C :    0.030026
  72 C :   -0.021580
  73 C :   -0.051409
  74 H :    0.039104
  75 H :    0.040937
  76 H :    0.038293
  77 H :    0.047249
  78 H :    0.094219
  79 H :    0.042452
  80 H :    0.024735
  81 H :    0.020039
  82 H :    0.033898
  83 H :    0.034697
  84 H :    0.033491
  85 H :    0.032311
  86 H :    0.034688
  87 H :    0.037299
  88 H :    0.024974
  89 H :    0.036311
  90 H :    0.026814
  91 H :    0.027985
  92 H :    0.038998
  93 H :    0.014304
  94 H :    0.030758
  95 H :    0.017869
  96 H :    0.025591

  Mayer bond orders larger than 0.100000
B(  0-C ,  1-C ) :   1.6450 B(  0-C ,  6-C ) :   1.0040 B(  0-C , 18-C ) :   1.0691
B(  1-C ,  2-C ) :   1.1391 B(  1-C ,  4-C ) :   1.1448 B(  2-C ,  3-N ) :   2.9726
B(  4-C ,  5-N ) :   2.9963 B(  6-C ,  7-C ) :   1.2764 B(  6-C , 11-C ) :   1.4132
B(  7-C ,  8-C ) :   1.4271 B(  7-C , 16-C ) :   0.9494 B(  8-C ,  9-C ) :   1.2464
B(  8-C , 74-H ) :   1.0167 B(  9-C , 10-C ) :   1.3093 B(  9-C , 14-C ) :   1.1604
B( 10-C , 11-C ) :   1.3283 B( 10-C , 12-S ) :   1.0833 B( 11-C , 75-H ) :   0.9809
B( 12-S , 13-C ) :   1.0871 B( 13-C , 14-C ) :   1.6183 B( 13-C , 15-Br) :   1.0172
B( 14-C , 76-H ) :   1.0006 B( 16-C , 17-O ) :   2.1999 B( 16-C , 18-C ) :   0.9553
B( 18-C , 19-C ) :   1.5819 B( 19-C , 20-C ) :   1.1991 B( 19-C , 77-H ) :   0.9350
B( 20-C , 21-C ) :   1.2404 B( 20-C , 33-C ) :   1.1486 B( 21-C , 22-C ) :   1.1536
B( 21-C , 26-N ) :   1.4697 B( 22-C , 23-N ) :   1.4253 B( 22-C , 31-C ) :   1.1959
B( 23-N , 24-C ) :   1.6498 B( 23-N , 78-H ) :   0.1065 B( 24-C , 25-C ) :   1.2376
B( 24-C , 29-C ) :   1.1601 B( 25-C , 26-N ) :   1.7236 B( 25-C , 27-C ) :   1.1587
B( 27-C , 28-N ) :   3.0423 B( 29-C , 30-N ) :   3.0433 B( 31-C , 32-C ) :   1.2409
B( 31-C , 37-N ) :   1.3850 B( 32-C , 33-C ) :   1.1264 B( 32-C , 36-N ) :   1.4411
B( 33-C , 34-N ) :   1.5408 B( 34-N , 35-S ) :   1.2702 B( 34-N , 36-N ) :   0.1370
B( 35-S , 36-N ) :   1.2734 B( 37-N , 38-C ) :   1.2207 B( 37-N , 78-H ) :   0.8155
B( 38-C , 39-S ) :   1.1159 B( 38-C , 45-C ) :   1.3042 B( 39-S , 40-C ) :   1.0674
B( 40-C , 41-N ) :   0.9679 B( 40-C , 44-C ) :   1.4946 B( 41-N , 42-O ) :   1.5319
B( 41-N , 43-O ) :   1.5176 B( 42-O , 43-O ) :   0.2623 B( 44-C , 45-C ) :   1.2271
B( 44-C , 79-H ) :   0.9961 B( 45-C , 46-C ) :   1.1027 B( 46-C , 47-C ) :   1.6089
B( 46-C , 80-H ) :   0.9752 B( 47-C , 48-C ) :   1.1951 B( 47-C , 81-H ) :   0.9690
B( 48-C , 49-C ) :   1.4924 B( 48-C , 82-H ) :   0.9895 B( 49-C , 50-C ) :   1.1749
B( 49-C , 53-S ) :   1.0575 B( 50-C , 51-C ) :   1.5442 B( 50-C , 83-H ) :   1.0006
B( 51-C , 52-C ) :   1.2282 B( 51-C , 84-H ) :   0.9946 B( 52-C , 53-S ) :   1.0385
B( 52-C , 54-C ) :   1.4541 B( 54-C , 55-C ) :   1.2102 B( 54-C , 58-S ) :   1.0669
B( 55-C , 56-C ) :   1.5635 B( 55-C , 85-H ) :   0.9947 B( 56-C , 57-C ) :   1.1606
B( 56-C , 86-H ) :   0.9996 B( 57-C , 58-S ) :   1.0181 B( 57-C , 59-C ) :   1.5467
B( 59-C , 60-C ) :   1.1558 B( 59-C , 87-H ) :   0.9709 B( 60-C , 61-C ) :   1.3885
B( 60-C , 71-C ) :   1.1447 B( 61-C , 62-C ) :   1.1509 B( 61-C , 88-H ) :   1.0197
B( 62-C , 63-C ) :   1.3791 B( 62-C , 70-C ) :   1.1357 B( 63-C , 64-C ) :   1.1780
B( 63-C , 89-H ) :   1.0047 B( 64-C , 65-C ) :   1.3854 B( 64-C , 68-C ) :   1.1259
B( 65-C , 66-C ) :   1.1813 B( 65-C , 90-H ) :   1.0080 B( 66-C , 67-C ) :   1.4671
B( 66-C , 72-C ) :   1.0820 B( 67-C , 68-C ) :   1.1041 B( 67-C , 91-H ) :   1.0186
B( 68-C , 69-C ) :   1.4444 B( 69-C , 70-C ) :   1.1363 B( 69-C , 92-H ) :   1.0054
B( 70-C , 71-C ) :   1.4473 B( 71-C , 93-H ) :   0.9888 B( 72-C , 73-C ) :   1.9345
B( 72-C , 94-H ) :   0.9677 B( 73-C , 95-H ) :   0.9541 B( 73-C , 96-H ) :   0.9498

-----------------------------------------------------------------------------
         ABSORPTION SPECTRUM VIA TRANSITION ELECTRIC DIPOLE MOMENTS
-----------------------------------------------------------------------------
State   Energy  Wavelength   fosc         T2         TX        TY        TZ
        (cm-1)    (nm)                  (au**2)     (au)      (au)      (au)
-----------------------------------------------------------------------------
   0    4879.6   2049.3   0.480915938  32.44581  -2.61201  -4.50057   2.31692
   1    5737.4   1742.9   0.019019970   1.09136   0.40875   0.96131   0.01333
   2   12786.7    782.1   0.198605376   5.11340   0.44504   1.96157  -1.03324
   3   13791.3    725.1   0.781010042  18.64347  -2.24895  -2.14797   2.99532
   4   14216.6    703.4   0.053477763   1.23838  -0.80344  -0.62582   0.44857
   5   16914.1    591.2   0.177085674   3.44674  -0.13930  -1.83728  -0.22750
   6   17871.5    559.5   0.054581591   1.00545  -0.13836  -0.34011  -0.93308
   7   19184.8    521.2   0.046247917   0.79362  -0.17726  -0.11007   0.86607
   8   21434.2    466.5   0.066343406   1.01898  -0.06974  -0.89576  -0.46015
   9   21814.1    458.4   0.022886269   0.34539  -0.16480   0.03711   0.56290
  10   22120.2    452.1   0.072546266   1.07969  -0.18061   0.47589  -0.90587
  11   22405.6    446.3   0.006910768   0.10154   0.23991   0.19568  -0.07546
  12   22683.5    440.8   0.319388438   4.63537  -0.40039  -1.84677  -1.03175
  13   22939.2    435.9   0.123361860   1.77043   0.08935  -1.24260   0.46731
  14   23462.7    426.2   0.071998748   1.01023  -0.08183   0.02460   1.00147
  15   23684.3    422.2   0.009323734   0.12960  -0.11048  -0.07726  -0.33380
  16   24154.8    414.0   0.226480751   3.08676  -0.72500  -1.35556  -0.85063
  17   24546.2    407.4   0.065409689   0.87727   0.15528  -0.50560  -0.77300
  18   25046.1    399.3   0.086017382   1.13064   0.00246  -0.41853  -0.97748
  19   25959.8    385.2   0.704485220   8.93402   1.12975   1.17447   2.50566
  20   26470.9    377.8   0.111450340   1.38608  -0.16637  -0.65029  -0.96722
  21   26801.2    373.1   0.249753541   3.06784   0.03070   0.67262   1.61694
  22   27548.2    363.0   0.448828727   5.36368  -0.22358  -0.34890  -2.27859
  23   27866.1    358.9   0.029366072   0.34693   0.24119  -0.09289  -0.52928
  24   28054.3    356.5   0.019354377   0.22712  -0.20622   0.42077   0.08685
  25   28478.8    351.1   0.085490194   0.98826   0.27826   0.60522   0.73793
  26   28691.9    348.5   0.138126358   1.58487   0.29486   0.19337  -1.20853
  27   29002.4    344.8   0.009081713   0.10309   0.17453   0.14987   0.22398
  28   29677.4    337.0   0.075959463   0.84262   0.74574  -0.43750   0.30836
  29   29819.2    335.4   0.125187297   1.38210   0.68714  -0.81773  -0.49119
  30   30001.3    333.3   0.004871436   0.05346  -0.11720  -0.17100   0.10237
  31   30080.2    332.4   0.012829736   0.14041  -0.05963   0.24258  -0.27931
  32   30362.3    329.4   0.267184148   2.89702  -1.00207   1.08778   0.84238
  33   30539.1    327.4   0.176863635   1.90659   0.59948  -0.39825  -1.17839
  34   31154.5    321.0   0.141444181   1.49465   0.31894   0.76478   0.89891
  35   31347.1    319.0   0.018559218   0.19491  -0.40003   0.18225  -0.04088
  36   31725.2    315.2   0.026079072   0.27062  -0.17374  -0.20084   0.44732
  37   32060.6    311.9   0.104192725   1.06990   0.25248   0.33916   0.94399
  38   32281.2    309.8   0.002755788   0.02810   0.05300   0.03916   0.15415
  39   32307.7    309.5   0.069121209   0.70434  -0.04265  -0.79839  -0.25512
  40   32524.0    307.5   0.144649055   1.46416  -0.03382  -0.25513  -1.18234
  41   32599.0    306.8   0.058672328   0.59252   0.00756   0.16942   0.75084
  42   32957.9    303.4   0.027736519   0.27706  -0.41486  -0.12449  -0.29908
  43   33224.1    301.0   0.116650085   1.15587   0.04441  -0.41935  -0.98896
  44   33430.4    299.1   0.530052459   5.21979   0.70025   0.56267   2.10068
  45   33713.8    296.6   0.028697561   0.28023  -0.24650  -0.31271  -0.34882
  46   34250.9    292.0   0.028325539   0.27226   0.03873   0.19416   0.48276
  47   34618.5    288.9   0.324271411   3.08373  -1.24265   0.27540   1.20984
  48   34738.3    287.9   0.153006003   1.45002  -0.67871   0.36625   0.92479
  49   34846.8    287.0   0.031845947   0.30086   0.12825   0.32151   0.42549
  50   35443.4    282.1   0.037695437   0.35013  -0.11752  -0.33259  -0.47508
  51   35471.0    281.9   0.164626673   1.52792  -0.20248  -0.55496  -1.08579
  52   35580.0    281.1   0.060660773   0.56128  -0.69559  -0.15950   0.22803
  53   35808.1    279.3   0.025275098   0.23237  -0.39452  -0.27688   0.00816
  54   36047.4    277.4   0.020477737   0.18702  -0.13358  -0.41047  -0.02630
  55   36538.0    273.7   0.139089622   1.25322  -0.19969  -0.26800  -1.06842
  56   36797.9    271.8   0.108898399   0.97426   0.05239  -0.33440  -0.92719
  57   36870.3    271.2   0.006379310   0.05696   0.00276   0.05413  -0.23243
  58   36924.4    270.8   0.002600316   0.02318   0.01503   0.04124  -0.14580
  59   37332.5    267.9   0.020054383   0.17685   0.15183   0.26987  -0.28455
  60   37917.5    263.7   0.021459589   0.18632  -0.07392   0.01542   0.42499
  61   37917.5    263.7   0.015337476   0.13316   0.06331   0.20153   0.29756
  62   38059.9    262.7   0.014638402   0.12662  -0.04640   0.34077  -0.09132
  63   38187.2    261.9   0.005224397   0.04504  -0.09272  -0.18426   0.04990
  64   38212.2    261.7   0.024923574   0.21473  -0.00430  -0.41743  -0.20114
  65   38532.0    259.5   0.025127951   0.21469  -0.07666  -0.21698   0.40216
  66   38616.9    259.0   0.001241390   0.01058   0.01846   0.02203  -0.09878
  67   38804.7    257.7   0.001976137   0.01677  -0.03828  -0.05591   0.11034
  68   38988.5    256.5   0.028283730   0.23882  -0.06683  -0.20728  -0.43748
  69   39089.9    255.8   0.001542904   0.01299  -0.01048   0.08883  -0.07067
  70   39138.1    255.5   0.014542325   0.12232  -0.20547   0.27769  -0.05475
  71   39381.1    253.9   0.003565228   0.02980  -0.00125  -0.07729  -0.15437
  72   39735.6    251.7   0.026795307   0.22200   0.45802   0.02270  -0.10818
  73   39876.8    250.8   0.252954497   2.08833  -0.31861  -1.30522  -0.53219
  74   39990.8    250.1   0.078501545   0.64624   0.34266   0.11302   0.71836
  75   40079.4    249.5   0.021946242   0.18027   0.04167   0.39653  -0.14592
  76   40303.2    248.1   0.000598805   0.00489   0.05546   0.03578   0.02314

FINAL SINGLE POINT ENERGY     -7443.241624107763

DIPOLE MOMENT
-------------
                                X             Y             Z
Electronic contribution:    -40.42936    -217.14049      44.84592
Nuclear contribution   :     44.41508     220.94522     -48.30788
                        -----------------------------------------
Total Dipole Moment    :      3.98572       3.80472      -3.46196
                        -----------------------------------------
Magnitude (a.u.)       :      6.50746
Magnitude (Debye)      :     16.54065

Rotational constants in cm-1:     0.000893     0.000224     0.000195
Rotational constants in MHz :    26.757113     6.724769     5.843403

                             ****ORCA TERMINATED NORMALLY****
TOTAL RUN TIME: 0 days 0 hours 16 minutes 19 seconds 276 msec
