                         Program Version 4.2.0 -  RELEASE  -
|  1> # ORCA input file
|  2> # SCF done       -158.610444551184          0.000244146544
|  3> ! CAM-B3LYP def2-SVP def2/J RIJCOSX Grid4 TightSCF
|  4> %maxcore 5000
|  5> %tddft
|  6>     Mode sTDDFT
|  7>     Ethresh 5.0
|  8>     maxcore 5000
|  9> end
| 10>
| 11> %pal
| 12>   nprocs 6
| 13>   end
| 14> * xyz 0 1
| 15>    C        9.53481       -20.94899        -7.29627
| 16>    C        8.28530       -20.93809        -6.81585
| 17>    C        7.46813       -22.06743        -6.46737
| 18>    C        6.24476       -21.74792        -5.99710
| 19>    C        5.99034       -20.34574        -5.93005
| 20>    S        7.37921       -19.44805        -6.50727
| 21>    C        4.85361       -19.72596        -5.48077
| 22>    C        3.67192       -20.31514        -4.95797
| 23>    C        2.73271       -19.42114        -4.56941
| 24>    C        3.10751       -18.05334        -4.74630
| 25>    S        4.71006       -17.97523        -5.46627
| 26>    C        2.30163       -16.99440        -4.46377
| 27>    N        2.60011       -15.65609        -4.55093
| 28>    C        3.79695       -15.04452        -4.38296
| 29>    S        5.09140       -15.79419        -3.51047
| 30>    C        6.05269       -14.36273        -3.72690
| 31>    N        7.34053       -14.37464        -3.19835
| 32>    O        8.02955       -13.37882        -3.34374
| 33>    O        7.68484       -15.39288        -2.61556
| 34>    C        5.40706       -13.37156        -4.41684
| 35>    C        4.10094       -13.72998        -4.79230
| 36>    C        3.18196       -12.87356        -5.48312
| 37>    C        3.51250       -11.70581        -6.07011
| 38>    C        2.57950       -10.82752        -6.68340
| 39>    S        0.82404       -11.02683        -6.61228
| 40>    C        0.75240        -9.52537        -7.52475
| 41>    N        1.93214        -9.03861        -7.77889
| 42>    N        2.92513        -9.74978        -7.32269
| 43>    C       -0.45135        -8.86832        -7.88412
| 44>    S       -1.88337        -9.04733        -6.94493
| 45>    C       -2.70673        -7.79100        -7.80106
| 46>    C       -1.88209        -7.23410        -8.78426
| 47>    C       -0.61509        -7.88950        -8.87015
| 48>    C        0.29853        -7.51778        -9.88658
| 49>    C        1.49210        -8.36091       -10.19393
| 50>    O        1.43010        -9.54428       -10.42006
| 51>    O        2.59819        -7.62827       -10.29409
| 52>    C        3.80095        -8.34574       -10.53823
| 53>    C       -0.00277        -6.44033       -10.67848
| 54>    C       -1.19409        -5.71149       -10.49886
| 55>    C       -2.13212        -6.10190        -9.58739
| 56>    C       -4.03083        -7.42514        -7.42623
| 57>    S       -4.47725        -7.43333        -5.73458
| 58>    C       -6.04026        -6.84556        -6.09337
| 59>    C       -6.23251        -6.65229        -7.43193
| 60>    C       -5.09068        -7.00326        -8.21164
| 61>    C       -5.16142        -7.06647        -9.67382
| 62>    O       -4.31976        -7.60959       -10.36807
| 63>    C       -6.36738        -6.43456       -10.25660
| 64>    C       -6.41788        -6.27290       -11.63921
| 65>    C       -7.50538        -5.67446       -12.24397
| 66>    C       -8.58301        -5.22475       -11.48558
| 67>    C       -9.78549        -4.61528       -12.14191
| 68>    C      -10.81113        -5.70101       -12.47707
| 69>    C       -8.54217        -5.39909       -10.10972
| 70>    C       -7.44980        -5.99024        -9.48394
| 71>    C       -7.47876        -6.13800        -8.01245
| 72>    O       -8.44738        -5.84379        -7.33792
| 73>    H       10.04998       -21.87781        -7.46727
| 74>    H       10.06192       -20.04009        -7.52158
| 75>    H        7.84187       -23.06930        -6.58382
| 76>    H        5.50548       -22.46511        -5.68736
| 77>    H        3.56057       -21.38147        -4.87989
| 78>    H        1.77947       -19.68201        -4.14523
| 79>    H        1.28053       -17.20048        -4.17206
| 80>    H        1.81615       -15.04089        -4.72984
| 81>    H        5.86997       -12.42452        -4.62211
| 82>    H        2.14502       -13.18568        -5.52636
| 83>    H        4.53523       -11.36393        -6.11015
| 84>    H        4.07133        -8.91453        -9.64625
| 85>    H        4.56128        -7.60180       -10.76146
| 86>    H        3.67018        -9.03310       -11.37678
| 87>    H        0.68391        -6.14803       -11.45792
| 88>    H       -1.37037        -4.84269       -11.11469
| 89>    H       -3.04702        -5.54611        -9.46113
| 90>    H       -6.75103        -6.66608        -5.31066
| 91>    H       -5.57943        -6.62498       -12.22213
| 92>    H       -7.52112        -5.55097       -13.31729
| 93>    H       -9.48852        -4.10373       -13.05948
| 94>    H      -10.24196        -3.88502       -11.47145
| 95>    H      -10.37944        -6.43513       -13.15375
| 96>    H      -11.68474        -5.26161       -12.95200
| 97>    H      -11.12804        -6.21366       -11.57189
| 98>    H       -9.36360        -5.07122        -9.48857
| 99> *
|100>
|101>                          ****END OF INPUT****

CARTESIAN COORDINATES (ANGSTROEM)
---------------------------------
  C      9.534810  -20.948990   -7.296270
  C      8.285300  -20.938090   -6.815850
  C      7.468130  -22.067430   -6.467370
  C      6.244760  -21.747920   -5.997100
  C      5.990340  -20.345740   -5.930050
  S      7.379210  -19.448050   -6.507270
  C      4.853610  -19.725960   -5.480770
  C      3.671920  -20.315140   -4.957970
  C      2.732710  -19.421140   -4.569410
  C      3.107510  -18.053340   -4.746300
  S      4.710060  -17.975230   -5.466270
  C      2.301630  -16.994400   -4.463770
  N      2.600110  -15.656090   -4.550930
  C      3.796950  -15.044520   -4.382960
  S      5.091400  -15.794190   -3.510470
  C      6.052690  -14.362730   -3.726900
  N      7.340530  -14.374640   -3.198350
  O      8.029550  -13.378820   -3.343740
  O      7.684840  -15.392880   -2.615560
  C      5.407060  -13.371560   -4.416840
  C      4.100940  -13.729980   -4.792300
  C      3.181960  -12.873560   -5.483120
  C      3.512500  -11.705810   -6.070110
  C      2.579500  -10.827520   -6.683400
  S      0.824040  -11.026830   -6.612280
  C      0.752400   -9.525370   -7.524750
  N      1.932140   -9.038610   -7.778890
  N      2.925130   -9.749780   -7.322690
  C     -0.451350   -8.868320   -7.884120
  S     -1.883370   -9.047330   -6.944930
  C     -2.706730   -7.791000   -7.801060
  C     -1.882090   -7.234100   -8.784260
  C     -0.615090   -7.889500   -8.870150
  C      0.298530   -7.517780   -9.886580
  C      1.492100   -8.360910  -10.193930
  O      1.430100   -9.544280  -10.420060
  O      2.598190   -7.628270  -10.294090
  C      3.800950   -8.345740  -10.538230
  C     -0.002770   -6.440330  -10.678480
  C     -1.194090   -5.711490  -10.498860
  C     -2.132120   -6.101900   -9.587390
  C     -4.030830   -7.425140   -7.426230
  S     -4.477250   -7.433330   -5.734580
  C     -6.040260   -6.845560   -6.093370
  C     -6.232510   -6.652290   -7.431930
  C     -5.090680   -7.003260   -8.211640
  C     -5.161420   -7.066470   -9.673820
  O     -4.319760   -7.609590  -10.368070
  C     -6.367380   -6.434560  -10.256600
  C     -6.417880   -6.272900  -11.639210
  C     -7.505380   -5.674460  -12.243970
  C     -8.583010   -5.224750  -11.485580
  C     -9.785490   -4.615280  -12.141910
  C    -10.811130   -5.701010  -12.477070
  C     -8.542170   -5.399090  -10.109720
  C     -7.449800   -5.990240   -9.483940
  C     -7.478760   -6.138000   -8.012450
  O     -8.447380   -5.843790   -7.337920
  H     10.049980  -21.877810   -7.467270
  H     10.061920  -20.040090   -7.521580
  H      7.841870  -23.069300   -6.583820
  H      5.505480  -22.465110   -5.687360
  H      3.560570  -21.381470   -4.879890
  H      1.779470  -19.682010   -4.145230
  H      1.280530  -17.200480   -4.172060
  H      1.816150  -15.040890   -4.729840
  H      5.869970  -12.424520   -4.622110
  H      2.145020  -13.185680   -5.526360
  H      4.535230  -11.363930   -6.110150
  H      4.071330   -8.914530   -9.646250
  H      4.561280   -7.601800  -10.761460
  H      3.670180   -9.033100  -11.376780
  H      0.683910   -6.148030  -11.457920
  H     -1.370370   -4.842690  -11.114690
  H     -3.047020   -5.546110   -9.461130
  H     -6.751030   -6.666080   -5.310660
  H     -5.579430   -6.624980  -12.222130
  H     -7.521120   -5.550970  -13.317290
  H     -9.488520   -4.103730  -13.059480
  H    -10.241960   -3.885020  -11.471450
  H    -10.379440   -6.435130  -13.153750
  H    -11.684740   -5.261610  -12.952000
  H    -11.128040   -6.213660  -11.571890
  H     -9.363600   -5.071220   -9.488570

 Total Charge           Charge          ....    0
 Multiplicity           Mult            ....    1
 Number of Electrons    NEL             ....  450
 Basis Dimension        Dim             ....  966

ORBITAL ENERGIES
----------------

  NO   OCC          E(Eh)            E(eV)
   0   2.0000     -88.979137     -2421.2454
   1   2.0000     -88.978684     -2421.2331
   2   2.0000     -88.975381     -2421.1432
   3   2.0000     -88.968757     -2420.9630
   4   2.0000     -88.946990     -2420.3706
   5   2.0000     -88.937006     -2420.0990
   6   2.0000     -19.238014      -523.4930
   7   2.0000     -19.222932      -523.0826
   8   2.0000     -19.222574      -523.0728
   9   2.0000     -19.208119      -522.6795
  10   2.0000     -19.205115      -522.5978
  11   2.0000     -19.178623      -521.8769
  12   2.0000     -14.634653      -398.2292
  13   2.0000     -14.482773      -394.0963
  14   2.0000     -14.432227      -392.7209
  15   2.0000     -14.430979      -392.6869
  16   2.0000     -10.381046      -282.4826
  17   2.0000     -10.363013      -281.9919
  18   2.0000     -10.362620      -281.9812
  19   2.0000     -10.361431      -281.9489
  20   2.0000     -10.343218      -281.4533
  21   2.0000     -10.337770      -281.3050
  22   2.0000     -10.330780      -281.1148
  23   2.0000     -10.329522      -281.0806
  24   2.0000     -10.328635      -281.0564
  25   2.0000     -10.317039      -280.7409
  26   2.0000     -10.314787      -280.6796
  27   2.0000     -10.314386      -280.6687
  28   2.0000     -10.312617      -280.6206
  29   2.0000     -10.310387      -280.5599
  30   2.0000     -10.307370      -280.4778
  31   2.0000     -10.305370      -280.4234
  32   2.0000     -10.302143      -280.3356
  33   2.0000     -10.298764      -280.2436
  34   2.0000     -10.298435      -280.2347
  35   2.0000     -10.292270      -280.0669
  36   2.0000     -10.291464      -280.0450
  37   2.0000     -10.289732      -279.9979
  38   2.0000     -10.289243      -279.9845
  39   2.0000     -10.289132      -279.9815
  40   2.0000     -10.288752      -279.9712
  41   2.0000     -10.288556      -279.9659
  42   2.0000     -10.287747      -279.9438
  43   2.0000     -10.286872      -279.9200
  44   2.0000     -10.286437      -279.9082
  45   2.0000     -10.286148      -279.9003
  46   2.0000     -10.285099      -279.8718
  47   2.0000     -10.284464      -279.8545
  48   2.0000     -10.279903      -279.7304
  49   2.0000     -10.279417      -279.7172
  50   2.0000     -10.279256      -279.7128
  51   2.0000     -10.276723      -279.6438
  52   2.0000     -10.275515      -279.6110
  53   2.0000     -10.274899      -279.5942
  54   2.0000     -10.272450      -279.5276
  55   2.0000     -10.272071      -279.5173
  56   2.0000     -10.269532      -279.4482
  57   2.0000     -10.260767      -279.2097
  58   2.0000      -8.074673      -219.7230
  59   2.0000      -8.074408      -219.7158
  60   2.0000      -8.070404      -219.6069
  61   2.0000      -8.065049      -219.4612
  62   2.0000      -8.042923      -218.8590
  63   2.0000      -8.033771      -218.6100
  64   2.0000      -6.043755      -164.4589
  65   2.0000      -6.043339      -164.4476
  66   2.0000      -6.039999      -164.3567
  67   2.0000      -6.039451      -164.3418
  68   2.0000      -6.039280      -164.3372
  69   2.0000      -6.037238      -164.2816
  70   2.0000      -6.037213      -164.2809
  71   2.0000      -6.035487      -164.2340
  72   2.0000      -6.033858      -164.1896
  73   2.0000      -6.032016      -164.1395
  74   2.0000      -6.030559      -164.0998
  75   2.0000      -6.027092      -164.0055
  76   2.0000      -6.012759      -163.6155
  77   2.0000      -6.008630      -163.5031
  78   2.0000      -6.003640      -163.3673
  79   2.0000      -6.003625      -163.3669
  80   2.0000      -5.999694      -163.2600
  81   2.0000      -5.994222      -163.1111
  82   2.0000      -1.302631       -35.4464
  83   2.0000      -1.170394       -31.8480
  84   2.0000      -1.136713       -30.9315
  85   2.0000      -1.124354       -30.5952
  86   2.0000      -1.121393       -30.5147
  87   2.0000      -1.121136       -30.5077
  88   2.0000      -1.085226       -29.5305
  89   2.0000      -1.074466       -29.2377
  90   2.0000      -1.013884       -27.5892
  91   2.0000      -0.995935       -27.1008
  92   2.0000      -0.994840       -27.0710
  93   2.0000      -0.990798       -26.9610
  94   2.0000      -0.968371       -26.3507
  95   2.0000      -0.966562       -26.3015
  96   2.0000      -0.942182       -25.6381
  97   2.0000      -0.935892       -25.4669
  98   2.0000      -0.919960       -25.0334
  99   2.0000      -0.904145       -24.6030
 100   2.0000      -0.901671       -24.5357
 101   2.0000      -0.884450       -24.0671
 102   2.0000      -0.875185       -23.8150
 103   2.0000      -0.871703       -23.7202
 104   2.0000      -0.870200       -23.6793
 105   2.0000      -0.850962       -23.1559
 106   2.0000      -0.849508       -23.1163
 107   2.0000      -0.847185       -23.0531
 108   2.0000      -0.845838       -23.0164
 109   2.0000      -0.836396       -22.7595
 110   2.0000      -0.831014       -22.6130
 111   2.0000      -0.820672       -22.3316
 112   2.0000      -0.820360       -22.3231
 113   2.0000      -0.807241       -21.9661
 114   2.0000      -0.796712       -21.6796
 115   2.0000      -0.785961       -21.3871
 116   2.0000      -0.766988       -20.8708
 117   2.0000      -0.756797       -20.5935
 118   2.0000      -0.742777       -20.2120
 119   2.0000      -0.739028       -20.1100
 120   2.0000      -0.723922       -19.6989
 121   2.0000      -0.715280       -19.4638
 122   2.0000      -0.710339       -19.3293
 123   2.0000      -0.705529       -19.1984
 124   2.0000      -0.695156       -18.9162
 125   2.0000      -0.687665       -18.7123
 126   2.0000      -0.683417       -18.5967
 127   2.0000      -0.675131       -18.3713
 128   2.0000      -0.667907       -18.1747
 129   2.0000      -0.660542       -17.9743
 130   2.0000      -0.656012       -17.8510
 131   2.0000      -0.653998       -17.7962
 132   2.0000      -0.638150       -17.3650
 133   2.0000      -0.626623       -17.0513
 134   2.0000      -0.620854       -16.8943
 135   2.0000      -0.619829       -16.8664
 136   2.0000      -0.615985       -16.7618
 137   2.0000      -0.614092       -16.7103
 138   2.0000      -0.612145       -16.6573
 139   2.0000      -0.611694       -16.6450
 140   2.0000      -0.602394       -16.3920
 141   2.0000      -0.598936       -16.2979
 142   2.0000      -0.592111       -16.1122
 143   2.0000      -0.588567       -16.0157
 144   2.0000      -0.575699       -15.6656
 145   2.0000      -0.571913       -15.5626
 146   2.0000      -0.565933       -15.3998
 147   2.0000      -0.563691       -15.3388
 148   2.0000      -0.558265       -15.1912
 149   2.0000      -0.553364       -15.0578
 150   2.0000      -0.549413       -14.9503
 151   2.0000      -0.547131       -14.8882
 152   2.0000      -0.544364       -14.8129
 153   2.0000      -0.543379       -14.7861
 154   2.0000      -0.535580       -14.5739
 155   2.0000      -0.533276       -14.5112
 156   2.0000      -0.531738       -14.4693
 157   2.0000      -0.527789       -14.3619
 158   2.0000      -0.525259       -14.2930
 159   2.0000      -0.522522       -14.2185
 160   2.0000      -0.519412       -14.1339
 161   2.0000      -0.516230       -14.0473
 162   2.0000      -0.514789       -14.0081
 163   2.0000      -0.513304       -13.9677
 164   2.0000      -0.510759       -13.8985
 165   2.0000      -0.506078       -13.7711
 166   2.0000      -0.503358       -13.6971
 167   2.0000      -0.500333       -13.6147
 168   2.0000      -0.498497       -13.5648
 169   2.0000      -0.497662       -13.5421
 170   2.0000      -0.491965       -13.3870
 171   2.0000      -0.490544       -13.3484
 172   2.0000      -0.489068       -13.3082
 173   2.0000      -0.485218       -13.2034
 174   2.0000      -0.484259       -13.1773
 175   2.0000      -0.481749       -13.1091
 176   2.0000      -0.476212       -12.9584
 177   2.0000      -0.473137       -12.8747
 178   2.0000      -0.468610       -12.7515
 179   2.0000      -0.466534       -12.6950
 180   2.0000      -0.463146       -12.6028
 181   2.0000      -0.460255       -12.5242
 182   2.0000      -0.456752       -12.4289
 183   2.0000      -0.455900       -12.4057
 184   2.0000      -0.451399       -12.2832
 185   2.0000      -0.444174       -12.0866
 186   2.0000      -0.439846       -11.9688
 187   2.0000      -0.436863       -11.8877
 188   2.0000      -0.435074       -11.8390
 189   2.0000      -0.434529       -11.8241
 190   2.0000      -0.432646       -11.7729
 191   2.0000      -0.428287       -11.6543
 192   2.0000      -0.425110       -11.5678
 193   2.0000      -0.423364       -11.5203
 194   2.0000      -0.419495       -11.4150
 195   2.0000      -0.416965       -11.3462
 196   2.0000      -0.413677       -11.2567
 197   2.0000      -0.412325       -11.2199
 198   2.0000      -0.406902       -11.0724
 199   2.0000      -0.399179       -10.8622
 200   2.0000      -0.385021       -10.4769
 201   2.0000      -0.383576       -10.4376
 202   2.0000      -0.382193       -10.4000
 203   2.0000      -0.371753       -10.1159
 204   2.0000      -0.367217        -9.9925
 205   2.0000      -0.362497        -9.8640
 206   2.0000      -0.353406        -9.6167
 207   2.0000      -0.351681        -9.5697
 208   2.0000      -0.348850        -9.4927
 209   2.0000      -0.341519        -9.2932
 210   2.0000      -0.339883        -9.2487
 211   2.0000      -0.337310        -9.1787
 212   2.0000      -0.335016        -9.1162
 213   2.0000      -0.334164        -9.0931
 214   2.0000      -0.329675        -8.9709
 215   2.0000      -0.328354        -8.9350
 216   2.0000      -0.321166        -8.7394
 217   2.0000      -0.320323        -8.7164
 218   2.0000      -0.318187        -8.6583
 219   2.0000      -0.313615        -8.5339
 220   2.0000      -0.312020        -8.4905
 221   2.0000      -0.302018        -8.2183
 222   2.0000      -0.274966        -7.4822
 223   2.0000      -0.248340        -6.7577
 224   2.0000      -0.220258        -5.9935
 225   0.0000      -0.079133        -2.1533
 226   0.0000      -0.063306        -1.7227
 227   0.0000      -0.053572        -1.4578
 228   0.0000      -0.038863        -1.0575
 229   0.0000      -0.028397        -0.7727

MULLIKEN ATOMIC CHARGES
-----------------------
   0 C :   -0.027465
   1 C :   -0.061989
   2 C :    0.051684
   3 C :    0.031659
   4 C :   -0.062093
   5 S :    0.086729
   6 C :   -0.064219
   7 C :    0.031633
   8 C :    0.034972
   9 C :   -0.055091
  10 S :    0.092962
  11 C :   -0.002263
  12 N :   -0.026633
  13 C :   -0.125441
  14 S :    0.202303
  15 C :   -0.024339
  16 N :    0.278632
  17 O :   -0.259743
  18 O :   -0.272757
  19 C :    0.007902
  20 C :    0.127172
  21 C :   -0.037536
  22 C :    0.039866
  23 C :   -0.056484
  24 S :    0.065914
  25 C :   -0.065888
  26 N :   -0.071287
  27 N :   -0.048799
  28 C :   -0.101573
  29 S :    0.188831
  30 C :   -0.141143
  31 C :    0.135690
  32 C :    0.111317
  33 C :    0.018636
  34 C :    0.161775
  35 O :   -0.224895
  36 O :   -0.289779
  37 C :    0.184972
  38 C :    0.004213
  39 C :    0.022064
  40 C :    0.011221
  41 C :   -0.187596
  42 S :    0.170150
  43 C :   -0.105737
  44 C :   -0.016312
  45 C :    0.093045
  46 C :    0.087304
  47 O :   -0.151105
  48 C :   -0.013002
  49 C :   -0.017790
  50 C :    0.012022
  51 C :    0.004648
  52 C :    0.067019
  53 C :    0.021490
  54 C :   -0.069642
  55 C :   -0.007382
  56 C :    0.142643
  57 O :   -0.153053
  58 H :    0.020925
  59 H :    0.025726
  60 H :   -0.009918
  61 H :   -0.011455
  62 H :   -0.013543
  63 H :   -0.014106
  64 H :    0.007196
  65 H :    0.146489
  66 H :    0.008162
  67 H :   -0.030591
  68 H :    0.008235
  69 H :    0.038227
  70 H :    0.024863
  71 H :    0.027472
  72 H :   -0.011850
  73 H :   -0.011901
  74 H :   -0.021949
  75 H :    0.040027
  76 H :   -0.001907
  77 H :   -0.018530
  78 H :    0.004878
  79 H :    0.012081
  80 H :    0.011281
  81 H :    0.021025
  82 H :    0.015133
  83 H :   -0.013401
Sum of atomic charges:    0.0000000

LOEWDIN ATOMIC CHARGES
----------------------
   0 C :   -0.070687
   1 C :   -0.139581
   2 C :   -0.026742
   3 C :   -0.027278
   4 C :   -0.173127
   5 S :    0.355402
   6 C :   -0.185685
   7 C :   -0.035522
   8 C :   -0.033804
   9 C :   -0.186680
  10 S :    0.370504
  11 C :   -0.037746
  12 N :    0.036027
  13 C :   -0.115259
  14 S :    0.484974
  15 C :   -0.217532
  16 N :    0.274103
  17 O :   -0.225578
  18 O :   -0.239189
  19 C :    0.001774
  20 C :   -0.112655
  21 C :   -0.012228
  22 C :   -0.047780
  23 C :   -0.137714
  24 S :    0.362719
  25 C :   -0.150022
  26 N :   -0.066747
  27 N :   -0.075888
  28 C :   -0.205943
  29 S :    0.488914
  30 C :   -0.197005
  31 C :   -0.024359
  32 C :   -0.012698
  33 C :   -0.036628
  34 C :    0.078111
  35 O :   -0.187750
  36 O :   -0.076893
  37 C :    0.079386
  38 C :    0.003321
  39 C :   -0.017641
  40 C :    0.002636
  41 C :   -0.151639
  42 S :    0.471119
  43 C :   -0.136560
  44 C :   -0.095170
  45 C :   -0.096193
  46 C :    0.075316
  47 O :   -0.138607
  48 C :   -0.057357
  49 C :    0.015855
  50 C :   -0.011018
  51 C :   -0.001519
  52 C :   -0.026989
  53 C :   -0.046583
  54 C :    0.009496
  55 C :   -0.050967
  56 C :    0.082681
  57 O :   -0.148395
  58 H :    0.029335
  59 H :    0.028184
  60 H :    0.034085
  61 H :    0.032329
  62 H :    0.032036
  63 H :    0.031828
  64 H :    0.031087
  65 H :    0.095929
  66 H :    0.043865
  67 H :    0.014372
  68 H :    0.043518
  69 H :    0.024096
  70 H :    0.022132
  71 H :    0.019531
  72 H :    0.033693
  73 H :    0.031313
  74 H :    0.029043
  75 H :    0.035632
  76 H :    0.036533
  77 H :    0.029702
  78 H :    0.027757
  79 H :    0.030288
  80 H :    0.024203
  81 H :    0.025499
  82 H :    0.025720
  83 H :    0.033309

  Mayer bond orders larger than 0.100000
B(  0-C ,  1-C ) :   1.8695 B(  0-C , 58-H ) :   0.9511 B(  0-C , 59-H ) :   0.9416
B(  1-C ,  2-C ) :   1.0761 B(  1-C ,  5-S ) :   1.0065 B(  2-C ,  3-C ) :   1.6709
B(  2-C , 60-H ) :   0.9934 B(  3-C ,  4-C ) :   1.1428 B(  3-C , 61-H ) :   0.9918
B(  4-C ,  5-S ) :   1.0483 B(  4-C ,  6-C ) :   1.5825 B(  6-C ,  7-C ) :   1.1523
B(  6-C , 10-S ) :   1.0252 B(  7-C ,  8-C ) :   1.6510 B(  7-C , 62-H ) :   0.9919
B(  8-C ,  9-C ) :   1.1174 B(  8-C , 63-H ) :   0.9959 B(  9-C , 10-S ) :   1.0305
B(  9-C , 11-C ) :   1.6456 B( 11-C , 12-N ) :   1.1112 B( 11-C , 64-H ) :   0.9584
B( 12-N , 13-C ) :   1.2316 B( 12-N , 65-H ) :   0.9143 B( 13-C , 14-S ) :   1.1457
B( 13-C , 20-C ) :   1.3182 B( 14-S , 15-C ) :   1.0745 B( 15-C , 16-N ) :   0.9845
B( 15-C , 19-C ) :   1.4674 B( 16-N , 17-O ) :   1.5238 B( 16-N , 18-O ) :   1.5031
B( 17-O , 18-O ) :   0.2520 B( 19-C , 20-C ) :   1.2559 B( 19-C , 66-H ) :   0.9983
B( 20-C , 21-C ) :   1.0821 B( 21-C , 22-C ) :   1.6961 B( 21-C , 67-H ) :   0.9647
B( 22-C , 23-C ) :   1.1114 B( 22-C , 68-H ) :   0.9774 B( 23-C , 24-S ) :   1.0671
B( 23-C , 27-N ) :   1.6696 B( 24-S , 25-C ) :   1.0839 B( 25-C , 26-N ) :   1.6754
B( 25-C , 28-C ) :   1.0926 B( 26-N , 27-N ) :   1.2301 B( 28-C , 29-S ) :   1.1626
B( 28-C , 30-C ) :   0.1361 B( 28-C , 32-C ) :   1.3829 B( 29-S , 30-C ) :   1.1668
B( 30-C , 31-C ) :   1.3750 B( 30-C , 41-C ) :   1.1067 B( 31-C , 32-C ) :   1.2167
B( 31-C , 40-C ) :   1.1998 B( 32-C , 33-C ) :   1.2610 B( 33-C , 34-C ) :   0.8810
B( 33-C , 38-C ) :   1.5716 B( 34-C , 35-O ) :   2.0991 B( 34-C , 36-O ) :   1.2279
B( 36-O , 37-C ) :   0.9234 B( 37-C , 69-H ) :   0.9725 B( 37-C , 70-H ) :   0.9797
B( 37-C , 71-H ) :   0.9695 B( 38-C , 39-C ) :   1.1894 B( 38-C , 72-H ) :   0.9896
B( 39-C , 40-C ) :   1.5576 B( 39-C , 73-H ) :   0.9862 B( 40-C , 74-H ) :   0.9806
B( 41-C , 42-S ) :   1.1712 B( 41-C , 45-C ) :   1.4971 B( 42-S , 43-C ) :   1.1685
B( 43-C , 44-C ) :   1.5575 B( 43-C , 75-H ) :   0.9670 B( 44-C , 45-C ) :   1.2015
B( 44-C , 56-C ) :   0.9490 B( 45-C , 46-C ) :   0.9606 B( 46-C , 47-O ) :   2.2080
B( 46-C , 48-C ) :   0.9309 B( 48-C , 49-C ) :   1.3943 B( 48-C , 55-C ) :   1.3369
B( 49-C , 50-C ) :   1.3561 B( 49-C , 76-H ) :   0.9938 B( 50-C , 51-C ) :   1.3635
B( 50-C , 77-H ) :   0.9970 B( 51-C , 52-C ) :   1.0359 B( 51-C , 54-C ) :   1.3319
B( 52-C , 53-C ) :   1.0981 B( 52-C , 78-H ) :   0.9339 B( 52-C , 79-H ) :   0.9359
B( 53-C , 80-H ) :   0.9698 B( 53-C , 81-H ) :   0.9693 B( 53-C , 82-H ) :   0.9707
B( 54-C , 55-C ) :   1.3883 B( 54-C , 83-H ) :   1.0018 B( 55-C , 56-C ) :   0.9267
B( 56-C , 57-O ) :   2.2554

-----------------------------------------------------------------------------
         ABSORPTION SPECTRUM VIA TRANSITION ELECTRIC DIPOLE MOMENTS
-----------------------------------------------------------------------------
State   Energy  Wavelength   fosc         T2         TX        TY        TZ
        (cm-1)    (nm)                  (au**2)     (au)      (au)      (au)
-----------------------------------------------------------------------------
   0   18151.9    550.9   1.522464145  27.61219   3.42566  -3.98442  -0.03762
   1   19790.3    505.3   0.292329639   4.86292   1.37853   0.79005   1.52918
   2   21629.6    462.3   0.089238511   1.35825  -1.11358   0.20824   0.27353
   3   24962.2    400.6   0.369343197   4.87105   1.75630  -1.30272   0.29893
   4   26106.1    383.1   0.049995356   0.63047   0.23562   0.55069  -0.52124
   5   27573.4    362.7   0.005568820   0.06649  -0.00766  -0.01629   0.25723
   6   28226.3    354.3   0.003818542   0.04454  -0.16666   0.02617  -0.12679
   7   28943.8    345.5   0.116274469   1.32253   1.14279  -0.12818   0.01123
   8   29225.8    342.2   0.372639617   4.19758  -0.97156  -1.09145   1.43610
   9   29421.3    339.9   0.288135203   3.22412   1.78156  -0.22170   0.03204
  10   30282.9    330.2   0.004621669   0.05024   0.18442   0.05729  -0.11380
  11   31051.2    322.0   0.009374776   0.09939   0.30456   0.04841   0.06553
  12   31159.7    320.9   0.057017729   0.60241  -0.73256  -0.25257   0.04437
  13   31793.6    314.5   0.090457659   0.93666   0.84372   0.29962  -0.36745
  14   32230.0    310.3   0.119063173   1.21616  -0.99111   0.05876  -0.48002
  15   32901.4    303.9   0.022869796   0.22884   0.18141  -0.18627   0.40153
  16   33836.2    295.5   0.114100044   1.11015  -0.43109  -0.80770   0.52147
  17   34100.3    293.3   0.021363763   0.20625   0.37010   0.08010  -0.25072
  18   34512.6    289.7   0.020580101   0.19631  -0.42993  -0.05386  -0.09260
  19   34595.9    289.1   0.071033494   0.67595  -0.69992   0.29479  -0.31490
  20   34830.0    287.1   0.014384868   0.13597  -0.22263  -0.26316   0.13095
  21   35308.7    283.2   0.006044990   0.05636   0.13972   0.19163   0.01089
  22   35555.3    281.3   0.009270517   0.08584  -0.13139   0.00631  -0.26179
  23   35976.8    278.0   0.100019702   0.91525  -0.15905   0.69206  -0.64110
  24   36134.4    276.7   0.009895484   0.09016   0.25489   0.07591   0.13937
  25   36563.1    273.5   0.012363793   0.11132  -0.23058  -0.06593  -0.23196
  26   37234.6    268.6   0.176557226   1.56104  -0.69174   0.66627  -0.79913
  27   37401.2    267.4   0.013323556   0.11728   0.16204  -0.28441  -0.10066
  28   37662.4    265.5   0.055679435   0.48670  -0.51647   0.46665  -0.04690
  29   38200.8    261.8   0.005189105   0.04472   0.02973  -0.12139   0.17059
  30   38983.7    256.5   0.017864911   0.15087  -0.35022   0.12938  -0.10710
  31   39031.4    256.2   0.026552329   0.22396   0.40345  -0.14763   0.19847
  32   39153.9    255.4   0.012001671   0.10091  -0.14787  -0.14286  -0.24215
  33   39481.2    253.3   0.008334248   0.06949   0.15931   0.18292  -0.10322
  34   39572.8    252.7   0.040806535   0.33948  -0.31730   0.36543  -0.32444
  35   39915.9    250.5   0.014223547   0.11731  -0.26923   0.16220  -0.13608
  36   40089.9    249.4   0.001896343   0.01557   0.02005  -0.11420   0.04613

FINAL SINGLE POINT ENERGY     -4671.900327857411

DIPOLE MOMENT
-------------
                                X             Y             Z
Electronic contribution:     27.60435     -10.80368      36.35739
Nuclear contribution   :    -30.35185       9.49391     -36.86920
                        -----------------------------------------
Total Dipole Moment    :     -2.74751      -1.30977      -0.51181
                        -----------------------------------------
Magnitude (a.u.)       :      3.08646
Magnitude (Debye)      :      7.84515

Rotational constants in cm-1:     0.002466     0.000334     0.000325
Rotational constants in MHz :    73.919052     9.998670     9.730047

                             ****ORCA TERMINATED NORMALLY****
TOTAL RUN TIME: 0 days 0 hours 6 minutes 48 seconds 256 msec
