                         Program Version 4.2.0 -  RELEASE  -
|  1> # ORCA input file
|  2> # SCF done       -195.511823125634          0.000957406829
|  3> ! CAM-B3LYP def2-SVP def2/J RIJCOSX Grid4 TightSCF
|  4> %maxcore 5000
|  5> %tddft
|  6>     Mode sTDDFT
|  7>     Ethresh 5.0
|  8>     maxcore 5000
|  9> end
| 10>
| 11> %pal
| 12>   nprocs 6
| 13>   end
| 14> * xyz 0 1
| 15>    C       -7.98097        -2.33758         1.95665
| 16>    C       -8.90983        -1.31883         2.09225
| 17>    C      -10.18128        -1.63766         2.57290
| 18>    C      -11.14961        -0.61157         2.71096
| 19>    N      -11.92583         0.22243         2.82054
| 20>    C      -10.52072        -2.95892         2.92273
| 21>    C      -11.81977        -3.25002         3.40562
| 22>    N      -12.86559        -3.50430         3.79606
| 23>    C       -9.57868        -3.98059         2.79409
| 24>    C       -8.33070        -3.65599         2.30638
| 25>    C       -7.17486        -4.55168         2.08528
| 26>    O       -7.06231        -5.69041         2.47578
| 27>    C       -6.13019        -3.69483         1.46068
| 28>    C       -6.59970        -2.32438         1.47173
| 29>    C       -5.91077        -1.21430         1.06181
| 30>    C       -6.43110         0.09867         1.08730
| 31>    N       -6.79645         1.18586         1.09045
| 32>    C       -4.58646        -1.22107         0.57173
| 33>    N       -3.51606        -1.15745         0.16299
| 34>    C       -4.90097        -4.14942         1.07224
| 35>    C       -4.61763        -5.50428         0.80560
| 36>    S       -3.01932        -6.14808         0.94700
| 37>    C       -3.49196        -7.72207         0.40406
| 38>    C       -4.87161        -7.75951         0.15157
| 39>    C       -5.50062        -6.48552         0.30898
| 40>    N       -6.76852        -6.26878        -0.06157
| 41>    C       -7.44172        -7.31720        -0.45097
| 42>    N       -7.04185        -8.58637        -0.36368
| 43>    C       -5.78768        -8.82492        -0.05639
| 44>    C       -5.41816       -10.17532         0.19809
| 45>    N       -5.12539       -11.24648         0.48029
| 46>    C       -2.51347        -8.73108         0.21116
| 47>    C       -2.64138        -9.75825        -0.75846
| 48>    C       -1.63959       -10.77587        -0.92723
| 49>    N       -1.91342       -11.84056        -1.68755
| 50>    C       -2.98649       -11.84588        -2.43302
| 51>    C       -3.82832       -10.68346        -2.48886
| 52>    N       -3.67615        -9.72493        -1.61227
| 53>    C       -4.86757       -10.57667        -3.44625
| 54>    N       -5.69812       -10.50246        -4.23066
| 55>    C       -3.30359       -13.00294        -3.18661
| 56>    N       -3.56975       -13.91326        -3.82782
| 57>    C       -0.39431       -10.70488        -0.25623
| 58>    C       -0.25797        -9.67218         0.69571
| 59>    C       -1.28688        -8.69281         0.90839
| 60>    N       -0.91903        -7.78320         1.81309
| 61>    S        0.55829        -8.11632         2.33469
| 62>    N        0.81480        -9.43440         1.45345
| 63>    C        0.70592       -11.53516        -0.56442
| 64>    S        2.01602       -11.67276         0.53265
| 65>    C        2.99463       -12.59531        -0.57156
| 66>    C        2.28937       -12.81692        -1.76278
| 67>    C        0.99596       -12.20233        -1.77422
| 68>    N        0.21243       -12.20817        -2.85475
| 69>    C        0.64707       -12.87275        -3.89347
| 70>    N        1.81413       -13.50697        -3.99274
| 71>    C        2.64626       -13.46401        -2.97557
| 72>    C        3.91842       -14.07775        -3.14590
| 73>    N        4.94501       -14.56643        -3.27790
| 74>    C        4.28953       -13.02924        -0.21361
| 75>    C        5.10288       -12.47294         0.73011
| 76>    C        6.19803       -13.27832         1.33905
| 77>    O        6.64603       -14.32342         0.94236
| 78>    C        6.55507       -12.54797         2.58092
| 79>    C        7.43082       -12.92501         3.57695
| 80>    C        7.58185       -12.07743         4.67631
| 81>    C        6.84999       -10.87642         4.75249
| 82>    C        5.97396       -10.49816         3.73361
| 83>    C        5.83094       -11.34011         2.64456
| 84>    C        5.04097       -11.20177         1.42295
| 85>    C        4.56965       -10.01789         0.91949
| 86>    C        4.10276        -9.87688        -0.40537
| 87>    N        3.75143        -9.71960        -1.48663
| 88>    C        4.48687        -8.81639         1.64955
| 89>    N        4.32433        -7.83204         2.21692
| 90>    C        6.99970       -10.03683         5.88479
| 91>    N        7.10746        -9.34900         6.79326
| 92>    C        8.46991       -12.42594         5.72330
| 93>    N        9.18784       -12.72124         6.56463
| 94>    H       -8.68700        -0.29451         1.83940
| 95>    H       -9.82098        -4.99797         3.06115
| 96>    H       -4.08064        -3.45376         0.95268
| 97>    H       -8.44413        -7.15778        -0.82222
| 98>    H        0.01115       -12.90377        -4.76689
| 99>    H        4.66224       -13.93221        -0.68660
|100>    H        7.98439       -13.84907         3.50805
|101>    H        5.42490        -9.57366         3.82158
|102> *
|103>
|104>                          ****END OF INPUT****

CARTESIAN COORDINATES (ANGSTROEM)
---------------------------------
  C     -7.980970   -2.337580    1.956650
  C     -8.909830   -1.318830    2.092250
  C    -10.181280   -1.637660    2.572900
  C    -11.149610   -0.611570    2.710960
  N    -11.925830    0.222430    2.820540
  C    -10.520720   -2.958920    2.922730
  C    -11.819770   -3.250020    3.405620
  N    -12.865590   -3.504300    3.796060
  C     -9.578680   -3.980590    2.794090
  C     -8.330700   -3.655990    2.306380
  C     -7.174860   -4.551680    2.085280
  O     -7.062310   -5.690410    2.475780
  C     -6.130190   -3.694830    1.460680
  C     -6.599700   -2.324380    1.471730
  C     -5.910770   -1.214300    1.061810
  C     -6.431100    0.098670    1.087300
  N     -6.796450    1.185860    1.090450
  C     -4.586460   -1.221070    0.571730
  N     -3.516060   -1.157450    0.162990
  C     -4.900970   -4.149420    1.072240
  C     -4.617630   -5.504280    0.805600
  S     -3.019320   -6.148080    0.947000
  C     -3.491960   -7.722070    0.404060
  C     -4.871610   -7.759510    0.151570
  C     -5.500620   -6.485520    0.308980
  N     -6.768520   -6.268780   -0.061570
  C     -7.441720   -7.317200   -0.450970
  N     -7.041850   -8.586370   -0.363680
  C     -5.787680   -8.824920   -0.056390
  C     -5.418160  -10.175320    0.198090
  N     -5.125390  -11.246480    0.480290
  C     -2.513470   -8.731080    0.211160
  C     -2.641380   -9.758250   -0.758460
  C     -1.639590  -10.775870   -0.927230
  N     -1.913420  -11.840560   -1.687550
  C     -2.986490  -11.845880   -2.433020
  C     -3.828320  -10.683460   -2.488860
  N     -3.676150   -9.724930   -1.612270
  C     -4.867570  -10.576670   -3.446250
  N     -5.698120  -10.502460   -4.230660
  C     -3.303590  -13.002940   -3.186610
  N     -3.569750  -13.913260   -3.827820
  C     -0.394310  -10.704880   -0.256230
  C     -0.257970   -9.672180    0.695710
  C     -1.286880   -8.692810    0.908390
  N     -0.919030   -7.783200    1.813090
  S      0.558290   -8.116320    2.334690
  N      0.814800   -9.434400    1.453450
  C      0.705920  -11.535160   -0.564420
  S      2.016020  -11.672760    0.532650
  C      2.994630  -12.595310   -0.571560
  C      2.289370  -12.816920   -1.762780
  C      0.995960  -12.202330   -1.774220
  N      0.212430  -12.208170   -2.854750
  C      0.647070  -12.872750   -3.893470
  N      1.814130  -13.506970   -3.992740
  C      2.646260  -13.464010   -2.975570
  C      3.918420  -14.077750   -3.145900
  N      4.945010  -14.566430   -3.277900
  C      4.289530  -13.029240   -0.213610
  C      5.102880  -12.472940    0.730110
  C      6.198030  -13.278320    1.339050
  O      6.646030  -14.323420    0.942360
  C      6.555070  -12.547970    2.580920
  C      7.430820  -12.925010    3.576950
  C      7.581850  -12.077430    4.676310
  C      6.849990  -10.876420    4.752490
  C      5.973960  -10.498160    3.733610
  C      5.830940  -11.340110    2.644560
  C      5.040970  -11.201770    1.422950
  C      4.569650  -10.017890    0.919490
  C      4.102760   -9.876880   -0.405370
  N      3.751430   -9.719600   -1.486630
  C      4.486870   -8.816390    1.649550
  N      4.324330   -7.832040    2.216920
  C      6.999700  -10.036830    5.884790
  N      7.107460   -9.349000    6.793260
  C      8.469910  -12.425940    5.723300
  N      9.187840  -12.721240    6.564630
  H     -8.687000   -0.294510    1.839400
  H     -9.820980   -4.997970    3.061150
  H     -4.080640   -3.453760    0.952680
  H     -8.444130   -7.157780   -0.822220
  H      0.011150  -12.903770   -4.766890
  H      4.662240  -13.932210   -0.686600
  H      7.984390  -13.849070    3.508050
  H      5.424900   -9.573660    3.821580

 Total Charge           Charge          ....    0
 Multiplicity           Mult            ....    1
 Number of Electrons    NEL             ....  536
 Basis Dimension        Dim             .... 1158

ORBITAL ENERGIES
----------------

  NO   OCC          E(Eh)            E(eV)
   0   2.0000     -89.087625     -2424.1975
   1   2.0000     -89.031710     -2422.6760
   2   2.0000     -89.027588     -2422.5638
   3   2.0000     -19.254603      -523.9444
   4   2.0000     -19.246152      -523.7144
   5   2.0000     -14.497020      -394.4840
   6   2.0000     -14.496392      -394.4669
   7   2.0000     -14.490913      -394.3178
   8   2.0000     -14.487333      -394.2204
   9   2.0000     -14.462689      -393.5498
  10   2.0000     -14.458957      -393.4482
  11   2.0000     -14.458273      -393.4296
  12   2.0000     -14.456579      -393.3835
  13   2.0000     -14.453772      -393.3071
  14   2.0000     -14.453647      -393.3037
  15   2.0000     -14.453133      -393.2897
  16   2.0000     -14.451143      -393.2356
  17   2.0000     -14.450613      -393.2212
  18   2.0000     -14.449144      -393.1812
  19   2.0000     -14.445859      -393.0918
  20   2.0000     -14.442856      -393.0101
  21   2.0000     -14.442333      -392.9958
  22   2.0000     -14.442038      -392.9878
  23   2.0000     -14.435597      -392.8126
  24   2.0000     -14.434092      -392.7716
  25   2.0000     -10.410316      -283.2791
  26   2.0000     -10.406158      -283.1659
  27   2.0000     -10.404178      -283.1121
  28   2.0000     -10.403801      -283.1018
  29   2.0000     -10.403435      -283.0919
  30   2.0000     -10.398667      -282.9621
  31   2.0000     -10.387220      -282.6506
  32   2.0000     -10.386124      -282.6208
  33   2.0000     -10.385364      -282.6001
  34   2.0000     -10.385242      -282.5968
  35   2.0000     -10.384998      -282.5902
  36   2.0000     -10.383871      -282.5595
  37   2.0000     -10.377491      -282.3859
  38   2.0000     -10.377460      -282.3850
  39   2.0000     -10.377306      -282.3808
  40   2.0000     -10.377289      -282.3804
  41   2.0000     -10.376648      -282.3630
  42   2.0000     -10.376025      -282.3460
  43   2.0000     -10.373102      -282.2664
  44   2.0000     -10.372474      -282.2494
  45   2.0000     -10.371881      -282.2332
  46   2.0000     -10.368275      -282.1351
  47   2.0000     -10.368169      -282.1322
  48   2.0000     -10.367755      -282.1210
  49   2.0000     -10.366396      -282.0840
  50   2.0000     -10.365782      -282.0673
  51   2.0000     -10.363544      -282.0064
  52   2.0000     -10.360884      -281.9340
  53   2.0000     -10.359070      -281.8846
  54   2.0000     -10.358620      -281.8724
  55   2.0000     -10.355186      -281.7789
  56   2.0000     -10.354806      -281.7686
  57   2.0000     -10.352671      -281.7105
  58   2.0000     -10.352305      -281.7005
  59   2.0000     -10.351925      -281.6902
  60   2.0000     -10.350551      -281.6528
  61   2.0000     -10.349321      -281.6193
  62   2.0000     -10.347055      -281.5577
  63   2.0000     -10.346927      -281.5542
  64   2.0000     -10.346838      -281.5518
  65   2.0000     -10.345152      -281.5059
  66   2.0000     -10.343606      -281.4638
  67   2.0000     -10.343324      -281.4561
  68   2.0000     -10.343202      -281.4528
  69   2.0000     -10.342464      -281.4328
  70   2.0000     -10.342323      -281.4289
  71   2.0000     -10.341953      -281.4188
  72   2.0000     -10.339326      -281.3474
  73   2.0000     -10.338889      -281.3355
  74   2.0000     -10.338065      -281.3131
  75   2.0000     -10.333835      -281.1979
  76   2.0000     -10.332852      -281.1712
  77   2.0000     -10.331873      -281.1446
  78   2.0000     -10.330200      -281.0990
  79   2.0000      -8.178204      -222.5403
  80   2.0000      -8.124736      -221.0853
  81   2.0000      -8.121577      -220.9993
  82   2.0000      -6.149215      -167.3287
  83   2.0000      -6.141404      -167.1161
  84   2.0000      -6.141151      -167.1092
  85   2.0000      -6.093680      -165.8175
  86   2.0000      -6.090419      -165.7287
  87   2.0000      -6.089206      -165.6957
  88   2.0000      -6.088038      -165.6639
  89   2.0000      -6.086113      -165.6115
  90   2.0000      -6.084812      -165.5762
  91   2.0000      -1.185175       -32.2502
  92   2.0000      -1.171133       -31.8681
  93   2.0000      -1.163075       -31.6489
  94   2.0000      -1.152599       -31.3638
  95   2.0000      -1.134613       -30.8744
  96   2.0000      -1.131146       -30.7801
  97   2.0000      -1.078915       -29.3588
  98   2.0000      -1.065288       -28.9880
  99   2.0000      -1.056462       -28.7478
 100   2.0000      -1.054214       -28.6866
 101   2.0000      -1.051876       -28.6230
 102   2.0000      -1.048175       -28.5223
 103   2.0000      -1.042906       -28.3789
 104   2.0000      -1.040733       -28.3198
 105   2.0000      -1.038847       -28.2685
 106   2.0000      -1.035982       -28.1905
 107   2.0000      -1.032776       -28.1033
 108   2.0000      -1.031042       -28.0561
 109   2.0000      -1.029025       -28.0012
 110   2.0000      -1.024963       -27.8906
 111   2.0000      -1.022225       -27.8162
 112   2.0000      -1.021627       -27.7999
 113   2.0000      -1.020111       -27.7586
 114   2.0000      -1.019195       -27.7337
 115   2.0000      -1.017076       -27.6760
 116   2.0000      -1.014020       -27.5929
 117   2.0000      -1.007953       -27.4278
 118   2.0000      -0.996959       -27.1286
 119   2.0000      -0.988887       -26.9090
 120   2.0000      -0.955893       -26.0112
 121   2.0000      -0.947614       -25.7859
 122   2.0000      -0.943169       -25.6649
 123   2.0000      -0.940806       -25.6006
 124   2.0000      -0.936802       -25.4917
 125   2.0000      -0.930463       -25.3192
 126   2.0000      -0.921769       -25.0826
 127   2.0000      -0.919069       -25.0091
 128   2.0000      -0.915193       -24.9037
 129   2.0000      -0.912256       -24.8238
 130   2.0000      -0.889537       -24.2055
 131   2.0000      -0.872558       -23.7435
 132   2.0000      -0.866584       -23.5810
 133   2.0000      -0.843758       -22.9598
 134   2.0000      -0.838698       -22.8221
 135   2.0000      -0.832301       -22.6481
 136   2.0000      -0.828035       -22.5320
 137   2.0000      -0.827683       -22.5224
 138   2.0000      -0.823636       -22.4123
 139   2.0000      -0.818508       -22.2727
 140   2.0000      -0.795389       -21.6436
 141   2.0000      -0.774861       -21.0850
 142   2.0000      -0.772724       -21.0269
 143   2.0000      -0.770397       -20.9636
 144   2.0000      -0.768846       -20.9214
 145   2.0000      -0.759003       -20.6535
 146   2.0000      -0.752112       -20.4660
 147   2.0000      -0.735952       -20.0263
 148   2.0000      -0.733137       -19.9497
 149   2.0000      -0.730733       -19.8843
 150   2.0000      -0.725904       -19.7529
 151   2.0000      -0.721774       -19.6405
 152   2.0000      -0.719543       -19.5798
 153   2.0000      -0.712180       -19.3794
 154   2.0000      -0.697853       -18.9895
 155   2.0000      -0.695588       -18.9279
 156   2.0000      -0.687947       -18.7200
 157   2.0000      -0.680827       -18.5262
 158   2.0000      -0.676926       -18.4201
 159   2.0000      -0.675656       -18.3855
 160   2.0000      -0.671755       -18.2794
 161   2.0000      -0.667581       -18.1658
 162   2.0000      -0.661952       -18.0126
 163   2.0000      -0.656997       -17.8778
 164   2.0000      -0.649193       -17.6655
 165   2.0000      -0.639823       -17.4105
 166   2.0000      -0.638085       -17.3632
 167   2.0000      -0.625813       -17.0293
 168   2.0000      -0.621612       -16.9149
 169   2.0000      -0.618540       -16.8313
 170   2.0000      -0.614144       -16.7117
 171   2.0000      -0.605944       -16.4886
 172   2.0000      -0.603704       -16.4276
 173   2.0000      -0.600239       -16.3333
 174   2.0000      -0.597956       -16.2712
 175   2.0000      -0.588537       -16.0149
 176   2.0000      -0.586421       -15.9573
 177   2.0000      -0.586133       -15.9495
 178   2.0000      -0.581989       -15.8367
 179   2.0000      -0.580335       -15.7917
 180   2.0000      -0.579736       -15.7754
 181   2.0000      -0.577185       -15.7060
 182   2.0000      -0.571480       -15.5507
 183   2.0000      -0.566918       -15.4266
 184   2.0000      -0.566652       -15.4194
 185   2.0000      -0.564984       -15.3740
 186   2.0000      -0.560883       -15.2624
 187   2.0000      -0.559365       -15.2211
 188   2.0000      -0.554080       -15.0773
 189   2.0000      -0.549977       -14.9656
 190   2.0000      -0.547769       -14.9056
 191   2.0000      -0.545320       -14.8389
 192   2.0000      -0.536903       -14.6099
 193   2.0000      -0.535076       -14.5602
 194   2.0000      -0.534697       -14.5498
 195   2.0000      -0.529249       -14.4016
 196   2.0000      -0.526729       -14.3330
 197   2.0000      -0.524099       -14.2615
 198   2.0000      -0.522631       -14.2215
 199   2.0000      -0.520442       -14.1619
 200   2.0000      -0.518488       -14.1088
 201   2.0000      -0.508651       -13.8411
 202   2.0000      -0.507285       -13.8039
 203   2.0000      -0.501145       -13.6368
 204   2.0000      -0.499290       -13.5864
 205   2.0000      -0.496733       -13.5168
 206   2.0000      -0.494943       -13.4681
 207   2.0000      -0.492864       -13.4115
 208   2.0000      -0.488969       -13.3055
 209   2.0000      -0.486882       -13.2487
 210   2.0000      -0.481468       -13.1014
 211   2.0000      -0.479465       -13.0469
 212   2.0000      -0.476392       -12.9633
 213   2.0000      -0.475714       -12.9448
 214   2.0000      -0.475505       -12.9391
 215   2.0000      -0.475045       -12.9266
 216   2.0000      -0.474555       -12.9133
 217   2.0000      -0.472759       -12.8644
 218   2.0000      -0.469794       -12.7837
 219   2.0000      -0.469200       -12.7676
 220   2.0000      -0.468454       -12.7473
 221   2.0000      -0.467953       -12.7337
 222   2.0000      -0.467161       -12.7121
 223   2.0000      -0.465625       -12.6703
 224   2.0000      -0.464185       -12.6311
 225   2.0000      -0.463003       -12.5989
 226   2.0000      -0.462366       -12.5816
 227   2.0000      -0.460845       -12.5402
 228   2.0000      -0.460408       -12.5283
 229   2.0000      -0.459058       -12.4916
 230   2.0000      -0.457979       -12.4622
 231   2.0000      -0.456531       -12.4228
 232   2.0000      -0.455035       -12.3821
 233   2.0000      -0.453484       -12.3399
 234   2.0000      -0.452788       -12.3210
 235   2.0000      -0.452152       -12.3037
 236   2.0000      -0.448811       -12.2128
 237   2.0000      -0.445530       -12.1235
 238   2.0000      -0.442860       -12.0508
 239   2.0000      -0.442220       -12.0334
 240   2.0000      -0.442167       -12.0320
 241   2.0000      -0.439915       -11.9707
 242   2.0000      -0.436900       -11.8887
 243   2.0000      -0.436048       -11.8655
 244   2.0000      -0.434784       -11.8311
 245   2.0000      -0.434076       -11.8118
 246   2.0000      -0.425671       -11.5831
 247   2.0000      -0.423821       -11.5327
 248   2.0000      -0.421427       -11.4676
 249   2.0000      -0.416720       -11.3395
 250   2.0000      -0.412232       -11.2174
 251   2.0000      -0.398803       -10.8520
 252   2.0000      -0.395777       -10.7696
 253   2.0000      -0.391637       -10.6570
 254   2.0000      -0.385925       -10.5015
 255   2.0000      -0.384124       -10.4525
 256   2.0000      -0.379475       -10.3260
 257   2.0000      -0.378236       -10.2923
 258   2.0000      -0.375552       -10.2193
 259   2.0000      -0.373685       -10.1685
 260   2.0000      -0.372518       -10.1367
 261   2.0000      -0.367741       -10.0067
 262   2.0000      -0.364994        -9.9320
 263   2.0000      -0.355654        -9.6778
 264   2.0000      -0.352152        -9.5826
 265   2.0000      -0.345094        -9.3905
 266   2.0000      -0.321165        -8.7393
 267   2.0000      -0.285942        -7.7809
 268   0.0000      -0.174665        -4.7529
 269   0.0000      -0.136426        -3.7123
 270   0.0000      -0.126795        -3.4503
 271   0.0000      -0.113554        -3.0899
 272   0.0000      -0.109719        -2.9856

MULLIKEN ATOMIC CHARGES
-----------------------
   0 C :    0.056100
   1 C :   -0.045026
   2 C :   -0.056514
   3 C :   -0.176585
   4 N :    0.206985
   5 C :   -0.066952
   6 C :   -0.174777
   7 N :    0.204598
   8 C :   -0.033141
   9 C :   -0.003005
  10 C :    0.158928
  11 O :   -0.131190
  12 C :   -0.074535
  13 C :    0.302906
  14 C :   -0.328022
  15 C :   -0.184399
  16 N :    0.172908
  17 C :   -0.187055
  18 N :    0.168804
  19 C :    0.009613
  20 C :   -0.125048
  21 S :    0.283799
  22 C :   -0.242546
  23 C :    0.226186
  24 C :    0.042916
  25 N :   -0.057291
  26 C :    0.114320
  27 N :   -0.044182
  28 C :   -0.165072
  29 C :   -0.190989
  30 N :    0.164642
  31 C :    0.178290
  32 C :   -0.078261
  33 C :   -0.051630
  34 N :    0.085159
  35 C :   -0.110224
  36 C :   -0.100467
  37 N :    0.005466
  38 C :   -0.199866
  39 N :    0.251492
  40 C :   -0.205267
  41 N :    0.239246
  42 C :    0.146539
  43 C :    0.019358
  44 C :   -0.026314
  45 N :   -0.290978
  46 S :    0.605643
  47 N :   -0.317516
  48 C :   -0.221335
  49 S :    0.267215
  50 C :   -0.191118
  51 C :    0.216919
  52 C :    0.076884
  53 N :   -0.038801
  54 C :    0.105039
  55 N :   -0.038090
  56 C :   -0.187923
  57 C :   -0.167652
  58 N :    0.186528
  59 C :    0.056576
  60 C :   -0.138560
  61 C :    0.148860
  62 O :   -0.106716
  63 C :    0.002623
  64 C :   -0.026489
  65 C :   -0.067006
  66 C :   -0.054376
  67 C :   -0.038222
  68 C :    0.039841
  69 C :    0.243765
  70 C :   -0.309936
  71 C :   -0.198896
  72 N :    0.181179
  73 C :   -0.166026
  74 N :    0.155986
  75 C :   -0.177559
  76 N :    0.205315
  77 C :   -0.170342
  78 N :    0.202603
  79 H :    0.021787
  80 H :    0.017039
  81 H :    0.029936
  82 H :    0.030836
  83 H :    0.035425
  84 H :    0.053829
  85 H :    0.023727
  86 H :    0.020090
Sum of atomic charges:   -0.0000000

LOEWDIN ATOMIC CHARGES
----------------------
   0 C :    0.002581
   1 C :    0.034863
   2 C :   -0.022166
   3 C :   -0.032202
   4 N :   -0.007449
   5 C :   -0.026292
   6 C :   -0.032602
   7 N :   -0.009718
   8 C :    0.048985
   9 C :   -0.025923
  10 C :    0.085186
  11 O :   -0.125784
  12 C :   -0.072155
  13 C :    0.066637
  14 C :   -0.116134
  15 C :   -0.022341
  16 N :   -0.027786
  17 C :   -0.019509
  18 N :   -0.032829
  19 C :    0.046240
  20 C :   -0.186127
  21 S :    0.580279
  22 C :   -0.141771
  23 C :   -0.055726
  24 C :    0.006874
  25 N :   -0.059055
  26 C :    0.068086
  27 N :   -0.051693
  28 C :    0.019339
  29 C :   -0.024241
  30 N :   -0.033574
  31 C :   -0.038239
  32 C :    0.005905
  33 C :    0.010856
  34 N :    0.033712
  35 C :   -0.016557
  36 C :   -0.004614
  37 N :   -0.002794
  38 C :   -0.037973
  39 N :    0.012515
  40 C :   -0.034621
  41 N :    0.004897
  42 C :   -0.033041
  43 C :   -0.041882
  44 C :   -0.044235
  45 N :   -0.288670
  46 S :    0.724513
  47 N :   -0.302632
  48 C :   -0.150090
  49 S :    0.606963
  50 C :   -0.179348
  51 C :   -0.044060
  52 C :    0.000667
  53 N :   -0.046725
  54 C :    0.057925
  55 N :   -0.043248
  56 C :    0.012676
  57 C :   -0.028338
  58 N :   -0.002839
  59 C :    0.055256
  60 C :   -0.090981
  61 C :    0.082774
  62 O :   -0.109732
  63 C :   -0.029474
  64 C :    0.052765
  65 C :   -0.024955
  66 C :   -0.020774
  67 C :    0.030577
  68 C :    0.002693
  69 C :    0.054577
  70 C :   -0.133020
  71 C :   -0.035011
  72 N :   -0.036067
  73 C :   -0.021707
  74 N :   -0.045225
  75 C :   -0.032639
  76 N :   -0.006093
  77 C :   -0.033074
  78 N :   -0.006023
  79 H :    0.052807
  80 H :    0.054364
  81 H :    0.046464
  82 H :    0.029095
  83 H :    0.030103
  84 H :    0.059782
  85 H :    0.057307
  86 H :    0.051495

  Mayer bond orders larger than 0.100000
B(  0-C ,  1-C ) :   1.3532 B(  0-C ,  9-C ) :   1.3342 B(  0-C , 13-C ) :   0.9617
B(  1-C ,  2-C ) :   1.3960 B(  1-C , 79-H ) :   0.9862 B(  2-C ,  3-C ) :   1.0879
B(  2-C ,  5-C ) :   1.4011 B(  3-C ,  4-N ) :   3.0451 B(  5-C ,  6-C ) :   1.0873
B(  5-C ,  8-C ) :   1.3637 B(  6-C ,  7-N ) :   3.0458 B(  8-C ,  9-C ) :   1.3649
B(  8-C , 80-H ) :   1.0152 B(  9-C , 10-C ) :   0.9173 B( 10-C , 11-O ) :   2.2461
B( 10-C , 12-C ) :   0.9389 B( 12-C , 13-C ) :   1.0916 B( 12-C , 19-C ) :   1.6120
B( 13-C , 14-C ) :   1.6552 B( 14-C , 15-C ) :   1.1443 B( 14-C , 17-C ) :   1.1415
B( 15-C , 16-N ) :   2.9607 B( 17-C , 18-N ) :   2.9683 B( 19-C , 20-C ) :   1.1777
B( 19-C , 81-H ) :   0.9260 B( 20-C , 21-S ) :   1.1501 B( 20-C , 22-C ) :   0.1107
B( 20-C , 24-C ) :   1.2942 B( 21-S , 22-C ) :   1.2244 B( 22-C , 23-C ) :   1.2804
B( 22-C , 31-C ) :   1.1645 B( 23-C , 24-C ) :   1.2160 B( 23-C , 28-C ) :   1.1711
B( 24-C , 25-N ) :   1.4133 B( 25-N , 26-C ) :   1.6112 B( 26-C , 27-N ) :   1.3370
B( 26-C , 82-H ) :   0.9717 B( 27-N , 28-C ) :   1.7743 B( 28-C , 29-C ) :   1.1224
B( 29-C , 30-N ) :   3.0471 B( 31-C , 32-C ) :   1.2588 B( 31-C , 42-C ) :   0.1182
B( 31-C , 44-C ) :   1.2040 B( 32-C , 33-C ) :   1.1154 B( 32-C , 37-N ) :   1.4055
B( 33-C , 34-N ) :   1.4429 B( 33-C , 42-C ) :   1.2574 B( 34-N , 35-C ) :   1.7071
B( 35-C , 36-C ) :   1.1720 B( 35-C , 40-C ) :   1.1613 B( 36-C , 37-N ) :   1.7081
B( 36-C , 38-C ) :   1.1525 B( 38-C , 39-N ) :   3.0515 B( 40-C , 41-N ) :   3.0444
B( 42-C , 43-C ) :   1.2098 B( 42-C , 48-C ) :   1.1707 B( 43-C , 44-C ) :   1.1381
B( 43-C , 47-N ) :   1.4711 B( 44-C , 45-N ) :   1.4890 B( 45-N , 46-S ) :   1.2976
B( 45-N , 47-N ) :   0.1469 B( 46-S , 47-N ) :   1.2793 B( 48-C , 49-S ) :   1.2441
B( 48-C , 50-C ) :   0.1182 B( 48-C , 52-C ) :   1.2622 B( 49-S , 50-C ) :   1.1456
B( 50-C , 51-C ) :   1.2792 B( 50-C , 59-C ) :   1.1465 B( 51-C , 52-C ) :   1.2140
B( 51-C , 56-C ) :   1.2006 B( 52-C , 53-N ) :   1.4451 B( 53-N , 54-C ) :   1.5892
B( 54-C , 55-N ) :   1.3550 B( 54-C , 83-H ) :   0.9717 B( 55-N , 56-C ) :   1.7588
B( 56-C , 57-C ) :   1.1066 B( 57-C , 58-N ) :   3.0281 B( 59-C , 60-C ) :   1.6355
B( 59-C , 84-H ) :   0.9367 B( 60-C , 61-C ) :   0.9391 B( 60-C , 69-C ) :   1.0327
B( 61-C , 62-O ) :   2.2932 B( 61-C , 63-C ) :   0.8987 B( 63-C , 64-C ) :   1.3710
B( 63-C , 68-C ) :   1.3311 B( 64-C , 65-C ) :   1.3660 B( 64-C , 85-H ) :   1.0137
B( 65-C , 66-C ) :   1.4014 B( 65-C , 77-C ) :   1.0872 B( 66-C , 67-C ) :   1.3911
B( 66-C , 75-C ) :   1.0852 B( 67-C , 68-C ) :   1.3608 B( 67-C , 86-H ) :   0.9894
B( 68-C , 69-C ) :   0.9958 B( 69-C , 70-C ) :   1.6591 B( 70-C , 71-C ) :   1.1593
B( 70-C , 73-C ) :   1.1346 B( 71-C , 72-N ) :   3.0057 B( 73-C , 74-N ) :   2.9656
B( 75-C , 76-N ) :   3.0458 B( 77-C , 78-N ) :   3.0425

-----------------------------------------------------------------------------
         ABSORPTION SPECTRUM VIA TRANSITION ELECTRIC DIPOLE MOMENTS
-----------------------------------------------------------------------------
State   Energy  Wavelength   fosc         T2         TX        TY        TZ
        (cm-1)    (nm)                  (au**2)     (au)      (au)      (au)
-----------------------------------------------------------------------------
   0    9373.4   1066.9   0.769750590  27.03521  -4.22165   3.01634   0.33858
   1   16478.7    606.8   0.203162827   4.05880  -0.40386  -1.77709  -0.85887
   2   16877.4    592.5   0.078827424   1.53761   0.83365   0.61017   0.68580
   3   18129.3    551.6   0.296002953   5.37515   0.93542  -2.05788  -0.51505
   4   19773.3    505.7   0.005697643   0.09486  -0.01064  -0.10510   0.28931
   5   22249.4    449.4   0.011711650   0.17329  -0.09477  -0.06796  -0.39961
   6   22776.3    439.1   0.080027712   1.15673   0.87993  -0.60887   0.10827
   7   23234.2    430.4   0.030550114   0.43287   0.23587   0.61222   0.04917
   8   24209.7    413.1   0.028379777   0.38592   0.51474   0.31410   0.14935
   9   24438.2    409.2   0.010370276   0.13970   0.35252   0.03880  -0.11799
  10   24737.5    404.2   0.033487858   0.44566  -0.37258   0.18513  -0.52209
  11   25052.0    399.2   0.034058193   0.44756  -0.16476  -0.38811   0.51941
  12   25803.9    387.5   0.016632368   0.21220   0.34239  -0.11314   0.28664
  13   25986.0    384.8   0.001231772   0.01561  -0.06913   0.07861  -0.06817
  14   26181.1    382.0   0.046173173   0.58060   0.51283   0.10743   0.55323
  15   26396.8    378.8   0.056112729   0.69982  -0.81152   0.14922  -0.13780
  16   26733.5    374.1   0.145110568   1.78698  -0.06489  -0.92734  -0.96063
  17   27160.4    368.2   0.024197291   0.29330  -0.25509  -0.47434   0.05686
  18   27356.1    365.5   0.030055691   0.36170   0.57455  -0.15239   0.09146
  19   27638.1    361.8   0.019818101   0.23606   0.37549  -0.30788  -0.01684
  20   28117.5    355.7   0.094527672   1.10677  -0.76302   0.09724  -0.71771
  21   28845.0    346.7   0.014285302   0.16304   0.14888  -0.30410  -0.21999
  22   29584.4    338.0   0.061642318   0.68595  -0.62337   0.35236   0.41617
  23   29980.2    333.6   0.028091864   0.30848   0.22740  -0.49488   0.10890
  24   30502.1    327.8   0.067787683   0.73164  -0.50015   0.30854  -0.62152
  25   30725.4    325.5   0.021572128   0.23114   0.12058   0.33787   0.32006
  26   30748.9    325.2   0.285388045   3.05550  -0.88587  -0.51961  -1.41448
  27   30904.2    323.6   0.150940834   1.60792  -0.93046  -0.58598  -0.63150
  28   31425.8    318.2   0.028706443   0.30072  -0.36972  -0.19276  -0.35620
  29   31717.0    315.3   0.013410732   0.13920  -0.33942   0.15395  -0.01707
  30   31899.9    313.5   0.099780916   1.02975   0.69666  -0.31808   0.66577
  31   32025.3    312.3   0.002564495   0.02636   0.14210  -0.02748   0.07359
  32   32447.2    308.2   0.019548104   0.19834  -0.42882   0.06820  -0.09898
  33   32597.5    306.8   0.049370721   0.49861  -0.24849  -0.59557  -0.28663
  34   32730.5    305.5   0.122376934   1.23090  -0.29037   0.46945   0.96240
  35   32800.1    304.9   0.072048365   0.72314  -0.02295   0.60172  -0.60046
  36   33245.4    300.8   0.085281434   0.84450  -0.76487  -0.45318  -0.23259
  37   33299.1    300.3   0.041884976   0.41410   0.27897   0.57971   0.01455
  38   33883.1    295.1   0.023542282   0.22874  -0.10913   0.30922  -0.34815
  39   34304.2    291.5   0.056300088   0.54030   0.45784   0.51874  -0.24818
  40   34350.4    291.1   0.046779073   0.44833   0.47971  -0.23265   0.40506
  41   34557.9    289.4   0.036953553   0.35203   0.27899  -0.23842   0.46622
  42   34828.9    287.1   0.164582168   1.55567   0.56635  -0.70272   0.86088
  43   34846.4    287.0   0.193159184   1.82487  -1.24910   0.12219   0.49970
  44   35294.0    283.3   0.110395153   1.02973   0.80332   0.34967   0.51200
  45   35498.0    281.7   0.174304782   1.61652  -0.95351  -0.69269   0.47700
  46   35746.7    279.7   0.234322370   2.15801  -0.58088   0.56639  -1.22466
  47   36054.6    277.4   0.192629025   1.75888  -1.17055   0.62185  -0.04461
  48   36153.3    276.6   0.069142908   0.62962  -0.59354   0.13460   0.50913
  49   36281.4    275.6   0.104512149   0.94833   0.79213   0.12571  -0.55232
  50   36304.6    275.4   0.098095625   0.88954  -0.88776  -0.31825  -0.01158
  51   36651.9    272.8   0.127407796   1.14439  -0.07110  -0.92201  -0.53781
  52   36681.0    272.6   0.028328823   0.25425  -0.11277   0.38547   0.30487
  53   36892.2    271.1   0.107951479   0.96332  -0.74033   0.62275  -0.16557
  54   36953.0    270.6   0.011045099   0.09840  -0.07254  -0.30504   0.00950
  55   37166.9    269.1   0.075836482   0.67173   0.10725  -0.80891  -0.07679
  56   37341.1    267.8   0.024495847   0.21596  -0.42420   0.18840  -0.02284
  57   37531.4    266.4   0.056558319   0.49611   0.50886  -0.13197   0.46878
  58   37737.4    265.0   0.018888150   0.16478   0.14361   0.34300   0.16280
  59   37890.0    263.9   0.046522402   0.40422  -0.60957  -0.10820  -0.14467
  60   37893.6    263.9   0.125612520   1.09130  -0.62186  -0.70820  -0.45061
  61   38169.0    262.0   0.014390414   0.12412   0.27332  -0.16223   0.15198
  62   38419.8    260.3   0.068874966   0.59018   0.35404  -0.67838  -0.06808
  63   38606.9    259.0   0.146221123   1.24687   0.35659  -0.94955  -0.46697
  64   38815.0    257.6   0.068433938   0.58043  -0.52448  -0.43989  -0.33443
  65   38933.4    256.8   0.012587298   0.10644  -0.07268  -0.26113  -0.18156
  66   39226.4    254.9   0.022359246   0.18765   0.29654   0.12026   0.29198
  67   39415.4    253.7   0.018710897   0.15628   0.05124  -0.11315  -0.37530
  68   39448.8    253.5   0.006047621   0.05047   0.09139   0.14087   0.14924
  69   39811.4    251.2   0.044467061   0.36771   0.52155   0.30861  -0.02139
  70   39959.7    250.3   0.022118114   0.18222   0.33538  -0.19521  -0.17786
  71   39971.9    250.2   0.039134823   0.32232  -0.33792  -0.37985  -0.25268
  72   40065.2    249.6   0.034225544   0.28123  -0.17714  -0.44507   0.22752
  73   40092.4    249.4   0.016624806   0.13651   0.08993  -0.34833  -0.08420
  74   40228.1    248.6   0.021349623   0.17472   0.13448   0.07955   0.38769

FINAL SINGLE POINT ENERGY     -4497.787195674176

DIPOLE MOMENT
-------------
                                X             Y             Z
Electronic contribution:      3.34327      -3.17730      -0.83766
Nuclear contribution   :     -1.76965       2.09759       1.04353
                        -----------------------------------------
Total Dipole Moment    :      1.57361      -1.07971       0.20586
                        -----------------------------------------
Magnitude (a.u.)       :      1.91949
Magnitude (Debye)      :      4.87894

Rotational constants in cm-1:     0.001371     0.000350     0.000300
Rotational constants in MHz :    41.101364    10.499083     8.994795

                             ****ORCA TERMINATED NORMALLY****
TOTAL RUN TIME: 0 days 0 hours 11 minutes 23 seconds 411 msec
