                         Program Version 4.2.0 -  RELEASE  -
|  1> # ORCA input file
|  2> # SCF done       -203.845089518483          0.000858934515
|  3> ! CAM-B3LYP def2-SVP def2/J RIJCOSX Grid4 TightSCF
|  4> %maxcore 5000
|  5> %tddft
|  6>     Mode sTDDFT
|  7>     Ethresh 5.0
|  8>     maxcore 5000
|  9> end
| 10>
| 11> %pal
| 12>   nprocs 6
| 13>   end
| 14> * xyz 0 1
| 15>    C       -6.45710       -10.01228        14.11447
| 16>    C       -7.57738       -10.79488        14.35702
| 17>    C       -8.43673       -11.15412        13.32954
| 18>    C       -8.19735       -10.74668        12.02477
| 19>    C       -7.08496        -9.96355        11.77273
| 20>    C       -6.21146        -9.58916        12.81871
| 21>    C       -5.14566        -8.75939        12.26685
| 22>    C       -4.04405        -8.30984        12.95011
| 23>    C       -3.78703        -8.58918        14.30828
| 24>    N       -3.51517        -8.77253        15.40864
| 25>    C       -2.99163        -7.55436        12.39549
| 26>    N       -2.09533        -6.94963        12.00574
| 27>    C       -5.48725        -8.51042        10.87554
| 28>    C       -6.56142        -9.42165        10.52831
| 29>    C       -6.82110        -9.90960         9.27110
| 30>    C       -6.03199        -9.59495         8.14664
| 31>    N       -5.36408        -9.39260         7.23418
| 32>    C       -7.82643       -10.85291         8.98559
| 33>    N       -8.64126       -11.60728         8.69373
| 34>    C       -4.91732        -7.52740        10.10044
| 35>    C       -5.42866        -6.88440         8.95331
| 36>    C       -4.57398        -6.15016         8.14338
| 37>    C       -4.93621        -5.47539         6.99284
| 38>    C       -6.34752        -5.39184         6.59235
| 39>    C       -7.36564        -5.98028         7.25692
| 40>    S       -7.16707        -6.93537         8.66293
| 41>    C       -6.37291        -4.57980         5.42584
| 42>    C       -5.07259        -4.19022         5.10010
| 43>    C       -5.03277        -3.35322         3.96201
| 44>    C       -6.27700        -3.14032         3.46244
| 45>    S       -7.53942        -3.94109         4.34309
| 46>    C       -4.15083        -4.75649         6.04751
| 47>    C       -2.76512        -4.56220         5.91233
| 48>    C       -1.74806        -5.08292         6.66260
| 49>    C       -0.37641        -4.85142         6.45341
| 50>    S        0.70746        -6.05150         7.06977
| 51>    C        2.06101        -5.43613         6.18130
| 52>    C        1.70985        -4.24601         5.50180
| 53>    C        0.33591        -3.88594         5.70920
| 54>    C       -0.15909        -2.65922         5.20773
| 55>    C       -1.41503        -2.01016         5.64456
| 56>    O       -2.12818        -1.34430         4.93551
| 57>    O       -1.63587        -2.14360         6.96132
| 58>    C        0.64277        -1.90790         4.37166
| 59>    C        1.95937        -2.27079         4.12228
| 60>    C        2.53231        -3.37573         4.72545
| 61>    O        3.84257        -3.61106         4.59683
| 62>    C        3.26024        -6.19960         6.24137
| 63>    C        4.20842        -6.24226         5.24132
| 64>    C        5.40469        -6.93546         5.31169
| 65>    C        5.72527        -7.83646         6.40989
| 66>    C        4.90521        -8.02736         7.47094
| 67>    S        3.42957        -7.18378         7.69075
| 68>    C        7.00766        -8.37163         6.09682
| 69>    C        7.49372        -7.80667         4.91360
| 70>    C        8.79013        -8.26897         4.60188
| 71>    C        9.23922        -9.15519         5.52954
| 72>    S        8.12158        -9.46329         6.81366
| 73>    C        6.49921        -6.89699         4.39893
| 74>    C        6.54528        -5.98841         3.34760
| 75>    C        7.58481        -5.68443         2.48930
| 76>    C        7.43246        -4.55374         1.69762
| 77>    C        8.22756        -3.85942         0.79998
| 78>    C        7.70055        -2.66874         0.16346
| 79>    C        6.60888        -1.92245         0.56246
| 80>    C        5.80599        -2.14144         1.69131
| 81>    N        5.08883        -2.21152         2.59301
| 82>    C        6.15345        -0.76702        -0.10556
| 83>    N        5.71134         0.17571        -0.59064
| 84>    C        8.57018        -2.34816        -0.95636
| 85>    C        9.65379        -3.25332        -0.94835
| 86>    C       10.62036        -3.18676        -1.93707
| 87>    C       10.50479        -2.21432        -2.92125
| 88>    C        9.44733        -1.31902        -2.92028
| 89>    C        8.46931        -1.37645        -1.93806
| 90>    C        9.51874        -4.14167         0.20787
| 91>    C       10.52126        -4.97695         0.63710
| 92>    C       11.74432        -5.16703        -0.04334
| 93>    N       12.75990        -5.40153        -0.52610
| 94>    C       10.58987        -5.71697         1.83011
| 95>    N       10.78276        -6.33669         2.77946
| 96>    H       -5.80240        -9.74243        14.92668
| 97>    H       -7.78103       -11.12552        15.36405
| 98>    H       -9.30469       -11.75847        13.54473
| 99>    H       -8.87305       -11.02710        11.23286
|100>    H       -3.97179        -7.12756        10.44229
|101>    H       -3.54030        -6.14889         8.45379
|102>    H       -8.39209        -5.89705         6.93620
|103>    H       -4.14350        -2.91314         3.54880
|104>    H       -6.55066        -2.54788         2.61158
|105>    H       -2.49050        -3.94890         5.06436
|106>    H       -1.96350        -5.82136         7.41990
|107>    H       -2.43118        -1.64977         7.21519
|108>    H        0.24867        -0.99227         3.95859
|109>    H        2.57986        -1.64388         3.49869
|110>    H        4.25873        -2.95889         3.98317
|111>    H        3.98976        -5.68454         4.34721
|112>    H        5.14014        -8.70226         8.27861
|113>    H        9.38225        -7.95768         3.76147
|114>    H       10.18463        -9.66080         5.54574
|115>    H        5.66208        -5.36839         3.25022
|116>    H        8.48370        -6.26944         2.49832
|117>    H        6.45324        -4.10400         1.80996
|118>    H       11.44866        -3.87434        -1.96390
|119>    H       11.25258        -2.15978        -3.69765
|120>    H        9.37737        -0.56973        -3.69394
|121>    H        7.64851        -0.67868        -1.95397
|122> *
|123>
|124>                          ****END OF INPUT****

CARTESIAN COORDINATES (ANGSTROEM)
---------------------------------
  C     -6.457100  -10.012280   14.114470
  C     -7.577380  -10.794880   14.357020
  C     -8.436730  -11.154120   13.329540
  C     -8.197350  -10.746680   12.024770
  C     -7.084960   -9.963550   11.772730
  C     -6.211460   -9.589160   12.818710
  C     -5.145660   -8.759390   12.266850
  C     -4.044050   -8.309840   12.950110
  C     -3.787030   -8.589180   14.308280
  N     -3.515170   -8.772530   15.408640
  C     -2.991630   -7.554360   12.395490
  N     -2.095330   -6.949630   12.005740
  C     -5.487250   -8.510420   10.875540
  C     -6.561420   -9.421650   10.528310
  C     -6.821100   -9.909600    9.271100
  C     -6.031990   -9.594950    8.146640
  N     -5.364080   -9.392600    7.234180
  C     -7.826430  -10.852910    8.985590
  N     -8.641260  -11.607280    8.693730
  C     -4.917320   -7.527400   10.100440
  C     -5.428660   -6.884400    8.953310
  C     -4.573980   -6.150160    8.143380
  C     -4.936210   -5.475390    6.992840
  C     -6.347520   -5.391840    6.592350
  C     -7.365640   -5.980280    7.256920
  S     -7.167070   -6.935370    8.662930
  C     -6.372910   -4.579800    5.425840
  C     -5.072590   -4.190220    5.100100
  C     -5.032770   -3.353220    3.962010
  C     -6.277000   -3.140320    3.462440
  S     -7.539420   -3.941090    4.343090
  C     -4.150830   -4.756490    6.047510
  C     -2.765120   -4.562200    5.912330
  C     -1.748060   -5.082920    6.662600
  C     -0.376410   -4.851420    6.453410
  S      0.707460   -6.051500    7.069770
  C      2.061010   -5.436130    6.181300
  C      1.709850   -4.246010    5.501800
  C      0.335910   -3.885940    5.709200
  C     -0.159090   -2.659220    5.207730
  C     -1.415030   -2.010160    5.644560
  O     -2.128180   -1.344300    4.935510
  O     -1.635870   -2.143600    6.961320
  C      0.642770   -1.907900    4.371660
  C      1.959370   -2.270790    4.122280
  C      2.532310   -3.375730    4.725450
  O      3.842570   -3.611060    4.596830
  C      3.260240   -6.199600    6.241370
  C      4.208420   -6.242260    5.241320
  C      5.404690   -6.935460    5.311690
  C      5.725270   -7.836460    6.409890
  C      4.905210   -8.027360    7.470940
  S      3.429570   -7.183780    7.690750
  C      7.007660   -8.371630    6.096820
  C      7.493720   -7.806670    4.913600
  C      8.790130   -8.268970    4.601880
  C      9.239220   -9.155190    5.529540
  S      8.121580   -9.463290    6.813660
  C      6.499210   -6.896990    4.398930
  C      6.545280   -5.988410    3.347600
  C      7.584810   -5.684430    2.489300
  C      7.432460   -4.553740    1.697620
  C      8.227560   -3.859420    0.799980
  C      7.700550   -2.668740    0.163460
  C      6.608880   -1.922450    0.562460
  C      5.805990   -2.141440    1.691310
  N      5.088830   -2.211520    2.593010
  C      6.153450   -0.767020   -0.105560
  N      5.711340    0.175710   -0.590640
  C      8.570180   -2.348160   -0.956360
  C      9.653790   -3.253320   -0.948350
  C     10.620360   -3.186760   -1.937070
  C     10.504790   -2.214320   -2.921250
  C      9.447330   -1.319020   -2.920280
  C      8.469310   -1.376450   -1.938060
  C      9.518740   -4.141670    0.207870
  C     10.521260   -4.976950    0.637100
  C     11.744320   -5.167030   -0.043340
  N     12.759900   -5.401530   -0.526100
  C     10.589870   -5.716970    1.830110
  N     10.782760   -6.336690    2.779460
  H     -5.802400   -9.742430   14.926680
  H     -7.781030  -11.125520   15.364050
  H     -9.304690  -11.758470   13.544730
  H     -8.873050  -11.027100   11.232860
  H     -3.971790   -7.127560   10.442290
  H     -3.540300   -6.148890    8.453790
  H     -8.392090   -5.897050    6.936200
  H     -4.143500   -2.913140    3.548800
  H     -6.550660   -2.547880    2.611580
  H     -2.490500   -3.948900    5.064360
  H     -1.963500   -5.821360    7.419900
  H     -2.431180   -1.649770    7.215190
  H      0.248670   -0.992270    3.958590
  H      2.579860   -1.643880    3.498690
  H      4.258730   -2.958890    3.983170
  H      3.989760   -5.684540    4.347210
  H      5.140140   -8.702260    8.278610
  H      9.382250   -7.957680    3.761470
  H     10.184630   -9.660800    5.545740
  H      5.662080   -5.368390    3.250220
  H      8.483700   -6.269440    2.498320
  H      6.453240   -4.104000    1.809960
  H     11.448660   -3.874340   -1.963900
  H     11.252580   -2.159780   -3.697650
  H      9.377370   -0.569730   -3.693940
  H      7.648510   -0.678680   -1.953970

 Total Charge           Charge          ....    0
 Multiplicity           Mult            ....    1
 Number of Electrons    NEL             ....  576
 Basis Dimension        Dim             .... 1284

ORBITAL ENERGIES
----------------

  NO   OCC          E(Eh)            E(eV)
   0   2.0000     -88.999027     -2421.7866
   1   2.0000     -88.987484     -2421.4725
   2   2.0000     -88.984446     -2421.3899
   3   2.0000     -88.969629     -2420.9867
   4   2.0000     -88.962742     -2420.7993
   5   2.0000     -19.265876      -524.2511
   6   2.0000     -19.252805      -523.8954
   7   2.0000     -19.208831      -522.6989
   8   2.0000     -14.438991      -392.9049
   9   2.0000     -14.424172      -392.5017
  10   2.0000     -14.419132      -392.3645
  11   2.0000     -14.418126      -392.3372
  12   2.0000     -14.417096      -392.3091
  13   2.0000     -14.416614      -392.2960
  14   2.0000     -14.411972      -392.1697
  15   2.0000     -14.410853      -392.1392
  16   2.0000     -10.410184      -283.2755
  17   2.0000     -10.361317      -281.9458
  18   2.0000     -10.353111      -281.7225
  19   2.0000     -10.350958      -281.6639
  20   2.0000     -10.347763      -281.5769
  21   2.0000     -10.347720      -281.5758
  22   2.0000     -10.347191      -281.5614
  23   2.0000     -10.344542      -281.4893
  24   2.0000     -10.342741      -281.4403
  25   2.0000     -10.341638      -281.4103
  26   2.0000     -10.340226      -281.3719
  27   2.0000     -10.339928      -281.3637
  28   2.0000     -10.339404      -281.3495
  29   2.0000     -10.338644      -281.3288
  30   2.0000     -10.337846      -281.3071
  31   2.0000     -10.334294      -281.2104
  32   2.0000     -10.328928      -281.0644
  33   2.0000     -10.327178      -281.0168
  34   2.0000     -10.327147      -281.0159
  35   2.0000     -10.322502      -280.8896
  36   2.0000     -10.321923      -280.8738
  37   2.0000     -10.321528      -280.8631
  38   2.0000     -10.321287      -280.8565
  39   2.0000     -10.319677      -280.8127
  40   2.0000     -10.317166      -280.7444
  41   2.0000     -10.317032      -280.7407
  42   2.0000     -10.314880      -280.6822
  43   2.0000     -10.314654      -280.6760
  44   2.0000     -10.314512      -280.6721
  45   2.0000     -10.312803      -280.6256
  46   2.0000     -10.312177      -280.6086
  47   2.0000     -10.310697      -280.5683
  48   2.0000     -10.310531      -280.5638
  49   2.0000     -10.310401      -280.5603
  50   2.0000     -10.310086      -280.5517
  51   2.0000     -10.308807      -280.5169
  52   2.0000     -10.307003      -280.4678
  53   2.0000     -10.306314      -280.4491
  54   2.0000     -10.306213      -280.4463
  55   2.0000     -10.305474      -280.4262
  56   2.0000     -10.304555      -280.4012
  57   2.0000     -10.303650      -280.3766
  58   2.0000     -10.302353      -280.3413
  59   2.0000     -10.301500      -280.3181
  60   2.0000     -10.299004      -280.2502
  61   2.0000     -10.298902      -280.2474
  62   2.0000     -10.298763      -280.2436
  63   2.0000     -10.298652      -280.2406
  64   2.0000     -10.298073      -280.2248
  65   2.0000     -10.297545      -280.2104
  66   2.0000     -10.296818      -280.1906
  67   2.0000     -10.295742      -280.1614
  68   2.0000     -10.295411      -280.1524
  69   2.0000     -10.293233      -280.0931
  70   2.0000     -10.291940      -280.0579
  71   2.0000     -10.291493      -280.0458
  72   2.0000     -10.291389      -280.0429
  73   2.0000     -10.290896      -280.0295
  74   2.0000     -10.289440      -279.9899
  75   2.0000     -10.287327      -279.9324
  76   2.0000     -10.284846      -279.8649
  77   2.0000     -10.284295      -279.8499
  78   2.0000     -10.280132      -279.7366
  79   2.0000     -10.279097      -279.7085
  80   2.0000     -10.272854      -279.5386
  81   2.0000      -8.094277      -220.2565
  82   2.0000      -8.083239      -219.9561
  83   2.0000      -8.079282      -219.8484
  84   2.0000      -8.065136      -219.4635
  85   2.0000      -8.058200      -219.2748
  86   2.0000      -6.063678      -165.0011
  87   2.0000      -6.059066      -164.8756
  88   2.0000      -6.056520      -164.8063
  89   2.0000      -6.052208      -164.6889
  90   2.0000      -6.048891      -164.5987
  91   2.0000      -6.048030      -164.5753
  92   2.0000      -6.045908      -164.5175
  93   2.0000      -6.044344      -164.4750
  94   2.0000      -6.041062      -164.3857
  95   2.0000      -6.034605      -164.2100
  96   2.0000      -6.030254      -164.0916
  97   2.0000      -6.027619      -164.0198
  98   2.0000      -6.027156      -164.0073
  99   2.0000      -6.023324      -163.9030
 100   2.0000      -6.020310      -163.8210
 101   2.0000      -1.194227       -32.4966
 102   2.0000      -1.156225       -31.4625
 103   2.0000      -1.097776       -29.8720
 104   2.0000      -1.035466       -28.1765
 105   2.0000      -1.032996       -28.1093
 106   2.0000      -1.027344       -27.9555
 107   2.0000      -1.021088       -27.7852
 108   2.0000      -1.020611       -27.7722
 109   2.0000      -1.017176       -27.6788
 110   2.0000      -1.015608       -27.6361
 111   2.0000      -1.006912       -27.3995
 112   2.0000      -1.006115       -27.3778
 113   2.0000      -0.999153       -27.1883
 114   2.0000      -0.997514       -27.1437
 115   2.0000      -0.996599       -27.1188
 116   2.0000      -0.991879       -26.9904
 117   2.0000      -0.985188       -26.8083
 118   2.0000      -0.984809       -26.7980
 119   2.0000      -0.957469       -26.0541
 120   2.0000      -0.952862       -25.9287
 121   2.0000      -0.950319       -25.8595
 122   2.0000      -0.944779       -25.7087
 123   2.0000      -0.940632       -25.5959
 124   2.0000      -0.937695       -25.5160
 125   2.0000      -0.932787       -25.3824
 126   2.0000      -0.925506       -25.1843
 127   2.0000      -0.916984       -24.9524
 128   2.0000      -0.910893       -24.7867
 129   2.0000      -0.895512       -24.3681
 130   2.0000      -0.892229       -24.2788
 131   2.0000      -0.889156       -24.1952
 132   2.0000      -0.872369       -23.7384
 133   2.0000      -0.870397       -23.6847
 134   2.0000      -0.866094       -23.5676
 135   2.0000      -0.864355       -23.5203
 136   2.0000      -0.858776       -23.3685
 137   2.0000      -0.854926       -23.2637
 138   2.0000      -0.854099       -23.2412
 139   2.0000      -0.842298       -22.9201
 140   2.0000      -0.833162       -22.6715
 141   2.0000      -0.822180       -22.3726
 142   2.0000      -0.810425       -22.0528
 143   2.0000      -0.808083       -21.9891
 144   2.0000      -0.794900       -21.6303
 145   2.0000      -0.789270       -21.4771
 146   2.0000      -0.787642       -21.4328
 147   2.0000      -0.778972       -21.1969
 148   2.0000      -0.767028       -20.8719
 149   2.0000      -0.758790       -20.6477
 150   2.0000      -0.748299       -20.3623
 151   2.0000      -0.739440       -20.1212
 152   2.0000      -0.731275       -19.8990
 153   2.0000      -0.728908       -19.8346
 154   2.0000      -0.715965       -19.4824
 155   2.0000      -0.713010       -19.4020
 156   2.0000      -0.712370       -19.3846
 157   2.0000      -0.710635       -19.3374
 158   2.0000      -0.705461       -19.1966
 159   2.0000      -0.702135       -19.1061
 160   2.0000      -0.685749       -18.6602
 161   2.0000      -0.684782       -18.6339
 162   2.0000      -0.674656       -18.3583
 163   2.0000      -0.671085       -18.2612
 164   2.0000      -0.666268       -18.1301
 165   2.0000      -0.664934       -18.0938
 166   2.0000      -0.662997       -18.0411
 167   2.0000      -0.661012       -17.9871
 168   2.0000      -0.659827       -17.9548
 169   2.0000      -0.656583       -17.8665
 170   2.0000      -0.651065       -17.7164
 171   2.0000      -0.639739       -17.4082
 172   2.0000      -0.637808       -17.3556
 173   2.0000      -0.631168       -17.1749
 174   2.0000      -0.628425       -17.1003
 175   2.0000      -0.619068       -16.8457
 176   2.0000      -0.616334       -16.7713
 177   2.0000      -0.603539       -16.4231
 178   2.0000      -0.599075       -16.3017
 179   2.0000      -0.595841       -16.2137
 180   2.0000      -0.591452       -16.0942
 181   2.0000      -0.584726       -15.9112
 182   2.0000      -0.583639       -15.8816
 183   2.0000      -0.582950       -15.8629
 184   2.0000      -0.577702       -15.7201
 185   2.0000      -0.574231       -15.6256
 186   2.0000      -0.573006       -15.5923
 187   2.0000      -0.570492       -15.5239
 188   2.0000      -0.564537       -15.3618
 189   2.0000      -0.560762       -15.2591
 190   2.0000      -0.554595       -15.0913
 191   2.0000      -0.551578       -15.0092
 192   2.0000      -0.549886       -14.9631
 193   2.0000      -0.543946       -14.8015
 194   2.0000      -0.541928       -14.7466
 195   2.0000      -0.538807       -14.6617
 196   2.0000      -0.537153       -14.6167
 197   2.0000      -0.536638       -14.6027
 198   2.0000      -0.535418       -14.5695
 199   2.0000      -0.534143       -14.5348
 200   2.0000      -0.531259       -14.4563
 201   2.0000      -0.530396       -14.4328
 202   2.0000      -0.528276       -14.3751
 203   2.0000      -0.527602       -14.3568
 204   2.0000      -0.525947       -14.3117
 205   2.0000      -0.521630       -14.1943
 206   2.0000      -0.520646       -14.1675
 207   2.0000      -0.519537       -14.1373
 208   2.0000      -0.516820       -14.0634
 209   2.0000      -0.513437       -13.9713
 210   2.0000      -0.506866       -13.7925
 211   2.0000      -0.505537       -13.7564
 212   2.0000      -0.503942       -13.7130
 213   2.0000      -0.502081       -13.6623
 214   2.0000      -0.495230       -13.4759
 215   2.0000      -0.492566       -13.4034
 216   2.0000      -0.491721       -13.3804
 217   2.0000      -0.491343       -13.3701
 218   2.0000      -0.487856       -13.2752
 219   2.0000      -0.485345       -13.2069
 220   2.0000      -0.480157       -13.0657
 221   2.0000      -0.478187       -13.0121
 222   2.0000      -0.476670       -12.9709
 223   2.0000      -0.472162       -12.8482
 224   2.0000      -0.470392       -12.8000
 225   2.0000      -0.464596       -12.6423
 226   2.0000      -0.463545       -12.6137
 227   2.0000      -0.462560       -12.5869
 228   2.0000      -0.461962       -12.5706
 229   2.0000      -0.461812       -12.5665
 230   2.0000      -0.459014       -12.4904
 231   2.0000      -0.456267       -12.4157
 232   2.0000      -0.454951       -12.3798
 233   2.0000      -0.454000       -12.3540
 234   2.0000      -0.451696       -12.2913
 235   2.0000      -0.450223       -12.2512
 236   2.0000      -0.449236       -12.2243
 237   2.0000      -0.448061       -12.1924
 238   2.0000      -0.446351       -12.1458
 239   2.0000      -0.446141       -12.1401
 240   2.0000      -0.445355       -12.1187
 241   2.0000      -0.444197       -12.0872
 242   2.0000      -0.441728       -12.0200
 243   2.0000      -0.440131       -11.9766
 244   2.0000      -0.439509       -11.9596
 245   2.0000      -0.438706       -11.9378
 246   2.0000      -0.437719       -11.9109
 247   2.0000      -0.434194       -11.8150
 248   2.0000      -0.432833       -11.7780
 249   2.0000      -0.432619       -11.7722
 250   2.0000      -0.431143       -11.7320
 251   2.0000      -0.429234       -11.6800
 252   2.0000      -0.428795       -11.6681
 253   2.0000      -0.427844       -11.6422
 254   2.0000      -0.426626       -11.6091
 255   2.0000      -0.425763       -11.5856
 256   2.0000      -0.424698       -11.5566
 257   2.0000      -0.422800       -11.5050
 258   2.0000      -0.421441       -11.4680
 259   2.0000      -0.420305       -11.4371
 260   2.0000      -0.415171       -11.2974
 261   2.0000      -0.413697       -11.2573
 262   2.0000      -0.411385       -11.1943
 263   2.0000      -0.410316       -11.1653
 264   2.0000      -0.403863       -10.9897
 265   2.0000      -0.400834       -10.9073
 266   2.0000      -0.399865       -10.8809
 267   2.0000      -0.396105       -10.7786
 268   2.0000      -0.390630       -10.6296
 269   2.0000      -0.382533       -10.4093
 270   2.0000      -0.379232       -10.3194
 271   2.0000      -0.375736       -10.2243
 272   2.0000      -0.360299        -9.8042
 273   2.0000      -0.353331        -9.6146
 274   2.0000      -0.347769        -9.4633
 275   2.0000      -0.342501        -9.3199
 276   2.0000      -0.338257        -9.2044
 277   2.0000      -0.332063        -9.0359
 278   2.0000      -0.327966        -8.9244
 279   2.0000      -0.326442        -8.8829
 280   2.0000      -0.323240        -8.7958
 281   2.0000      -0.309161        -8.4127
 282   2.0000      -0.300527        -8.1778
 283   2.0000      -0.295776        -8.0485
 284   2.0000      -0.287775        -7.8308
 285   2.0000      -0.273650        -7.4464
 286   2.0000      -0.252073        -6.8593
 287   2.0000      -0.227178        -6.1818
 288   0.0000      -0.122332        -3.3288
 289   0.0000      -0.097822        -2.6619
 290   0.0000      -0.086994        -2.3672
 291   0.0000      -0.085435        -2.3248
 292   0.0000      -0.065019        -1.7693

MULLIKEN ATOMIC CHARGES
-----------------------
   0 C :   -0.036545
   1 C :    0.046175
   2 C :    0.047708
   3 C :   -0.035416
   4 C :    0.008439
   5 C :    0.011903
   6 C :    0.302146
   7 C :   -0.352924
   8 C :   -0.187254
   9 N :    0.155737
  10 C :   -0.173932
  11 N :    0.134399
  12 C :   -0.064754
  13 C :    0.218130
  14 C :   -0.324736
  15 C :   -0.204650
  16 N :    0.169866
  17 C :   -0.179330
  18 N :    0.156471
  19 C :    0.014300
  20 C :   -0.098151
  21 C :   -0.026297
  22 C :    0.076866
  23 C :    0.064202
  24 C :   -0.115736
  25 S :    0.144241
  26 C :   -0.086327
  27 C :    0.025688
  28 C :    0.026610
  29 C :   -0.069072
  30 S :    0.142197
  31 C :    0.097918
  32 C :   -0.033588
  33 C :    0.067781
  34 C :   -0.151401
  35 S :    0.177576
  36 C :   -0.154308
  37 C :    0.123573
  38 C :    0.133532
  39 C :   -0.026804
  40 C :    0.072176
  41 O :   -0.200447
  42 O :   -0.167403
  43 C :    0.008231
  44 C :   -0.062437
  45 C :    0.113721
  46 O :   -0.199610
  47 C :   -0.064747
  48 C :    0.007064
  49 C :    0.048866
  50 C :    0.076983
  51 C :   -0.125580
  52 S :    0.168950
  53 C :   -0.117404
  54 C :    0.057292
  55 C :    0.019683
  56 C :   -0.064270
  57 S :    0.134172
  58 C :    0.116764
  59 C :   -0.032690
  60 C :    0.004841
  61 C :   -0.003826
  62 C :   -0.043598
  63 C :    0.310638
  64 C :   -0.389516
  65 C :   -0.113132
  66 N :    0.078789
  67 C :   -0.202666
  68 N :    0.149848
  69 C :   -0.001173
  70 C :   -0.003786
  71 C :   -0.036548
  72 C :    0.046195
  73 C :    0.043221
  74 C :   -0.033644
  75 C :    0.310466
  76 C :   -0.355765
  77 C :   -0.197544
  78 N :    0.147320
  79 C :   -0.171393
  80 N :    0.149128
  81 H :    0.005093
  82 H :    0.001812
  83 H :    0.003208
  84 H :    0.005381
  85 H :    0.016641
  86 H :   -0.004154
  87 H :    0.042690
  88 H :    0.004468
  89 H :    0.034199
  90 H :   -0.002328
  91 H :   -0.024451
  92 H :    0.192383
  93 H :    0.007167
  94 H :   -0.008460
  95 H :    0.197598
  96 H :    0.001510
  97 H :    0.047997
  98 H :   -0.009590
  99 H :    0.032457
 100 H :   -0.018928
 101 H :   -0.022803
 102 H :   -0.014546
 103 H :    0.004362
 104 H :    0.002191
 105 H :    0.000942
 106 H :    0.003756
Sum of atomic charges:   -0.0000000

LOEWDIN ATOMIC CHARGES
----------------------
   0 C :    0.004277
   1 C :   -0.001619
   2 C :    0.003533
   3 C :   -0.001301
   4 C :   -0.008258
   5 C :   -0.015164
   6 C :    0.081632
   7 C :   -0.142047
   8 C :   -0.019717
   9 N :   -0.051501
  10 C :   -0.017829
  11 N :   -0.058392
  12 C :   -0.076762
  13 C :    0.053670
  14 C :   -0.143700
  15 C :   -0.036480
  16 N :   -0.052538
  17 C :   -0.020510
  18 N :   -0.049614
  19 C :    0.030020
  20 C :   -0.184462
  21 C :    0.036267
  22 C :   -0.033525
  23 C :   -0.050456
  24 C :   -0.128215
  25 S :    0.480205
  26 C :   -0.181051
  27 C :   -0.044439
  28 C :   -0.051197
  29 C :   -0.156637
  30 S :    0.433694
  31 C :   -0.006788
  32 C :   -0.017907
  33 C :   -0.031281
  34 C :   -0.155784
  35 S :    0.494527
  36 C :   -0.194381
  37 C :   -0.053782
  38 C :   -0.023508
  39 C :   -0.094838
  40 C :    0.075184
  41 O :   -0.188091
  42 O :   -0.028899
  43 C :    0.032952
  44 C :   -0.078203
  45 C :    0.078803
  46 O :   -0.035541
  47 C :   -0.157216
  48 C :   -0.013080
  49 C :    0.033053
  50 C :   -0.045085
  51 C :   -0.140439
  52 S :    0.483255
  53 C :   -0.205853
  54 C :   -0.032066
  55 C :   -0.052394
  56 C :   -0.155173
  57 S :    0.429188
  58 C :   -0.066623
  59 C :    0.058851
  60 C :   -0.062692
  61 C :    0.054109
  62 C :   -0.101212
  63 C :    0.093431
  64 C :   -0.174819
  65 C :    0.043138
  66 N :   -0.086480
  67 C :   -0.023019
  68 N :   -0.063258
  69 C :   -0.017926
  70 C :   -0.007747
  71 C :   -0.000524
  72 C :    0.001732
  73 C :   -0.003365
  74 C :    0.003166
  75 C :    0.077434
  76 C :   -0.144597
  77 C :   -0.018852
  78 N :   -0.056608
  79 C :   -0.004967
  80 N :   -0.058649
  81 H :    0.041127
  82 H :    0.036714
  83 H :    0.037000
  84 H :    0.040512
  85 H :    0.047816
  86 H :    0.042053
  87 H :    0.039912
  88 H :    0.037628
  89 H :    0.027053
  90 H :    0.037618
  91 H :    0.026641
  92 H :    0.100768
  93 H :    0.041963
  94 H :    0.037385
  95 H :    0.057457
  96 H :    0.037682
  97 H :    0.041423
  98 H :    0.031069
  99 H :    0.027529
 100 H :    0.033429
 101 H :    0.028737
 102 H :    0.039820
 103 H :    0.040542
 104 H :    0.036506
 105 H :    0.036050
 106 H :    0.040500

  Mayer bond orders larger than 0.100000
B(  0-C ,  1-C ) :   1.3659 B(  0-C ,  5-C ) :   1.3870 B(  0-C , 81-H ) :   0.9833
B(  1-C ,  2-C ) :   1.3845 B(  1-C , 82-H ) :   0.9857 B(  2-C ,  3-C ) :   1.3563
B(  2-C , 83-H ) :   0.9865 B(  3-C ,  4-C ) :   1.3901 B(  3-C , 84-H ) :   0.9870
B(  4-C ,  5-C ) :   1.3135 B(  4-C , 13-C ) :   1.0099 B(  5-C ,  6-C ) :   0.9943
B(  6-C ,  7-C ) :   1.6158 B(  6-C , 12-C ) :   1.0860 B(  7-C ,  8-C ) :   1.1495
B(  7-C , 10-C ) :   1.1433 B(  8-C ,  9-N ) :   2.9754 B( 10-C , 11-N ) :   2.9555
B( 12-C , 13-C ) :   1.0432 B( 12-C , 19-C ) :   1.4866 B( 13-C , 14-C ) :   1.6227
B( 14-C , 15-C ) :   1.1505 B( 14-C , 17-C ) :   1.1478 B( 15-C , 16-N ) :   3.0204
B( 17-C , 18-N ) :   2.9909 B( 19-C , 20-C ) :   1.2396 B( 19-C , 85-H ) :   0.9358
B( 20-C , 21-C ) :   1.3998 B( 20-C , 25-S ) :   1.0424 B( 21-C , 22-C ) :   1.2750
B( 21-C , 86-H ) :   0.9860 B( 22-C , 23-C ) :   1.0505 B( 22-C , 31-C ) :   1.2774
B( 23-C , 24-C ) :   1.5951 B( 23-C , 26-C ) :   1.1860 B( 24-C , 25-S ) :   1.1510
B( 24-C , 87-H ) :   0.9423 B( 26-C , 27-C ) :   1.4116 B( 26-C , 30-S ) :   1.0954
B( 27-C , 28-C ) :   1.2161 B( 27-C , 31-C ) :   1.1235 B( 28-C , 29-C ) :   1.6017
B( 28-C , 88-H ) :   0.9928 B( 29-C , 30-S ) :   1.1383 B( 29-C , 89-H ) :   0.9656
B( 31-C , 32-C ) :   1.2674 B( 32-C , 33-C ) :   1.5465 B( 32-C , 90-H ) :   0.9287
B( 33-C , 34-C ) :   1.2061 B( 33-C , 91-H ) :   0.9421 B( 34-C , 35-S ) :   1.1596
B( 34-C , 36-C ) :   0.1069 B( 34-C , 38-C ) :   1.2953 B( 35-S , 36-C ) :   1.1603
B( 36-C , 37-C ) :   1.3081 B( 36-C , 47-C ) :   1.1399 B( 37-C , 38-C ) :   1.2592
B( 37-C , 45-C ) :   1.1633 B( 38-C , 39-C ) :   1.2058 B( 39-C , 40-C ) :   0.9196
B( 39-C , 43-C ) :   1.5026 B( 40-C , 41-O ) :   2.1291 B( 40-C , 42-O ) :   1.2461
B( 42-O , 92-H ) :   0.9436 B( 43-C , 44-C ) :   1.2363 B( 43-C , 93-H ) :   0.9905
B( 44-C , 45-C ) :   1.4255 B( 44-C , 94-H ) :   0.9873 B( 45-C , 46-O ) :   1.2921
B( 46-O , 95-H ) :   0.8754 B( 47-C , 48-C ) :   1.4947 B( 47-C , 52-S ) :   1.0899
B( 48-C , 49-C ) :   1.3416 B( 48-C , 96-H ) :   0.9410 B( 49-C , 50-C ) :   1.0913
B( 49-C , 58-C ) :   1.2349 B( 50-C , 51-C ) :   1.5602 B( 50-C , 53-C ) :   1.1638
B( 51-C , 52-S ) :   1.1626 B( 51-C , 97-H ) :   0.9420 B( 53-C , 54-C ) :   1.4506
B( 53-C , 57-S ) :   1.0861 B( 54-C , 55-C ) :   1.2367 B( 54-C , 58-C ) :   1.0519
B( 55-C , 56-C ) :   1.5794 B( 55-C , 98-H ) :   0.9878 B( 56-C , 57-S ) :   1.1556
B( 56-C , 99-H ) :   0.9633 B( 58-C , 59-C ) :   1.2821 B( 59-C , 60-C ) :   1.3844
B( 59-C ,100-H ) :   0.9669 B( 60-C , 61-C ) :   1.3614 B( 60-C ,101-H ) :   0.9746
B( 61-C , 62-C ) :   1.3288 B( 61-C ,102-H ) :   0.9352 B( 62-C , 63-C ) :   1.1482
B( 62-C , 75-C ) :   1.0595 B( 63-C , 64-C ) :   1.5118 B( 63-C , 69-C ) :   0.9918
B( 64-C , 65-C ) :   1.1791 B( 64-C , 67-C ) :   1.1537 B( 65-C , 66-N ) :   2.8540
B( 66-N , 95-H ) :   0.1517 B( 67-C , 68-N ) :   2.9746 B( 69-C , 70-C ) :   1.3153
B( 69-C , 74-C ) :   1.3882 B( 70-C , 71-C ) :   1.3965 B( 70-C , 75-C ) :   0.9871
B( 71-C , 72-C ) :   1.3563 B( 71-C ,103-H ) :   0.9806 B( 72-C , 73-C ) :   1.3888
B( 72-C ,104-H ) :   0.9861 B( 73-C , 74-C ) :   1.3583 B( 73-C ,105-H ) :   0.9861
B( 74-C ,106-H ) :   0.9833 B( 75-C , 76-C ) :   1.5888 B( 76-C , 77-C ) :   1.1332
B( 76-C , 79-C ) :   1.1788 B( 77-C , 78-N ) :   2.9715 B( 79-C , 80-N ) :   2.9377

-----------------------------------------------------------------------------
         ABSORPTION SPECTRUM VIA TRANSITION ELECTRIC DIPOLE MOMENTS
-----------------------------------------------------------------------------
State   Energy  Wavelength   fosc         T2         TX        TY        TZ
        (cm-1)    (nm)                  (au**2)     (au)      (au)      (au)
-----------------------------------------------------------------------------
   0    9030.9   1107.3   1.271243921  46.34192   5.53019   1.76396  -3.55631
   1   13889.0    720.0   0.107156844   2.53994   1.39179  -0.68538  -0.36486
   2   16080.0    621.9   0.021621381   0.44266   0.45690   0.15308  -0.45877
   3   17002.7    588.1   0.044778028   0.86701  -0.60169  -0.39527  -0.59055
   4   17470.6    572.4   0.125848960   2.37147  -1.29300   0.82598   0.13185
   5   18399.7    543.5   0.485505941   8.68679   0.86092  -1.94021   2.04480
   6   20271.0    493.3   0.412403247   6.69767   0.88689  -1.84077   1.58829
   7   20832.4    480.0   0.062225376   0.98334  -0.86501   0.42433  -0.23462
   8   21910.6    456.4   0.114414676   1.71911   0.57065   0.75058  -0.91110
   9   22947.8    435.8   0.012450547   0.17862  -0.40631   0.09178   0.07147
  10   23263.0    429.9   0.113640711   1.60821  -0.25578   0.84430  -0.91101
  11   23341.3    428.4   0.123021966   1.73513  -0.83372  -0.64687   0.78842
  12   24069.9    415.5   0.084862396   1.16069  -0.72134   0.78927  -0.13198
  13   25052.5    399.2   0.065040449   0.85469   0.89007   0.01113   0.24967
  14   25275.4    395.6   0.053703403   0.69949   0.75036   0.32748   0.17090
  15   25608.5    390.5   0.151953375   1.95345   0.39817  -0.13791   1.33263
  16   26515.9    377.1   0.056297483   0.69897   0.43629   0.11102  -0.70448
  17   27484.2    363.8   0.045665460   0.54699  -0.03184   0.35432  -0.64841
  18   27733.1    360.6   0.100600089   1.19419   0.99508   0.17303  -0.41721
  19   28052.1    356.5   0.172088495   2.01959  -0.91586  -0.23133  -1.06173
  20   28676.8    348.7   0.053430148   0.61338  -0.50291  -0.54337   0.25537
  21   29128.0    343.3   0.001965325   0.02221  -0.10272   0.09930   0.04244
  22   29774.7    335.9   0.004794374   0.05301   0.01025   0.16766  -0.15747
  23   29894.8    334.5   0.265823331   2.92733   1.56070  -0.62151   0.32445
  24   30144.1    331.7   0.154549607   1.68788   1.04788  -0.58400  -0.49876
  25   30213.6    331.0   0.038003494   0.41409   0.48702   0.36117  -0.21553
  26   30591.1    326.9   0.154503403   1.66272  -0.61826   1.02531  -0.47875
  27   30868.1    324.0   0.003269626   0.03487   0.07757   0.14792   0.08352
  28   30941.5    323.2   0.124934373   1.32928   1.06128  -0.36717  -0.26106
  29   31395.8    318.5   0.191309478   2.00605   0.62812   0.42015   1.19791
  30   31437.2    318.1   0.101808069   1.06614  -0.70336   0.65952  -0.36939
  31   31899.9    313.5   0.033873250   0.34958  -0.25371  -0.02615   0.53341
  32   32144.8    311.1   0.315204898   3.22818   0.35972  -1.57284   0.79054
  33   32374.8    308.9   0.053764106   0.54671   0.62126  -0.21184  -0.34039
  34   32482.7    307.9   0.245888706   2.49208  -0.84362  -0.30578  -1.29880
  35   32833.0    304.6   0.095107984   0.95363  -0.69271  -0.50150  -0.47148
  36   33354.2    299.8   0.039477151   0.38965  -0.52855   0.18198   0.27779
  37   33391.0    299.5   0.200613788   1.97791  -1.11021   0.24740   0.82713
  38   33575.9    297.8   0.086325461   0.84642   0.19870   0.29847   0.84726
  39   33826.6    295.6   0.056581466   0.55067  -0.55073  -0.09483   0.48824
  40   33942.0    294.6   0.407853751   3.95588   0.06857  -1.36936   1.44084
  41   33999.7    294.1   0.399416559   3.86747  -1.13647  -1.38501   0.81095
  42   34694.0    288.2   0.160126134   1.51944  -0.62320  -0.48104   0.94850
  43   34988.2    285.8   0.033967802   0.31961   0.35545  -0.38718   0.20822
  44   35299.6    283.3   0.140633294   1.31158  -0.66637  -0.24190   0.89945
  45   35431.5    282.2   0.052960710   0.49208   0.50216  -0.46969  -0.13896
  46   35716.1    280.0   0.003789073   0.03493  -0.05688  -0.12392   0.12781
  47   35868.6    278.8   0.107842119   0.98980  -0.29018   0.82229  -0.47899
  48   36203.3    276.2   0.127624310   1.16054   0.93645   0.13114  -0.51614
  49   36344.6    275.1   0.044187645   0.40025   0.37827   0.12268  -0.49206
  50   36613.0    273.1   0.039850369   0.35832  -0.22080  -0.28148   0.47993
  51   36739.5    272.2   0.011393555   0.10209   0.28337   0.10968  -0.09881
  52   36900.2    271.0   0.000695598   0.00621   0.03648  -0.05712   0.04017
  53   37030.1    270.1   0.011784963   0.10477  -0.18022   0.24484  -0.11112
  54   37328.2    267.9   0.006140034   0.05415  -0.03299   0.22984  -0.01535
  55   37361.1    267.7   0.015325815   0.13505  -0.06757  -0.26236   0.24829
  56   37600.7    266.0   0.176153219   1.54230  -0.53350  -0.44870   1.02779
  57   38058.6    262.8   0.098966820   0.85608  -0.73722   0.51032  -0.22837
  58   38127.7    262.3   0.057414702   0.49575  -0.27789  -0.38413   0.52054
  59   38337.6    260.8   0.047348983   0.40659  -0.34424  -0.05877   0.53352
  60   38653.2    258.7   0.062855018   0.53534  -0.02025  -0.66793   0.29800
  61   38865.1    257.3   0.146408275   1.24017   0.26828   0.51974  -0.94766
  62   38969.1    256.6   0.148091766   1.25108   1.01931  -0.40041  -0.22753
  63   39733.4    251.7   0.187501635   1.55355  -0.39732  -0.48380   1.07778
  64   39752.1    251.6   0.033117509   0.27427   0.37702  -0.34021   0.12799
  65   40058.7    249.6   0.064725479   0.53193  -0.44336  -0.22870   0.53203
  66   40166.0    249.0   0.138756832   1.13729   0.16354  -0.74735   0.74297

FINAL SINGLE POINT ENERGY     -5142.358950159612

DIPOLE MOMENT
-------------
                                X             Y             Z
Electronic contribution:    -10.48289     -10.78600      15.43181
Nuclear contribution   :      8.05300      11.09275     -15.09997
                        -----------------------------------------
Total Dipole Moment    :     -2.42989       0.30675       0.33185
                        -----------------------------------------
Magnitude (a.u.)       :      2.47155
Magnitude (Debye)      :      6.28219

Rotational constants in cm-1:     0.001202     0.000261     0.000227
Rotational constants in MHz :    36.034022     7.838468     6.795711

                             ****ORCA TERMINATED NORMALLY****
TOTAL RUN TIME: 0 days 0 hours 13 minutes 16 seconds 0 msec
