                         Program Version 4.2.0 -  RELEASE  -
|  1> # ORCA input file
|  2> # SCF done       -200.249010715696          0.000879152041
|  3> ! CAM-B3LYP def2-SVP def2/J RIJCOSX Grid4 TightSCF
|  4> %maxcore 5000
|  5> %tddft
|  6>     Mode sTDDFT
|  7>     Ethresh 5.0
|  8>     maxcore 5000
|  9> end
| 10>
| 11> %pal
| 12>   nprocs 6
| 13>   end
| 14> * xyz 0 1
| 15>    C       -1.82009       -11.99905         6.88414
| 16>    C       -0.61967       -11.62342         7.46972
| 17>    C       -0.35823       -10.29754         7.77992
| 18>    C       -1.29048        -9.30737         7.50970
| 19>    C       -2.48469        -9.66751         6.90793
| 20>    C       -2.75603       -11.01837         6.59889
| 21>    C       -4.07500       -11.10204         5.98143
| 22>    C       -4.73298       -12.26524         5.67376
| 23>    C       -4.21548       -13.55408         5.92184
| 24>    N       -3.86235       -14.63256         6.09612
| 25>    C       -6.02408       -12.36710         5.11553
| 26>    N       -7.06668       -12.53994         4.66523
| 27>    C       -4.52926        -9.73483         5.76530
| 28>    C       -3.63617        -8.86769         6.51688
| 29>    C       -3.91117        -7.60762         6.99386
| 30>    C       -5.15687        -6.96883         6.83988
| 31>    N       -6.17098        -6.43501         6.76884
| 32>    C       -2.99261        -6.81841         7.71049
| 33>    N       -2.26955        -6.10875         8.25251
| 34>    C       -5.55382        -9.41558         4.89854
| 35>    C       -5.81009        -8.20484         4.22461
| 36>    C       -4.89122        -7.17889         4.09356
| 37>    C       -5.10482        -5.98517         3.43513
| 38>    C       -6.40613        -5.66955         2.83305
| 39>    C       -7.43152        -6.55081         2.76814
| 40>    S       -7.38198        -8.12980         3.42683
| 41>    C       -6.30395        -4.31777         2.41429
| 42>    C       -5.04282        -3.80840         2.75863
| 43>    C       -4.89530        -2.45374         2.38171
| 44>    C       -6.01487        -1.98058         1.77848
| 45>    S       -7.29145        -3.14777         1.64095
| 46>    C       -4.26765        -4.84193         3.36853
| 47>    C       -2.97696        -4.69968         3.93780
| 48>    C       -2.10923        -5.72957         4.12685
| 49>    C       -0.95929        -5.72001         4.95054
| 50>    S       -0.06258        -7.23059         5.09728
| 51>    C        0.95506        -6.53647         6.29929
| 52>    C        0.61381        -5.19728         6.54532
| 53>    C       -0.46066        -4.74003         5.78738
| 54>    S        1.62160        -4.46160         7.75797
| 55>    C        2.50174        -5.95461         7.93267
| 56>    C        3.57743        -6.34463         8.72518
| 57>    C        3.93715        -7.66131         8.49781
| 58>    S        2.91780        -8.42376         7.28155
| 59>    C        2.02168        -6.96662         7.08577
| 60>    C        4.98898        -8.41617         9.07185
| 61>    C        5.80636        -7.94886        10.04834
| 62>    C        6.92681        -8.62707        10.59773
| 63>    C        7.69583        -8.01950        11.57013
| 64>    C        8.87270        -8.52886        12.09793
| 65>    C        9.42585        -9.80134        11.64242
| 66>    C        8.81326       -10.60159        10.73923
| 67>    S        7.33220       -10.21230         9.96807
| 68>    C       10.67696        -9.92651        12.30982
| 69>    C       10.91672        -8.79985        13.10095
| 70>    C       12.15293        -8.88906        13.77748
| 71>    C       12.80436       -10.04518        13.48259
| 72>    S       11.95337       -11.07240        12.38278
| 73>    C        9.78374        -7.91461        12.99632
| 74>    C        9.55565        -6.65838        13.56826
| 75>    C       10.47515        -5.83148        14.16424
| 76>    C       10.21257        -4.56377        14.69855
| 77>    C        9.09215        -3.75224        14.60733
| 78>    C        8.77692        -2.73936        15.60293
| 79>    C        9.61044        -2.19454        16.54738
| 80>    C       10.98088        -2.47937        16.71811
| 81>    N       12.09879        -2.64015        16.93003
| 82>    C        9.21458        -1.21152        17.47790
| 83>    N        8.96898        -0.41071        18.26356
| 84>    C        7.37103        -2.38834        15.42488
| 85>    C        6.88377        -3.04964        14.27678
| 86>    C        5.56643        -2.89873        13.87920
| 87>    C        4.73248        -2.09208        14.63950
| 88>    C        5.20903        -1.44059        15.76667
| 89>    C        6.53017        -1.57789        16.16916
| 90>    C        7.98309        -3.79364        13.67838
| 91>    C        8.00491        -4.23323        12.37205
| 92>    C        6.87179        -4.36286        11.55453
| 93>    N        5.98119        -4.60223        10.86497
| 94>    C        9.17874        -4.62882        11.70131
| 95>    N       10.10762        -4.92602        11.09552
| 96>    H       -2.00577       -13.03531         6.65560
| 97>    H        0.11991       -12.37852         7.68782
| 98>    H        0.58308       -10.02975         8.23471
| 99>    H       -1.07714        -8.28145         7.76014
|100>    H       -6.21910       -10.22433         4.62517
|101>    H       -3.92850        -7.34089         4.55083
|102>    H       -8.37263        -6.30792         2.29987
|103>    H       -4.01198        -1.86388         2.54552
|104>    H       -6.18564        -0.99534         1.39066
|105>    H       -2.70278        -3.70590         4.26561
|106>    H       -2.29992        -6.67117         3.62978
|107>    H       -0.87229        -3.75132         5.85919
|108>    H        4.08559        -5.69583         9.41392
|109>    H        5.13404        -9.41458         8.67938
|110>    H        5.64034        -6.95386        10.43729
|111>    H        7.34982        -7.05158        11.90304
|112>    H        9.22864       -11.54471        10.42122
|113>    H       12.55030        -8.15283        14.45121
|114>    H       13.75755       -10.37146        13.85024
|115>    H        8.52913        -6.32136        13.52507
|116>    H       11.48876        -6.18716        14.27289
|117>    H       10.99041        -4.19355        15.35376
|118>    H        5.18303        -3.40265        13.00656
|119>    H        3.70010        -1.97321        14.34772
|120>    H        4.54442        -0.81610        16.34397
|121>    H        6.87989        -1.06182        17.04765
|122> *
|123>
|124>                          ****END OF INPUT****

CARTESIAN COORDINATES (ANGSTROEM)
---------------------------------
  C     -1.820090  -11.999050    6.884140
  C     -0.619670  -11.623420    7.469720
  C     -0.358230  -10.297540    7.779920
  C     -1.290480   -9.307370    7.509700
  C     -2.484690   -9.667510    6.907930
  C     -2.756030  -11.018370    6.598890
  C     -4.075000  -11.102040    5.981430
  C     -4.732980  -12.265240    5.673760
  C     -4.215480  -13.554080    5.921840
  N     -3.862350  -14.632560    6.096120
  C     -6.024080  -12.367100    5.115530
  N     -7.066680  -12.539940    4.665230
  C     -4.529260   -9.734830    5.765300
  C     -3.636170   -8.867690    6.516880
  C     -3.911170   -7.607620    6.993860
  C     -5.156870   -6.968830    6.839880
  N     -6.170980   -6.435010    6.768840
  C     -2.992610   -6.818410    7.710490
  N     -2.269550   -6.108750    8.252510
  C     -5.553820   -9.415580    4.898540
  C     -5.810090   -8.204840    4.224610
  C     -4.891220   -7.178890    4.093560
  C     -5.104820   -5.985170    3.435130
  C     -6.406130   -5.669550    2.833050
  C     -7.431520   -6.550810    2.768140
  S     -7.381980   -8.129800    3.426830
  C     -6.303950   -4.317770    2.414290
  C     -5.042820   -3.808400    2.758630
  C     -4.895300   -2.453740    2.381710
  C     -6.014870   -1.980580    1.778480
  S     -7.291450   -3.147770    1.640950
  C     -4.267650   -4.841930    3.368530
  C     -2.976960   -4.699680    3.937800
  C     -2.109230   -5.729570    4.126850
  C     -0.959290   -5.720010    4.950540
  S     -0.062580   -7.230590    5.097280
  C      0.955060   -6.536470    6.299290
  C      0.613810   -5.197280    6.545320
  C     -0.460660   -4.740030    5.787380
  S      1.621600   -4.461600    7.757970
  C      2.501740   -5.954610    7.932670
  C      3.577430   -6.344630    8.725180
  C      3.937150   -7.661310    8.497810
  S      2.917800   -8.423760    7.281550
  C      2.021680   -6.966620    7.085770
  C      4.988980   -8.416170    9.071850
  C      5.806360   -7.948860   10.048340
  C      6.926810   -8.627070   10.597730
  C      7.695830   -8.019500   11.570130
  C      8.872700   -8.528860   12.097930
  C      9.425850   -9.801340   11.642420
  C      8.813260  -10.601590   10.739230
  S      7.332200  -10.212300    9.968070
  C     10.676960   -9.926510   12.309820
  C     10.916720   -8.799850   13.100950
  C     12.152930   -8.889060   13.777480
  C     12.804360  -10.045180   13.482590
  S     11.953370  -11.072400   12.382780
  C      9.783740   -7.914610   12.996320
  C      9.555650   -6.658380   13.568260
  C     10.475150   -5.831480   14.164240
  C     10.212570   -4.563770   14.698550
  C      9.092150   -3.752240   14.607330
  C      8.776920   -2.739360   15.602930
  C      9.610440   -2.194540   16.547380
  C     10.980880   -2.479370   16.718110
  N     12.098790   -2.640150   16.930030
  C      9.214580   -1.211520   17.477900
  N      8.968980   -0.410710   18.263560
  C      7.371030   -2.388340   15.424880
  C      6.883770   -3.049640   14.276780
  C      5.566430   -2.898730   13.879200
  C      4.732480   -2.092080   14.639500
  C      5.209030   -1.440590   15.766670
  C      6.530170   -1.577890   16.169160
  C      7.983090   -3.793640   13.678380
  C      8.004910   -4.233230   12.372050
  C      6.871790   -4.362860   11.554530
  N      5.981190   -4.602230   10.864970
  C      9.178740   -4.628820   11.701310
  N     10.107620   -4.926020   11.095520
  H     -2.005770  -13.035310    6.655600
  H      0.119910  -12.378520    7.687820
  H      0.583080  -10.029750    8.234710
  H     -1.077140   -8.281450    7.760140
  H     -6.219100  -10.224330    4.625170
  H     -3.928500   -7.340890    4.550830
  H     -8.372630   -6.307920    2.299870
  H     -4.011980   -1.863880    2.545520
  H     -6.185640   -0.995340    1.390660
  H     -2.702780   -3.705900    4.265610
  H     -2.299920   -6.671170    3.629780
  H     -0.872290   -3.751320    5.859190
  H      4.085590   -5.695830    9.413920
  H      5.134040   -9.414580    8.679380
  H      5.640340   -6.953860   10.437290
  H      7.349820   -7.051580   11.903040
  H      9.228640  -11.544710   10.421220
  H     12.550300   -8.152830   14.451210
  H     13.757550  -10.371460   13.850240
  H      8.529130   -6.321360   13.525070
  H     11.488760   -6.187160   14.272890
  H     10.990410   -4.193550   15.353760
  H      5.183030   -3.402650   13.006560
  H      3.700100   -1.973210   14.347720
  H      4.544420   -0.816100   16.343970
  H      6.879890   -1.061820   17.047650

 Total Charge           Charge          ....    0
 Multiplicity           Mult            ....    1
 Number of Electrons    NEL             ....  590
 Basis Dimension        Dim             .... 1292

ORBITAL ENERGIES
----------------

  NO   OCC          E(Eh)            E(eV)
   0   2.0000     -88.995948     -2421.7029
   1   2.0000     -88.982808     -2421.3453
   2   2.0000     -88.974446     -2421.1178
   3   2.0000     -88.972586     -2421.0671
   4   2.0000     -88.970523     -2421.0110
   5   2.0000     -88.968181     -2420.9473
   6   2.0000     -88.964985     -2420.8603
   7   2.0000     -14.428412      -392.6171
   8   2.0000     -14.420528      -392.4025
   9   2.0000     -14.420470      -392.4009
  10   2.0000     -14.420265      -392.3953
  11   2.0000     -14.416380      -392.2897
  12   2.0000     -14.413687      -392.2164
  13   2.0000     -14.411543      -392.1580
  14   2.0000     -14.408865      -392.0852
  15   2.0000     -10.347451      -281.5685
  16   2.0000     -10.346531      -281.5434
  17   2.0000     -10.346272      -281.5364
  18   2.0000     -10.345700      -281.5208
  19   2.0000     -10.345351      -281.5113
  20   2.0000     -10.344199      -281.4800
  21   2.0000     -10.341049      -281.3943
  22   2.0000     -10.340739      -281.3858
  23   2.0000     -10.339256      -281.3454
  24   2.0000     -10.337235      -281.2905
  25   2.0000     -10.336551      -281.2719
  26   2.0000     -10.334555      -281.2175
  27   2.0000     -10.330920      -281.1186
  28   2.0000     -10.329983      -281.0931
  29   2.0000     -10.323495      -280.9166
  30   2.0000     -10.322939      -280.9014
  31   2.0000     -10.321048      -280.8500
  32   2.0000     -10.319614      -280.8110
  33   2.0000     -10.319201      -280.7997
  34   2.0000     -10.318384      -280.7775
  35   2.0000     -10.318067      -280.7689
  36   2.0000     -10.317125      -280.7432
  37   2.0000     -10.317009      -280.7401
  38   2.0000     -10.316717      -280.7321
  39   2.0000     -10.316519      -280.7268
  40   2.0000     -10.315105      -280.6883
  41   2.0000     -10.314497      -280.6717
  42   2.0000     -10.313487      -280.6442
  43   2.0000     -10.312917      -280.6287
  44   2.0000     -10.312629      -280.6209
  45   2.0000     -10.312515      -280.6178
  46   2.0000     -10.311916      -280.6015
  47   2.0000     -10.310381      -280.5597
  48   2.0000     -10.310294      -280.5574
  49   2.0000     -10.309618      -280.5390
  50   2.0000     -10.309432      -280.5339
  51   2.0000     -10.308583      -280.5108
  52   2.0000     -10.308083      -280.4972
  53   2.0000     -10.307745      -280.4880
  54   2.0000     -10.307189      -280.4729
  55   2.0000     -10.306224      -280.4466
  56   2.0000     -10.304680      -280.4046
  57   2.0000     -10.304091      -280.3886
  58   2.0000     -10.300511      -280.2911
  59   2.0000     -10.300278      -280.2848
  60   2.0000     -10.300224      -280.2833
  61   2.0000     -10.299743      -280.2702
  62   2.0000     -10.298832      -280.2455
  63   2.0000     -10.298176      -280.2276
  64   2.0000     -10.298002      -280.2229
  65   2.0000     -10.297070      -280.1975
  66   2.0000     -10.296117      -280.1716
  67   2.0000     -10.295824      -280.1636
  68   2.0000     -10.295723      -280.1609
  69   2.0000     -10.294007      -280.1142
  70   2.0000     -10.293666      -280.1049
  71   2.0000     -10.293238      -280.0933
  72   2.0000     -10.293152      -280.0909
  73   2.0000     -10.292912      -280.0844
  74   2.0000     -10.292450      -280.0718
  75   2.0000     -10.290175      -280.0099
  76   2.0000     -10.289125      -279.9813
  77   2.0000     -10.288617      -279.9675
  78   2.0000     -10.288349      -279.9602
  79   2.0000     -10.284469      -279.8546
  80   2.0000     -10.281918      -279.7852
  81   2.0000      -8.091080      -220.1695
  82   2.0000      -8.078299      -219.8217
  83   2.0000      -8.069415      -219.5799
  84   2.0000      -8.067467      -219.5269
  85   2.0000      -8.065959      -219.4859
  86   2.0000      -8.063495      -219.4189
  87   2.0000      -8.060298      -219.3319
  88   2.0000      -6.060442      -164.9130
  89   2.0000      -6.055909      -164.7897
  90   2.0000      -6.053421      -164.7220
  91   2.0000      -6.047812      -164.5693
  92   2.0000      -6.043326      -164.4473
  93   2.0000      -6.040133      -164.3604
  94   2.0000      -6.038922      -164.3274
  95   2.0000      -6.036969      -164.2743
  96   2.0000      -6.035431      -164.2324
  97   2.0000      -6.034917      -164.2184
  98   2.0000      -6.032951      -164.1650
  99   2.0000      -6.032907      -164.1638
 100   2.0000      -6.031118      -164.1151
 101   2.0000      -6.031064      -164.1136
 102   2.0000      -6.029995      -164.0845
 103   2.0000      -6.029145      -164.0614
 104   2.0000      -6.028642      -164.0477
 105   2.0000      -6.027964      -164.0292
 106   2.0000      -6.026181      -163.9807
 107   2.0000      -6.025640      -163.9660
 108   2.0000      -6.021226      -163.8459
 109   2.0000      -1.034862       -28.1600
 110   2.0000      -1.028732       -27.9932
 111   2.0000      -1.028092       -27.9758
 112   2.0000      -1.022318       -27.8187
 113   2.0000      -1.020880       -27.7796
 114   2.0000      -1.016544       -27.6616
 115   2.0000      -1.015260       -27.6266
 116   2.0000      -1.006057       -27.3762
 117   2.0000      -1.001962       -27.2648
 118   2.0000      -0.999098       -27.1868
 119   2.0000      -0.996735       -27.1225
 120   2.0000      -0.996209       -27.1082
 121   2.0000      -0.991679       -26.9850
 122   2.0000      -0.988632       -26.9020
 123   2.0000      -0.987183       -26.8626
 124   2.0000      -0.985426       -26.8148
 125   2.0000      -0.957292       -26.0492
 126   2.0000      -0.952945       -25.9310
 127   2.0000      -0.948610       -25.8130
 128   2.0000      -0.944652       -25.7053
 129   2.0000      -0.938373       -25.5344
 130   2.0000      -0.937985       -25.5239
 131   2.0000      -0.931844       -25.3568
 132   2.0000      -0.922947       -25.1147
 133   2.0000      -0.916687       -24.9443
 134   2.0000      -0.907610       -24.6973
 135   2.0000      -0.894838       -24.3498
 136   2.0000      -0.892394       -24.2833
 137   2.0000      -0.887675       -24.1549
 138   2.0000      -0.885924       -24.1072
 139   2.0000      -0.868116       -23.6226
 140   2.0000      -0.866053       -23.5665
 141   2.0000      -0.864836       -23.5334
 142   2.0000      -0.863055       -23.4849
 143   2.0000      -0.859535       -23.3891
 144   2.0000      -0.852127       -23.1876
 145   2.0000      -0.845336       -23.0028
 146   2.0000      -0.841321       -22.8935
 147   2.0000      -0.826011       -22.4769
 148   2.0000      -0.823126       -22.3984
 149   2.0000      -0.811435       -22.0803
 150   2.0000      -0.808549       -22.0017
 151   2.0000      -0.796552       -21.6753
 152   2.0000      -0.790289       -21.5049
 153   2.0000      -0.789003       -21.4699
 154   2.0000      -0.784226       -21.3399
 155   2.0000      -0.778062       -21.1721
 156   2.0000      -0.764215       -20.7953
 157   2.0000      -0.749083       -20.3836
 158   2.0000      -0.737540       -20.0695
 159   2.0000      -0.734600       -19.9895
 160   2.0000      -0.724360       -19.7108
 161   2.0000      -0.713886       -19.4258
 162   2.0000      -0.712750       -19.3949
 163   2.0000      -0.711732       -19.3672
 164   2.0000      -0.706074       -19.2133
 165   2.0000      -0.701814       -19.0973
 166   2.0000      -0.694025       -18.8854
 167   2.0000      -0.682573       -18.5738
 168   2.0000      -0.677227       -18.4283
 169   2.0000      -0.669827       -18.2269
 170   2.0000      -0.667054       -18.1515
 171   2.0000      -0.665798       -18.1173
 172   2.0000      -0.664367       -18.0783
 173   2.0000      -0.662643       -18.0314
 174   2.0000      -0.660890       -17.9837
 175   2.0000      -0.656475       -17.8636
 176   2.0000      -0.656207       -17.8563
 177   2.0000      -0.645771       -17.5723
 178   2.0000      -0.640160       -17.4196
 179   2.0000      -0.638108       -17.3638
 180   2.0000      -0.637038       -17.3347
 181   2.0000      -0.627537       -17.0762
 182   2.0000      -0.618650       -16.8343
 183   2.0000      -0.608928       -16.5698
 184   2.0000      -0.608420       -16.5559
 185   2.0000      -0.601762       -16.3748
 186   2.0000      -0.596968       -16.2443
 187   2.0000      -0.592109       -16.1121
 188   2.0000      -0.587820       -15.9954
 189   2.0000      -0.583500       -15.8778
 190   2.0000      -0.579592       -15.7715
 191   2.0000      -0.578164       -15.7326
 192   2.0000      -0.576687       -15.6925
 193   2.0000      -0.573133       -15.5958
 194   2.0000      -0.572627       -15.5820
 195   2.0000      -0.561735       -15.2856
 196   2.0000      -0.557627       -15.1738
 197   2.0000      -0.554845       -15.0981
 198   2.0000      -0.551202       -14.9990
 199   2.0000      -0.545733       -14.8502
 200   2.0000      -0.539043       -14.6681
 201   2.0000      -0.538461       -14.6523
 202   2.0000      -0.534872       -14.5546
 203   2.0000      -0.533771       -14.5247
 204   2.0000      -0.532900       -14.5010
 205   2.0000      -0.531574       -14.4649
 206   2.0000      -0.530711       -14.4414
 207   2.0000      -0.529758       -14.4155
 208   2.0000      -0.527103       -14.3432
 209   2.0000      -0.525414       -14.2973
 210   2.0000      -0.525202       -14.2915
 211   2.0000      -0.523858       -14.2549
 212   2.0000      -0.522568       -14.2198
 213   2.0000      -0.516218       -14.0470
 214   2.0000      -0.511836       -13.9278
 215   2.0000      -0.508844       -13.8463
 216   2.0000      -0.504465       -13.7272
 217   2.0000      -0.502736       -13.6802
 218   2.0000      -0.500853       -13.6289
 219   2.0000      -0.495274       -13.4771
 220   2.0000      -0.492254       -13.3949
 221   2.0000      -0.489674       -13.3247
 222   2.0000      -0.488655       -13.2970
 223   2.0000      -0.487575       -13.2676
 224   2.0000      -0.481992       -13.1157
 225   2.0000      -0.481016       -13.0891
 226   2.0000      -0.477896       -13.0042
 227   2.0000      -0.477036       -12.9808
 228   2.0000      -0.476013       -12.9530
 229   2.0000      -0.475065       -12.9272
 230   2.0000      -0.466399       -12.6914
 231   2.0000      -0.464174       -12.6308
 232   2.0000      -0.463822       -12.6212
 233   2.0000      -0.462070       -12.5736
 234   2.0000      -0.461183       -12.5494
 235   2.0000      -0.457510       -12.4495
 236   2.0000      -0.455707       -12.4004
 237   2.0000      -0.453852       -12.3499
 238   2.0000      -0.453548       -12.3417
 239   2.0000      -0.453278       -12.3343
 240   2.0000      -0.451349       -12.2818
 241   2.0000      -0.450128       -12.2486
 242   2.0000      -0.448622       -12.2076
 243   2.0000      -0.447561       -12.1787
 244   2.0000      -0.445973       -12.1355
 245   2.0000      -0.445510       -12.1229
 246   2.0000      -0.445109       -12.1120
 247   2.0000      -0.443633       -12.0719
 248   2.0000      -0.443059       -12.0562
 249   2.0000      -0.441920       -12.0252
 250   2.0000      -0.441152       -12.0043
 251   2.0000      -0.440489       -11.9863
 252   2.0000      -0.437755       -11.9119
 253   2.0000      -0.435749       -11.8573
 254   2.0000      -0.432681       -11.7739
 255   2.0000      -0.431549       -11.7431
 256   2.0000      -0.430740       -11.7210
 257   2.0000      -0.430617       -11.7177
 258   2.0000      -0.428624       -11.6634
 259   2.0000      -0.428267       -11.6537
 260   2.0000      -0.426823       -11.6145
 261   2.0000      -0.424833       -11.5603
 262   2.0000      -0.424399       -11.5485
 263   2.0000      -0.421346       -11.4654
 264   2.0000      -0.420765       -11.4496
 265   2.0000      -0.418854       -11.3976
 266   2.0000      -0.418503       -11.3880
 267   2.0000      -0.415392       -11.3034
 268   2.0000      -0.413647       -11.2559
 269   2.0000      -0.410792       -11.1782
 270   2.0000      -0.409138       -11.1332
 271   2.0000      -0.408538       -11.1169
 272   2.0000      -0.400965       -10.9108
 273   2.0000      -0.397930       -10.8282
 274   2.0000      -0.389350       -10.5947
 275   2.0000      -0.382860       -10.4181
 276   2.0000      -0.382042       -10.3959
 277   2.0000      -0.377854       -10.2819
 278   2.0000      -0.372189       -10.1278
 279   2.0000      -0.352933        -9.6038
 280   2.0000      -0.350385        -9.5345
 281   2.0000      -0.344109        -9.3637
 282   2.0000      -0.341161        -9.2835
 283   2.0000      -0.330708        -8.9990
 284   2.0000      -0.327718        -8.9177
 285   2.0000      -0.325780        -8.8649
 286   2.0000      -0.323106        -8.7922
 287   2.0000      -0.309006        -8.4085
 288   2.0000      -0.300445        -8.1755
 289   2.0000      -0.296334        -8.0636
 290   2.0000      -0.293323        -7.9817
 291   2.0000      -0.286771        -7.8034
 292   2.0000      -0.269159        -7.3242
 293   2.0000      -0.245549        -6.6817
 294   2.0000      -0.229450        -6.2437
 295   0.0000      -0.113002        -3.0749
 296   0.0000      -0.104395        -2.8407
 297   0.0000      -0.087499        -2.3810
 298   0.0000      -0.083437        -2.2704
 299   0.0000      -0.064717        -1.7610

MULLIKEN ATOMIC CHARGES
-----------------------
   0 C :   -0.043730
   1 C :    0.049852
   2 C :    0.040832
   3 C :   -0.031100
   4 C :    0.003466
   5 C :    0.016274
   6 C :    0.296948
   7 C :   -0.351650
   8 C :   -0.188386
   9 N :    0.153271
  10 C :   -0.182131
  11 N :    0.152462
  12 C :   -0.072387
  13 C :    0.230932
  14 C :   -0.354851
  15 C :   -0.206266
  16 N :    0.181204
  17 C :   -0.159523
  18 N :    0.152047
  19 C :    0.081627
  20 C :   -0.124277
  21 C :   -0.012029
  22 C :    0.027960
  23 C :    0.065051
  24 C :   -0.111011
  25 S :    0.168472
  26 C :   -0.093834
  27 C :    0.049086
  28 C :    0.016070
  29 C :   -0.064928
  30 S :    0.143432
  31 C :    0.090869
  32 C :   -0.042012
  33 C :    0.035580
  34 C :   -0.091002
  35 S :    0.134925
  36 C :   -0.091392
  37 C :   -0.010805
  38 C :   -0.007636
  39 S :    0.174435
  40 C :   -0.029625
  41 C :   -0.021380
  42 C :   -0.091158
  43 S :    0.142356
  44 C :   -0.078788
  45 C :    0.073214
  46 C :   -0.025984
  47 C :   -0.015683
  48 C :   -0.038161
  49 C :    0.096711
  50 C :    0.064908
  51 C :   -0.117702
  52 S :    0.145241
  53 C :   -0.117779
  54 C :    0.067058
  55 C :   -0.002449
  56 C :   -0.062616
  57 S :    0.138638
  58 C :    0.080660
  59 C :    0.014291
  60 C :   -0.019553
  61 C :    0.047750
  62 C :   -0.072651
  63 C :    0.300777
  64 C :   -0.354743
  65 C :   -0.180743
  66 N :    0.149918
  67 C :   -0.190858
  68 N :    0.147628
  69 C :    0.007439
  70 C :    0.014938
  71 C :   -0.046104
  72 C :    0.045442
  73 C :    0.044427
  74 C :   -0.034259
  75 C :    0.247313
  76 C :   -0.395081
  77 C :   -0.124621
  78 N :    0.110137
  79 C :   -0.220049
  80 N :    0.187666
  81 H :    0.004275
  82 H :   -0.000741
  83 H :   -0.005522
  84 H :    0.008871
  85 H :    0.010417
  86 H :   -0.004905
  87 H :    0.042277
  88 H :   -0.012282
  89 H :    0.032897
  90 H :   -0.003842
  91 H :    0.004573
  92 H :   -0.012673
  93 H :   -0.004236
  94 H :   -0.005936
  95 H :    0.005718
  96 H :   -0.032166
  97 H :    0.042472
  98 H :   -0.005585
  99 H :    0.031318
 100 H :    0.003007
 101 H :   -0.021072
 102 H :    0.011538
 103 H :   -0.006091
 104 H :   -0.000381
 105 H :    0.001839
 106 H :    0.003861
Sum of atomic charges:   -0.0000000

LOEWDIN ATOMIC CHARGES
----------------------
   0 C :    0.001434
   1 C :   -0.000228
   2 C :   -0.004187
   3 C :   -0.003350
   4 C :   -0.012616
   5 C :   -0.012967
   6 C :    0.078280
   7 C :   -0.140492
   8 C :   -0.018796
   9 N :   -0.052428
  10 C :   -0.023402
  11 N :   -0.048368
  12 C :   -0.070454
  13 C :    0.062873
  14 C :   -0.143878
  15 C :   -0.019986
  16 N :   -0.040208
  17 C :   -0.017233
  18 N :   -0.053259
  19 C :    0.038151
  20 C :   -0.192954
  21 C :    0.029461
  22 C :   -0.024774
  23 C :   -0.056673
  24 C :   -0.123822
  25 S :    0.474103
  26 C :   -0.179854
  27 C :   -0.043715
  28 C :   -0.058330
  29 C :   -0.156324
  30 S :    0.433346
  31 C :   -0.015107
  32 C :   -0.019220
  33 C :   -0.040343
  34 C :   -0.160200
  35 S :    0.431558
  36 C :   -0.220555
  37 C :   -0.175789
  38 C :   -0.049681
  39 S :    0.421634
  40 C :   -0.185049
  41 C :   -0.041568
  42 C :   -0.167658
  43 S :    0.426050
  44 C :   -0.215818
  45 C :   -0.027967
  46 C :   -0.046211
  47 C :   -0.135784
  48 C :   -0.024685
  49 C :    0.025231
  50 C :   -0.046228
  51 C :   -0.136214
  52 S :    0.480959
  53 C :   -0.202805
  54 C :   -0.031468
  55 C :   -0.060284
  56 C :   -0.159001
  57 S :    0.432692
  58 C :   -0.057658
  59 C :    0.060618
  60 C :   -0.068080
  61 C :    0.063867
  62 C :   -0.088833
  63 C :    0.079447
  64 C :   -0.143370
  65 C :   -0.023180
  66 N :   -0.052553
  67 C :   -0.018722
  68 N :   -0.057310
  69 C :   -0.011228
  70 C :   -0.013110
  71 C :   -0.006580
  72 C :   -0.002034
  73 C :   -0.001352
  74 C :    0.003457
  75 C :    0.073374
  76 C :   -0.172574
  77 C :    0.000844
  78 N :   -0.087025
  79 C :   -0.025422
  80 N :   -0.041926
  81 H :    0.040769
  82 H :    0.035925
  83 H :    0.025184
  84 H :    0.036360
  85 H :    0.042567
  86 H :    0.038160
  87 H :    0.040014
  88 H :    0.033323
  89 H :    0.026375
  90 H :    0.032602
  91 H :    0.028443
  92 H :    0.035034
  93 H :    0.038606
  94 H :    0.021692
  95 H :    0.038303
  96 H :    0.038791
  97 H :    0.039421
  98 H :    0.032926
  99 H :    0.026310
 100 H :    0.033243
 101 H :    0.033010
 102 H :    0.047122
 103 H :    0.036417
 104 H :    0.035492
 105 H :    0.036430
 106 H :    0.040988

  Mayer bond orders larger than 0.100000
B(  0-C ,  1-C ) :   1.3636 B(  0-C ,  5-C ) :   1.3792 B(  0-C , 81-H ) :   0.9842
B(  1-C ,  2-C ) :   1.3762 B(  1-C , 82-H ) :   0.9876 B(  2-C ,  3-C ) :   1.3615
B(  2-C , 83-H ) :   0.9811 B(  3-C ,  4-C ) :   1.3844 B(  3-C , 84-H ) :   0.9810
B(  4-C ,  5-C ) :   1.3168 B(  4-C , 13-C ) :   1.0161 B(  5-C ,  6-C ) :   0.9885
B(  6-C ,  7-C ) :   1.6137 B(  6-C , 12-C ) :   1.0892 B(  7-C ,  8-C ) :   1.1521
B(  7-C , 10-C ) :   1.1372 B(  8-C ,  9-N ) :   2.9734 B( 10-C , 11-N ) :   2.9615
B( 12-C , 13-C ) :   1.0315 B( 12-C , 19-C ) :   1.5497 B( 13-C , 14-C ) :   1.6199
B( 14-C , 15-C ) :   1.1660 B( 14-C , 17-C ) :   1.1441 B( 15-C , 16-N ) :   3.0043
B( 17-C , 18-N ) :   2.9495 B( 19-C , 20-C ) :   1.2438 B( 19-C , 85-H ) :   0.9060
B( 20-C , 21-C ) :   1.4065 B( 20-C , 25-S ) :   1.0489 B( 21-C , 22-C ) :   1.3635
B( 21-C , 86-H ) :   0.9481 B( 22-C , 23-C ) :   1.0489 B( 22-C , 31-C ) :   1.3218
B( 23-C , 24-C ) :   1.5820 B( 23-C , 26-C ) :   1.2029 B( 24-C , 25-S ) :   1.1695
B( 24-C , 87-H ) :   0.9395 B( 26-C , 27-C ) :   1.3950 B( 26-C , 30-S ) :   1.0915
B( 27-C , 28-C ) :   1.2079 B( 27-C , 31-C ) :   1.1390 B( 28-C , 29-C ) :   1.6024
B( 28-C , 88-H ) :   0.9997 B( 29-C , 30-S ) :   1.1408 B( 29-C , 89-H ) :   0.9660
B( 31-C , 32-C ) :   1.1623 B( 32-C , 33-C ) :   1.6571 B( 32-C , 90-H ) :   0.9607
B( 33-C , 34-C ) :   1.1328 B( 33-C , 91-H ) :   0.9462 B( 34-C , 35-S ) :   1.0814
B( 34-C , 38-C ) :   1.5005 B( 35-S , 36-C ) :   1.0774 B( 36-C , 37-C ) :   1.4374
B( 36-C , 44-C ) :   1.3179 B( 37-C , 38-C ) :   1.2903 B( 37-C , 39-S ) :   1.0553
B( 38-C , 92-H ) :   0.9925 B( 39-S , 40-C ) :   1.0560 B( 40-C , 41-C ) :   1.2869
B( 40-C , 44-C ) :   1.4372 B( 41-C , 42-C ) :   1.4973 B( 41-C , 93-H ) :   0.9867
B( 42-C , 43-S ) :   1.0713 B( 42-C , 45-C ) :   1.1547 B( 43-S , 44-C ) :   1.0796
B( 45-C , 46-C ) :   1.6365 B( 45-C , 94-H ) :   0.9493 B( 46-C , 47-C ) :   1.1753
B( 46-C , 95-H ) :   0.9737 B( 47-C , 48-C ) :   1.4664 B( 47-C , 52-S ) :   1.0743
B( 48-C , 49-C ) :   1.2629 B( 48-C , 96-H ) :   0.9763 B( 49-C , 50-C ) :   1.0823
B( 49-C , 58-C ) :   1.2824 B( 50-C , 51-C ) :   1.5805 B( 50-C , 53-C ) :   1.1669
B( 51-C , 52-S ) :   1.1583 B( 51-C , 97-H ) :   0.9408 B( 53-C , 54-C ) :   1.4554
B( 53-C , 57-S ) :   1.0834 B( 54-C , 55-C ) :   1.2294 B( 54-C , 58-C ) :   1.0614
B( 55-C , 56-C ) :   1.5790 B( 55-C , 98-H ) :   1.0013 B( 56-C , 57-S ) :   1.1608
B( 56-C , 99-H ) :   0.9649 B( 58-C , 59-C ) :   1.3230 B( 59-C , 60-C ) :   1.4286
B( 59-C ,100-H ) :   0.9324 B( 60-C , 61-C ) :   1.3494 B( 60-C ,101-H ) :   0.9652
B( 61-C , 62-C ) :   1.4211 B( 61-C ,102-H ) :   0.9254 B( 62-C , 63-C ) :   1.0990
B( 62-C , 75-C ) :   1.0900 B( 63-C , 64-C ) :   1.6038 B( 63-C , 69-C ) :   0.9841
B( 64-C , 65-C ) :   1.1387 B( 64-C , 67-C ) :   1.1514 B( 65-C , 66-N ) :   2.9662
B( 67-C , 68-N ) :   2.9706 B( 69-C , 70-C ) :   1.3156 B( 69-C , 74-C ) :   1.3902
B( 70-C , 71-C ) :   1.3834 B( 70-C , 75-C ) :   1.0211 B( 71-C , 72-C ) :   1.3591
B( 71-C ,103-H ) :   0.9867 B( 72-C , 73-C ) :   1.3862 B( 72-C ,104-H ) :   0.9862
B( 73-C , 74-C ) :   1.3605 B( 73-C ,105-H ) :   0.9866 B( 74-C ,106-H ) :   0.9840
B( 75-C , 76-C ) :   1.5495 B( 76-C , 77-C ) :   1.1390 B( 76-C , 79-C ) :   1.1693
B( 77-C , 78-N ) :   2.8835 B( 79-C , 80-N ) :   3.0084

-----------------------------------------------------------------------------
         ABSORPTION SPECTRUM VIA TRANSITION ELECTRIC DIPOLE MOMENTS
-----------------------------------------------------------------------------
State   Energy  Wavelength   fosc         T2         TX        TY        TZ
        (cm-1)    (nm)                  (au**2)     (au)      (au)      (au)
-----------------------------------------------------------------------------
   0    9874.9   1012.7   0.349931265  11.66611   2.66724   2.02375   0.67558
   1   11986.3    834.3   0.468868661  12.87783  -1.74276  -1.46752  -2.77254
   2   15628.5    639.9   0.133244608   2.80678  -1.32199  -0.93584  -0.42818
   3   17408.7    574.4   0.643153910  12.16255   2.38323  -0.62502   2.46822
   4   17684.5    565.5   0.038782371   0.72197   0.02296  -0.24388  -0.81361
   5   18539.4    539.4   0.845633302  15.01624   2.24386  -2.94724   1.13803
   6   20717.8    482.7   0.068756408   1.09256   0.94107   0.42478   0.16279
   7   21684.6    461.2   0.039990195   0.60712  -0.54379  -0.11036  -0.54703
   8   22412.2    446.2   0.022883519   0.33613   0.04639  -0.38409  -0.43181
   9   22791.6    438.8   0.334958640   4.83830   1.22787  -1.72449   0.59731
  10   22929.4    436.1   0.127729380   1.83389  -0.84150   1.05643   0.09859
  11   23620.3    423.4   0.365886180   5.09959   1.81181  -0.80914   1.07808
  12   23956.2    417.4   0.042889512   0.58940   0.33912  -0.66486   0.17990
  13   24552.2    407.3   0.087809623   1.17741   0.90410  -0.45452   0.39169
  14   24603.2    406.5   0.331224635   4.43207   1.56492  -0.28514   1.37906
  15   25535.7    391.6   0.194270169   2.50458   0.01497  -1.19416  -1.03843
  16   25703.7    389.0   0.209802822   2.68714   0.96250  -0.44152   1.25132
  17   26013.7    384.4   0.015838232   0.20044   0.37119  -0.01397   0.24993
  18   26703.8    374.5   0.212642921   2.62152   1.17754  -0.91059   0.63699
  19   27249.8    367.0   0.089295531   1.07880   0.10069   0.99253   0.28904
  20   27656.1    361.6   0.032370372   0.38533  -0.47146  -0.13253  -0.38143
  21   28605.3    349.6   0.052659431   0.60605  -0.08187   0.46733   0.61721
  22   28829.1    346.9   0.078715347   0.89888   0.64906   0.32626   0.60923
  23   29305.5    341.2   0.086293298   0.96940  -0.36220  -0.76708  -0.49980
  24   29606.7    337.8   0.024223515   0.26935   0.43456   0.15493   0.23771
  25   29751.3    336.1   0.009514669   0.10528  -0.26990  -0.12426  -0.13038
  26   29916.4    334.3   0.005472748   0.06022   0.02456   0.18056   0.16438
  27   30422.3    328.7   0.110525434   1.19604  -0.27807   0.94895   0.46714
  28   30448.0    328.4   0.024008067   0.25958   0.29738   0.30788   0.27632
  29   30464.3    328.3   0.066759728   0.72144   0.36323   0.33928   0.68876
  30   30923.9    323.4   0.038580748   0.41073  -0.51837  -0.34079  -0.16088
  31   31447.1    318.0   0.084946109   0.88928   0.56155  -0.38547   0.65219
  32   31703.3    315.4   0.485867243   5.04532  -0.05270  -2.13552  -0.69434
  33   32072.2    311.8   0.339219310   3.48199   0.34943   0.34565   1.80012
  34   32233.9    310.2   0.212942923   2.17483  -0.03383   1.39377   0.48072
  35   32733.5    305.5   0.030172028   0.30345   0.40453   0.26392  -0.26487
  36   33170.7    301.5   0.015158162   0.15044   0.28480  -0.04955  -0.25861
  37   33412.9    299.3   0.099271744   0.97811  -0.02552  -0.93886  -0.30983
  38   33527.1    298.3   0.036288635   0.35633   0.21975  -0.55449   0.02398
  39   33633.9    297.3   0.033266102   0.32561   0.45269   0.11002  -0.32952
  40   33874.3    295.2   0.064081310   0.62278   0.58004  -0.15758   0.51138
  41   34088.3    293.4   0.006627588   0.06401  -0.11523   0.09892  -0.20235
  42   34307.4    291.5   0.199302878   1.91250  -1.29874  -0.40614  -0.24664
  43   34350.1    291.1   0.247766516   2.37460  -1.06850   1.10288   0.12870
  44   34633.5    288.7   0.021117486   0.20073  -0.32223   0.12687  -0.28427
  45   34707.6    288.1   0.048962862   0.46443   0.18959  -0.61034  -0.23658
  46   35026.5    285.5   0.240903538   2.26424   1.39058  -0.12123   0.56198
  47   35124.8    284.7   0.002909649   0.02727   0.12245   0.01355  -0.10997
  48   35499.7    281.7   0.100258402   0.92976  -0.44599   0.81628  -0.25404
  49   35609.3    280.8   0.048781136   0.45099   0.10911  -0.12873  -0.65001
  50   35872.5    278.8   0.049228263   0.45178  -0.31300   0.49138  -0.33519
  51   35985.7    277.9   0.052540957   0.48067   0.31974  -0.59140  -0.16933
  52   36117.9    276.9   0.136207985   1.24153   0.92719  -0.18088   0.59087
  53   36205.0    276.2   0.056131408   0.51040   0.01260  -0.68626  -0.19822
  54   36819.4    271.6   0.006416043   0.05737  -0.10851   0.19171  -0.09402
  55   37283.3    268.2   0.008615610   0.07608   0.05073   0.20370  -0.17891
  56   37443.3    267.1   0.200004757   1.75850   1.25273  -0.41247   0.13796
  57   37516.2    266.6   0.039803911   0.34929   0.57063  -0.15380   0.00449
  58   37900.2    263.9   0.175895286   1.52788  -1.09206   0.17110  -0.55319
  59   38251.8    261.4   0.403598930   3.47355  -1.58667  -0.66935  -0.71276
  60   38256.6    261.4   0.017871340   0.15379   0.23133   0.21966   0.22809
  61   38633.3    258.8   0.096959796   0.82624  -0.10460  -0.88278   0.18973
  62   38708.0    258.3   0.006236577   0.05304   0.00434  -0.18529   0.13672
  63   39093.7    255.8   0.032949613   0.27747   0.51202   0.04023   0.11700
  64   39147.6    255.4   0.009733016   0.08185   0.24798  -0.09932  -0.10242
  65   39294.1    254.5   0.007504686   0.06288  -0.06924   0.00622  -0.24092
  66   39348.0    254.1   0.005045647   0.04222  -0.09563  -0.09512   0.15500
  67   39435.0    253.6   0.074953356   0.62573  -0.03912   0.78377  -0.09954
  68   39620.8    252.4   0.012997133   0.10799   0.11522   0.08621   0.29544
  69   39679.0    252.0   0.057683620   0.47859   0.25231   0.61728  -0.18412
  70   40060.5    249.6   0.078916395   0.64852   0.68009   0.33733   0.26872
  71   40196.3    248.8   0.117926382   0.96583  -0.81890  -0.00360  -0.54335
  72   40260.7    248.4   0.030743497   0.25139   0.41576   0.15548   0.23316
  73   40298.0    248.2   0.201012409   1.64216   1.08666  -0.36515   0.57271

FINAL SINGLE POINT ENERGY     -5751.074167210829

DIPOLE MOMENT
-------------
                                X             Y             Z
Electronic contribution:    -16.98420      -9.81448     -15.80800
Nuclear contribution   :     16.34116       9.20289      13.31295
                        -----------------------------------------
Total Dipole Moment    :     -0.64303      -0.61158      -2.49505
                        -----------------------------------------
Magnitude (a.u.)       :      2.64817
Magnitude (Debye)      :      6.73112

Rotational constants in cm-1:     0.001158     0.000239     0.000212
Rotational constants in MHz :    34.701127     7.176311     6.361293

                             ****ORCA TERMINATED NORMALLY****
TOTAL RUN TIME: 0 days 0 hours 14 minutes 59 seconds 89 msec
