                         Program Version 4.2.0 -  RELEASE  -
|  1> # ORCA input file
|  2> # SCF done       -211.816807853392          0.000606093452
|  3> ! CAM-B3LYP def2-SVP def2/J RIJCOSX Grid4 TightSCF
|  4> %maxcore 5000
|  5> %tddft
|  6>     Mode sTDDFT
|  7>     Ethresh 5.0
|  8>     maxcore 5000
|  9> end
| 10>
| 11> %pal
| 12>   nprocs 6
| 13>   end
| 14> * xyz 0 1
| 15>    C       -1.41151        -0.78871        -0.73665
| 16>    C       -2.21401        -1.57105        -1.52452
| 17>    C       -3.53681        -1.23996        -1.87881
| 18>    N       -4.62964        -1.03436        -2.16385
| 19>    C       -1.77549        -2.76888        -2.12507
| 20>    N       -1.45927        -3.72113        -2.68229
| 21>    C       -1.69651         0.58852        -0.34138
| 22>    C       -0.48911         1.21510         0.01791
| 23>    C       -0.44738         2.54114         0.39663
| 24>    C       -1.63900         3.25539         0.42995
| 25>    C       -2.84517         2.63500         0.08570
| 26>    C       -2.88284         1.30158        -0.30703
| 27>   Cl       -4.31108         3.52765         0.14641
| 28>   Cl       -1.62778         4.90770         0.89856
| 29>    C        0.61994         0.23785        -0.07000
| 30>    O        1.79790         0.43562         0.11376
| 31>    C       -0.03508        -1.06190        -0.37727
| 32>    C        0.65872        -2.21713        -0.19714
| 33>    C        0.18393        -3.56067        -0.04384
| 34>    C       -1.10789        -3.84458         0.43647
| 35>    C       -1.49293        -5.14762         0.60965
| 36>    C       -0.60722        -6.20200         0.31785
| 37>    C        0.67554        -5.93504        -0.14513
| 38>    C        1.06371        -4.62338        -0.30566
| 39>    C       -1.27700        -7.44954         0.59224
| 40>    C       -2.58128        -7.17501         1.04596
| 41>    C       -2.80134        -5.68301         1.15261
| 42>    C       -2.90564        -5.21323         2.62348
| 43>    C       -4.03669        -5.82268         3.44112
| 44>    C       -4.00346        -5.21342         0.31927
| 45>    C       -3.91659        -5.66322        -1.13463
| 46>    C       -3.45681        -8.20222         1.29921
| 47>    C       -3.03071        -9.53302         1.16228
| 48>    C       -1.71628        -9.78769         0.74521
| 49>    C       -0.84575        -8.76100         0.44690
| 50>    C       -3.94366       -10.61392         1.44616
| 51>    N       -3.50135       -11.88570         1.74535
| 52>    C       -4.58227       -12.68020         1.96665
| 53>    C       -4.97905       -13.97356         2.30141
| 54>    C       -6.37568       -13.96223         2.29823
| 55>    N       -6.81928       -12.69535         1.97045
| 56>    C       -5.74000       -11.89399         1.77236
| 57>    C       -5.33662       -10.59515         1.45603
| 58>    C       -7.30095       -15.01292         2.55744
| 59>    C       -6.96101       -16.24571         2.98952
| 60>    C       -7.85590       -17.34356         3.25451
| 61>    C       -9.20045       -17.34923         2.84943
| 62>    C       -9.99337       -18.43288         3.13479
| 63>    C       -9.47569       -19.53557         3.83678
| 64>    C       -8.14532       -19.54960         4.23734
| 65>    C       -7.35277       -18.46429         3.93581
| 66>    C      -10.53102       -20.50021         4.01837
| 67>    C      -11.70377       -20.01459         3.40541
| 68>    C      -11.43902       -18.67541         2.75275
| 69>    C      -12.37117       -17.58101         3.29395
| 70>    C      -12.22199       -17.38137         4.79806
| 71>    C      -11.48823       -18.75978         1.20909
| 72>    C      -12.84896       -19.06142         0.59649
| 73>    C      -12.87562       -20.72427         3.49063
| 74>    C      -12.89411       -21.94765         4.18509
| 75>    C      -11.72080       -22.40097         4.81555
| 76>    C      -10.54119       -21.70043         4.72131
| 77>    C      -14.08131       -22.73308         4.34500
| 78>    C      -15.12637       -22.88621         3.48198
| 79>    C      -16.33951       -23.63367         3.76922
| 80>    C      -16.79466       -24.00638         5.00616
| 81>    C      -17.99346       -24.71760         5.22528
| 82>    N      -18.95112       -25.30209         5.46759
| 83>    C      -16.15773       -23.71064         6.23060
| 84>    N      -15.71930       -23.49239         7.26927
| 85>    C      -17.03986       -23.84832         2.50727
| 86>    C      -16.32763       -23.20546         1.48123
| 87>    C      -15.11829       -22.55769         2.03627
| 88>    O      -14.27769       -21.96242         1.39854
| 89>    C      -16.75255       -23.23689         0.16891
| 90>    C      -17.92112       -23.92663        -0.12809
| 91>    C      -18.63579       -24.57280         0.88674
| 92>    C      -18.20314       -24.53889         2.20764
| 93>   Cl      -20.07358       -25.43058         0.50374
| 94>   Cl      -18.48667       -23.98732        -1.74851
| 95>    H        0.48786         3.00961         0.65931
| 96>    H       -3.82838         0.85261        -0.56509
| 97>    H        1.72961        -2.08007        -0.07687
| 98>    H       -1.76875        -3.03347         0.70534
| 99>    H        1.35924        -6.74005        -0.36756
|100>    H        2.05602        -4.39588        -0.66636
|101>    H       -3.01779        -4.12649         2.61580
|102>    H       -1.95698        -5.44285         3.11643
|103>    H       -5.00398        -5.63681         2.98227
|104>    H       -4.04378        -5.37422         4.43231
|105>    H       -3.89869        -6.89411         3.55645
|106>    H       -4.05647        -4.12291         0.36145
|107>    H       -4.92044        -5.60818         0.75890
|108>    H       -3.00047        -5.30624        -1.59960
|109>    H       -4.76020        -5.26950        -1.69686
|110>    H       -3.93317        -6.74875        -1.20172
|111>    H       -4.47046        -8.00599         1.60829
|112>    H       -1.38570       -10.80745         0.61119
|113>    H        0.15247        -8.97582         0.09611
|114>    H       -2.53762       -12.14415         1.86235
|115>    H       -4.35663       -14.81959         2.51006
|116>    H       -7.78662       -12.42892         1.90820
|117>    H       -5.95860        -9.75336         1.22803
|118>    H       -8.34246       -14.76261         2.40088
|119>    H       -5.91650       -16.44660         3.18474
|120>    H       -9.60224       -16.50849         2.30486
|121>    H       -7.73837       -20.39640         4.76954
|122>    H       -6.31513       -18.46221         4.23792
|123>    H      -13.40397       -17.85162         3.07275
|124>    H      -12.15002       -16.64397         2.77831
|125>    H      -12.45153       -18.30154         5.33112
|126>    H      -12.90259       -16.60624         5.14309
|127>    H      -11.20604       -17.08495         5.05000
|128>    H      -10.78251       -19.53362         0.89630
|129>    H      -11.12454       -17.80651         0.81676
|130>    H      -13.20632       -20.04152         0.89466
|131>    H      -12.75803       -19.05449        -0.48779
|132>    H      -13.58516       -18.31141         0.87429
|133>    H      -13.79344       -20.33464         3.08398
|134>    H      -11.75266       -23.33053         5.36555
|135>    H       -9.64541       -22.06353         5.20198
|136>    H      -14.11436       -23.31129         5.26181
|137>    H      -16.18948       -22.73732        -0.60354
|138>    H      -18.77590       -25.05346         2.96157
|139> *
|140>
|141>                          ****END OF INPUT****

CARTESIAN COORDINATES (ANGSTROEM)
---------------------------------
  C     -1.411510   -0.788710   -0.736650
  C     -2.214010   -1.571050   -1.524520
  C     -3.536810   -1.239960   -1.878810
  N     -4.629640   -1.034360   -2.163850
  C     -1.775490   -2.768880   -2.125070
  N     -1.459270   -3.721130   -2.682290
  C     -1.696510    0.588520   -0.341380
  C     -0.489110    1.215100    0.017910
  C     -0.447380    2.541140    0.396630
  C     -1.639000    3.255390    0.429950
  C     -2.845170    2.635000    0.085700
  C     -2.882840    1.301580   -0.307030
  Cl    -4.311080    3.527650    0.146410
  Cl    -1.627780    4.907700    0.898560
  C      0.619940    0.237850   -0.070000
  O      1.797900    0.435620    0.113760
  C     -0.035080   -1.061900   -0.377270
  C      0.658720   -2.217130   -0.197140
  C      0.183930   -3.560670   -0.043840
  C     -1.107890   -3.844580    0.436470
  C     -1.492930   -5.147620    0.609650
  C     -0.607220   -6.202000    0.317850
  C      0.675540   -5.935040   -0.145130
  C      1.063710   -4.623380   -0.305660
  C     -1.277000   -7.449540    0.592240
  C     -2.581280   -7.175010    1.045960
  C     -2.801340   -5.683010    1.152610
  C     -2.905640   -5.213230    2.623480
  C     -4.036690   -5.822680    3.441120
  C     -4.003460   -5.213420    0.319270
  C     -3.916590   -5.663220   -1.134630
  C     -3.456810   -8.202220    1.299210
  C     -3.030710   -9.533020    1.162280
  C     -1.716280   -9.787690    0.745210
  C     -0.845750   -8.761000    0.446900
  C     -3.943660  -10.613920    1.446160
  N     -3.501350  -11.885700    1.745350
  C     -4.582270  -12.680200    1.966650
  C     -4.979050  -13.973560    2.301410
  C     -6.375680  -13.962230    2.298230
  N     -6.819280  -12.695350    1.970450
  C     -5.740000  -11.893990    1.772360
  C     -5.336620  -10.595150    1.456030
  C     -7.300950  -15.012920    2.557440
  C     -6.961010  -16.245710    2.989520
  C     -7.855900  -17.343560    3.254510
  C     -9.200450  -17.349230    2.849430
  C     -9.993370  -18.432880    3.134790
  C     -9.475690  -19.535570    3.836780
  C     -8.145320  -19.549600    4.237340
  C     -7.352770  -18.464290    3.935810
  C    -10.531020  -20.500210    4.018370
  C    -11.703770  -20.014590    3.405410
  C    -11.439020  -18.675410    2.752750
  C    -12.371170  -17.581010    3.293950
  C    -12.221990  -17.381370    4.798060
  C    -11.488230  -18.759780    1.209090
  C    -12.848960  -19.061420    0.596490
  C    -12.875620  -20.724270    3.490630
  C    -12.894110  -21.947650    4.185090
  C    -11.720800  -22.400970    4.815550
  C    -10.541190  -21.700430    4.721310
  C    -14.081310  -22.733080    4.345000
  C    -15.126370  -22.886210    3.481980
  C    -16.339510  -23.633670    3.769220
  C    -16.794660  -24.006380    5.006160
  C    -17.993460  -24.717600    5.225280
  N    -18.951120  -25.302090    5.467590
  C    -16.157730  -23.710640    6.230600
  N    -15.719300  -23.492390    7.269270
  C    -17.039860  -23.848320    2.507270
  C    -16.327630  -23.205460    1.481230
  C    -15.118290  -22.557690    2.036270
  O    -14.277690  -21.962420    1.398540
  C    -16.752550  -23.236890    0.168910
  C    -17.921120  -23.926630   -0.128090
  C    -18.635790  -24.572800    0.886740
  C    -18.203140  -24.538890    2.207640
  Cl   -20.073580  -25.430580    0.503740
  Cl   -18.486670  -23.987320   -1.748510
  H      0.487860    3.009610    0.659310
  H     -3.828380    0.852610   -0.565090
  H      1.729610   -2.080070   -0.076870
  H     -1.768750   -3.033470    0.705340
  H      1.359240   -6.740050   -0.367560
  H      2.056020   -4.395880   -0.666360
  H     -3.017790   -4.126490    2.615800
  H     -1.956980   -5.442850    3.116430
  H     -5.003980   -5.636810    2.982270
  H     -4.043780   -5.374220    4.432310
  H     -3.898690   -6.894110    3.556450
  H     -4.056470   -4.122910    0.361450
  H     -4.920440   -5.608180    0.758900
  H     -3.000470   -5.306240   -1.599600
  H     -4.760200   -5.269500   -1.696860
  H     -3.933170   -6.748750   -1.201720
  H     -4.470460   -8.005990    1.608290
  H     -1.385700  -10.807450    0.611190
  H      0.152470   -8.975820    0.096110
  H     -2.537620  -12.144150    1.862350
  H     -4.356630  -14.819590    2.510060
  H     -7.786620  -12.428920    1.908200
  H     -5.958600   -9.753360    1.228030
  H     -8.342460  -14.762610    2.400880
  H     -5.916500  -16.446600    3.184740
  H     -9.602240  -16.508490    2.304860
  H     -7.738370  -20.396400    4.769540
  H     -6.315130  -18.462210    4.237920
  H    -13.403970  -17.851620    3.072750
  H    -12.150020  -16.643970    2.778310
  H    -12.451530  -18.301540    5.331120
  H    -12.902590  -16.606240    5.143090
  H    -11.206040  -17.084950    5.050000
  H    -10.782510  -19.533620    0.896300
  H    -11.124540  -17.806510    0.816760
  H    -13.206320  -20.041520    0.894660
  H    -12.758030  -19.054490   -0.487790
  H    -13.585160  -18.311410    0.874290
  H    -13.793440  -20.334640    3.083980
  H    -11.752660  -23.330530    5.365550
  H     -9.645410  -22.063530    5.201980
  H    -14.114360  -23.311290    5.261810
  H    -16.189480  -22.737320   -0.603540
  H    -18.775900  -25.053460    2.961570

 Total Charge           Charge          ....    0
 Multiplicity           Mult            ....    1
 Number of Electrons    NEL             ....  578
 Basis Dimension        Dim             .... 1356

ORBITAL ENERGIES
----------------

  NO   OCC          E(Eh)            E(eV)
   0   2.0000    -101.602110     -2764.7340
   1   2.0000    -101.601983     -2764.7305
   2   2.0000    -101.601471     -2764.7166
   3   2.0000    -101.600269     -2764.6839
   4   2.0000     -19.223833      -523.1071
   5   2.0000     -19.220422      -523.0143
   6   2.0000     -14.452901      -393.2834
   7   2.0000     -14.452430      -393.2706
   8   2.0000     -14.421289      -392.4232
   9   2.0000     -14.418675      -392.3521
  10   2.0000     -14.418487      -392.3470
  11   2.0000     -14.417977      -392.3331
  12   2.0000     -10.376176      -282.3501
  13   2.0000     -10.371950      -282.2351
  14   2.0000     -10.358839      -281.8783
  15   2.0000     -10.358146      -281.8595
  16   2.0000     -10.358129      -281.8590
  17   2.0000     -10.357769      -281.8492
  18   2.0000     -10.348567      -281.5988
  19   2.0000     -10.347672      -281.5745
  20   2.0000     -10.347499      -281.5698
  21   2.0000     -10.345746      -281.5221
  22   2.0000     -10.323361      -280.9129
  23   2.0000     -10.321119      -280.8519
  24   2.0000     -10.320851      -280.8446
  25   2.0000     -10.319999      -280.8215
  26   2.0000     -10.319246      -280.8010
  27   2.0000     -10.318802      -280.7889
  28   2.0000     -10.317565      -280.7552
  29   2.0000     -10.317388      -280.7504
  30   2.0000     -10.312004      -280.6039
  31   2.0000     -10.311758      -280.5972
  32   2.0000     -10.311360      -280.5864
  33   2.0000     -10.310751      -280.5698
  34   2.0000     -10.304234      -280.3925
  35   2.0000     -10.303443      -280.3709
  36   2.0000     -10.300584      -280.2931
  37   2.0000     -10.299778      -280.2712
  38   2.0000     -10.298200      -280.2283
  39   2.0000     -10.297930      -280.2209
  40   2.0000     -10.290592      -280.0213
  41   2.0000     -10.288596      -279.9669
  42   2.0000     -10.287953      -279.9494
  43   2.0000     -10.285100      -279.8718
  44   2.0000     -10.284917      -279.8668
  45   2.0000     -10.284878      -279.8658
  46   2.0000     -10.284426      -279.8535
  47   2.0000     -10.284412      -279.8531
  48   2.0000     -10.284283      -279.8496
  49   2.0000     -10.283645      -279.8322
  50   2.0000     -10.283220      -279.8206
  51   2.0000     -10.281290      -279.7681
  52   2.0000     -10.280508      -279.7468
  53   2.0000     -10.280041      -279.7341
  54   2.0000     -10.279188      -279.7109
  55   2.0000     -10.278626      -279.6956
  56   2.0000     -10.278349      -279.6881
  57   2.0000     -10.277440      -279.6634
  58   2.0000     -10.275913      -279.6218
  59   2.0000     -10.275869      -279.6206
  60   2.0000     -10.274870      -279.5934
  61   2.0000     -10.274311      -279.5782
  62   2.0000     -10.273583      -279.5584
  63   2.0000     -10.273168      -279.5471
  64   2.0000     -10.271671      -279.5064
  65   2.0000     -10.271341      -279.4974
  66   2.0000     -10.270545      -279.4757
  67   2.0000     -10.268835      -279.4292
  68   2.0000     -10.268826      -279.4290
  69   2.0000     -10.268282      -279.4141
  70   2.0000     -10.268086      -279.4088
  71   2.0000     -10.264388      -279.3082
  72   2.0000     -10.263513      -279.2844
  73   2.0000     -10.260498      -279.2024
  74   2.0000     -10.258799      -279.1561
  75   2.0000     -10.257251      -279.1140
  76   2.0000     -10.254551      -279.0405
  77   2.0000     -10.248234      -278.8686
  78   2.0000     -10.241404      -278.6828
  79   2.0000     -10.239518      -278.6314
  80   2.0000      -9.557107      -260.0621
  81   2.0000      -9.556992      -260.0590
  82   2.0000      -9.556442      -260.0440
  83   2.0000      -9.555333      -260.0138
  84   2.0000      -7.327520      -199.3920
  85   2.0000      -7.327397      -199.3886
  86   2.0000      -7.326865      -199.3741
  87   2.0000      -7.325743      -199.3436
  88   2.0000      -7.317357      -199.1154
  89   2.0000      -7.317247      -199.1124
  90   2.0000      -7.316692      -199.0973
  91   2.0000      -7.316629      -199.0956
  92   2.0000      -7.316516      -199.0925
  93   2.0000      -7.315962      -199.0774
  94   2.0000      -7.315569      -199.0667
  95   2.0000      -7.314850      -199.0472
  96   2.0000      -1.139594       -31.0099
  97   2.0000      -1.135802       -30.9068
  98   2.0000      -1.083733       -29.4899
  99   2.0000      -1.047909       -28.5150
 100   2.0000      -1.033725       -28.1291
 101   2.0000      -1.033068       -28.1112
 102   2.0000      -1.018873       -27.7250
 103   2.0000      -1.018001       -27.7012
 104   2.0000      -0.998825       -27.1794
 105   2.0000      -0.996899       -27.1270
 106   2.0000      -0.993803       -27.0427
 107   2.0000      -0.993722       -27.0405
 108   2.0000      -0.992762       -27.0144
 109   2.0000      -0.991095       -26.9691
 110   2.0000      -0.963875       -26.2284
 111   2.0000      -0.963273       -26.2120
 112   2.0000      -0.954743       -25.9799
 113   2.0000      -0.953853       -25.9557
 114   2.0000      -0.935866       -25.4662
 115   2.0000      -0.935773       -25.4637
 116   2.0000      -0.923851       -25.1393
 117   2.0000      -0.923257       -25.1231
 118   2.0000      -0.903624       -24.5889
 119   2.0000      -0.902533       -24.5592
 120   2.0000      -0.894323       -24.3358
 121   2.0000      -0.888721       -24.1833
 122   2.0000      -0.881212       -23.9790
 123   2.0000      -0.869197       -23.6521
 124   2.0000      -0.863374       -23.4936
 125   2.0000      -0.862883       -23.4802
 126   2.0000      -0.861036       -23.4300
 127   2.0000      -0.855665       -23.2838
 128   2.0000      -0.847547       -23.0629
 129   2.0000      -0.842325       -22.9208
 130   2.0000      -0.838771       -22.8241
 131   2.0000      -0.837102       -22.7787
 132   2.0000      -0.834250       -22.7011
 133   2.0000      -0.833351       -22.6766
 134   2.0000      -0.831589       -22.6287
 135   2.0000      -0.821849       -22.3636
 136   2.0000      -0.811616       -22.0852
 137   2.0000      -0.786575       -21.4038
 138   2.0000      -0.778372       -21.1806
 139   2.0000      -0.769999       -20.9527
 140   2.0000      -0.768622       -20.9153
 141   2.0000      -0.767270       -20.8785
 142   2.0000      -0.764445       -20.8016
 143   2.0000      -0.756638       -20.5892
 144   2.0000      -0.743257       -20.2251
 145   2.0000      -0.730334       -19.8734
 146   2.0000      -0.714303       -19.4372
 147   2.0000      -0.712736       -19.3945
 148   2.0000      -0.712507       -19.3883
 149   2.0000      -0.700171       -19.0526
 150   2.0000      -0.697334       -18.9754
 151   2.0000      -0.692966       -18.8566
 152   2.0000      -0.691749       -18.8234
 153   2.0000      -0.689238       -18.7551
 154   2.0000      -0.689106       -18.7515
 155   2.0000      -0.688309       -18.7298
 156   2.0000      -0.680936       -18.5292
 157   2.0000      -0.679359       -18.4863
 158   2.0000      -0.673015       -18.3137
 159   2.0000      -0.671656       -18.2767
 160   2.0000      -0.668080       -18.1794
 161   2.0000      -0.664492       -18.0818
 162   2.0000      -0.656398       -17.8615
 163   2.0000      -0.643278       -17.5045
 164   2.0000      -0.638806       -17.3828
 165   2.0000      -0.630883       -17.1672
 166   2.0000      -0.629635       -17.1332
 167   2.0000      -0.624659       -16.9978
 168   2.0000      -0.621172       -16.9029
 169   2.0000      -0.620624       -16.8880
 170   2.0000      -0.604594       -16.4518
 171   2.0000      -0.599801       -16.3214
 172   2.0000      -0.597246       -16.2519
 173   2.0000      -0.596250       -16.2248
 174   2.0000      -0.593758       -16.1570
 175   2.0000      -0.583014       -15.8646
 176   2.0000      -0.580694       -15.8015
 177   2.0000      -0.573365       -15.6021
 178   2.0000      -0.570330       -15.5195
 179   2.0000      -0.563188       -15.3251
 180   2.0000      -0.559943       -15.2368
 181   2.0000      -0.554443       -15.0872
 182   2.0000      -0.552465       -15.0333
 183   2.0000      -0.550189       -14.9714
 184   2.0000      -0.548311       -14.9203
 185   2.0000      -0.547753       -14.9051
 186   2.0000      -0.547068       -14.8865
 187   2.0000      -0.545189       -14.8354
 188   2.0000      -0.544013       -14.8034
 189   2.0000      -0.538842       -14.6626
 190   2.0000      -0.536355       -14.5950
 191   2.0000      -0.535208       -14.5637
 192   2.0000      -0.532759       -14.4971
 193   2.0000      -0.531147       -14.4532
 194   2.0000      -0.530365       -14.4320
 195   2.0000      -0.527853       -14.3636
 196   2.0000      -0.526872       -14.3369
 197   2.0000      -0.526720       -14.3328
 198   2.0000      -0.524941       -14.2844
 199   2.0000      -0.523822       -14.2539
 200   2.0000      -0.519799       -14.1445
 201   2.0000      -0.517946       -14.0940
 202   2.0000      -0.516024       -14.0417
 203   2.0000      -0.513301       -13.9676
 204   2.0000      -0.511606       -13.9215
 205   2.0000      -0.509281       -13.8582
 206   2.0000      -0.508475       -13.8363
 207   2.0000      -0.505737       -13.7618
 208   2.0000      -0.504158       -13.7188
 209   2.0000      -0.502625       -13.6771
 210   2.0000      -0.499734       -13.5985
 211   2.0000      -0.497450       -13.5363
 212   2.0000      -0.496984       -13.5236
 213   2.0000      -0.495163       -13.4741
 214   2.0000      -0.491402       -13.3717
 215   2.0000      -0.487266       -13.2592
 216   2.0000      -0.484763       -13.1911
 217   2.0000      -0.481476       -13.1016
 218   2.0000      -0.480501       -13.0751
 219   2.0000      -0.476361       -12.9624
 220   2.0000      -0.474301       -12.9064
 221   2.0000      -0.471789       -12.8380
 222   2.0000      -0.470567       -12.8048
 223   2.0000      -0.468831       -12.7575
 224   2.0000      -0.467465       -12.7204
 225   2.0000      -0.461085       -12.5468
 226   2.0000      -0.456224       -12.4145
 227   2.0000      -0.454069       -12.3559
 228   2.0000      -0.453126       -12.3302
 229   2.0000      -0.452415       -12.3108
 230   2.0000      -0.451983       -12.2991
 231   2.0000      -0.449630       -12.2350
 232   2.0000      -0.449455       -12.2303
 233   2.0000      -0.446184       -12.1413
 234   2.0000      -0.444861       -12.1053
 235   2.0000      -0.444310       -12.0903
 236   2.0000      -0.441911       -12.0250
 237   2.0000      -0.440248       -11.9797
 238   2.0000      -0.439426       -11.9574
 239   2.0000      -0.438360       -11.9284
 240   2.0000      -0.434917       -11.8347
 241   2.0000      -0.434146       -11.8137
 242   2.0000      -0.433951       -11.8084
 243   2.0000      -0.431677       -11.7465
 244   2.0000      -0.430837       -11.7237
 245   2.0000      -0.430227       -11.7071
 246   2.0000      -0.430013       -11.7013
 247   2.0000      -0.428362       -11.6563
 248   2.0000      -0.428304       -11.6547
 249   2.0000      -0.426175       -11.5968
 250   2.0000      -0.424381       -11.5480
 251   2.0000      -0.423086       -11.5128
 252   2.0000      -0.421869       -11.4796
 253   2.0000      -0.418095       -11.3769
 254   2.0000      -0.414655       -11.2833
 255   2.0000      -0.412497       -11.2246
 256   2.0000      -0.411535       -11.1984
 257   2.0000      -0.409712       -11.1488
 258   2.0000      -0.409212       -11.1352
 259   2.0000      -0.406047       -11.0491
 260   2.0000      -0.402238       -10.9455
 261   2.0000      -0.396263       -10.7829
 262   2.0000      -0.394014       -10.7217
 263   2.0000      -0.389138       -10.5890
 264   2.0000      -0.388131       -10.5616
 265   2.0000      -0.386290       -10.5115
 266   2.0000      -0.384044       -10.4504
 267   2.0000      -0.383701       -10.4410
 268   2.0000      -0.383078       -10.4241
 269   2.0000      -0.378705       -10.3051
 270   2.0000      -0.372742       -10.1428
 271   2.0000      -0.365192        -9.9374
 272   2.0000      -0.352739        -9.5985
 273   2.0000      -0.350151        -9.5281
 274   2.0000      -0.344777        -9.3819
 275   2.0000      -0.343731        -9.3534
 276   2.0000      -0.338967        -9.2238
 277   2.0000      -0.331274        -9.0144
 278   2.0000      -0.327350        -8.9076
 279   2.0000      -0.322858        -8.7854
 280   2.0000      -0.320324        -8.7165
 281   2.0000      -0.317067        -8.6278
 282   2.0000      -0.316150        -8.6029
 283   2.0000      -0.312522        -8.5042
 284   2.0000      -0.308220        -8.3871
 285   2.0000      -0.286768        -7.8034
 286   2.0000      -0.282065        -7.6754
 287   2.0000      -0.267515        -7.2794
 288   2.0000      -0.217299        -5.9130
 289   0.0000      -0.092232        -2.5097
 290   0.0000      -0.090424        -2.4606
 291   0.0000      -0.068806        -1.8723
 292   0.0000      -0.064747        -1.7619
 293   0.0000      -0.034681        -0.9437

MULLIKEN ATOMIC CHARGES
-----------------------
   0 C :    0.260018
   1 C :   -0.347909
   2 C :   -0.177903
   3 N :    0.161562
   4 C :   -0.162509
   5 N :    0.164686
   6 C :    0.017582
   7 C :    0.005078
   8 C :   -0.033065
   9 C :    0.058801
  10 C :    0.052655
  11 C :   -0.019943
  12 Cl:   -0.036780
  13 Cl:   -0.042657
  14 C :    0.136912
  15 O :   -0.137072
  16 C :   -0.119496
  17 C :    0.030018
  18 C :    0.066597
  19 C :   -0.068867
  20 C :    0.013035
  21 C :    0.127434
  22 C :   -0.047272
  23 C :    0.019817
  24 C :    0.084757
  25 C :    0.036098
  26 C :   -0.127871
  27 C :    0.074826
  28 C :    0.031587
  29 C :    0.053066
  30 C :    0.016425
  31 C :   -0.115885
  32 C :    0.142753
  33 C :   -0.048084
  34 C :   -0.045214
  35 C :    0.065759
  36 N :   -0.037183
  37 C :    0.104162
  38 C :   -0.174769
  39 C :    0.097610
  40 N :   -0.035148
  41 C :    0.112111
  42 C :   -0.180227
  43 C :    0.033244
  44 C :   -0.036778
  45 C :    0.140061
  46 C :   -0.100776
  47 C :    0.031695
  48 C :    0.082298
  49 C :   -0.036848
  50 C :   -0.022642
  51 C :    0.112428
  52 C :   -0.001198
  53 C :   -0.133131
  54 C :    0.049444
  55 C :    0.023659
  56 C :    0.077609
  57 C :    0.023435
  58 C :   -0.009503
  59 C :    0.080242
  60 C :    0.004895
  61 C :   -0.052313
  62 C :   -0.032159
  63 C :   -0.084639
  64 C :    0.294779
  65 C :   -0.334070
  66 C :   -0.189772
  67 N :    0.157621
  68 C :   -0.204658
  69 N :    0.164374
  70 C :    0.034190
  71 C :   -0.026053
  72 C :    0.151731
  73 O :   -0.130854
  74 C :   -0.028413
  75 C :    0.063477
  76 C :    0.048202
  77 C :   -0.012260
  78 Cl:   -0.034719
  79 Cl:   -0.043003
  80 H :    0.000862
  81 H :    0.002096
  82 H :    0.023421
  83 H :   -0.021528
  84 H :   -0.030171
  85 H :   -0.018710
  86 H :   -0.003874
  87 H :    0.003744
  88 H :    0.003621
  89 H :    0.012055
  90 H :    0.025191
  91 H :   -0.004323
  92 H :    0.002351
  93 H :    0.031632
  94 H :    0.012796
  95 H :    0.016001
  96 H :   -0.037574
  97 H :   -0.044996
  98 H :   -0.034463
  99 H :    0.120841
 100 H :   -0.040026
 101 H :    0.117807
 102 H :   -0.038670
 103 H :   -0.036847
 104 H :   -0.026789
 105 H :   -0.045694
 106 H :   -0.035660
 107 H :   -0.030381
 108 H :    0.010168
 109 H :   -0.004991
 110 H :    0.019771
 111 H :    0.009247
 112 H :    0.020976
 113 H :    0.003184
 114 H :   -0.008732
 115 H :    0.032436
 116 H :    0.007061
 117 H :   -0.003060
 118 H :   -0.028776
 119 H :   -0.016142
 120 H :   -0.029699
 121 H :    0.031782
 122 H :   -0.001437
 123 H :    0.000412
Sum of atomic charges:   -0.0000000

LOEWDIN ATOMIC CHARGES
----------------------
   0 C :    0.066331
   1 C :   -0.135704
   2 C :   -0.022403
   3 N :   -0.047329
   4 C :   -0.011405
   5 N :   -0.035094
   6 C :   -0.011894
   7 C :   -0.044840
   8 C :    0.001606
   9 C :   -0.134818
  10 C :   -0.129894
  11 C :   -0.015615
  12 Cl:    0.161571
  13 Cl:    0.158412
  14 C :    0.084092
  15 O :   -0.137241
  16 C :   -0.102241
  17 C :    0.088331
  18 C :   -0.047882
  19 C :    0.001254
  20 C :    0.007234
  21 C :    0.012167
  22 C :   -0.019307
  23 C :    0.010948
  24 C :   -0.030102
  25 C :    0.013489
  26 C :   -0.034245
  27 C :   -0.009712
  28 C :   -0.058693
  29 C :   -0.014886
  30 C :   -0.060670
  31 C :   -0.019869
  32 C :   -0.014845
  33 C :   -0.035186
  34 C :   -0.008548
  35 C :   -0.000251
  36 N :    0.068650
  37 C :   -0.024748
  38 C :   -0.094630
  39 C :   -0.007807
  40 N :    0.069528
  41 C :   -0.027184
  42 C :   -0.098545
  43 C :   -0.027070
  44 C :   -0.030853
  45 C :   -0.011728
  46 C :   -0.024010
  47 C :    0.015009
  48 C :   -0.031817
  49 C :   -0.011964
  50 C :   -0.023188
  51 C :    0.014428
  52 C :   -0.002252
  53 C :   -0.034093
  54 C :   -0.014899
  55 C :   -0.056927
  56 C :   -0.009292
  57 C :   -0.065414
  58 C :    0.021921
  59 C :   -0.048707
  60 C :    0.008386
  61 C :   -0.027427
  62 C :    0.091021
  63 C :   -0.105118
  64 C :    0.074858
  65 C :   -0.134687
  66 C :   -0.020042
  67 N :   -0.046620
  68 C :   -0.025326
  69 N :   -0.045374
  70 C :   -0.014208
  71 C :   -0.043827
  72 C :    0.087493
  73 O :   -0.130143
  74 C :    0.000716
  75 C :   -0.134042
  76 C :   -0.130201
  77 C :   -0.012004
  78 Cl:    0.162240
  79 Cl:    0.158737
  80 H :    0.046393
  81 H :    0.044040
  82 H :    0.047086
  83 H :    0.025777
  84 H :    0.029363
  85 H :    0.031417
  86 H :    0.019559
  87 H :    0.025805
  88 H :    0.019910
  89 H :    0.027907
  90 H :    0.025696
  91 H :    0.019025
  92 H :    0.018843
  93 H :    0.025377
  94 H :    0.026309
  95 H :    0.024034
  96 H :    0.025186
  97 H :    0.019487
  98 H :    0.027728
  99 H :    0.084970
 100 H :    0.021315
 101 H :    0.086745
 102 H :    0.021873
 103 H :    0.022820
 104 H :    0.025967
 105 H :    0.020553
 106 H :    0.027034
 107 H :    0.025640
 108 H :    0.020922
 109 H :    0.019319
 110 H :    0.025139
 111 H :    0.023989
 112 H :    0.024836
 113 H :    0.026390
 114 H :    0.017591
 115 H :    0.025421
 116 H :    0.026679
 117 H :    0.017216
 118 H :    0.028122
 119 H :    0.031396
 120 H :    0.029138
 121 H :    0.046334
 122 H :    0.045522
 123 H :    0.044521

  Mayer bond orders larger than 0.100000
B(  0-C ,  1-C ) :   1.6608 B(  0-C ,  6-C ) :   1.0069 B(  0-C , 16-C ) :   1.0280
B(  1-C ,  2-C ) :   1.1300 B(  1-C ,  4-C ) :   1.1743 B(  2-C ,  3-N ) :   2.9873
B(  4-C ,  5-N ) :   2.9189 B(  6-C ,  7-C ) :   1.3309 B(  6-C , 11-C ) :   1.3461
B(  7-C ,  8-C ) :   1.3457 B(  7-C , 14-C ) :   0.9184 B(  8-C ,  9-C ) :   1.3448
B(  8-C , 80-H ) :   1.0172 B(  9-C , 10-C ) :   1.4088 B(  9-C , 13-Cl) :   1.0481
B( 10-C , 11-C ) :   1.3560 B( 10-C , 12-Cl) :   1.0689 B( 11-C , 81-H ) :   0.9916
B( 14-C , 15-O ) :   2.2718 B( 14-C , 16-C ) :   0.9442 B( 16-C , 17-C ) :   1.6565
B( 17-C , 18-C ) :   1.0726 B( 17-C , 82-H ) :   0.9461 B( 18-C , 19-C ) :   1.2663
B( 18-C , 23-C ) :   1.3249 B( 19-C , 20-C ) :   1.4504 B( 19-C , 83-H ) :   0.9891
B( 20-C , 21-C ) :   1.3607 B( 20-C , 26-C ) :   0.9225 B( 21-C , 22-C ) :   1.3267
B( 21-C , 24-C ) :   1.0048 B( 22-C , 23-C ) :   1.3838 B( 22-C , 84-H ) :   0.9910
B( 23-C , 85-H ) :   0.9931 B( 24-C , 25-C ) :   1.3686 B( 24-C , 34-C ) :   1.3344
B( 25-C , 26-C ) :   0.9179 B( 25-C , 31-C ) :   1.3951 B( 26-C , 27-C ) :   1.0145
B( 26-C , 29-C ) :   1.0275 B( 27-C , 28-C ) :   1.1178 B( 27-C , 86-H ) :   0.9370
B( 27-C , 87-H ) :   0.9391 B( 28-C , 88-H ) :   0.9625 B( 28-C , 89-H ) :   0.9582
B( 28-C , 90-H ) :   0.9606 B( 29-C , 30-C ) :   1.1029 B( 29-C , 91-H ) :   0.9402
B( 29-C , 92-H ) :   0.9355 B( 30-C , 93-H ) :   0.9580 B( 30-C , 94-H ) :   0.9620
B( 30-C , 95-H ) :   0.9571 B( 31-C , 32-C ) :   1.3117 B( 31-C , 96-H ) :   1.0008
B( 32-C , 33-C ) :   1.3237 B( 32-C , 35-C ) :   1.0043 B( 33-C , 34-C ) :   1.3944
B( 33-C , 97-H ) :   0.9890 B( 34-C , 98-H ) :   0.9890 B( 35-C , 36-N ) :   1.2064
B( 35-C , 42-C ) :   1.4439 B( 36-N , 37-C ) :   1.1578 B( 36-N , 99-H ) :   0.9331
B( 37-C , 38-C ) :   1.2520 B( 37-C , 41-C ) :   1.3335 B( 38-C , 39-C ) :   1.4187
B( 38-C ,100-H ) :   1.0311 B( 39-C , 40-N ) :   1.1726 B( 39-C , 43-C ) :   1.0958
B( 40-N , 41-C ) :   1.1665 B( 40-N ,101-H ) :   0.9371 B( 41-C , 42-C ) :   1.2281
B( 42-C ,102-H ) :   1.0298 B( 43-C , 44-C ) :   1.6927 B( 43-C ,103-H ) :   0.9566
B( 44-C , 45-C ) :   1.0702 B( 44-C ,104-H ) :   0.9839 B( 45-C , 46-C ) :   1.2998
B( 45-C , 50-C ) :   1.3238 B( 46-C , 47-C ) :   1.4075 B( 46-C ,105-H ) :   0.9962
B( 47-C , 48-C ) :   1.3632 B( 47-C , 53-C ) :   0.9282 B( 48-C , 49-C ) :   1.3292
B( 48-C , 51-C ) :   1.0117 B( 49-C , 50-C ) :   1.3891 B( 49-C ,106-H ) :   0.9900
B( 50-C ,107-H ) :   0.9929 B( 51-C , 52-C ) :   1.3577 B( 51-C , 61-C ) :   1.3211
B( 52-C , 53-C ) :   0.9160 B( 52-C , 58-C ) :   1.4417 B( 53-C , 54-C ) :   1.0296
B( 53-C , 56-C ) :   1.0145 B( 54-C , 55-C ) :   1.1022 B( 54-C ,108-H ) :   0.9393
B( 54-C ,109-H ) :   0.9393 B( 55-C ,110-H ) :   0.9656 B( 55-C ,111-H ) :   0.9648
B( 55-C ,112-H ) :   0.9630 B( 56-C , 57-C ) :   1.1126 B( 56-C ,113-H ) :   0.9385
B( 56-C ,114-H ) :   0.9365 B( 57-C ,115-H ) :   0.9532 B( 57-C ,116-H ) :   0.9545
B( 57-C ,117-H ) :   0.9586 B( 58-C , 59-C ) :   1.2868 B( 58-C ,118-H ) :   0.9877
B( 59-C , 60-C ) :   1.2919 B( 59-C , 62-C ) :   1.1087 B( 60-C , 61-C ) :   1.3984
B( 60-C ,119-H ) :   0.9938 B( 61-C ,120-H ) :   0.9939 B( 62-C , 63-C ) :   1.5904
B( 62-C ,121-H ) :   0.9519 B( 63-C , 64-C ) :   1.0598 B( 63-C , 72-C ) :   0.9491
B( 64-C , 65-C ) :   1.6533 B( 64-C , 70-C ) :   0.9963 B( 65-C , 66-C ) :   1.1377
B( 65-C , 68-C ) :   1.1397 B( 66-C , 67-N ) :   2.9755 B( 68-C , 69-N ) :   2.9944
B( 70-C , 71-C ) :   1.3271 B( 70-C , 77-C ) :   1.3370 B( 71-C , 72-C ) :   0.9447
B( 71-C , 74-C ) :   1.3487 B( 72-C , 73-O ) :   2.1777 B( 74-C , 75-C ) :   1.3405
B( 74-C ,122-H ) :   1.0171 B( 75-C , 76-C ) :   1.4055 B( 75-C , 79-Cl) :   1.0470
B( 76-C , 77-C ) :   1.3609 B( 76-C , 78-Cl) :   1.0758 B( 77-C ,123-H ) :   0.9881

-----------------------------------------------------------------------------
         ABSORPTION SPECTRUM VIA TRANSITION ELECTRIC DIPOLE MOMENTS
-----------------------------------------------------------------------------
State   Energy  Wavelength   fosc         T2         TX        TY        TZ
        (cm-1)    (nm)                  (au**2)     (au)      (au)      (au)
-----------------------------------------------------------------------------
   0   16357.7    611.3   1.355415511  27.27876  -2.40026  -4.53872   0.95789
   1   17888.9    559.0   0.512880200   9.43863  -2.62824  -1.58899   0.07799
   2   22709.8    440.3   0.445407558   6.45685  -1.50047  -2.04712   0.12140
   3   23583.5    424.0   0.177570918   2.47878  -0.66358  -1.37832   0.37241
   4   24373.7    410.3   0.298234558   4.02821   0.75735  -1.72963   0.68045
   5   25023.7    399.6   0.379385167   4.99118  -1.89238  -1.18387   0.09229
   6   26684.7    374.7   0.635048335   7.83465   1.60125   2.16928  -0.75158
   7   28253.1    353.9   0.028123776   0.32771   0.29551   0.48235   0.08784
   8   29931.3    334.1   0.067682415   0.74443  -0.31053  -0.18882  -0.78253
   9   30241.1    330.7   0.064571714   0.70294  -0.75816  -0.16715  -0.31654
  10   31068.8    321.9   0.016012369   0.16967   0.09152  -0.31849  -0.24467
  11   31276.6    319.7   0.157114540   1.65376   0.20271   0.37391   1.21362
  12   31451.0    318.0   0.204130770   2.13673   0.19758   1.44627   0.07750
  13   31513.7    317.3   0.018102854   0.18911  -0.36685  -0.17674  -0.15265
  14   31923.3    313.3   0.174821491   1.80286  -0.70966  -0.88829  -0.71427
  15   32014.5    312.4   0.037335704   0.38393   0.30342   0.39679  -0.36664
  16   32145.6    311.1   0.067611501   0.69243   0.12255  -0.82305   0.00080
  17   32460.6    308.1   0.147867428   1.49966  -0.38546  -1.00859  -0.57778
  18   33072.5    302.4   0.086530754   0.86135  -0.10848  -0.91650  -0.09805
  19   33364.2    299.7   0.082191866   0.81100  -0.63679   0.55013  -0.32070
  20   33593.6    297.7   0.024557450   0.24066   0.22265  -0.40877   0.15488
  21   34221.6    292.2   0.010847883   0.10436  -0.00082  -0.32047   0.04069
  22   34444.9    290.3   0.036231421   0.34629   0.27136   0.33537  -0.40023
  23   35013.7    285.6   0.125807716   1.18289  -0.54431  -0.40946   0.84791
  24   35380.0    282.6   0.322787777   3.00355   0.61902   1.37723   0.85065
  25   35729.3    279.9   0.441169483   4.06496   0.45266  -0.13256   1.96023
  26   35888.4    278.6   0.128484203   1.17861   0.29903  -0.97399  -0.37489
  27   36833.9    271.5   0.029835034   0.26666  -0.11302  -0.03695   0.50251
  28   37203.0    268.8   0.197374922   1.74659   0.21240   0.23763  -1.28258
  29   37290.3    268.2   0.244524151   2.15875   0.91612   1.11059  -0.29337
  30   37540.0    266.4   0.049714585   0.43598   0.15745  -0.53248   0.35728
  31   37552.5    266.3   0.142398081   1.24836  -0.60573  -0.80700  -0.47979
  32   37783.8    264.7   0.023649820   0.20606  -0.38846   0.14862  -0.18187
  33   37946.0    263.5   0.043918271   0.38103  -0.41550   0.35088  -0.29201
  34   38116.6    262.4   0.026669810   0.23035  -0.36186   0.23395  -0.21135
  35   38269.0    261.3   0.010296833   0.08858   0.27616  -0.06855   0.08726
  36   38725.3    258.2   0.011785202   0.10019  -0.31063  -0.05423  -0.02746
  37   38915.2    257.0   0.158731706   1.34283  -1.00572  -0.51102  -0.26498
  38   39065.4    256.0   0.014442826   0.12171  -0.21162  -0.07232  -0.26777
  39   39448.5    253.5   0.012435480   0.10378   0.12935  -0.21209  -0.20510
  40   39750.2    251.6   0.100410549   0.83160  -0.88214   0.14292  -0.18165

FINAL SINGLE POINT ENERGY     -4932.946183148886

DIPOLE MOMENT
-------------
                                X             Y             Z
Electronic contribution:    -46.61800      22.77809     -26.06442
Nuclear contribution   :     48.74425     -22.26281      26.16059
                        -----------------------------------------
Total Dipole Moment    :      2.12625       0.51529       0.09617
                        -----------------------------------------
Magnitude (a.u.)       :      2.18991
Magnitude (Debye)      :      5.56630

Rotational constants in cm-1:     0.001703     0.000110     0.000107
Rotational constants in MHz :    51.062723     3.287509     3.202124

                             ****ORCA TERMINATED NORMALLY****
TOTAL RUN TIME: 0 days 0 hours 13 minutes 44 seconds 816 msec
