                         Program Version 4.2.0 -  RELEASE  -
|  1> # ORCA input file
|  2> # SCF done       -178.029536183899          0.000318088109
|  3> ! CAM-B3LYP def2-SVP def2/J RIJCOSX Grid4 TightSCF
|  4> %maxcore 5000
|  5> %tddft
|  6>     Mode sTDDFT
|  7>     Ethresh 5.0
|  8>     maxcore 5000
|  9> end
| 10>
| 11> %pal
| 12>   nprocs 6
| 13>   end
| 14> * xyz 0 1
| 15>    C       -6.47209       -10.23058         5.12863
| 16>    N       -5.50094       -11.12418         5.04625
| 17>    C       -4.79114       -11.11726         3.92649
| 18>    C       -5.04327       -10.22692         2.89804
| 19>    C       -6.09355        -9.32032         3.08880
| 20>    N       -6.80383        -9.33706         4.22329
| 21>    C       -6.43438        -8.34572         2.07349
| 22>    C       -7.46951        -7.50196         2.22297
| 23>    C       -7.90107        -6.49461         1.30423
| 24>    C       -7.47268        -6.16801         0.03562
| 25>    C       -6.41723        -6.91294        -0.71272
| 26>    O       -6.55113        -8.01345        -1.16041
| 27>    O       -5.25677        -6.23804        -0.85100
| 28>    C       -8.13687        -5.02692        -0.50731
| 29>    C       -9.06439        -4.52025         0.37149
| 30>    S       -9.14237        -5.39188         1.83561
| 31>    C       -7.89622        -4.45971        -1.81242
| 32>    S       -7.28835        -5.43988        -3.12892
| 33>    C       -7.32747        -4.07385        -4.16460
| 34>    C       -7.79033        -2.92731        -3.52788
| 35>    C       -8.12172        -3.15253        -2.19411
| 36>    C       -7.78242        -1.74759        -4.47232
| 37>    C       -9.19956        -1.21815        -4.71077
| 38>    C       -6.86534        -0.63076        -3.96770
| 39>    C       -7.22553        -2.39757        -5.71836
| 40>    C       -6.98825        -3.75460        -5.50235
| 41>    S       -6.35948        -4.53956        -6.88684
| 42>    C       -6.38417        -3.02294        -7.77269
| 43>    C       -6.88078        -1.98527        -6.99796
| 44>    C       -5.89095        -3.00619        -9.10323
| 45>    C       -5.67200        -1.88517        -9.82940
| 46>    C       -5.12912        -1.84298       -11.15225
| 47>    C       -4.93510        -2.92345       -11.99927
| 48>    C       -4.35653        -2.81678       -13.26885
| 49>    C       -3.90980        -1.62148       -13.80710
| 50>    C       -4.09863        -0.48274       -12.98190
| 51>    C       -4.71234        -0.59031       -11.68294
| 52>    N       -4.75596         0.62344       -11.17163
| 53>    O       -4.21314         1.43219       -12.08089
| 54>    N       -3.81065         0.78833       -13.17550
| 55>    C       -3.27423        -1.50606       -15.08852
| 56>    C       -3.20531        -2.44242       -16.08089
| 57>    C       -2.46103        -2.02346       -17.20956
| 58>    C       -2.23069        -2.72395       -18.41013
| 59>    C       -2.70855        -4.07255       -18.63795
| 60>    C       -3.20107        -4.59946       -19.79714
| 61>    C       -3.51777        -5.97074       -19.68551
| 62>    C       -3.26513        -6.51293       -18.45995
| 63>    S       -2.62877        -5.29976       -17.40050
| 64>    C       -3.46899        -7.90870       -17.99653
| 65>   Cl       -4.16861        -6.87107       -21.00150
| 66>    C       -1.49346        -2.05590       -19.38463
| 67>    C       -0.97694        -0.74937       -19.21442
| 68>    C       -1.21409        -0.04800       -18.01925
| 69>    C       -1.95547        -0.71008       -17.04351
| 70>    S       -2.42644        -0.03643       -15.50780
| 71>    C       -0.72197         1.29578       -17.78469
| 72>    C       -0.20898         1.80390       -16.62648
| 73>    C        0.13121         3.17001       -16.73194
| 74>    C       -0.12546         3.72510       -17.95095
| 75>    S       -0.79751         2.53237       -19.01125
| 76>    C        0.09916         5.12049       -18.40581
| 77>   Cl        0.81535         4.04794       -15.41852
| 78>    C       -0.19716        -0.34477       -20.33828
| 79>    C       -0.13439        -1.28416       -21.30264
| 80>    S       -1.01692        -2.72137       -20.92451
| 81>    H       -7.05619       -10.23379         6.04079
| 82>    H       -3.99791       -11.85166         3.86416
| 83>    H       -4.46532       -10.22805         1.98800
| 84>    H       -5.81411        -8.34743         1.19113
| 85>    H       -8.03551        -7.56899         3.14319
| 86>    H       -5.29575        -5.34863        -0.47458
| 87>    H       -9.71799        -3.68651         0.21255
| 88>    H       -8.48417        -2.40195        -1.51543
| 89>    H       -9.61109        -0.82181        -3.78572
| 90>    H       -9.84614        -2.01718        -5.06638
| 91>    H       -9.18191        -0.42626        -5.45532
| 92>    H       -7.24554        -0.22787        -3.03214
| 93>    H       -6.81606         0.17065        -4.70046
| 94>    H       -5.86064        -1.01285        -3.80160
| 95>    H       -6.98340        -0.98175        -7.36744
| 96>    H       -5.64481        -3.97417        -9.51823
| 97>    H       -5.86311        -0.91619        -9.39151
| 98>    H       -5.24253        -3.90511       -11.67343
| 99>    H       -4.23698        -3.72099       -13.84561
|100>    H       -3.69492        -3.39585       -16.02031
|101>    H       -3.36800        -4.03255       -20.69373
|102>    H       -3.86978        -8.50794       -18.81018
|103>    H       -4.16486        -7.93890       -17.15856
|104>    H       -2.52694        -8.34503       -17.66581
|105>    H       -0.04524         1.22749       -15.73547
|106>    H        0.55778         5.69504       -17.60487
|107>    H       -0.84398         5.59080       -18.68293
|108>    H        0.75291         5.14102       -19.27714
|109>    H        0.30084         0.60408       -20.40672
|110>    H        0.38279        -1.23281       -22.24065
|111> *
|112>
|113>                          ****END OF INPUT****

CARTESIAN COORDINATES (ANGSTROEM)
---------------------------------
  C     -6.472090  -10.230580    5.128630
  N     -5.500940  -11.124180    5.046250
  C     -4.791140  -11.117260    3.926490
  C     -5.043270  -10.226920    2.898040
  C     -6.093550   -9.320320    3.088800
  N     -6.803830   -9.337060    4.223290
  C     -6.434380   -8.345720    2.073490
  C     -7.469510   -7.501960    2.222970
  C     -7.901070   -6.494610    1.304230
  C     -7.472680   -6.168010    0.035620
  C     -6.417230   -6.912940   -0.712720
  O     -6.551130   -8.013450   -1.160410
  O     -5.256770   -6.238040   -0.851000
  C     -8.136870   -5.026920   -0.507310
  C     -9.064390   -4.520250    0.371490
  S     -9.142370   -5.391880    1.835610
  C     -7.896220   -4.459710   -1.812420
  S     -7.288350   -5.439880   -3.128920
  C     -7.327470   -4.073850   -4.164600
  C     -7.790330   -2.927310   -3.527880
  C     -8.121720   -3.152530   -2.194110
  C     -7.782420   -1.747590   -4.472320
  C     -9.199560   -1.218150   -4.710770
  C     -6.865340   -0.630760   -3.967700
  C     -7.225530   -2.397570   -5.718360
  C     -6.988250   -3.754600   -5.502350
  S     -6.359480   -4.539560   -6.886840
  C     -6.384170   -3.022940   -7.772690
  C     -6.880780   -1.985270   -6.997960
  C     -5.890950   -3.006190   -9.103230
  C     -5.672000   -1.885170   -9.829400
  C     -5.129120   -1.842980  -11.152250
  C     -4.935100   -2.923450  -11.999270
  C     -4.356530   -2.816780  -13.268850
  C     -3.909800   -1.621480  -13.807100
  C     -4.098630   -0.482740  -12.981900
  C     -4.712340   -0.590310  -11.682940
  N     -4.755960    0.623440  -11.171630
  O     -4.213140    1.432190  -12.080890
  N     -3.810650    0.788330  -13.175500
  C     -3.274230   -1.506060  -15.088520
  C     -3.205310   -2.442420  -16.080890
  C     -2.461030   -2.023460  -17.209560
  C     -2.230690   -2.723950  -18.410130
  C     -2.708550   -4.072550  -18.637950
  C     -3.201070   -4.599460  -19.797140
  C     -3.517770   -5.970740  -19.685510
  C     -3.265130   -6.512930  -18.459950
  S     -2.628770   -5.299760  -17.400500
  C     -3.468990   -7.908700  -17.996530
  Cl    -4.168610   -6.871070  -21.001500
  C     -1.493460   -2.055900  -19.384630
  C     -0.976940   -0.749370  -19.214420
  C     -1.214090   -0.048000  -18.019250
  C     -1.955470   -0.710080  -17.043510
  S     -2.426440   -0.036430  -15.507800
  C     -0.721970    1.295780  -17.784690
  C     -0.208980    1.803900  -16.626480
  C      0.131210    3.170010  -16.731940
  C     -0.125460    3.725100  -17.950950
  S     -0.797510    2.532370  -19.011250
  C      0.099160    5.120490  -18.405810
  Cl     0.815350    4.047940  -15.418520
  C     -0.197160   -0.344770  -20.338280
  C     -0.134390   -1.284160  -21.302640
  S     -1.016920   -2.721370  -20.924510
  H     -7.056190  -10.233790    6.040790
  H     -3.997910  -11.851660    3.864160
  H     -4.465320  -10.228050    1.988000
  H     -5.814110   -8.347430    1.191130
  H     -8.035510   -7.568990    3.143190
  H     -5.295750   -5.348630   -0.474580
  H     -9.717990   -3.686510    0.212550
  H     -8.484170   -2.401950   -1.515430
  H     -9.611090   -0.821810   -3.785720
  H     -9.846140   -2.017180   -5.066380
  H     -9.181910   -0.426260   -5.455320
  H     -7.245540   -0.227870   -3.032140
  H     -6.816060    0.170650   -4.700460
  H     -5.860640   -1.012850   -3.801600
  H     -6.983400   -0.981750   -7.367440
  H     -5.644810   -3.974170   -9.518230
  H     -5.863110   -0.916190   -9.391510
  H     -5.242530   -3.905110  -11.673430
  H     -4.236980   -3.720990  -13.845610
  H     -3.694920   -3.395850  -16.020310
  H     -3.368000   -4.032550  -20.693730
  H     -3.869780   -8.507940  -18.810180
  H     -4.164860   -7.938900  -17.158560
  H     -2.526940   -8.345030  -17.665810
  H     -0.045240    1.227490  -15.735470
  H      0.557780    5.695040  -17.604870
  H     -0.843980    5.590800  -18.682930
  H      0.752910    5.141020  -19.277140
  H      0.300840    0.604080  -20.406720
  H      0.382790   -1.232810  -22.240650

 Total Charge           Charge          ....    0
 Multiplicity           Mult            ....    1
 Number of Electrons    NEL             ....  528
 Basis Dimension        Dim             .... 1110

ORBITAL ENERGIES
----------------

  NO   OCC          E(Eh)            E(eV)
   0   2.0000    -101.580628     -2764.1494
   1   2.0000    -101.576039     -2764.0246
   2   2.0000     -88.971424     -2421.0355
   3   2.0000     -88.966331     -2420.8969
   4   2.0000     -88.964093     -2420.8360
   5   2.0000     -88.955347     -2420.5981
   6   2.0000     -88.950962     -2420.4787
   7   2.0000     -88.944197     -2420.2946
   8   2.0000     -88.943074     -2420.2641
   9   2.0000     -19.349419      -526.5245
  10   2.0000     -19.264155      -524.2043
  11   2.0000     -19.208262      -522.6834
  12   2.0000     -14.474633      -393.8748
  13   2.0000     -14.473413      -393.8416
  14   2.0000     -14.404031      -391.9536
  15   2.0000     -14.400619      -391.8608
  16   2.0000     -10.411552      -283.3127
  17   2.0000     -10.328090      -281.0416
  18   2.0000     -10.324076      -280.9324
  19   2.0000     -10.319716      -280.8137
  20   2.0000     -10.319199      -280.7997
  21   2.0000     -10.318407      -280.7781
  22   2.0000     -10.315292      -280.6934
  23   2.0000     -10.315141      -280.6893
  24   2.0000     -10.310840      -280.5722
  25   2.0000     -10.310305      -280.5577
  26   2.0000     -10.307383      -280.4782
  27   2.0000     -10.305307      -280.4217
  28   2.0000     -10.304907      -280.4108
  29   2.0000     -10.304302      -280.3943
  30   2.0000     -10.304118      -280.3893
  31   2.0000     -10.303960      -280.3850
  32   2.0000     -10.303708      -280.3781
  33   2.0000     -10.303343      -280.3682
  34   2.0000     -10.301624      -280.3214
  35   2.0000     -10.300833      -280.2999
  36   2.0000     -10.299123      -280.2534
  37   2.0000     -10.298170      -280.2274
  38   2.0000     -10.298088      -280.2252
  39   2.0000     -10.297255      -280.2026
  40   2.0000     -10.296711      -280.1877
  41   2.0000     -10.296101      -280.1712
  42   2.0000     -10.293264      -280.0939
  43   2.0000     -10.292557      -280.0747
  44   2.0000     -10.291705      -280.0515
  45   2.0000     -10.291330      -280.0413
  46   2.0000     -10.291138      -280.0361
  47   2.0000     -10.290904      -280.0297
  48   2.0000     -10.289625      -279.9949
  49   2.0000     -10.282930      -279.8128
  50   2.0000     -10.282025      -279.7881
  51   2.0000     -10.281063      -279.7619
  52   2.0000     -10.280841      -279.7559
  53   2.0000     -10.279910      -279.7306
  54   2.0000     -10.279517      -279.7199
  55   2.0000     -10.278670      -279.6968
  56   2.0000     -10.275891      -279.6212
  57   2.0000     -10.275583      -279.6128
  58   2.0000     -10.275181      -279.6019
  59   2.0000     -10.274770      -279.5907
  60   2.0000     -10.271567      -279.5036
  61   2.0000     -10.270962      -279.4871
  62   2.0000     -10.270845      -279.4839
  63   2.0000     -10.268263      -279.4136
  64   2.0000     -10.268042      -279.4076
  65   2.0000     -10.267641      -279.3967
  66   2.0000      -9.535400      -259.4714
  67   2.0000      -9.530830      -259.3471
  68   2.0000      -8.067407      -219.5253
  69   2.0000      -8.060839      -219.3466
  70   2.0000      -8.059187      -219.3016
  71   2.0000      -8.050836      -219.0744
  72   2.0000      -8.046548      -218.9577
  73   2.0000      -8.039927      -218.7775
  74   2.0000      -8.037838      -218.7207
  75   2.0000      -7.305636      -198.7965
  76   2.0000      -7.301065      -198.6721
  77   2.0000      -7.295480      -198.5201
  78   2.0000      -7.295392      -198.5177
  79   2.0000      -7.290905      -198.3956
  80   2.0000      -7.290822      -198.3933
  81   2.0000      -6.036540      -164.2626
  82   2.0000      -6.032268      -164.1464
  83   2.0000      -6.030167      -164.0892
  84   2.0000      -6.029902      -164.0820
  85   2.0000      -6.028454      -164.0426
  86   2.0000      -6.026037      -163.9768
  87   2.0000      -6.024431      -163.9331
  88   2.0000      -6.022986      -163.8938
  89   2.0000      -6.021347      -163.8492
  90   2.0000      -6.020172      -163.8172
  91   2.0000      -6.015996      -163.7036
  92   2.0000      -6.015884      -163.7005
  93   2.0000      -6.012923      -163.6199
  94   2.0000      -6.011704      -163.5868
  95   2.0000      -6.009636      -163.5305
  96   2.0000      -6.008613      -163.5027
  97   2.0000      -6.007535      -163.4733
  98   2.0000      -6.005183      -163.4093
  99   2.0000      -6.003157      -163.3542
 100   2.0000      -6.001448      -163.3077
 101   2.0000      -5.999243      -163.2477
 102   2.0000      -1.301542       -35.4168
 103   2.0000      -1.188021       -32.3277
 104   2.0000      -1.105002       -30.0686
 105   2.0000      -1.074806       -29.2469
 106   2.0000      -1.015902       -27.6441
 107   2.0000      -1.009449       -27.4685
 108   2.0000      -1.005020       -27.3480
 109   2.0000      -1.002223       -27.2719
 110   2.0000      -0.998424       -27.1685
 111   2.0000      -0.996113       -27.1056
 112   2.0000      -0.987288       -26.8655
 113   2.0000      -0.976489       -26.5716
 114   2.0000      -0.974243       -26.5105
 115   2.0000      -0.968033       -26.3415
 116   2.0000      -0.939692       -25.5703
 117   2.0000      -0.934348       -25.4249
 118   2.0000      -0.931893       -25.3581
 119   2.0000      -0.916777       -24.9468
 120   2.0000      -0.911898       -24.8140
 121   2.0000      -0.904294       -24.6071
 122   2.0000      -0.894004       -24.3271
 123   2.0000      -0.891615       -24.2621
 124   2.0000      -0.881141       -23.9771
 125   2.0000      -0.870387       -23.6844
 126   2.0000      -0.863647       -23.5010
 127   2.0000      -0.855958       -23.2918
 128   2.0000      -0.843607       -22.9557
 129   2.0000      -0.843247       -22.9459
 130   2.0000      -0.831864       -22.6362
 131   2.0000      -0.829416       -22.5696
 132   2.0000      -0.826352       -22.4862
 133   2.0000      -0.821514       -22.3545
 134   2.0000      -0.806509       -21.9462
 135   2.0000      -0.802836       -21.8463
 136   2.0000      -0.799656       -21.7598
 137   2.0000      -0.788163       -21.4470
 138   2.0000      -0.779724       -21.2174
 139   2.0000      -0.778679       -21.1889
 140   2.0000      -0.772359       -21.0170
 141   2.0000      -0.765067       -20.8185
 142   2.0000      -0.748200       -20.3595
 143   2.0000      -0.742949       -20.2167
 144   2.0000      -0.737468       -20.0675
 145   2.0000      -0.736816       -20.0498
 146   2.0000      -0.726798       -19.7772
 147   2.0000      -0.718842       -19.5607
 148   2.0000      -0.710986       -19.3469
 149   2.0000      -0.700450       -19.0602
 150   2.0000      -0.690660       -18.7938
 151   2.0000      -0.683494       -18.5988
 152   2.0000      -0.679994       -18.5036
 153   2.0000      -0.670884       -18.2557
 154   2.0000      -0.663403       -18.0521
 155   2.0000      -0.650453       -17.6997
 156   2.0000      -0.646076       -17.5806
 157   2.0000      -0.645039       -17.5524
 158   2.0000      -0.636337       -17.3156
 159   2.0000      -0.631007       -17.1706
 160   2.0000      -0.630358       -17.1529
 161   2.0000      -0.625411       -17.0183
 162   2.0000      -0.622587       -16.9415
 163   2.0000      -0.613091       -16.6830
 164   2.0000      -0.609716       -16.5912
 165   2.0000      -0.604658       -16.4536
 166   2.0000      -0.600817       -16.3491
 167   2.0000      -0.599971       -16.3260
 168   2.0000      -0.598457       -16.2848
 169   2.0000      -0.590130       -16.0583
 170   2.0000      -0.586652       -15.9636
 171   2.0000      -0.578918       -15.7532
 172   2.0000      -0.577232       -15.7073
 173   2.0000      -0.571034       -15.5386
 174   2.0000      -0.566534       -15.4162
 175   2.0000      -0.560562       -15.2537
 176   2.0000      -0.545737       -14.8503
 177   2.0000      -0.542870       -14.7722
 178   2.0000      -0.540234       -14.7005
 179   2.0000      -0.538595       -14.6559
 180   2.0000      -0.536975       -14.6118
 181   2.0000      -0.535987       -14.5850
 182   2.0000      -0.533075       -14.5057
 183   2.0000      -0.529855       -14.4181
 184   2.0000      -0.526407       -14.3242
 185   2.0000      -0.521974       -14.2036
 186   2.0000      -0.518228       -14.1017
 187   2.0000      -0.517144       -14.0722
 188   2.0000      -0.515866       -14.0374
 189   2.0000      -0.513757       -13.9800
 190   2.0000      -0.513635       -13.9767
 191   2.0000      -0.508349       -13.8329
 192   2.0000      -0.506007       -13.7692
 193   2.0000      -0.504526       -13.7289
 194   2.0000      -0.503964       -13.7136
 195   2.0000      -0.503373       -13.6975
 196   2.0000      -0.500183       -13.6107
 197   2.0000      -0.497311       -13.5325
 198   2.0000      -0.488614       -13.2959
 199   2.0000      -0.484918       -13.1953
 200   2.0000      -0.482809       -13.1379
 201   2.0000      -0.482081       -13.1181
 202   2.0000      -0.481115       -13.0918
 203   2.0000      -0.479479       -13.0473
 204   2.0000      -0.476712       -12.9720
 205   2.0000      -0.474784       -12.9195
 206   2.0000      -0.472022       -12.8444
 207   2.0000      -0.470705       -12.8085
 208   2.0000      -0.467865       -12.7313
 209   2.0000      -0.466355       -12.6902
 210   2.0000      -0.463977       -12.6254
 211   2.0000      -0.462898       -12.5961
 212   2.0000      -0.460921       -12.5423
 213   2.0000      -0.457100       -12.4383
 214   2.0000      -0.455236       -12.3876
 215   2.0000      -0.454002       -12.3540
 216   2.0000      -0.453262       -12.3339
 217   2.0000      -0.450281       -12.2528
 218   2.0000      -0.447313       -12.1720
 219   2.0000      -0.444776       -12.1030
 220   2.0000      -0.443613       -12.0713
 221   2.0000      -0.436709       -11.8834
 222   2.0000      -0.432858       -11.7787
 223   2.0000      -0.431982       -11.7548
 224   2.0000      -0.430459       -11.7134
 225   2.0000      -0.428486       -11.6597
 226   2.0000      -0.425114       -11.5679
 227   2.0000      -0.419949       -11.4274
 228   2.0000      -0.417620       -11.3640
 229   2.0000      -0.415675       -11.3111
 230   2.0000      -0.414092       -11.2680
 231   2.0000      -0.410384       -11.1671
 232   2.0000      -0.406966       -11.0741
 233   2.0000      -0.405472       -11.0334
 234   2.0000      -0.403710       -10.9855
 235   2.0000      -0.400634       -10.9018
 236   2.0000      -0.397470       -10.8157
 237   2.0000      -0.397283       -10.8106
 238   2.0000      -0.391541       -10.6544
 239   2.0000      -0.379017       -10.3136
 240   2.0000      -0.376950       -10.2573
 241   2.0000      -0.373931       -10.1752
 242   2.0000      -0.373841       -10.1727
 243   2.0000      -0.371266       -10.1027
 244   2.0000      -0.368704       -10.0329
 245   2.0000      -0.364033        -9.9059
 246   2.0000      -0.363001        -9.8777
 247   2.0000      -0.360557        -9.8113
 248   2.0000      -0.357105        -9.7173
 249   2.0000      -0.345864        -9.4114
 250   2.0000      -0.331501        -9.0206
 251   2.0000      -0.327560        -8.9134
 252   2.0000      -0.322710        -8.7814
 253   2.0000      -0.320498        -8.7212
 254   2.0000      -0.316685        -8.6174
 255   2.0000      -0.312525        -8.5042
 256   2.0000      -0.308398        -8.3919
 257   2.0000      -0.303522        -8.2593
 258   2.0000      -0.294315        -8.0087
 259   2.0000      -0.288750        -7.8573
 260   2.0000      -0.284930        -7.7534
 261   2.0000      -0.269416        -7.3312
 262   2.0000      -0.242785        -6.6065
 263   2.0000      -0.228418        -6.2156
 264   0.0000      -0.079107        -2.1526
 265   0.0000      -0.051109        -1.3908
 266   0.0000      -0.035268        -0.9597
 267   0.0000      -0.025569        -0.6958
 268   0.0000       0.004948         0.1346

MULLIKEN ATOMIC CHARGES
-----------------------
   0 C :    0.070872
   1 N :   -0.108669
   2 C :    0.068888
   3 C :   -0.031881
   4 C :    0.017163
   5 N :   -0.091108
   6 C :   -0.016788
   7 C :    0.088332
   8 C :   -0.118524
   9 C :   -0.071526
  10 C :    0.140712
  11 O :   -0.165457
  12 O :   -0.162621
  13 C :    0.139624
  14 C :   -0.133576
  15 S :    0.156677
  16 C :   -0.147820
  17 S :    0.156122
  18 C :   -0.081536
  19 C :    0.020744
  20 C :   -0.041688
  21 C :   -0.112512
  22 C :    0.107911
  23 C :    0.103393
  24 C :    0.004378
  25 C :   -0.080930
  26 S :    0.152082
  27 C :   -0.086332
  28 C :   -0.034298
  29 C :    0.072278
  30 C :   -0.040236
  31 C :    0.094852
  32 C :   -0.044894
  33 C :   -0.043950
  34 C :    0.138405
  35 C :   -0.065454
  36 C :   -0.035979
  37 N :    0.042843
  38 O :   -0.096311
  39 N :    0.033737
  40 C :   -0.059595
  41 C :   -0.079956
  42 C :    0.095613
  43 C :    0.142781
  44 C :   -0.211331
  45 C :    0.034791
  46 C :    0.086031
  47 C :   -0.267699
  48 S :    0.126589
  49 C :    0.123988
  50 Cl:   -0.090872
  51 C :   -0.165957
  52 C :    0.055174
  53 C :    0.140055
  54 C :   -0.137347
  55 S :    0.143540
  56 C :   -0.213661
  57 C :    0.040513
  58 C :    0.085634
  59 C :   -0.268476
  60 S :    0.134383
  61 C :    0.124095
  62 Cl:   -0.090339
  63 C :    0.003691
  64 C :   -0.044726
  65 S :    0.103973
  66 H :    0.012823
  67 H :    0.010627
  68 H :    0.001636
  69 H :    0.004930
  70 H :    0.004119
  71 H :    0.191106
  72 H :    0.025815
  73 H :   -0.029401
  74 H :    0.008034
  75 H :    0.021796
  76 H :    0.014147
  77 H :    0.008080
  78 H :    0.014053
  79 H :    0.020905
  80 H :   -0.018352
  81 H :   -0.018165
  82 H :   -0.004216
  83 H :   -0.019398
  84 H :   -0.018683
  85 H :   -0.018840
  86 H :   -0.006750
  87 H :    0.023670
  88 H :    0.031504
  89 H :    0.035143
  90 H :   -0.006212
  91 H :    0.023211
  92 H :    0.035945
  93 H :    0.030926
  94 H :   -0.011980
  95 H :    0.025710
Sum of atomic charges:    0.0000000

LOEWDIN ATOMIC CHARGES
----------------------
   0 C :    0.044889
   1 N :   -0.096795
   2 C :    0.049257
   3 C :   -0.059437
   4 C :    0.034118
   5 N :   -0.091342
   6 C :   -0.030401
   7 C :   -0.008547
   8 C :   -0.156868
   9 C :   -0.110758
  10 C :    0.058588
  11 O :   -0.137209
  12 O :   -0.033876
  13 C :   -0.074137
  14 C :   -0.183954
  15 S :    0.472743
  16 C :   -0.181294
  17 S :    0.469191
  18 C :   -0.198072
  19 C :   -0.039953
  20 C :   -0.054450
  21 C :   -0.034524
  22 C :   -0.023834
  23 C :   -0.024617
  24 C :   -0.038149
  25 C :   -0.194265
  26 S :    0.441323
  27 C :   -0.170695
  28 C :   -0.044480
  29 C :   -0.020855
  30 C :   -0.028779
  31 C :   -0.022496
  32 C :   -0.015164
  33 C :    0.000604
  34 C :   -0.045472
  35 C :   -0.056762
  36 C :   -0.050469
  37 N :   -0.027049
  38 O :    0.075311
  39 N :   -0.035644
  40 C :   -0.151191
  41 C :   -0.061224
  42 C :   -0.042493
  43 C :   -0.055266
  44 C :   -0.169208
  45 C :   -0.075468
  46 C :   -0.176775
  47 C :   -0.200339
  48 S :    0.440107
  49 C :   -0.061521
  50 Cl:    0.127122
  51 C :   -0.147037
  52 C :   -0.043716
  53 C :   -0.054079
  54 C :   -0.146755
  55 S :    0.450142
  56 C :   -0.172298
  57 C :   -0.072834
  58 C :   -0.176630
  59 C :   -0.199567
  60 S :    0.443093
  61 C :   -0.061559
  62 Cl:    0.127899
  63 C :   -0.070091
  64 C :   -0.161564
  65 S :    0.411710
  66 H :    0.017660
  67 H :    0.026454
  68 H :    0.036030
  69 H :    0.032189
  70 H :    0.034683
  71 H :    0.099123
  72 H :    0.025088
  73 H :    0.027779
  74 H :    0.022691
  75 H :    0.030614
  76 H :    0.024777
  77 H :    0.022628
  78 H :    0.025044
  79 H :    0.029957
  80 H :    0.031284
  81 H :    0.026167
  82 H :    0.032622
  83 H :    0.030910
  84 H :    0.034662
  85 H :    0.013772
  86 H :    0.027026
  87 H :    0.033858
  88 H :    0.037463
  89 H :    0.038959
  90 H :    0.027710
  91 H :    0.033557
  92 H :    0.039270
  93 H :    0.037367
  94 H :    0.019368
  95 H :    0.025160

  Mayer bond orders larger than 0.100000
B(  0-C ,  1-N ) :   1.5032 B(  0-C ,  5-N ) :   1.5285 B(  0-C , 66-H ) :   0.9750
B(  1-N ,  2-C ) :   1.5414 B(  2-C ,  3-C ) :   1.3840 B(  2-C , 67-H ) :   0.9809
B(  3-C ,  4-C ) :   1.3454 B(  3-C , 68-H ) :   0.9747 B(  4-C ,  5-N ) :   1.5158
B(  4-C ,  6-C ) :   1.0844 B(  6-C ,  7-C ) :   1.7375 B(  6-C , 69-H ) :   0.9639
B(  7-C ,  8-C ) :   1.0864 B(  7-C , 70-H ) :   0.9480 B(  8-C ,  9-C ) :   1.5411
B(  8-C , 15-S ) :   1.1602 B(  9-C , 10-C ) :   0.8692 B(  9-C , 13-C ) :   1.2792
B( 10-C , 11-O ) :   2.1885 B( 10-C , 12-O ) :   1.2167 B( 12-O , 71-H ) :   0.9500
B( 13-C , 14-C ) :   1.5277 B( 13-C , 16-C ) :   1.0181 B( 14-C , 15-S ) :   1.1685
B( 14-C , 72-H ) :   0.9648 B( 16-C , 17-S ) :   1.1312 B( 16-C , 20-C ) :   1.4939
B( 17-S , 18-C ) :   1.0893 B( 18-C , 19-C ) :   1.5381 B( 18-C , 25-C ) :   1.1572
B( 19-C , 20-C ) :   1.2908 B( 19-C , 21-C ) :   0.9403 B( 20-C , 73-H ) :   1.0052
B( 21-C , 22-C ) :   1.0325 B( 21-C , 23-C ) :   1.0362 B( 21-C , 24-C ) :   0.9416
B( 22-C , 74-H ) :   0.9644 B( 22-C , 75-H ) :   0.9639 B( 22-C , 76-H ) :   0.9647
B( 23-C , 77-H ) :   0.9644 B( 23-C , 78-H ) :   0.9645 B( 23-C , 79-H ) :   0.9652
B( 24-C , 25-C ) :   1.5219 B( 24-C , 28-C ) :   1.3201 B( 25-C , 26-S ) :   1.0941
B( 26-S , 27-C ) :   1.1018 B( 27-C , 28-C ) :   1.4507 B( 27-C , 29-C ) :   1.1301
B( 28-C , 80-H ) :   1.0015 B( 29-C , 30-C ) :   1.6553 B( 29-C , 81-H ) :   0.9566
B( 30-C , 31-C ) :   1.1364 B( 30-C , 82-H ) :   0.9819 B( 31-C , 32-C ) :   1.4482
B( 31-C , 34-C ) :   0.1059 B( 31-C , 36-C ) :   1.1202 B( 32-C , 33-C ) :   1.2299
B( 32-C , 83-H ) :   0.9879 B( 33-C , 34-C ) :   1.4839 B( 33-C , 84-H ) :   0.9917
B( 34-C , 35-C ) :   1.1357 B( 34-C , 40-C ) :   1.0791 B( 35-C , 36-C ) :   1.1475
B( 35-C , 39-N ) :   1.5843 B( 36-C , 37-N ) :   1.6143 B( 37-N , 38-O ) :   1.0652
B( 37-N , 39-N ) :   0.1839 B( 38-O , 39-N ) :   1.0636 B( 40-C , 41-C ) :   1.5737
B( 40-C , 55-S ) :   1.0808 B( 41-C , 42-C ) :   1.1804 B( 41-C , 85-H ) :   0.9710
B( 42-C , 43-C ) :   1.2985 B( 42-C , 54-C ) :   1.2650 B( 43-C , 44-C ) :   0.9844
B( 43-C , 51-C ) :   1.4244 B( 44-C , 45-C ) :   1.5566 B( 44-C , 48-S ) :   1.1273
B( 45-C , 46-C ) :   1.2195 B( 45-C , 86-H ) :   0.9949 B( 46-C , 47-C ) :   1.6063
B( 46-C , 50-Cl) :   1.0035 B( 47-C , 48-S ) :   1.1250 B( 47-C , 49-C ) :   1.0836
B( 49-C , 87-H ) :   0.9436 B( 49-C , 88-H ) :   0.9484 B( 49-C , 89-H ) :   0.9488
B( 51-C , 52-C ) :   1.2749 B( 51-C , 65-S ) :   1.0716 B( 52-C , 53-C ) :   1.3149
B( 52-C , 63-C ) :   1.1812 B( 53-C , 54-C ) :   1.4151 B( 53-C , 56-C ) :   0.9805
B( 54-C , 55-S ) :   1.0463 B( 56-C , 57-C ) :   1.5583 B( 56-C , 60-S ) :   1.1303
B( 57-C , 58-C ) :   1.2218 B( 57-C , 90-H ) :   0.9946 B( 58-C , 59-C ) :   1.6055
B( 58-C , 62-Cl) :   1.0041 B( 59-C , 60-S ) :   1.1271 B( 59-C , 61-C ) :   1.0841
B( 61-C , 91-H ) :   0.9436 B( 61-C , 92-H ) :   0.9487 B( 61-C , 93-H ) :   0.9482
B( 63-C , 64-C ) :   1.6512 B( 63-C , 94-H ) :   0.9766 B( 64-C , 65-S ) :   1.1056
B( 64-C , 95-H ) :   0.9658

-----------------------------------------------------------------------------
         ABSORPTION SPECTRUM VIA TRANSITION ELECTRIC DIPOLE MOMENTS
-----------------------------------------------------------------------------
State   Energy  Wavelength   fosc         T2         TX        TY        TZ
        (cm-1)    (nm)                  (au**2)     (au)      (au)      (au)
-----------------------------------------------------------------------------
   0   17828.4    560.9   1.773867517  32.75548  -1.83012  -0.70242   5.37706
   1   21485.1    465.4   0.211707336   3.24395   0.53967   1.35121  -1.06157
   2   26803.5    373.1   0.114173610   1.40233   0.80120  -0.84273   0.22407
   3   27206.5    367.6   0.149413368   1.80798   0.61301   0.65378  -1.00238
   4   27889.7    358.6   0.602204018   7.10845  -0.39805  -1.63157   2.07075
   5   28756.3    347.8   0.439173239   5.02781  -0.30107  -1.61971  -1.52109
   6   32008.7    312.4   0.084949767   0.87372   0.36819   0.85409  -0.09315
   7   32453.7    308.1   0.054150689   0.54931  -0.53422  -0.47939   0.18469
   8   32593.3    306.8   0.007331862   0.07406   0.26183  -0.06097  -0.04222
   9   33050.4    302.6   0.017349455   0.17282  -0.40768  -0.08037   0.01224
  10   33218.9    301.0   0.026229483   0.25994   0.00675   0.49378  -0.12680
  11   33588.8    297.7   0.521343812   5.10981  -1.04660   1.67565  -1.09847
  12   34532.0    289.6   0.301366399   2.87309   0.14392   1.05664  -1.31753
  13   34707.6    288.1   0.189135440   1.79401   0.91995  -0.25288  -0.94008
  14   35453.6    282.1   0.140485282   1.30451   0.07868  -0.80751   0.80389
  15   35930.9    278.3   0.042603843   0.39035   0.42389  -0.39286   0.23734
  16   36037.8    277.5   0.015321372   0.13996   0.36967  -0.00595  -0.05721
  17   36412.5    274.6   0.004917625   0.04446   0.19547  -0.07904  -0.00248
  18   36931.8    270.8   0.015556987   0.13868   0.36423   0.07618   0.01448
  19   37525.1    266.5   0.050324121   0.44150  -0.10863   0.65540   0.01205
  20   38193.3    261.8   0.061971090   0.53417   0.21151   0.41133  -0.56590
  21   38609.5    259.0   0.075970142   0.64778  -0.38228   0.34761   0.61710
  22   38689.8    258.5   0.025913805   0.22050  -0.19875   0.10454   0.41239
  23   39128.9    255.6   0.032104132   0.27011  -0.32190   0.39466  -0.10359
  24   39434.0    253.6   0.067673831   0.56497  -0.23809  -0.09980   0.70592
  25   39572.8    252.7   0.048906133   0.40686   0.16136  -0.42525  -0.44719
  26   40027.1    249.8   0.109290573   0.89889  -0.14217  -0.90776  -0.23375

FINAL SINGLE POINT ENERGY     -6071.620949283056

DIPOLE MOMENT
-------------
                                X             Y             Z
Electronic contribution:     19.95425       4.06572     -57.00517
Nuclear contribution   :    -20.39856      -3.31119      57.34512
                        -----------------------------------------
Total Dipole Moment    :     -0.44430       0.75452       0.33994
                        -----------------------------------------
Magnitude (a.u.)       :      0.93929
Magnitude (Debye)      :      2.38750

Rotational constants in cm-1:     0.001474     0.000196     0.000182
Rotational constants in MHz :    44.182300     5.872715     5.448493

                             ****ORCA TERMINATED NORMALLY****
TOTAL RUN TIME: 0 days 0 hours 8 minutes 2 seconds 731 msec
