                         Program Version 4.2.0 -  RELEASE  -
|  1> # ORCA input file
|  2> # SCF done       -179.609272569325          0.000487241022
|  3> ! CAM-B3LYP def2-SVP def2/J RIJCOSX Grid4 TightSCF
|  4> %maxcore 5000
|  5> %tddft
|  6>     Mode sTDDFT
|  7>     Ethresh 5.0
|  8>     maxcore 5000
|  9> end
| 10>
| 11> %pal
| 12>   nprocs 6
| 13>   end
| 14> * xyz 0 1
| 15>    C        1.36293         0.72356         1.33412
| 16>    C        0.13105         0.92450         1.86621
| 17>    C       -0.65572        -0.25138         1.89957
| 18>    C       -1.98744        -0.25532         2.51603
| 19>    C       -2.92044         0.69537         2.14319
| 20>    C       -4.18324         0.71349         2.73925
| 21>    C       -4.49487        -0.22171         3.71143
| 22>    C       -3.54640        -1.17227         4.09845
| 23>    C       -2.29360        -1.18705         3.51046
| 24>    O       -3.96409        -2.04178         5.06266
| 25>    C       -3.07256        -3.04102         5.49167
| 26>    O       -5.03092         1.68019         2.29336
| 27>    C       -6.31965         1.75306         2.85267
| 28>    C        0.00740        -1.34219         1.36773
| 29>    S        1.61879        -0.91068         0.87316
| 30>    C       -0.48019        -2.67437         1.12180
| 31>    C       -1.82862        -2.99038         1.05002
| 32>    C       -2.27627        -4.28749         0.82851
| 33>    C       -1.40982        -5.35306         0.63601
| 34>    C       -0.01971        -5.04737         0.61296
| 35>    C        0.43819        -3.73012         0.86385
| 36>    N        1.75453        -3.46713         0.82961
| 37>    C        2.60385        -4.41831         0.54463
| 38>    C        2.14287        -5.74187         0.28835
| 39>    N        0.86651        -6.01812         0.33825
| 40>    C        3.07946        -6.85642        -0.03401
| 41>    C        4.05197        -4.06531         0.50799
| 42>    C       -1.84418        -6.70507         0.38953
| 43>    C       -2.99973        -7.36663         0.77984
| 44>    C       -4.04616        -6.86232         1.73091
| 45>    C       -3.45682        -6.50532         3.09512
| 46>    C       -3.06912        -8.66133         0.25125
| 47>    C       -2.00016        -9.01129        -0.54717
| 48>    S       -0.82929        -7.72567        -0.58373
| 49>    C       -1.84116       -10.22473        -1.26394
| 50>    C       -0.78550       -10.50943        -2.06297
| 51>    C       -0.64943       -11.67950        -2.85449
| 52>    C       -1.51428       -12.75063        -2.99177
| 53>    C       -1.04528       -13.67687        -3.92101
| 54>    C        0.19318       -13.32520        -4.50525
| 55>    S        0.77509       -11.82914        -3.87786
| 56>    C        0.50797       -14.32369        -5.42483
| 57>    C       -0.55159       -15.26702        -5.38166
| 58>    N       -1.47909       -14.86008        -4.45677
| 59>    C       -0.40090       -16.32132        -6.26907
| 60>    C        0.77210       -16.21198        -7.00862
| 61>    S        1.70053       -14.77269        -6.57656
| 62>    C        1.27678       -17.04833        -8.02251
| 63>    C        0.63351       -18.15838        -8.49634
| 64>    C        1.02838       -19.01687        -9.53953
| 65>    C        2.18098       -19.13320       -10.28286
| 66>    C        2.31210       -20.08382       -11.37336
| 67>    C        1.29945       -20.75397       -12.01582
| 68>    C        1.50072       -21.65388       -13.08220
| 69>    N        1.58946       -22.40438       -13.94729
| 70>    C       -0.08151       -20.62618       -11.76066
| 71>    N       -1.22481       -20.57511       -11.65184
| 72>    C        3.71960       -20.15345       -11.74773
| 73>    C        4.43029       -19.19727       -10.98450
| 74>    C        3.49943       -18.49610       -10.07855
| 75>    O        3.81071       -17.59513        -9.32343
| 76>    C        5.78432       -19.00507       -11.11107
| 77>    C        6.47303       -19.80135       -12.03150
| 78>    C        5.75586       -20.76031       -12.78411
| 79>    C        4.38445       -20.95053       -12.65974
| 80>    S        6.80851       -21.63669       -13.85149
| 81>    C        8.17078       -20.72797       -13.29318
| 82>    C        7.86026       -19.81038       -12.35207
| 83>    H        2.15026         1.44049         1.20882
| 84>    H       -0.21947         1.86795         2.24535
| 85>    H       -2.69869         1.42056         1.37707
| 86>    H       -5.45489        -0.25330         4.19862
| 87>    H       -1.54250        -1.90584         3.79498
| 88>    H       -3.61605        -3.62216         6.23513
| 89>    H       -2.17785        -2.61086         5.95302
| 90>    H       -2.77516        -3.69624         4.66636
| 91>    H       -6.80954         2.58915         2.35599
| 92>    H       -6.28001         1.94406         3.92974
| 93>    H       -6.89009         0.83722         2.66741
| 94>    H       -2.56135        -2.20604         1.15154
| 95>    H       -3.33975        -4.44852         0.76735
| 96>    H        3.64691        -6.62575        -0.93427
| 97>    H        2.50960        -7.76773        -0.19047
| 98>    H        3.78700        -7.00619         0.78023
| 99>    H        4.60307        -4.64381         1.24814
|100>    H        4.16548        -3.00591         0.71851
|101>    H        4.47102        -4.28731        -0.47216
|102>    H       -4.79128        -7.65000         1.86156
|103>    H       -4.56540        -5.99642         1.31527
|104>    H       -2.96988        -7.37416         3.53239
|105>    H       -4.24292        -6.17210         3.76893
|106>    H       -2.71960        -5.71186         3.00024
|107>    H       -3.89328        -9.32778         0.44109
|108>    H       -2.65330       -10.93269        -1.16613
|109>    H        0.01564        -9.78616        -2.13923
|110>    H       -2.43682       -12.84090        -2.44969
|111>    H       -2.33708       -15.33262        -4.23254
|112>    H       -1.09886       -17.12954        -6.38446
|113>    H        2.23179       -16.76952        -8.44325
|114>    H       -0.32786       -18.40607        -8.06426
|115>    H        0.26275       -19.74127        -9.79339
|116>    H        6.29546       -18.26355       -10.51670
|117>    H        3.88615       -21.69751       -13.25439
|118>    H        9.13491       -20.94190       -13.71200
|119>    H        8.57676       -19.15530       -11.89019
|120> *
|121>
|122>                          ****END OF INPUT****

CARTESIAN COORDINATES (ANGSTROEM)
---------------------------------
  C      1.362930    0.723560    1.334120
  C      0.131050    0.924500    1.866210
  C     -0.655720   -0.251380    1.899570
  C     -1.987440   -0.255320    2.516030
  C     -2.920440    0.695370    2.143190
  C     -4.183240    0.713490    2.739250
  C     -4.494870   -0.221710    3.711430
  C     -3.546400   -1.172270    4.098450
  C     -2.293600   -1.187050    3.510460
  O     -3.964090   -2.041780    5.062660
  C     -3.072560   -3.041020    5.491670
  O     -5.030920    1.680190    2.293360
  C     -6.319650    1.753060    2.852670
  C      0.007400   -1.342190    1.367730
  S      1.618790   -0.910680    0.873160
  C     -0.480190   -2.674370    1.121800
  C     -1.828620   -2.990380    1.050020
  C     -2.276270   -4.287490    0.828510
  C     -1.409820   -5.353060    0.636010
  C     -0.019710   -5.047370    0.612960
  C      0.438190   -3.730120    0.863850
  N      1.754530   -3.467130    0.829610
  C      2.603850   -4.418310    0.544630
  C      2.142870   -5.741870    0.288350
  N      0.866510   -6.018120    0.338250
  C      3.079460   -6.856420   -0.034010
  C      4.051970   -4.065310    0.507990
  C     -1.844180   -6.705070    0.389530
  C     -2.999730   -7.366630    0.779840
  C     -4.046160   -6.862320    1.730910
  C     -3.456820   -6.505320    3.095120
  C     -3.069120   -8.661330    0.251250
  C     -2.000160   -9.011290   -0.547170
  S     -0.829290   -7.725670   -0.583730
  C     -1.841160  -10.224730   -1.263940
  C     -0.785500  -10.509430   -2.062970
  C     -0.649430  -11.679500   -2.854490
  C     -1.514280  -12.750630   -2.991770
  C     -1.045280  -13.676870   -3.921010
  C      0.193180  -13.325200   -4.505250
  S      0.775090  -11.829140   -3.877860
  C      0.507970  -14.323690   -5.424830
  C     -0.551590  -15.267020   -5.381660
  N     -1.479090  -14.860080   -4.456770
  C     -0.400900  -16.321320   -6.269070
  C      0.772100  -16.211980   -7.008620
  S      1.700530  -14.772690   -6.576560
  C      1.276780  -17.048330   -8.022510
  C      0.633510  -18.158380   -8.496340
  C      1.028380  -19.016870   -9.539530
  C      2.180980  -19.133200  -10.282860
  C      2.312100  -20.083820  -11.373360
  C      1.299450  -20.753970  -12.015820
  C      1.500720  -21.653880  -13.082200
  N      1.589460  -22.404380  -13.947290
  C     -0.081510  -20.626180  -11.760660
  N     -1.224810  -20.575110  -11.651840
  C      3.719600  -20.153450  -11.747730
  C      4.430290  -19.197270  -10.984500
  C      3.499430  -18.496100  -10.078550
  O      3.810710  -17.595130   -9.323430
  C      5.784320  -19.005070  -11.111070
  C      6.473030  -19.801350  -12.031500
  C      5.755860  -20.760310  -12.784110
  C      4.384450  -20.950530  -12.659740
  S      6.808510  -21.636690  -13.851490
  C      8.170780  -20.727970  -13.293180
  C      7.860260  -19.810380  -12.352070
  H      2.150260    1.440490    1.208820
  H     -0.219470    1.867950    2.245350
  H     -2.698690    1.420560    1.377070
  H     -5.454890   -0.253300    4.198620
  H     -1.542500   -1.905840    3.794980
  H     -3.616050   -3.622160    6.235130
  H     -2.177850   -2.610860    5.953020
  H     -2.775160   -3.696240    4.666360
  H     -6.809540    2.589150    2.355990
  H     -6.280010    1.944060    3.929740
  H     -6.890090    0.837220    2.667410
  H     -2.561350   -2.206040    1.151540
  H     -3.339750   -4.448520    0.767350
  H      3.646910   -6.625750   -0.934270
  H      2.509600   -7.767730   -0.190470
  H      3.787000   -7.006190    0.780230
  H      4.603070   -4.643810    1.248140
  H      4.165480   -3.005910    0.718510
  H      4.471020   -4.287310   -0.472160
  H     -4.791280   -7.650000    1.861560
  H     -4.565400   -5.996420    1.315270
  H     -2.969880   -7.374160    3.532390
  H     -4.242920   -6.172100    3.768930
  H     -2.719600   -5.711860    3.000240
  H     -3.893280   -9.327780    0.441090
  H     -2.653300  -10.932690   -1.166130
  H      0.015640   -9.786160   -2.139230
  H     -2.436820  -12.840900   -2.449690
  H     -2.337080  -15.332620   -4.232540
  H     -1.098860  -17.129540   -6.384460
  H      2.231790  -16.769520   -8.443250
  H     -0.327860  -18.406070   -8.064260
  H      0.262750  -19.741270   -9.793390
  H      6.295460  -18.263550  -10.516700
  H      3.886150  -21.697510  -13.254390
  H      9.134910  -20.941900  -13.712000
  H      8.576760  -19.155300  -11.890190

 Total Charge           Charge          ....    0
 Multiplicity           Mult            ....    1
 Number of Electrons    NEL             ....  506
 Basis Dimension        Dim             .... 1157

ORBITAL ENERGIES
----------------

  NO   OCC          E(Eh)            E(eV)
   0   2.0000     -88.959409     -2420.7086
   1   2.0000     -88.957421     -2420.6545
   2   2.0000     -88.955925     -2420.6138
   3   2.0000     -88.940129     -2420.1839
   4   2.0000     -88.936190     -2420.0768
   5   2.0000     -19.236318      -523.4468
   6   2.0000     -19.236267      -523.4454
   7   2.0000     -19.203677      -522.5586
   8   2.0000     -14.470181      -393.7536
   9   2.0000     -14.417626      -392.3235
  10   2.0000     -14.417335      -392.3156
  11   2.0000     -14.399772      -391.8377
  12   2.0000     -14.398739      -391.8096
  13   2.0000     -10.354229      -281.7529
  14   2.0000     -10.324649      -280.9480
  15   2.0000     -10.324415      -280.9416
  16   2.0000     -10.323962      -280.9293
  17   2.0000     -10.323162      -280.9075
  18   2.0000     -10.323069      -280.9050
  19   2.0000     -10.322759      -280.8966
  20   2.0000     -10.319339      -280.8035
  21   2.0000     -10.317285      -280.7476
  22   2.0000     -10.316226      -280.7188
  23   2.0000     -10.315949      -280.7112
  24   2.0000     -10.309991      -280.5491
  25   2.0000     -10.309764      -280.5429
  26   2.0000     -10.309326      -280.5310
  27   2.0000     -10.308358      -280.5047
  28   2.0000     -10.305634      -280.4306
  29   2.0000     -10.304152      -280.3902
  30   2.0000     -10.303927      -280.3841
  31   2.0000     -10.303827      -280.3814
  32   2.0000     -10.302790      -280.3532
  33   2.0000     -10.300256      -280.2842
  34   2.0000     -10.296674      -280.1867
  35   2.0000     -10.292101      -280.0623
  36   2.0000     -10.291900      -280.0568
  37   2.0000     -10.291843      -280.0553
  38   2.0000     -10.290827      -280.0276
  39   2.0000     -10.289937      -280.0034
  40   2.0000     -10.289706      -279.9971
  41   2.0000     -10.286979      -279.9229
  42   2.0000     -10.286061      -279.8980
  43   2.0000     -10.285743      -279.8893
  44   2.0000     -10.285510      -279.8829
  45   2.0000     -10.284584      -279.8578
  46   2.0000     -10.283214      -279.8205
  47   2.0000     -10.280535      -279.7476
  48   2.0000     -10.279799      -279.7276
  49   2.0000     -10.279248      -279.7125
  50   2.0000     -10.279078      -279.7079
  51   2.0000     -10.276361      -279.6340
  52   2.0000     -10.276215      -279.6300
  53   2.0000     -10.274053      -279.5712
  54   2.0000     -10.273472      -279.5554
  55   2.0000     -10.272420      -279.5267
  56   2.0000     -10.272194      -279.5206
  57   2.0000     -10.271771      -279.5091
  58   2.0000     -10.271083      -279.4904
  59   2.0000     -10.269801      -279.4555
  60   2.0000     -10.268616      -279.4232
  61   2.0000     -10.266322      -279.3608
  62   2.0000     -10.261674      -279.2343
  63   2.0000     -10.254567      -279.0410
  64   2.0000     -10.254310      -279.0340
  65   2.0000     -10.253681      -279.0168
  66   2.0000     -10.251450      -278.9561
  67   2.0000     -10.249677      -278.9079
  68   2.0000      -8.054266      -219.1677
  69   2.0000      -8.052407      -219.1171
  70   2.0000      -8.052132      -219.1097
  71   2.0000      -8.034155      -218.6205
  72   2.0000      -8.030243      -218.5140
  73   2.0000      -6.023842      -163.9171
  74   2.0000      -6.022058      -163.8685
  75   2.0000      -6.021636      -163.8571
  76   2.0000      -6.019775      -163.8064
  77   2.0000      -6.017993      -163.7579
  78   2.0000      -6.017369      -163.7409
  79   2.0000      -6.015812      -163.6986
  80   2.0000      -6.013834      -163.6447
  81   2.0000      -6.013814      -163.6442
  82   2.0000      -6.003539      -163.3646
  83   2.0000      -5.999690      -163.2599
  84   2.0000      -5.999113      -163.2442
  85   2.0000      -5.996504      -163.1732
  86   2.0000      -5.994971      -163.1315
  87   2.0000      -5.992766      -163.0715
  88   2.0000      -1.141305       -31.0565
  89   2.0000      -1.139214       -30.9996
  90   2.0000      -1.117780       -30.4163
  91   2.0000      -1.091018       -29.6881
  92   2.0000      -1.081148       -29.4195
  93   2.0000      -1.006926       -27.3998
  94   2.0000      -1.005540       -27.3621
  95   2.0000      -0.995052       -27.0767
  96   2.0000      -0.979148       -26.6440
  97   2.0000      -0.978091       -26.6152
  98   2.0000      -0.977173       -26.5902
  99   2.0000      -0.972646       -26.4670
 100   2.0000      -0.970512       -26.4090
 101   2.0000      -0.969149       -26.3719
 102   2.0000      -0.946493       -25.7554
 103   2.0000      -0.934834       -25.4381
 104   2.0000      -0.919882       -25.0313
 105   2.0000      -0.905123       -24.6297
 106   2.0000      -0.899606       -24.4795
 107   2.0000      -0.885267       -24.0893
 108   2.0000      -0.880712       -23.9654
 109   2.0000      -0.874202       -23.7882
 110   2.0000      -0.870228       -23.6801
 111   2.0000      -0.868170       -23.6241
 112   2.0000      -0.857382       -23.3305
 113   2.0000      -0.856532       -23.3074
 114   2.0000      -0.843475       -22.9521
 115   2.0000      -0.838747       -22.8235
 116   2.0000      -0.831398       -22.6235
 117   2.0000      -0.821899       -22.3650
 118   2.0000      -0.818005       -22.2590
 119   2.0000      -0.816728       -22.2243
 120   2.0000      -0.810841       -22.0641
 121   2.0000      -0.800269       -21.7764
 122   2.0000      -0.799181       -21.7468
 123   2.0000      -0.797614       -21.7042
 124   2.0000      -0.786930       -21.4135
 125   2.0000      -0.777891       -21.1675
 126   2.0000      -0.775117       -21.0920
 127   2.0000      -0.765689       -20.8354
 128   2.0000      -0.750498       -20.4221
 129   2.0000      -0.743453       -20.2304
 130   2.0000      -0.730100       -19.8670
 131   2.0000      -0.720418       -19.6036
 132   2.0000      -0.717465       -19.5232
 133   2.0000      -0.714092       -19.4314
 134   2.0000      -0.705932       -19.2094
 135   2.0000      -0.691485       -18.8163
 136   2.0000      -0.685113       -18.6429
 137   2.0000      -0.679381       -18.4869
 138   2.0000      -0.676382       -18.4053
 139   2.0000      -0.672284       -18.2938
 140   2.0000      -0.665143       -18.0995
 141   2.0000      -0.662589       -18.0299
 142   2.0000      -0.650472       -17.7003
 143   2.0000      -0.647638       -17.6231
 144   2.0000      -0.643874       -17.5207
 145   2.0000      -0.639367       -17.3981
 146   2.0000      -0.637205       -17.3392
 147   2.0000      -0.629679       -17.1344
 148   2.0000      -0.623807       -16.9747
 149   2.0000      -0.621685       -16.9169
 150   2.0000      -0.614849       -16.7309
 151   2.0000      -0.606707       -16.5093
 152   2.0000      -0.605879       -16.4868
 153   2.0000      -0.592713       -16.1285
 154   2.0000      -0.584330       -15.9004
 155   2.0000      -0.582763       -15.8578
 156   2.0000      -0.581111       -15.8128
 157   2.0000      -0.578982       -15.7549
 158   2.0000      -0.574628       -15.6364
 159   2.0000      -0.569944       -15.5090
 160   2.0000      -0.564771       -15.3682
 161   2.0000      -0.560280       -15.2460
 162   2.0000      -0.557789       -15.1782
 163   2.0000      -0.556413       -15.1408
 164   2.0000      -0.551698       -15.0125
 165   2.0000      -0.549870       -14.9627
 166   2.0000      -0.548413       -14.9231
 167   2.0000      -0.544975       -14.8295
 168   2.0000      -0.542903       -14.7731
 169   2.0000      -0.540376       -14.7044
 170   2.0000      -0.538708       -14.6590
 171   2.0000      -0.535594       -14.5742
 172   2.0000      -0.528610       -14.3842
 173   2.0000      -0.524981       -14.2855
 174   2.0000      -0.521990       -14.2041
 175   2.0000      -0.518502       -14.1092
 176   2.0000      -0.513909       -13.9842
 177   2.0000      -0.510516       -13.8918
 178   2.0000      -0.507658       -13.8141
 179   2.0000      -0.506000       -13.7689
 180   2.0000      -0.500995       -13.6328
 181   2.0000      -0.499017       -13.5789
 182   2.0000      -0.496849       -13.5199
 183   2.0000      -0.495409       -13.4808
 184   2.0000      -0.493449       -13.4274
 185   2.0000      -0.489247       -13.3131
 186   2.0000      -0.488172       -13.2838
 187   2.0000      -0.486513       -13.2387
 188   2.0000      -0.483831       -13.1657
 189   2.0000      -0.479778       -13.0554
 190   2.0000      -0.479573       -13.0499
 191   2.0000      -0.478502       -13.0207
 192   2.0000      -0.478003       -13.0071
 193   2.0000      -0.474389       -12.9088
 194   2.0000      -0.473381       -12.8814
 195   2.0000      -0.472182       -12.8487
 196   2.0000      -0.469756       -12.7827
 197   2.0000      -0.467416       -12.7190
 198   2.0000      -0.462810       -12.5937
 199   2.0000      -0.459245       -12.4967
 200   2.0000      -0.456685       -12.4270
 201   2.0000      -0.455851       -12.4043
 202   2.0000      -0.451645       -12.2899
 203   2.0000      -0.449835       -12.2406
 204   2.0000      -0.445247       -12.1158
 205   2.0000      -0.444238       -12.0883
 206   2.0000      -0.443414       -12.0659
 207   2.0000      -0.442496       -12.0409
 208   2.0000      -0.441790       -12.0217
 209   2.0000      -0.438341       -11.9279
 210   2.0000      -0.437235       -11.8978
 211   2.0000      -0.433877       -11.8064
 212   2.0000      -0.433136       -11.7862
 213   2.0000      -0.431513       -11.7421
 214   2.0000      -0.428426       -11.6581
 215   2.0000      -0.424973       -11.5641
 216   2.0000      -0.421740       -11.4761
 217   2.0000      -0.420478       -11.4418
 218   2.0000      -0.419288       -11.4094
 219   2.0000      -0.417660       -11.3651
 220   2.0000      -0.416139       -11.3237
 221   2.0000      -0.414331       -11.2745
 222   2.0000      -0.413089       -11.2407
 223   2.0000      -0.410250       -11.1635
 224   2.0000      -0.408391       -11.1129
 225   2.0000      -0.406172       -11.0525
 226   2.0000      -0.405115       -11.0237
 227   2.0000      -0.402138       -10.9427
 228   2.0000      -0.400017       -10.8850
 229   2.0000      -0.392458       -10.6793
 230   2.0000      -0.391466       -10.6523
 231   2.0000      -0.387931       -10.5561
 232   2.0000      -0.375613       -10.2209
 233   2.0000      -0.367514       -10.0006
 234   2.0000      -0.363714        -9.8972
 235   2.0000      -0.353138        -9.6094
 236   2.0000      -0.349388        -9.5073
 237   2.0000      -0.333271        -9.0688
 238   2.0000      -0.332680        -9.0527
 239   2.0000      -0.324849        -8.8396
 240   2.0000      -0.319623        -8.6974
 241   2.0000      -0.315388        -8.5821
 242   2.0000      -0.308872        -8.4048
 243   2.0000      -0.304932        -8.2976
 244   2.0000      -0.301352        -8.2002
 245   2.0000      -0.294111        -8.0032
 246   2.0000      -0.286536        -7.7970
 247   2.0000      -0.283479        -7.7139
 248   2.0000      -0.282060        -7.6753
 249   2.0000      -0.273139        -7.4325
 250   2.0000      -0.271404        -7.3853
 251   2.0000      -0.247948        -6.7470
 252   2.0000      -0.220965        -6.0128
 253   0.0000      -0.086576        -2.3558
 254   0.0000      -0.057076        -1.5531
 255   0.0000      -0.047973        -1.3054
 256   0.0000      -0.027720        -0.7543
 257   0.0000      -0.004534        -0.1234

MULLIKEN ATOMIC CHARGES
-----------------------
   0 C :   -0.055547
   1 C :    0.009348
   2 C :    0.088598
   3 C :    0.010458
   4 C :   -0.062506
   5 C :    0.264883
   6 C :   -0.148177
   7 C :    0.244033
   8 C :   -0.123203
   9 O :   -0.315597
  10 C :    0.181055
  11 O :   -0.313214
  12 C :    0.177527
  13 C :   -0.155005
  14 S :    0.140311
  15 C :    0.113558
  16 C :   -0.046727
  17 C :   -0.069578
  18 C :    0.121558
  19 C :   -0.036252
  20 C :   -0.046834
  21 N :   -0.024260
  22 C :   -0.159997
  23 C :   -0.162446
  24 N :   -0.018570
  25 C :    0.121552
  26 C :    0.123810
  27 C :   -0.155420
  28 C :   -0.000111
  29 C :    0.079885
  30 C :   -0.006143
  31 C :   -0.060997
  32 C :   -0.019732
  33 S :    0.140078
  34 C :    0.019308
  35 C :    0.035656
  36 C :   -0.067451
  37 C :   -0.075406
  38 C :    0.128688
  39 C :   -0.130205
  40 S :    0.142150
  41 C :   -0.109180
  42 C :    0.115792
  43 N :   -0.020815
  44 C :   -0.043752
  45 C :   -0.109491
  46 S :    0.164631
  47 C :    0.100588
  48 C :   -0.038814
  49 C :    0.014687
  50 C :   -0.085141
  51 C :    0.303453
  52 C :   -0.359254
  53 C :   -0.185909
  54 N :    0.137566
  55 C :   -0.203261
  56 N :    0.145863
  57 C :    0.011706
  58 C :   -0.004582
  59 C :    0.155252
  60 O :   -0.172322
  61 C :   -0.074211
  62 C :    0.114716
  63 C :   -0.098114
  64 C :   -0.023476
  65 S :    0.134275
  66 C :   -0.050590
  67 C :    0.024347
  68 H :    0.016248
  69 H :   -0.023443
  70 H :   -0.032312
  71 H :   -0.037805
  72 H :   -0.034851
  73 H :    0.032028
  74 H :    0.021764
  75 H :    0.017800
  76 H :    0.035223
  77 H :    0.022757
  78 H :    0.020838
  79 H :    0.000968
  80 H :   -0.033560
  81 H :    0.026040
  82 H :    0.031927
  83 H :    0.027366
  84 H :    0.026806
  85 H :    0.034284
  86 H :    0.025394
  87 H :   -0.008836
  88 H :    0.017030
  89 H :    0.014166
  90 H :    0.011876
  91 H :    0.040066
  92 H :   -0.037596
  93 H :   -0.020618
  94 H :   -0.011937
  95 H :   -0.030142
  96 H :    0.125514
  97 H :   -0.016095
  98 H :    0.015568
  99 H :   -0.020388
 100 H :    0.011163
 101 H :   -0.016480
 102 H :   -0.007501
 103 H :    0.033960
 104 H :   -0.010263
Sum of atomic charges:   -0.0000000

LOEWDIN ATOMIC CHARGES
----------------------
   0 C :   -0.192639
   1 C :   -0.064651
   2 C :   -0.047542
   3 C :   -0.005966
   4 C :   -0.065066
   5 C :    0.065157
   6 C :   -0.105320
   7 C :    0.066109
   8 C :   -0.093551
   9 O :   -0.108047
  10 C :    0.074745
  11 O :   -0.104813
  12 C :    0.075311
  13 C :   -0.176374
  14 S :    0.466585
  15 C :   -0.037863
  16 C :   -0.006932
  17 C :   -0.014180
  18 C :   -0.044843
  19 C :   -0.012460
  20 C :   -0.012799
  21 N :   -0.055220
  22 C :    0.002071
  23 C :    0.000287
  24 N :   -0.055687
  25 C :   -0.052559
  26 C :   -0.052268
  27 C :   -0.167442
  28 C :   -0.052888
  29 C :   -0.027528
  30 C :   -0.053830
  31 C :   -0.063396
  32 C :   -0.182715
  33 S :    0.470132
  34 C :   -0.020706
  35 C :   -0.061441
  36 C :   -0.141540
  37 C :   -0.086026
  38 C :   -0.000388
  39 C :   -0.233885
  40 S :    0.417423
  41 C :   -0.203512
  42 C :   -0.019590
  43 N :    0.057643
  44 C :   -0.044195
  45 C :   -0.177424
  46 S :    0.435473
  47 C :    0.037023
  48 C :   -0.070383
  49 C :    0.064559
  50 C :   -0.110653
  51 C :    0.078305
  52 C :   -0.153451
  53 C :   -0.017683
  54 N :   -0.065739
  55 C :   -0.025724
  56 N :   -0.063138
  57 C :   -0.022117
  58 C :   -0.050966
  59 C :    0.085969
  60 O :   -0.155059
  61 C :    0.018748
  62 C :   -0.037616
  63 C :   -0.147097
  64 C :   -0.011219
  65 S :    0.423717
  66 C :   -0.153523
  67 C :   -0.059177
  68 H :    0.019367
  69 H :    0.026640
  70 H :    0.030479
  71 H :    0.029313
  72 H :    0.026465
  73 H :    0.026696
  74 H :    0.015389
  75 H :    0.014093
  76 H :    0.027695
  77 H :    0.015049
  78 H :    0.014366
  79 H :    0.039751
  80 H :    0.031132
  81 H :    0.038260
  82 H :    0.039432
  83 H :    0.038697
  84 H :    0.038549
  85 H :    0.040332
  86 H :    0.038165
  87 H :    0.027566
  88 H :    0.026185
  89 H :    0.026061
  90 H :    0.022567
  91 H :    0.022192
  92 H :    0.022064
  93 H :    0.029927
  94 H :    0.021930
  95 H :    0.028315
  96 H :    0.093563
  97 H :    0.033715
  98 H :    0.032240
  99 H :    0.027496
 100 H :    0.046619
 101 H :    0.038055
 102 H :    0.039964
 103 H :    0.027484
 104 H :    0.033758

  Mayer bond orders larger than 0.100000
B(  0-C ,  1-C ) :   1.5453 B(  0-C , 14-S ) :   1.1497 B(  0-C , 68-H ) :   0.9712
B(  1-C ,  2-C ) :   1.2822 B(  1-C , 69-H ) :   0.9985 B(  2-C ,  3-C ) :   0.9609
B(  2-C , 13-C ) :   1.5151 B(  3-C ,  4-C ) :   1.4028 B(  3-C ,  8-C ) :   1.3113
B(  4-C ,  5-C ) :   1.3005 B(  4-C , 70-H ) :   1.0105 B(  5-C ,  6-C ) :   1.3180
B(  5-C , 11-O ) :   1.1354 B(  6-C ,  7-C ) :   1.3063 B(  6-C , 71-H ) :   1.0066
B(  7-C ,  8-C ) :   1.3372 B(  7-C ,  9-O ) :   1.1429 B(  8-C , 72-H ) :   0.9984
B(  9-O , 10-C ) :   0.9691 B( 10-C , 73-H ) :   0.9771 B( 10-C , 74-H ) :   0.9672
B( 10-C , 75-H ) :   0.9696 B( 11-O , 12-C ) :   0.9707 B( 12-C , 76-H ) :   0.9793
B( 12-C , 77-H ) :   0.9693 B( 12-C , 78-H ) :   0.9692 B( 13-C , 14-S ) :   1.1411
B( 13-C , 15-C ) :   1.0824 B( 15-C , 16-C ) :   1.4195 B( 15-C , 18-C ) :   0.1143
B( 15-C , 20-C ) :   1.2096 B( 16-C , 17-C ) :   1.2769 B( 16-C , 79-H ) :   0.9876
B( 17-C , 18-C ) :   1.3904 B( 17-C , 80-H ) :   1.0050 B( 18-C , 19-C ) :   1.2196
B( 18-C , 27-C ) :   1.0630 B( 19-C , 20-C ) :   1.2647 B( 19-C , 24-N ) :   1.4157
B( 20-C , 21-N ) :   1.4136 B( 21-N , 22-C ) :   1.6668 B( 22-C , 23-C ) :   1.1820
B( 22-C , 26-C ) :   1.0972 B( 23-C , 24-N ) :   1.6717 B( 23-C , 25-C ) :   1.0958
B( 25-C , 81-H ) :   0.9415 B( 25-C , 82-H ) :   0.9442 B( 25-C , 83-H ) :   0.9414
B( 26-C , 84-H ) :   0.9413 B( 26-C , 85-H ) :   0.9436 B( 26-C , 86-H ) :   0.9408
B( 27-C , 28-C ) :   1.5027 B( 27-C , 33-S ) :   1.1389 B( 28-C , 29-C ) :   1.0660
B( 28-C , 31-C ) :   1.2745 B( 29-C , 30-C ) :   1.1034 B( 29-C , 87-H ) :   0.9212
B( 29-C , 88-H ) :   0.9188 B( 30-C , 89-H ) :   0.9613 B( 30-C , 90-H ) :   0.9666
B( 30-C , 91-H ) :   0.9681 B( 31-C , 32-C ) :   1.4381 B( 31-C , 92-H ) :   1.0026
B( 32-C , 33-S ) :   1.1011 B( 32-C , 34-C ) :   1.1681 B( 34-C , 35-C ) :   1.6637
B( 34-C , 93-H ) :   0.9761 B( 35-C , 36-C ) :   1.1311 B( 35-C , 94-H ) :   0.9595
B( 36-C , 37-C ) :   1.4746 B( 36-C , 40-S ) :   1.1030 B( 37-C , 38-C ) :   1.2311
B( 37-C , 95-H ) :   1.0096 B( 38-C , 39-C ) :   1.3926 B( 38-C , 43-N ) :   1.1694
B( 39-C , 40-S ) :   1.0265 B( 39-C , 41-C ) :   1.4053 B( 41-C , 42-C ) :   1.3576
B( 41-C , 46-S ) :   1.0624 B( 42-C , 43-N ) :   1.1495 B( 42-C , 44-C ) :   1.2895
B( 43-N , 96-H ) :   0.9350 B( 44-C , 45-C ) :   1.3952 B( 44-C , 97-H ) :   1.0082
B( 45-C , 46-S ) :   1.0792 B( 45-C , 47-C ) :   1.2040 B( 47-C , 48-C ) :   1.5538
B( 47-C , 98-H ) :   0.9266 B( 48-C , 49-C ) :   1.3008 B( 48-C , 99-H ) :   0.9601
B( 49-C , 50-C ) :   1.4915 B( 49-C ,100-H ) :   0.9364 B( 50-C , 51-C ) :   1.1021
B( 50-C , 59-C ) :   0.9581 B( 51-C , 52-C ) :   1.5973 B( 51-C , 57-C ) :   0.9927
B( 52-C , 53-C ) :   1.1488 B( 52-C , 55-C ) :   1.1432 B( 53-C , 54-N ) :   2.9672
B( 55-C , 56-N ) :   2.9882 B( 57-C , 58-C ) :   1.2752 B( 57-C , 64-C ) :   1.4160
B( 58-C , 59-C ) :   0.9573 B( 58-C , 61-C ) :   1.4273 B( 59-C , 60-O ) :   2.1355
B( 60-O , 98-H ) :   0.1078 B( 61-C , 62-C ) :   1.2407 B( 61-C ,101-H ) :   1.0167
B( 62-C , 63-C ) :   1.3103 B( 62-C , 67-C ) :   1.1704 B( 63-C , 64-C ) :   1.3190
B( 63-C , 65-S ) :   1.0952 B( 64-C ,102-H ) :   0.9825 B( 65-S , 66-C ) :   1.1252
B( 66-C , 67-C ) :   1.6284 B( 66-C ,103-H ) :   0.9691 B( 67-C ,104-H ) :   0.9989

-----------------------------------------------------------------------------
         ABSORPTION SPECTRUM VIA TRANSITION ELECTRIC DIPOLE MOMENTS
-----------------------------------------------------------------------------
State   Energy  Wavelength   fosc         T2         TX        TY        TZ
        (cm-1)    (nm)                  (au**2)     (au)      (au)      (au)
-----------------------------------------------------------------------------
   0   15785.7    633.5   2.497579871  52.08732   1.64859  -5.25691  -4.66202
   1   21422.1    466.8   0.333028099   5.11794  -0.75435  -2.13166  -0.07022
   2   24340.6    410.8   0.022649842   0.30634  -0.24511  -0.27613  -0.41234
   3   24475.8    408.6   0.072009719   0.96857  -0.77661   0.18817   0.57449
   4   26961.8    370.9   0.049206004   0.60082  -0.66916  -0.21878   0.32431
   5   27298.9    366.3   0.119232277   1.43789   0.16514  -1.08613  -0.48055
   6   27801.5    359.7   0.171341094   2.02894  -1.22238  -0.71055  -0.17275
   7   28126.3    355.5   0.274271942   3.21029   1.00991  -1.04416  -1.04886
   8   28597.9    349.7   0.002885419   0.03322  -0.03415  -0.10248  -0.14679
   9   29155.2    343.0   0.054288004   0.61300   0.06260  -0.71798  -0.30593
  10   29919.3    334.2   0.007873651   0.08664   0.26117   0.07759   0.11140
  11   30864.8    324.0   0.041573931   0.44344  -0.32848   0.57918  -0.00926
  12   31154.9    321.0   0.045111957   0.47669   0.51727   0.45654   0.02628
  13   32044.7    312.1   0.091688433   0.94196  -0.96630  -0.05711   0.07042
  14   32424.2    308.4   0.025588465   0.25981   0.48620  -0.15196  -0.01794
  15   33081.1    302.3   0.005242873   0.05218  -0.21342   0.05008   0.06419
  16   33157.9    301.6   0.005654261   0.05614  -0.06855   0.22622   0.01623
  17   33534.5    298.2   0.344605977   3.38304   1.76478   0.49127  -0.16499
  18   33747.7    296.3   0.145399277   1.41838  -1.12785   0.37113   0.09282
  19   34355.8    291.1   0.002718613   0.02605  -0.10039   0.10616  -0.06858
  20   34985.7    285.8   0.026714989   0.25139   0.39508  -0.24453   0.18842
  21   35574.8    281.1   0.000963938   0.00892   0.08339  -0.04323   0.00987
  22   35918.1    278.4   0.094269478   0.86404  -0.81535  -0.29920   0.33124
  23   35973.7    278.0   0.117147607   1.07207   0.26222  -0.90962  -0.41941
  24   36316.6    275.4   0.045777685   0.41498   0.11349   0.59688   0.21409
  25   36437.3    274.4   0.072170136   0.65206  -0.46782  -0.64443   0.13383
  26   36880.1    271.1   0.018517129   0.16529   0.38788  -0.12038   0.01886
  27   37517.1    266.5   0.043486481   0.38159   0.59444   0.15115   0.07345
  28   38188.8    261.9   0.030372716   0.26183   0.46089   0.22073  -0.02634
  29   38703.6    258.4   0.022661711   0.19276  -0.10465  -0.29864  -0.30434
  30   38768.6    257.9   0.220329808   1.87098  -0.36438   0.90363   0.96003
  31   39071.8    255.9   0.123243201   1.03843  -0.90123  -0.46017  -0.12022
  32   39188.8    255.2   0.054920969   0.46137  -0.66899   0.03508  -0.11222
  33   39297.2    254.5   0.188916372   1.58264  -1.25786  -0.01042  -0.01774
  34   40084.7    249.5   0.110605622   0.90839   0.78046   0.51955   0.17129

FINAL SINGLE POINT ENERGY     -4604.535067844760

DIPOLE MOMENT
-------------
                                X             Y             Z
Electronic contribution:     35.50371     -89.52018     -86.58910
Nuclear contribution   :    -35.01852      91.76400      90.40524
                        -----------------------------------------
Total Dipole Moment    :      0.48519       2.24383       3.81614
                        -----------------------------------------
Magnitude (a.u.)       :      4.45343
Magnitude (Debye)      :     11.31973

Rotational constants in cm-1:     0.002451     0.000174     0.000166
Rotational constants in MHz :    73.479937     5.215834     4.991150

                             ****ORCA TERMINATED NORMALLY****
TOTAL RUN TIME: 0 days 0 hours 9 minutes 42 seconds 169 msec
