                         Program Version 4.2.0 -  RELEASE  -
|  1> # ORCA input file
|  2> # SCF done       -151.682380090023          0.000864132011
|  3> ! CAM-B3LYP def2-SVP def2/J RIJCOSX Grid4 TightSCF
|  4> %maxcore 5000
|  5> %tddft
|  6>     Mode sTDDFT
|  7>     Ethresh 5.0
|  8>     maxcore 5000
|  9> end
| 10>
| 11> %pal
| 12>   nprocs 6
| 13>   end
| 14> * xyz 0 1
| 15>    C       -0.12333         0.60880         1.99525
| 16>    C        0.51933         0.74482         0.80780
| 17>    C        0.69287        -0.48419         0.12831
| 18>    C        1.44635        -0.54690        -1.12963
| 19>    C        2.53379        -1.40191        -1.25989
| 20>    C        3.26858        -1.42362        -2.43977
| 21>    C        2.92172        -0.58602        -3.49652
| 22>    C        1.83906         0.27659        -3.36024
| 23>    C        1.10839         0.29963        -2.17606
| 24>    O        1.41413         1.13601        -4.32849
| 25>    C        2.10187         1.17493        -5.55395
| 26>    O        4.31117        -2.30111        -2.46706
| 27>    C        5.11246        -2.36961        -3.62018
| 28>    C        0.15444        -1.55104         0.82439
| 29>    S       -0.51953        -1.02548         2.34038
| 30>    C        0.02296        -2.92685         0.42297
| 31>    C        0.11114        -3.34536        -0.89683
| 32>    C       -0.01129        -4.68105        -1.25155
| 33>    C       -0.25611        -5.68592        -0.32490
| 34>    C       -0.40771        -5.28949         1.03586
| 35>    C       -0.26568        -3.92401         1.39727
| 36>    N       -0.41376        -3.55140         2.67829
| 37>    C       -0.69494        -4.43828         3.59471
| 38>    C       -0.83901        -5.80846         3.23963
| 39>    N       -0.69477        -6.19511         1.99675
| 40>    C       -1.15651        -6.85139         4.25870
| 41>    C       -0.85111        -3.96078         4.99795
| 42>    C       -0.36984        -7.06084        -0.73200
| 43>    N       -0.71991        -8.04558         0.13169
| 44>    C       -0.75041        -9.24512        -0.51096
| 45>    C       -0.40052        -9.01615        -1.84577
| 46>    C       -0.16732        -7.65568        -1.98214
| 47>    C       -1.10214       -10.42750         0.11576
| 48>    C       -1.42407       -11.47144         0.65185
| 49>    C       -1.80273       -12.65681         1.24565
| 50>    C       -1.78009       -13.92344         0.65999
| 51>    C       -1.26850       -14.15782        -0.72560
| 52>    C        0.26158       -14.17152        -0.74534
| 53>    C       -2.24061       -14.90747         1.52440
| 54>    C       -2.63095       -14.43949         2.77433
| 55>    S       -2.40303       -12.70969         2.87444
| 56>    C       -3.16103       -15.13622         3.87429
| 57>    C       -3.40280       -16.48040         3.91664
| 58>    C       -3.94116       -17.09664         5.06293
| 59>    N       -4.13318       -16.42682         6.20647
| 60>    C       -4.55023       -17.32994         7.09744
| 61>    C       -4.62831       -18.67812         6.49800
| 62>    C       -5.08363       -19.66626         7.49276
| 63>    O       -5.25012       -20.85871         7.34757
| 64>    C       -5.27550       -18.83876         8.69407
| 65>    C       -4.93962       -17.43023         8.41666
| 66>    N       -5.12804       -16.66650         9.51706
| 67>    C       -5.55774       -17.49927        10.44121
| 68>    C       -5.67671       -18.86390         9.99588
| 69>    C       -4.27577       -18.53480         5.19000
| 70>    C       -4.25623       -19.55404         4.16807
| 71>    C       -4.57531       -19.36942         2.89100
| 72>    H       -0.36450         1.37516         2.70528
| 73>    H        0.88282         1.67906         0.41824
| 74>    H        2.82241        -2.05819        -0.45513
| 75>    H        3.48912        -0.60370        -4.41151
| 76>    H        0.26933         0.97181        -2.09836
| 77>    H        1.58745         1.92240        -6.15592
| 78>    H        2.06316         0.20962        -6.06989
| 79>    H        3.14640         1.47641        -5.42183
| 80>    H        5.87259        -3.11920        -3.40560
| 81>    H        5.60094        -1.41239        -3.83057
| 82>    H        4.53489        -2.68463        -4.49592
| 83>    H        0.26914        -2.61544        -1.67386
| 84>    H        0.07500        -4.94385        -2.29415
| 85>    H       -0.39722        -6.85945         5.03918
| 86>    H       -1.19906        -7.83236         3.79256
| 87>    H       -2.11580        -6.63886         4.72867
| 88>    H       -1.83566        -4.22267         5.38228
| 89>    H       -0.72831        -2.88200         5.02068
| 90>    H       -0.10447        -4.42379         5.64193
| 91>    H       -0.89444        -7.83951         1.11143
| 92>    H       -0.33347        -9.76541        -2.60979
| 93>    H        0.12389        -7.15731        -2.88505
| 94>    H       -1.62677       -13.36289        -1.38381
| 95>    H       -1.64827       -15.11246        -1.09357
| 96>    H        0.65019       -13.21036        -0.41668
| 97>    H        0.62283       -14.36661        -1.75185
| 98>    H        0.64386       -14.94550        -0.08355
| 99>    H       -2.29707       -15.94650         1.25268
|100>    H       -3.41097       -14.56482         4.75819
|101>    H       -3.17088       -17.11136         3.07210
|102>    H       -5.78572       -17.13863        11.42981
|103>    H       -6.01065       -19.69041        10.59177
|104>    H       -4.02367       -20.54761         4.53057
|105>    H       -4.89406       -18.41352         2.50886
|106>    H       -4.57464       -20.18797         2.19129
|107> *
|108>
|109>                          ****END OF INPUT****

CARTESIAN COORDINATES (ANGSTROEM)
---------------------------------
  C     -0.123330    0.608800    1.995250
  C      0.519330    0.744820    0.807800
  C      0.692870   -0.484190    0.128310
  C      1.446350   -0.546900   -1.129630
  C      2.533790   -1.401910   -1.259890
  C      3.268580   -1.423620   -2.439770
  C      2.921720   -0.586020   -3.496520
  C      1.839060    0.276590   -3.360240
  C      1.108390    0.299630   -2.176060
  O      1.414130    1.136010   -4.328490
  C      2.101870    1.174930   -5.553950
  O      4.311170   -2.301110   -2.467060
  C      5.112460   -2.369610   -3.620180
  C      0.154440   -1.551040    0.824390
  S     -0.519530   -1.025480    2.340380
  C      0.022960   -2.926850    0.422970
  C      0.111140   -3.345360   -0.896830
  C     -0.011290   -4.681050   -1.251550
  C     -0.256110   -5.685920   -0.324900
  C     -0.407710   -5.289490    1.035860
  C     -0.265680   -3.924010    1.397270
  N     -0.413760   -3.551400    2.678290
  C     -0.694940   -4.438280    3.594710
  C     -0.839010   -5.808460    3.239630
  N     -0.694770   -6.195110    1.996750
  C     -1.156510   -6.851390    4.258700
  C     -0.851110   -3.960780    4.997950
  C     -0.369840   -7.060840   -0.732000
  N     -0.719910   -8.045580    0.131690
  C     -0.750410   -9.245120   -0.510960
  C     -0.400520   -9.016150   -1.845770
  C     -0.167320   -7.655680   -1.982140
  C     -1.102140  -10.427500    0.115760
  C     -1.424070  -11.471440    0.651850
  C     -1.802730  -12.656810    1.245650
  C     -1.780090  -13.923440    0.659990
  C     -1.268500  -14.157820   -0.725600
  C      0.261580  -14.171520   -0.745340
  C     -2.240610  -14.907470    1.524400
  C     -2.630950  -14.439490    2.774330
  S     -2.403030  -12.709690    2.874440
  C     -3.161030  -15.136220    3.874290
  C     -3.402800  -16.480400    3.916640
  C     -3.941160  -17.096640    5.062930
  N     -4.133180  -16.426820    6.206470
  C     -4.550230  -17.329940    7.097440
  C     -4.628310  -18.678120    6.498000
  C     -5.083630  -19.666260    7.492760
  O     -5.250120  -20.858710    7.347570
  C     -5.275500  -18.838760    8.694070
  C     -4.939620  -17.430230    8.416660
  N     -5.128040  -16.666500    9.517060
  C     -5.557740  -17.499270   10.441210
  C     -5.676710  -18.863900    9.995880
  C     -4.275770  -18.534800    5.190000
  C     -4.256230  -19.554040    4.168070
  C     -4.575310  -19.369420    2.891000
  H     -0.364500    1.375160    2.705280
  H      0.882820    1.679060    0.418240
  H      2.822410   -2.058190   -0.455130
  H      3.489120   -0.603700   -4.411510
  H      0.269330    0.971810   -2.098360
  H      1.587450    1.922400   -6.155920
  H      2.063160    0.209620   -6.069890
  H      3.146400    1.476410   -5.421830
  H      5.872590   -3.119200   -3.405600
  H      5.600940   -1.412390   -3.830570
  H      4.534890   -2.684630   -4.495920
  H      0.269140   -2.615440   -1.673860
  H      0.075000   -4.943850   -2.294150
  H     -0.397220   -6.859450    5.039180
  H     -1.199060   -7.832360    3.792560
  H     -2.115800   -6.638860    4.728670
  H     -1.835660   -4.222670    5.382280
  H     -0.728310   -2.882000    5.020680
  H     -0.104470   -4.423790    5.641930
  H     -0.894440   -7.839510    1.111430
  H     -0.333470   -9.765410   -2.609790
  H      0.123890   -7.157310   -2.885050
  H     -1.626770  -13.362890   -1.383810
  H     -1.648270  -15.112460   -1.093570
  H      0.650190  -13.210360   -0.416680
  H      0.622830  -14.366610   -1.751850
  H      0.643860  -14.945500   -0.083550
  H     -2.297070  -15.946500    1.252680
  H     -3.410970  -14.564820    4.758190
  H     -3.170880  -17.111360    3.072100
  H     -5.785720  -17.138630   11.429810
  H     -6.010650  -19.690410   10.591770
  H     -4.023670  -20.547610    4.530570
  H     -4.894060  -18.413520    2.508860
  H     -4.574640  -20.187970    2.191290

 Total Charge           Charge          ....    0
 Multiplicity           Mult            ....    1
 Number of Electrons    NEL             ....  408
 Basis Dimension        Dim             ....  981

ORBITAL ENERGIES
----------------

  NO   OCC          E(Eh)            E(eV)
   0   2.0000     -88.964316     -2420.8421
   1   2.0000     -88.936913     -2420.0964
   2   2.0000     -19.239774      -523.5409
   3   2.0000     -19.238983      -523.5193
   4   2.0000     -19.188707      -522.1513
   5   2.0000     -14.444919      -393.0662
   6   2.0000     -14.430709      -392.6796
   7   2.0000     -14.421886      -392.4395
   8   2.0000     -14.386252      -391.4698
   9   2.0000     -14.382020      -391.3547
  10   2.0000     -10.350188      -281.6429
  11   2.0000     -10.330782      -281.1149
  12   2.0000     -10.327653      -281.0297
  13   2.0000     -10.327581      -281.0278
  14   2.0000     -10.326957      -281.0108
  15   2.0000     -10.325631      -280.9747
  16   2.0000     -10.322150      -280.8800
  17   2.0000     -10.321519      -280.8628
  18   2.0000     -10.321062      -280.8504
  19   2.0000     -10.317709      -280.7591
  20   2.0000     -10.313174      -280.6357
  21   2.0000     -10.312649      -280.6214
  22   2.0000     -10.306992      -280.4675
  23   2.0000     -10.305783      -280.4346
  24   2.0000     -10.301519      -280.3186
  25   2.0000     -10.299560      -280.2653
  26   2.0000     -10.299235      -280.2564
  27   2.0000     -10.297377      -280.2059
  28   2.0000     -10.288928      -279.9760
  29   2.0000     -10.286974      -279.9228
  30   2.0000     -10.286759      -279.9169
  31   2.0000     -10.286489      -279.9096
  32   2.0000     -10.286308      -279.9047
  33   2.0000     -10.285640      -279.8865
  34   2.0000     -10.284186      -279.8469
  35   2.0000     -10.280056      -279.7346
  36   2.0000     -10.278218      -279.6845
  37   2.0000     -10.277829      -279.6740
  38   2.0000     -10.276706      -279.6434
  39   2.0000     -10.276020      -279.6247
  40   2.0000     -10.274860      -279.5932
  41   2.0000     -10.274452      -279.5821
  42   2.0000     -10.273490      -279.5559
  43   2.0000     -10.272918      -279.5403
  44   2.0000     -10.272620      -279.5322
  45   2.0000     -10.271675      -279.5065
  46   2.0000     -10.268535      -279.4210
  47   2.0000     -10.266926      -279.3773
  48   2.0000     -10.265305      -279.3332
  49   2.0000     -10.264717      -279.3172
  50   2.0000     -10.262017      -279.2437
  51   2.0000     -10.259915      -279.1865
  52   2.0000     -10.256798      -279.1017
  53   2.0000     -10.255023      -279.0534
  54   2.0000     -10.254852      -279.0487
  55   2.0000     -10.250177      -278.9215
  56   2.0000     -10.248484      -278.8754
  57   2.0000      -8.059777      -219.3177
  58   2.0000      -8.030956      -218.5334
  59   2.0000      -6.028989      -164.0571
  60   2.0000      -6.024967      -163.9477
  61   2.0000      -6.021902      -163.8643
  62   2.0000      -6.000396      -163.2791
  63   2.0000      -5.995709      -163.1515
  64   2.0000      -5.993475      -163.0907
  65   2.0000      -1.144601       -31.1462
  66   2.0000      -1.142329       -31.0844
  67   2.0000      -1.102768       -30.0078
  68   2.0000      -1.087880       -29.6027
  69   2.0000      -1.072430       -29.1823
  70   2.0000      -1.056376       -28.7455
  71   2.0000      -1.035430       -28.1755
  72   2.0000      -1.010396       -27.4943
  73   2.0000      -0.994188       -27.0532
  74   2.0000      -0.973400       -26.4875
  75   2.0000      -0.951551       -25.8930
  76   2.0000      -0.936801       -25.4917
  77   2.0000      -0.921367       -25.0717
  78   2.0000      -0.905151       -24.6304
  79   2.0000      -0.894333       -24.3360
  80   2.0000      -0.890760       -24.2388
  81   2.0000      -0.886920       -24.1343
  82   2.0000      -0.876310       -23.8456
  83   2.0000      -0.868315       -23.6281
  84   2.0000      -0.863173       -23.4881
  85   2.0000      -0.856131       -23.2965
  86   2.0000      -0.845605       -23.0101
  87   2.0000      -0.841601       -22.9011
  88   2.0000      -0.831642       -22.6301
  89   2.0000      -0.821836       -22.3633
  90   2.0000      -0.820440       -22.3253
  91   2.0000      -0.814635       -22.1673
  92   2.0000      -0.808310       -21.9952
  93   2.0000      -0.800776       -21.7902
  94   2.0000      -0.798677       -21.7331
  95   2.0000      -0.792078       -21.5535
  96   2.0000      -0.777278       -21.1508
  97   2.0000      -0.757789       -20.6205
  98   2.0000      -0.754297       -20.5255
  99   2.0000      -0.735154       -20.0046
 100   2.0000      -0.726839       -19.7783
 101   2.0000      -0.723662       -19.6918
 102   2.0000      -0.717600       -19.5269
 103   2.0000      -0.715096       -19.4588
 104   2.0000      -0.705446       -19.1962
 105   2.0000      -0.682080       -18.5603
 106   2.0000      -0.678786       -18.4707
 107   2.0000      -0.676210       -18.4006
 108   2.0000      -0.674080       -18.3427
 109   2.0000      -0.668449       -18.1894
 110   2.0000      -0.659224       -17.9384
 111   2.0000      -0.656820       -17.8730
 112   2.0000      -0.653208       -17.7747
 113   2.0000      -0.640568       -17.4307
 114   2.0000      -0.633814       -17.2470
 115   2.0000      -0.632141       -17.2014
 116   2.0000      -0.627024       -17.0622
 117   2.0000      -0.622966       -16.9518
 118   2.0000      -0.606181       -16.4950
 119   2.0000      -0.599381       -16.3100
 120   2.0000      -0.587076       -15.9752
 121   2.0000      -0.583592       -15.8803
 122   2.0000      -0.581852       -15.8330
 123   2.0000      -0.576667       -15.6919
 124   2.0000      -0.575129       -15.6501
 125   2.0000      -0.564457       -15.3597
 126   2.0000      -0.558338       -15.1932
 127   2.0000      -0.556705       -15.1487
 128   2.0000      -0.556414       -15.1408
 129   2.0000      -0.555718       -15.1219
 130   2.0000      -0.553800       -15.0697
 131   2.0000      -0.548412       -14.9230
 132   2.0000      -0.546671       -14.8757
 133   2.0000      -0.544171       -14.8076
 134   2.0000      -0.539917       -14.6919
 135   2.0000      -0.531878       -14.4731
 136   2.0000      -0.525388       -14.2965
 137   2.0000      -0.524441       -14.2708
 138   2.0000      -0.519565       -14.1381
 139   2.0000      -0.517123       -14.0716
 140   2.0000      -0.512622       -13.9492
 141   2.0000      -0.512455       -13.9446
 142   2.0000      -0.507319       -13.8049
 143   2.0000      -0.505673       -13.7601
 144   2.0000      -0.501993       -13.6599
 145   2.0000      -0.501218       -13.6388
 146   2.0000      -0.496996       -13.5239
 147   2.0000      -0.494556       -13.4575
 148   2.0000      -0.493057       -13.4168
 149   2.0000      -0.490664       -13.3517
 150   2.0000      -0.488756       -13.2997
 151   2.0000      -0.488033       -13.2800
 152   2.0000      -0.487007       -13.2521
 153   2.0000      -0.483598       -13.1594
 154   2.0000      -0.480647       -13.0791
 155   2.0000      -0.478671       -13.0253
 156   2.0000      -0.474824       -12.9206
 157   2.0000      -0.471707       -12.8358
 158   2.0000      -0.469532       -12.7766
 159   2.0000      -0.467350       -12.7172
 160   2.0000      -0.466028       -12.6813
 161   2.0000      -0.459745       -12.5103
 162   2.0000      -0.456798       -12.4301
 163   2.0000      -0.451823       -12.2947
 164   2.0000      -0.450602       -12.2615
 165   2.0000      -0.450506       -12.2589
 166   2.0000      -0.446806       -12.1582
 167   2.0000      -0.444343       -12.0912
 168   2.0000      -0.440893       -11.9973
 169   2.0000      -0.440503       -11.9867
 170   2.0000      -0.435566       -11.8524
 171   2.0000      -0.432951       -11.7812
 172   2.0000      -0.430252       -11.7077
 173   2.0000      -0.427098       -11.6219
 174   2.0000      -0.420724       -11.4485
 175   2.0000      -0.419322       -11.4103
 176   2.0000      -0.418488       -11.3876
 177   2.0000      -0.415940       -11.3183
 178   2.0000      -0.415390       -11.3033
 179   2.0000      -0.409795       -11.1511
 180   2.0000      -0.403306       -10.9745
 181   2.0000      -0.399174       -10.8621
 182   2.0000      -0.379466       -10.3258
 183   2.0000      -0.375311       -10.2127
 184   2.0000      -0.372398       -10.1335
 185   2.0000      -0.367564       -10.0019
 186   2.0000      -0.352471        -9.5912
 187   2.0000      -0.347006        -9.4425
 188   2.0000      -0.338041        -9.1986
 189   2.0000      -0.331532        -9.0215
 190   2.0000      -0.326685        -8.8895
 191   2.0000      -0.324567        -8.8319
 192   2.0000      -0.322191        -8.7673
 193   2.0000      -0.319697        -8.6994
 194   2.0000      -0.318601        -8.6696
 195   2.0000      -0.313041        -8.5183
 196   2.0000      -0.311098        -8.4654
 197   2.0000      -0.308125        -8.3845
 198   2.0000      -0.294878        -8.0240
 199   2.0000      -0.289121        -7.8674
 200   2.0000      -0.280797        -7.6409
 201   2.0000      -0.270132        -7.3507
 202   2.0000      -0.257509        -7.0072
 203   2.0000      -0.224628        -6.1124
 204   0.0000      -0.101597        -2.7646
 205   0.0000      -0.055939        -1.5222
 206   0.0000      -0.033861        -0.9214
 207   0.0000      -0.021755        -0.5920
 208   0.0000       0.005007         0.1363

MULLIKEN ATOMIC CHARGES
-----------------------
   0 C :   -0.055501
   1 C :    0.011370
   2 C :    0.089114
   3 C :    0.006166
   4 C :   -0.046970
   5 C :    0.245878
   6 C :   -0.210276
   7 C :    0.261802
   8 C :   -0.066140
   9 O :   -0.313669
  10 C :    0.179231
  11 O :   -0.310050
  12 C :    0.180485
  13 C :   -0.153679
  14 S :    0.139239
  15 C :    0.117188
  16 C :   -0.039868
  17 C :   -0.057944
  18 C :    0.147555
  19 C :   -0.002893
  20 C :   -0.045728
  21 N :   -0.023332
  22 C :   -0.157785
  23 C :   -0.142309
  24 N :   -0.067482
  25 C :    0.115353
  26 C :    0.123745
  27 C :   -0.013541
  28 N :   -0.020442
  29 C :   -0.015600
  30 C :    0.001134
  31 C :   -0.044077
  32 C :    0.086845
  33 C :   -0.086008
  34 C :   -0.176451
  35 C :   -0.004812
  36 C :    0.103355
  37 C :    0.015338
  38 C :   -0.030913
  39 C :   -0.067852
  40 S :    0.178471
  41 C :    0.110931
  42 C :   -0.075462
  43 C :    0.045766
  44 N :   -0.060557
  45 C :    0.059950
  46 C :   -0.113064
  47 C :    0.197243
  48 O :   -0.139939
  49 C :   -0.046865
  50 C :   -0.036027
  51 N :   -0.063915
  52 C :    0.081058
  53 C :   -0.096430
  54 C :   -0.011098
  55 C :   -0.030943
  56 C :   -0.024005
  57 H :    0.016283
  58 H :   -0.023454
  59 H :   -0.028992
  60 H :   -0.050275
  61 H :   -0.032525
  62 H :    0.036864
  63 H :    0.019188
  64 H :    0.020175
  65 H :    0.036775
  66 H :    0.019811
  67 H :    0.017347
  68 H :   -0.000682
  69 H :   -0.027951
  70 H :    0.033093
  71 H :    0.025981
  72 H :    0.033165
  73 H :    0.026002
  74 H :    0.037283
  75 H :    0.029428
  76 H :    0.126708
  77 H :   -0.032357
  78 H :   -0.035545
  79 H :    0.016581
  80 H :   -0.003273
  81 H :    0.025513
  82 H :    0.015174
  83 H :    0.010331
  84 H :   -0.015501
  85 H :    0.017999
  86 H :   -0.016527
  87 H :   -0.003715
  88 H :   -0.016414
  89 H :    0.021842
  90 H :    0.025417
  91 H :    0.030660
Sum of atomic charges:   -0.0000000

LOEWDIN ATOMIC CHARGES
----------------------
   0 C :   -0.192416
   1 C :   -0.064196
   2 C :   -0.046417
   3 C :   -0.007848
   4 C :   -0.063788
   5 C :    0.066461
   6 C :   -0.130441
   7 C :    0.068480
   8 C :   -0.069150
   9 O :   -0.105063
  10 C :    0.074100
  11 O :   -0.104352
  12 C :    0.073982
  13 C :   -0.175200
  14 S :    0.465505
  15 C :   -0.035631
  16 C :   -0.002495
  17 C :   -0.004468
  18 C :   -0.032771
  19 C :   -0.003484
  20 C :   -0.009818
  21 N :   -0.049208
  22 C :    0.001405
  23 C :    0.004750
  24 N :   -0.047689
  25 C :   -0.051642
  26 C :   -0.051684
  27 C :   -0.001284
  28 N :    0.113143
  29 C :   -0.047558
  30 C :   -0.040065
  31 C :   -0.068530
  32 C :   -0.015598
  33 C :   -0.075358
  34 C :   -0.172637
  35 C :   -0.040915
  36 C :   -0.025848
  37 C :   -0.047705
  38 C :   -0.027589
  39 C :   -0.183782
  40 S :    0.461132
  41 C :    0.044129
  42 C :   -0.065532
  43 C :    0.074097
  44 N :   -0.126326
  45 C :    0.045325
  46 C :   -0.035016
  47 C :    0.061604
  48 O :   -0.151792
  49 C :   -0.048064
  50 C :    0.004163
  51 N :   -0.105411
  52 C :    0.056708
  53 C :   -0.050489
  54 C :   -0.032064
  55 C :   -0.016289
  56 C :   -0.037064
  57 H :    0.019526
  58 H :    0.026672
  59 H :    0.031362
  60 H :    0.023422
  61 H :    0.030359
  62 H :    0.028985
  63 H :    0.013157
  64 H :    0.013669
  65 H :    0.029004
  66 H :    0.013616
  67 H :    0.012398
  68 H :    0.039579
  69 H :    0.031647
  70 H :    0.041167
  71 H :    0.037196
  72 H :    0.041428
  73 H :    0.038402
  74 H :    0.041532
  75 H :    0.039817
  76 H :    0.065459
  77 H :    0.026549
  78 H :    0.022196
  79 H :    0.034687
  80 H :    0.027940
  81 H :    0.028140
  82 H :    0.024251
  83 H :    0.023442
  84 H :    0.031643
  85 H :    0.042232
  86 H :    0.028066
  87 H :    0.018320
  88 H :    0.029896
  89 H :    0.042283
  90 H :    0.021593
  91 H :    0.028061

  Mayer bond orders larger than 0.100000
B(  0-C ,  1-C ) :   1.5448 B(  0-C , 14-S ) :   1.1509 B(  0-C , 57-H ) :   0.9711
B(  1-C ,  2-C ) :   1.2834 B(  1-C , 58-H ) :   0.9985 B(  2-C ,  3-C ) :   0.9588
B(  2-C , 13-C ) :   1.5187 B(  3-C ,  4-C ) :   1.3569 B(  3-C ,  8-C ) :   1.3529
B(  4-C ,  5-C ) :   1.3705 B(  4-C , 59-H ) :   1.0050 B(  5-C ,  6-C ) :   1.2735
B(  5-C , 11-O ) :   1.1345 B(  6-C ,  7-C ) :   1.2812 B(  6-C , 60-H ) :   0.9943
B(  7-C ,  8-C ) :   1.3482 B(  7-C ,  9-O ) :   1.1288 B(  8-C , 61-H ) :   1.0101
B(  9-O , 10-C ) :   0.9734 B( 10-C , 62-H ) :   0.9782 B( 10-C , 63-H ) :   0.9679
B( 10-C , 64-H ) :   0.9683 B( 11-O , 12-C ) :   0.9746 B( 12-C , 65-H ) :   0.9782
B( 12-C , 66-H ) :   0.9682 B( 12-C , 67-H ) :   0.9679 B( 13-C , 14-S ) :   1.1391
B( 13-C , 15-C ) :   1.0881 B( 15-C , 16-C ) :   1.4140 B( 15-C , 18-C ) :   0.1190
B( 15-C , 20-C ) :   1.2152 B( 16-C , 17-C ) :   1.2807 B( 16-C , 68-H ) :   0.9861
B( 17-C , 18-C ) :   1.4214 B( 17-C , 69-H ) :   1.0000 B( 18-C , 19-C ) :   1.1937
B( 18-C , 27-C ) :   1.0042 B( 19-C , 20-C ) :   1.2634 B( 19-C , 24-N ) :   1.3837
B( 20-C , 21-N ) :   1.4115 B( 21-N , 22-C ) :   1.6658 B( 22-C , 23-C ) :   1.1868
B( 22-C , 26-C ) :   1.0999 B( 23-C , 24-N ) :   1.6401 B( 23-C , 25-C ) :   1.0982
B( 24-N , 76-H ) :   0.1130 B( 25-C , 70-H ) :   0.9414 B( 25-C , 71-H ) :   0.9462
B( 25-C , 72-H ) :   0.9420 B( 26-C , 73-H ) :   0.9401 B( 26-C , 74-H ) :   0.9429
B( 26-C , 75-H ) :   0.9408 B( 27-C , 28-N ) :   1.3119 B( 27-C , 29-C ) :   0.1285
B( 27-C , 31-C ) :   1.4000 B( 28-N , 29-C ) :   1.2429 B( 28-N , 76-H ) :   0.8717
B( 29-C , 30-C ) :   1.3984 B( 29-C , 32-C ) :   0.8204 B( 30-C , 31-C ) :   1.3483
B( 30-C , 77-H ) :   1.0128 B( 31-C , 78-H ) :   0.9943 B( 32-C , 33-C ) :   2.1987
B( 33-C , 34-C ) :   0.9928 B( 34-C , 35-C ) :   1.4341 B( 34-C , 40-S ) :   1.1323
B( 35-C , 36-C ) :   1.0834 B( 35-C , 38-C ) :   1.3382 B( 36-C , 37-C ) :   1.1006
B( 36-C , 79-H ) :   0.9124 B( 36-C , 80-H ) :   0.9244 B( 37-C , 81-H ) :   0.9727
B( 37-C , 82-H ) :   0.9677 B( 37-C , 83-H ) :   0.9688 B( 38-C , 39-C ) :   1.4096
B( 38-C , 84-H ) :   0.9943 B( 39-C , 40-S ) :   1.0947 B( 39-C , 41-C ) :   1.1503
B( 41-C , 42-C ) :   1.5758 B( 41-C , 85-H ) :   0.9667 B( 42-C , 43-C ) :   1.2077
B( 42-C , 86-H ) :   0.9583 B( 43-C , 44-N ) :   1.5268 B( 43-C , 45-C ) :   0.1052
B( 43-C , 54-C ) :   1.0094 B( 44-N , 45-C ) :   1.4122 B( 45-C , 46-C ) :   1.0344
B( 45-C , 50-C ) :   1.3656 B( 46-C , 47-C ) :   0.8850 B( 46-C , 54-C ) :   1.6206
B( 47-C , 48-O ) :   2.2861 B( 47-C , 49-C ) :   0.9079 B( 49-C , 50-C ) :   1.0721
B( 49-C , 53-C ) :   1.5722 B( 50-C , 51-N ) :   1.3408 B( 51-N , 52-C ) :   1.6233
B( 52-C , 53-C ) :   1.1109 B( 52-C , 87-H ) :   0.9893 B( 53-C , 88-H ) :   1.0090
B( 54-C , 55-C ) :   1.0779 B( 55-C , 56-C ) :   1.9324 B( 55-C , 89-H ) :   0.9577
B( 56-C , 90-H ) :   0.9607 B( 56-C , 91-H ) :   0.9508

-----------------------------------------------------------------------------
         ABSORPTION SPECTRUM VIA TRANSITION ELECTRIC DIPOLE MOMENTS
-----------------------------------------------------------------------------
State   Energy  Wavelength   fosc         T2         TX        TY        TZ
        (cm-1)    (nm)                  (au**2)     (au)      (au)      (au)
-----------------------------------------------------------------------------
   0   14559.8    686.8   1.631960057  36.90022   1.92460   4.59242  -3.47934
   1   20896.7    478.5   0.365697708   5.76131  -0.08574  -2.19519  -0.96701
   2   21650.2    461.9   0.040050382   0.60900   0.00390  -0.50320  -0.59647
   3   21982.4    454.9   0.002452286   0.03673   0.02101   0.15473  -0.11110
   4   23152.9    431.9   0.353372926   5.02462   0.69483   0.42993  -2.08734
   5   25163.7    397.4   0.002159305   0.02825  -0.07185  -0.13815   0.06326
   6   25755.8    388.3   0.002154289   0.02754  -0.06321  -0.09004   0.12424
   7   27516.6    363.4   0.007443195   0.08905   0.12371   0.22586   0.15079
   8   27802.8    359.7   0.248292360   2.94002  -0.21905  -1.70048   0.02037
   9   28325.4    353.0   0.167103479   1.94216   0.58504   0.99928  -0.77545
  10   29356.7    340.6   0.023667798   0.26542  -0.21439  -0.27889   0.37639
  11   29460.0    339.4   0.022635329   0.25295  -0.06936   0.38265  -0.31892
  12   29760.1    336.0   0.027621123   0.30555  -0.04536  -0.50757  -0.21415
  13   31327.7    319.2   0.013937396   0.14646   0.10033  -0.20241  -0.30891
  14   31474.3    317.7   0.000653294   0.00683  -0.02852   0.02691   0.07277
  15   31739.7    315.1   0.001643788   0.01705   0.05470  -0.11621   0.02349
  16   32201.9    310.5   0.033467331   0.34215   0.03380   0.44891  -0.37348
  17   32739.9    305.4   0.029892469   0.30058   0.04379  -0.40580  -0.36605
  18   32966.9    303.3   0.010137232   0.10123  -0.10315   0.04457   0.29767
  19   34127.9    293.0   0.380077432   3.66638   0.29952   1.84993   0.39298
  20   34237.2    292.1   0.026939020   0.25904   0.19914   0.38374  -0.26856
  21   35071.1    285.1   0.050054052   0.46986   0.22977   0.34414  -0.54647
  22   35301.3    283.3   0.061130420   0.57009  -0.16004  -0.72468   0.13899
  23   36592.3    273.3   0.011046597   0.09938  -0.04543  -0.28810   0.11967
  24   37252.3    268.4   0.058092146   0.51338  -0.28694  -0.55766   0.34650
  25   37835.6    264.3   0.239159371   2.08095  -0.22892   0.33288   1.38482
  26   38085.3    262.6   0.028904578   0.24985   0.03448  -0.40676  -0.28846
  27   38426.5    260.2   0.012748981   0.10922   0.00020   0.33022   0.01335
  28   38832.2    257.5   0.007846272   0.06652   0.04556  -0.24127   0.07895
  29   39206.5    255.1   0.010210785   0.08574   0.09909  -0.04661  -0.27157
  30   39347.7    254.1   0.008836022   0.07393   0.08708   0.15817  -0.20330
  31   39577.5    252.7   0.015567158   0.12949  -0.03968   0.35700   0.02162
  32   40082.5    249.5   0.040664162   0.33399  -0.06460  -0.33734   0.46478
  33   40270.3    248.3   0.389635678   3.18529  -0.18691   0.36286   1.73744

FINAL SINGLE POINT ENERGY     -3104.583336583433

DIPOLE MOMENT
-------------
                                X             Y             Z
Electronic contribution:    -25.02637     -22.50919      36.57866
Nuclear contribution   :     26.88304      25.23747     -39.38391
                        -----------------------------------------
Total Dipole Moment    :      1.85667       2.72828      -2.80524
                        -----------------------------------------
Magnitude (a.u.)       :      4.33130
Magnitude (Debye)      :     11.00928

Rotational constants in cm-1:     0.003142     0.000333     0.000306
Rotational constants in MHz :    94.205079     9.973626     9.168220

                             ****ORCA TERMINATED NORMALLY****
TOTAL RUN TIME: 0 days 0 hours 7 minutes 22 seconds 67 msec
