                         Program Version 4.2.0 -  RELEASE  -
|  1> # ORCA input file
|  2> # SCF done       -138.379261303981          0.000841255302
|  3> ! CAM-B3LYP def2-SVP def2/J RIJCOSX Grid4 TightSCF
|  4> %maxcore 5000
|  5> %tddft
|  6>     Mode sTDDFT
|  7>     Ethresh 5.0
|  8>     maxcore 5000
|  9> end
| 10>
| 11> %pal
| 12>   nprocs 6
| 13>   end
| 14> * xyz 0 1
| 15>    C        2.74257         1.00791        -1.25175
| 16>    O        3.88921         0.50640        -0.57554
| 17>    C        3.83946         0.54522         0.75190
| 18>    O        2.97685         1.07091         1.40179
| 19>    C        5.07041        -0.07107         1.35806
| 20>    C        6.23230         0.68027         1.49436
| 21>    C        7.31727         0.09676         2.11561
| 22>    C        7.28072        -1.21787         2.61303
| 23>    C        6.12118        -1.96124         2.48006
| 24>    C        5.02120        -1.37843         1.84960
| 25>    C        3.75928        -2.14203         1.65107
| 26>    O        2.89391        -1.80958         0.87839
| 27>    O        3.69617        -3.23128         2.41447
| 28>    C        2.51895        -4.01683         2.28720
| 29>    C        8.58176        -1.54884         3.21351
| 30>    C        8.87807        -2.77943         3.75007
| 31>    C       10.08723        -3.21049         4.31334
| 32>    N       10.99945        -3.72086         4.79330
| 33>    C        7.97550        -3.86488         3.81092
| 34>    N        7.32205        -4.80431         3.90820
| 35>    C        9.41081        -0.37865         3.09914
| 36>    C       10.67701        -0.04008         3.51007
| 37>    C       11.63097        -0.73116         4.20003
| 38>    C       12.59888        -1.17188         4.80537
| 39>    C       13.59527        -1.81591         5.49820
| 40>    C       14.83518        -1.33688         5.95207
| 41>    C       15.46368        -2.37758         6.60775
| 42>    C       14.60778        -3.49060         6.54789
| 43>    C       14.82111        -4.76110         7.06688
| 44>    C       15.04263        -5.85947         7.53378
| 45>    C       15.34024        -7.09796         8.08628
| 46>    C       16.44009        -7.46449         8.85877
| 47>    C       16.29917        -8.81087         9.17487
| 48>    C       15.11481        -9.25681         8.59189
| 49>    C       14.56654       -10.53346         8.62728
| 50>    C       14.14405       -11.66976         8.68523
| 51>    C       13.70818       -12.98552         8.78358
| 52>    C       14.29182       -14.03959         9.48830
| 53>    C       13.50500       -15.16265         9.28284
| 54>    C       12.43672       -14.80433         8.45288
| 55>    C       11.32682       -15.49835         7.91462
| 56>    C       10.98737       -16.81308         8.00882
| 57>    C       11.65266       -17.90360         8.64823
| 58>    C       11.02703       -19.09127         8.54378
| 59>    C        9.78173       -19.07735         7.80334
| 60>    O        9.02482       -19.97765         7.56166
| 61>    S        9.50060       -17.38568         7.24485
| 62>    N       12.59413       -13.46946         8.17392
| 63>    N       14.54879        -8.20149         7.93813
| 64>    N       13.49178        -3.12693         5.87812
| 65>    C        8.64879         0.67630         2.38898
| 66>    O        9.04711         1.78438         2.10355
| 67>    H        1.88655         0.36422        -1.04251
| 68>    H        2.98429         0.99436        -2.31112
| 69>    H        2.51750         2.02249        -0.91677
| 70>    H        6.29241         1.69418         1.13005
| 71>    H        6.03411        -2.97153         2.84234
| 72>    H        2.65453        -4.87056         2.94587
| 73>    H        2.39077        -4.34284         1.25287
| 74>    H        1.64352        -3.43520         2.58367
| 75>    H       10.95811         0.97732         3.23847
| 76>    H       15.20525        -0.34092         5.80924
| 77>    H       16.42588        -2.36341         7.07994
| 78>    H       17.24030        -6.81284         9.14779
| 79>    H       16.96809        -9.41227         9.75733
| 80>    H       15.18479       -13.97354        10.07718
| 81>    H       13.69096       -16.12852         9.70450
| 82>    H       10.64556       -14.88039         7.34084
| 83>    H       12.58692       -17.76633         9.15992
| 84>    H       11.37567       -20.02173         8.95646
| 85>    H       11.97421       -12.92982         7.59187
| 86>    H       13.68287        -8.22884         7.42500
| 87>    H       12.68175        -3.69637         5.65200
| 88> *
| 89>
| 90>                          ****END OF INPUT****

CARTESIAN COORDINATES (ANGSTROEM)
---------------------------------
  C      2.742570    1.007910   -1.251750
  O      3.889210    0.506400   -0.575540
  C      3.839460    0.545220    0.751900
  O      2.976850    1.070910    1.401790
  C      5.070410   -0.071070    1.358060
  C      6.232300    0.680270    1.494360
  C      7.317270    0.096760    2.115610
  C      7.280720   -1.217870    2.613030
  C      6.121180   -1.961240    2.480060
  C      5.021200   -1.378430    1.849600
  C      3.759280   -2.142030    1.651070
  O      2.893910   -1.809580    0.878390
  O      3.696170   -3.231280    2.414470
  C      2.518950   -4.016830    2.287200
  C      8.581760   -1.548840    3.213510
  C      8.878070   -2.779430    3.750070
  C     10.087230   -3.210490    4.313340
  N     10.999450   -3.720860    4.793300
  C      7.975500   -3.864880    3.810920
  N      7.322050   -4.804310    3.908200
  C      9.410810   -0.378650    3.099140
  C     10.677010   -0.040080    3.510070
  C     11.630970   -0.731160    4.200030
  C     12.598880   -1.171880    4.805370
  C     13.595270   -1.815910    5.498200
  C     14.835180   -1.336880    5.952070
  C     15.463680   -2.377580    6.607750
  C     14.607780   -3.490600    6.547890
  C     14.821110   -4.761100    7.066880
  C     15.042630   -5.859470    7.533780
  C     15.340240   -7.097960    8.086280
  C     16.440090   -7.464490    8.858770
  C     16.299170   -8.810870    9.174870
  C     15.114810   -9.256810    8.591890
  C     14.566540  -10.533460    8.627280
  C     14.144050  -11.669760    8.685230
  C     13.708180  -12.985520    8.783580
  C     14.291820  -14.039590    9.488300
  C     13.505000  -15.162650    9.282840
  C     12.436720  -14.804330    8.452880
  C     11.326820  -15.498350    7.914620
  C     10.987370  -16.813080    8.008820
  C     11.652660  -17.903600    8.648230
  C     11.027030  -19.091270    8.543780
  C      9.781730  -19.077350    7.803340
  O      9.024820  -19.977650    7.561660
  S      9.500600  -17.385680    7.244850
  N     12.594130  -13.469460    8.173920
  N     14.548790   -8.201490    7.938130
  N     13.491780   -3.126930    5.878120
  C      8.648790    0.676300    2.388980
  O      9.047110    1.784380    2.103550
  H      1.886550    0.364220   -1.042510
  H      2.984290    0.994360   -2.311120
  H      2.517500    2.022490   -0.916770
  H      6.292410    1.694180    1.130050
  H      6.034110   -2.971530    2.842340
  H      2.654530   -4.870560    2.945870
  H      2.390770   -4.342840    1.252870
  H      1.643520   -3.435200    2.583670
  H     10.958110    0.977320    3.238470
  H     15.205250   -0.340920    5.809240
  H     16.425880   -2.363410    7.079940
  H     17.240300   -6.812840    9.147790
  H     16.968090   -9.412270    9.757330
  H     15.184790  -13.973540   10.077180
  H     13.690960  -16.128520    9.704500
  H     10.645560  -14.880390    7.340840
  H     12.586920  -17.766330    9.159920
  H     11.375670  -20.021730    8.956460
  H     11.974210  -12.929820    7.591870
  H     13.682870   -8.228840    7.425000
  H     12.681750   -3.696370    5.652000

 Total Charge           Charge          ....    0
 Multiplicity           Mult            ....    1
 Number of Electrons    NEL             ....  360
 Basis Dimension        Dim             ....  837

ORBITAL ENERGIES
----------------

  NO   OCC          E(Eh)            E(eV)
   0   2.0000     -88.925493     -2419.7857
   1   2.0000     -19.270885      -524.3874
   2   2.0000     -19.255144      -523.9591
   3   2.0000     -19.219487      -522.9888
   4   2.0000     -19.215380      -522.8771
   5   2.0000     -19.199768      -522.4523
   6   2.0000     -19.198399      -522.4150
   7   2.0000     -14.477715      -393.9587
   8   2.0000     -14.477521      -393.9534
   9   2.0000     -14.468411      -393.7055
  10   2.0000     -14.430586      -392.6762
  11   2.0000     -14.419045      -392.3622
  12   2.0000     -10.411273      -283.3052
  13   2.0000     -10.399631      -282.9883
  14   2.0000     -10.368089      -282.1301
  15   2.0000     -10.366610      -282.0898
  16   2.0000     -10.349983      -281.6374
  17   2.0000     -10.347663      -281.5742
  18   2.0000     -10.339592      -281.3546
  19   2.0000     -10.336431      -281.2686
  20   2.0000     -10.331575      -281.1364
  21   2.0000     -10.327581      -281.0278
  22   2.0000     -10.327043      -281.0131
  23   2.0000     -10.326421      -280.9962
  24   2.0000     -10.324832      -280.9530
  25   2.0000     -10.324765      -280.9511
  26   2.0000     -10.322711      -280.8952
  27   2.0000     -10.317244      -280.7465
  28   2.0000     -10.314971      -280.6846
  29   2.0000     -10.313407      -280.6421
  30   2.0000     -10.312772      -280.6248
  31   2.0000     -10.310627      -280.5664
  32   2.0000     -10.310627      -280.5664
  33   2.0000     -10.306187      -280.4456
  34   2.0000     -10.305107      -280.4162
  35   2.0000     -10.304729      -280.4059
  36   2.0000     -10.304066      -280.3879
  37   2.0000     -10.301622      -280.3214
  38   2.0000     -10.300434      -280.2891
  39   2.0000     -10.299622      -280.2670
  40   2.0000     -10.292799      -280.0813
  41   2.0000     -10.292417      -280.0709
  42   2.0000     -10.289454      -279.9903
  43   2.0000     -10.287825      -279.9460
  44   2.0000     -10.287135      -279.9272
  45   2.0000     -10.283810      -279.8367
  46   2.0000     -10.282413      -279.7987
  47   2.0000     -10.276623      -279.6411
  48   2.0000     -10.274132      -279.5733
  49   2.0000     -10.272965      -279.5416
  50   2.0000     -10.272822      -279.5377
  51   2.0000     -10.271410      -279.4993
  52   2.0000      -8.023477      -218.3299
  53   2.0000      -5.992856      -163.0739
  54   2.0000      -5.989340      -162.9782
  55   2.0000      -5.984198      -162.8383
  56   2.0000      -1.204464       -32.7751
  57   2.0000      -1.188017       -32.3276
  58   2.0000      -1.133759       -30.8512
  59   2.0000      -1.121543       -30.5187
  60   2.0000      -1.109333       -30.1865
  61   2.0000      -1.095079       -29.7986
  62   2.0000      -1.094941       -29.7949
  63   2.0000      -1.094273       -29.7767
  64   2.0000      -1.093836       -29.7648
  65   2.0000      -1.028136       -27.9770
  66   2.0000      -1.008037       -27.4301
  67   2.0000      -0.999954       -27.2101
  68   2.0000      -0.967490       -26.3268
  69   2.0000      -0.962226       -26.1835
  70   2.0000      -0.918884       -25.0041
  71   2.0000      -0.909787       -24.7566
  72   2.0000      -0.905582       -24.6422
  73   2.0000      -0.897689       -24.4273
  74   2.0000      -0.885889       -24.1063
  75   2.0000      -0.885769       -24.1030
  76   2.0000      -0.884755       -24.0754
  77   2.0000      -0.883962       -24.0538
  78   2.0000      -0.880643       -23.9635
  79   2.0000      -0.863851       -23.5066
  80   2.0000      -0.849214       -23.1083
  81   2.0000      -0.834411       -22.7055
  82   2.0000      -0.827437       -22.5157
  83   2.0000      -0.823310       -22.4034
  84   2.0000      -0.810250       -22.0480
  85   2.0000      -0.796346       -21.6697
  86   2.0000      -0.784782       -21.3550
  87   2.0000      -0.774823       -21.0840
  88   2.0000      -0.749753       -20.4018
  89   2.0000      -0.736009       -20.0278
  90   2.0000      -0.721818       -19.6417
  91   2.0000      -0.715499       -19.4697
  92   2.0000      -0.699796       -19.0424
  93   2.0000      -0.697339       -18.9756
  94   2.0000      -0.693308       -18.8659
  95   2.0000      -0.691496       -18.8166
  96   2.0000      -0.687481       -18.7073
  97   2.0000      -0.683159       -18.5897
  98   2.0000      -0.679916       -18.5015
  99   2.0000      -0.677485       -18.4353
 100   2.0000      -0.668916       -18.2021
 101   2.0000      -0.666008       -18.1230
 102   2.0000      -0.657667       -17.8960
 103   2.0000      -0.635667       -17.2974
 104   2.0000      -0.632686       -17.2163
 105   2.0000      -0.625584       -17.0230
 106   2.0000      -0.622792       -16.9470
 107   2.0000      -0.602434       -16.3931
 108   2.0000      -0.600844       -16.3498
 109   2.0000      -0.588817       -16.0225
 110   2.0000      -0.581809       -15.8318
 111   2.0000      -0.576552       -15.6888
 112   2.0000      -0.574212       -15.6251
 113   2.0000      -0.573241       -15.5987
 114   2.0000      -0.570452       -15.5228
 115   2.0000      -0.557501       -15.1704
 116   2.0000      -0.551216       -14.9994
 117   2.0000      -0.548221       -14.9179
 118   2.0000      -0.546158       -14.8617
 119   2.0000      -0.543799       -14.7975
 120   2.0000      -0.540835       -14.7169
 121   2.0000      -0.538747       -14.6601
 122   2.0000      -0.537810       -14.6346
 123   2.0000      -0.536319       -14.5940
 124   2.0000      -0.535792       -14.5796
 125   2.0000      -0.532669       -14.4947
 126   2.0000      -0.531897       -14.4737
 127   2.0000      -0.527958       -14.3665
 128   2.0000      -0.517464       -14.0809
 129   2.0000      -0.516469       -14.0538
 130   2.0000      -0.510738       -13.8979
 131   2.0000      -0.504106       -13.7174
 132   2.0000      -0.503529       -13.7017
 133   2.0000      -0.500840       -13.6285
 134   2.0000      -0.498915       -13.5762
 135   2.0000      -0.497338       -13.5333
 136   2.0000      -0.496207       -13.5025
 137   2.0000      -0.495068       -13.4715
 138   2.0000      -0.492761       -13.4087
 139   2.0000      -0.492504       -13.4017
 140   2.0000      -0.491025       -13.3615
 141   2.0000      -0.485522       -13.2117
 142   2.0000      -0.481735       -13.1087
 143   2.0000      -0.470366       -12.7993
 144   2.0000      -0.468981       -12.7616
 145   2.0000      -0.462412       -12.5829
 146   2.0000      -0.458192       -12.4680
 147   2.0000      -0.456862       -12.4318
 148   2.0000      -0.451915       -12.2972
 149   2.0000      -0.447123       -12.1668
 150   2.0000      -0.442245       -12.0341
 151   2.0000      -0.440001       -11.9730
 152   2.0000      -0.439815       -11.9680
 153   2.0000      -0.437077       -11.8935
 154   2.0000      -0.426780       -11.6133
 155   2.0000      -0.425523       -11.5791
 156   2.0000      -0.415925       -11.3179
 157   2.0000      -0.413492       -11.2517
 158   2.0000      -0.410995       -11.1837
 159   2.0000      -0.394198       -10.7267
 160   2.0000      -0.388897       -10.5824
 161   2.0000      -0.370382       -10.0786
 162   2.0000      -0.369944       -10.0667
 163   2.0000      -0.366034        -9.9603
 164   2.0000      -0.364204        -9.9105
 165   2.0000      -0.361522        -9.8375
 166   2.0000      -0.358402        -9.7526
 167   2.0000      -0.351316        -9.5598
 168   2.0000      -0.349388        -9.5073
 169   2.0000      -0.344940        -9.3863
 170   2.0000      -0.343058        -9.3351
 171   2.0000      -0.342076        -9.3084
 172   2.0000      -0.340462        -9.2644
 173   2.0000      -0.337775        -9.1913
 174   2.0000      -0.325733        -8.8636
 175   2.0000      -0.321966        -8.7611
 176   2.0000      -0.318086        -8.6556
 177   2.0000      -0.293601        -7.9893
 178   2.0000      -0.260912        -7.0998
 179   2.0000      -0.232227        -6.3192
 180   0.0000      -0.100398        -2.7320
 181   0.0000      -0.072304        -1.9675
 182   0.0000      -0.062968        -1.7135
 183   0.0000      -0.025889        -0.7045
 184   0.0000      -0.005292        -0.1440

MULLIKEN ATOMIC CHARGES
-----------------------
   0 C :    0.188902
   1 O :   -0.293245
   2 C :    0.184051
   3 O :   -0.210610
   4 C :    0.025374
   5 C :   -0.039583
   6 C :    0.006239
   7 C :    0.030703
   8 C :   -0.055691
   9 C :    0.022027
  10 C :    0.203648
  11 O :   -0.209021
  12 O :   -0.285855
  13 C :    0.188605
  14 C :    0.366365
  15 C :   -0.384430
  16 C :   -0.131988
  17 N :    0.126436
  18 C :   -0.203283
  19 N :    0.152582
  20 C :   -0.139312
  21 C :   -0.060584
  22 C :   -0.065527
  23 C :    0.170026
  24 C :   -0.039329
  25 C :    0.036423
  26 C :   -0.004383
  27 C :   -0.001587
  28 C :    0.021828
  29 C :    0.041751
  30 C :   -0.026982
  31 C :    0.002627
  32 C :   -0.001078
  33 C :   -0.015107
  34 C :    0.020566
  35 C :    0.018232
  36 C :   -0.011712
  37 C :   -0.003733
  38 C :   -0.045895
  39 C :    0.096623
  40 C :    0.063899
  41 C :   -0.118586
  42 C :    0.089436
  43 C :   -0.015622
  44 C :    0.080473
  45 O :   -0.167320
  46 S :    0.003608
  47 N :   -0.048022
  48 N :   -0.043557
  49 N :   -0.026431
  50 C :    0.133594
  51 O :   -0.140989
  52 H :    0.040345
  53 H :    0.033381
  54 H :    0.031671
  55 H :    0.000140
  56 H :    0.008340
  57 H :    0.044876
  58 H :    0.035735
  59 H :    0.038319
  60 H :    0.055610
  61 H :   -0.014743
  62 H :   -0.019280
  63 H :   -0.022097
  64 H :   -0.022161
  65 H :   -0.022147
  66 H :   -0.023315
  67 H :   -0.018059
  68 H :   -0.013045
  69 H :    0.005027
  70 H :    0.123988
  71 H :    0.128029
  72 H :    0.124827
Sum of atomic charges:    0.0000000

LOEWDIN ATOMIC CHARGES
----------------------
   0 C :    0.083986
   1 O :   -0.080006
   2 C :    0.076223
   3 O :   -0.164074
   4 C :    0.002046
   5 C :    0.026794
   6 C :   -0.027712
   7 C :   -0.014094
   8 C :    0.024704
   9 C :   -0.041636
  10 C :    0.094304
  11 O :   -0.159859
  12 O :   -0.074949
  13 C :    0.085748
  14 C :    0.079484
  15 C :   -0.147363
  16 C :    0.033078
  17 N :   -0.067647
  18 C :   -0.019611
  19 N :   -0.054030
  20 C :   -0.108510
  21 C :    0.059759
  22 C :   -0.059008
  23 C :    0.027078
  24 C :   -0.044987
  25 C :   -0.012522
  26 C :   -0.047217
  27 C :    0.000584
  28 C :   -0.047215
  29 C :   -0.024617
  30 C :   -0.034843
  31 C :   -0.037779
  32 C :   -0.043504
  33 C :   -0.027071
  34 C :   -0.041412
  35 C :   -0.044707
  36 C :   -0.026132
  37 C :   -0.040087
  38 C :   -0.053941
  39 C :   -0.018316
  40 C :   -0.031473
  41 C :   -0.162084
  42 C :    0.002104
  43 C :   -0.068451
  44 C :   -0.061480
  45 O :   -0.155645
  46 S :    0.293570
  47 N :    0.106956
  48 N :    0.111074
  49 N :    0.127917
  50 C :    0.081308
  51 O :   -0.139815
  52 H :    0.027923
  53 H :    0.025583
  54 H :    0.022314
  55 H :    0.045015
  56 H :    0.041837
  57 H :    0.030550
  58 H :    0.025451
  59 H :    0.026968
  60 H :    0.066737
  61 H :    0.034248
  62 H :    0.032123
  63 H :    0.031613
  64 H :    0.031327
  65 H :    0.031435
  66 H :    0.024161
  67 H :    0.033033
  68 H :    0.033917
  69 H :    0.037505
  70 H :    0.094163
  71 H :    0.098243
  72 H :    0.070934

  Mayer bond orders larger than 0.100000
B(  0-C ,  1-O ) :   0.9172 B(  0-C , 52-H ) :   0.9760 B(  0-C , 53-H ) :   0.9808
B(  0-C , 54-H ) :   0.9729 B(  1-O ,  2-C ) :   1.2282 B(  2-C ,  3-O ) :   2.1126
B(  2-C ,  4-C ) :   0.8423 B(  4-C ,  5-C ) :   1.3674 B(  4-C ,  9-C ) :   1.4715
B(  5-C ,  6-C ) :   1.3733 B(  5-C , 55-H ) :   1.0136 B(  6-C ,  7-C ) :   1.3345
B(  6-C , 50-C ) :   0.9165 B(  7-C ,  8-C ) :   1.3408 B(  7-C , 14-C ) :   0.9857
B(  8-C ,  9-C ) :   1.3333 B(  8-C , 56-H ) :   0.9806 B(  9-C , 10-C ) :   0.8973
B( 10-C , 11-O ) :   2.0410 B( 10-C , 12-O ) :   1.2540 B( 12-O , 13-C ) :   0.9134
B( 13-C , 57-H ) :   0.9806 B( 13-C , 58-H ) :   0.9751 B( 13-C , 59-H ) :   0.9766
B( 14-C , 15-C ) :   1.5839 B( 14-C , 20-C ) :   1.0680 B( 15-C , 16-C ) :   1.2001
B( 15-C , 18-C ) :   1.1346 B( 16-C , 17-N ) :   2.8981 B( 17-N , 72-H ) :   0.1334
B( 18-C , 19-N ) :   2.9654 B( 20-C , 21-C ) :   1.5647 B( 20-C , 50-C ) :   0.9573
B( 21-C , 22-C ) :   1.0097 B( 21-C , 60-H ) :   0.9409 B( 22-C , 23-C ) :   1.9613
B( 23-C , 24-C ) :   0.9177 B( 24-C , 25-C ) :   1.3290 B( 24-C , 27-C ) :   0.1196
B( 24-C , 49-N ) :   1.2309 B( 25-C , 26-C ) :   1.3916 B( 25-C , 61-H ) :   1.0094
B( 26-C , 27-C ) :   1.3579 B( 26-C , 62-H ) :   1.0110 B( 27-C , 28-C ) :   0.8219
B( 27-C , 49-N ) :   1.3160 B( 28-C , 29-C ) :   2.2294 B( 29-C , 30-C ) :   0.8216
B( 30-C , 31-C ) :   1.4392 B( 30-C , 33-C ) :   0.1358 B( 30-C , 48-N ) :   1.2316
B( 31-C , 32-C ) :   1.3220 B( 31-C , 63-H ) :   1.0110 B( 32-C , 33-C ) :   1.4387
B( 32-C , 64-H ) :   1.0118 B( 33-C , 34-C ) :   0.8223 B( 33-C , 48-N ) :   1.2427
B( 34-C , 35-C ) :   2.2562 B( 35-C , 36-C ) :   0.8263 B( 36-C , 37-C ) :   1.4209
B( 36-C , 39-C ) :   0.1204 B( 36-C , 47-N ) :   1.2574 B( 37-C , 38-C ) :   1.3527
B( 37-C , 65-H ) :   1.0127 B( 38-C , 39-C ) :   1.3795 B( 38-C , 66-H ) :   1.0072
B( 39-C , 40-C ) :   1.1253 B( 39-C , 47-N ) :   1.1906 B( 40-C , 41-C ) :   1.6834
B( 40-C , 67-H ) :   0.9355 B( 41-C , 42-C ) :   1.0907 B( 41-C , 46-S ) :   1.0206
B( 42-C , 43-C ) :   1.6725 B( 42-C , 68-H ) :   0.9927 B( 43-C , 44-C ) :   0.9908
B( 43-C , 69-H ) :   0.9916 B( 44-C , 45-O ) :   2.1246 B( 44-C , 46-S ) :   0.9973
B( 45-O , 46-S ) :   0.1167 B( 47-N , 70-H ) :   0.9380 B( 48-N , 71-H ) :   0.9401
B( 49-N , 72-H ) :   0.8836 B( 50-C , 51-O ) :   2.2509

-----------------------------------------------------------------------------
         ABSORPTION SPECTRUM VIA TRANSITION ELECTRIC DIPOLE MOMENTS
-----------------------------------------------------------------------------
State   Energy  Wavelength   fosc         T2         TX        TY        TZ
        (cm-1)    (nm)                  (au**2)     (au)      (au)      (au)
-----------------------------------------------------------------------------
   0   15958.4    626.6   0.879560858  18.14476   2.61012  -2.76621   1.91836
   1   22183.0    450.8   1.600352827  23.75045  -2.15490  -4.37085  -0.04987
   2   23031.5    434.2   0.120115134   1.71693  -0.73919   0.98007  -0.45825
   3   23780.0    420.5   0.398996081   5.52373  -2.04337  -0.43022  -1.07856
   4   29329.6    341.0   0.050971006   0.57213   0.14466  -0.68118   0.29529
   5   29629.7    337.5   0.115964842   1.28847   0.06635  -1.06357   0.39101
   6   29687.4    336.8   0.055871043   0.61957   0.46106  -0.45195   0.45026
   7   30396.2    329.0   0.002262758   0.02451   0.02414   0.14622  -0.05045
   8   30626.3    326.5   0.122491450   1.31670  -0.07155   1.05124  -0.45439
   9   30857.2    324.1   0.004804898   0.05126   0.14960  -0.15080   0.07837
  10   31545.6    317.0   0.283024069   2.95366   1.48100  -0.45019   0.74674
  11   31947.0    313.0   0.600877790   6.19201   0.10357   2.39748  -0.65830
  12   33100.6    302.1   0.001246829   0.01240  -0.05662  -0.05701  -0.07710
  13   34181.7    292.6   0.332788472   3.20517  -1.29694   0.93422  -0.80644
  14   35385.2    282.6   0.044459045   0.41363  -0.48707  -0.31965  -0.27243
  15   35711.6    280.0   0.006458736   0.05954  -0.07519   0.23206  -0.00589
  16   35948.1    278.2   0.063203475   0.57882  -0.28601  -0.70338   0.04769
  17   36862.2    271.3   0.164269715   1.46707  -0.75815   0.73507  -0.59326
  18   37395.2    267.4   0.084575106   0.74456   0.73811   0.00245   0.44693
  19   38040.0    262.9   0.058821465   0.50906   0.18123   0.65330  -0.22230
  20   39097.2    255.8   0.137754554   1.15994  -0.19262  -1.03697   0.21801
  21   40069.8    249.6   0.035541411   0.29201   0.39735  -0.19419   0.31050

FINAL SINGLE POINT ENERGY     -2657.078878072860

DIPOLE MOMENT
-------------
                                X             Y             Z
Electronic contribution:      6.18519       3.97781       0.95742
Nuclear contribution   :     -4.39676      -3.07369      -0.65866
                        -----------------------------------------
Total Dipole Moment    :      1.78843       0.90412       0.29876
                        -----------------------------------------
Magnitude (a.u.)       :      2.02612
Magnitude (Debye)      :      5.14999

Rotational constants in cm-1:     0.001615     0.000426     0.000339
Rotational constants in MHz :    48.410602    12.767994    10.156297

                             ****ORCA TERMINATED NORMALLY****
TOTAL RUN TIME: 0 days 0 hours 4 minutes 32 seconds 327 msec
