                         Program Version 4.2.0 -  RELEASE  -
|  1> # ORCA input file
|  2> # SCF done       -209.445680209799          0.000313656297
|  3> ! CAM-B3LYP def2-SVP def2/J RIJCOSX Grid4 TightSCF
|  4> %maxcore 5000
|  5> %tddft
|  6>     Mode sTDDFT
|  7>     Ethresh 5.0
|  8>     maxcore 5000
|  9> end
| 10>
| 11> %pal
| 12>   nprocs 6
| 13>   end
| 14> * xyz 0 1
| 15>    C        4.24945         0.97589        -5.79940
| 16>    C        4.77073         0.78782        -4.58782
| 17>    C        6.17169         0.56167        -4.35534
| 18>    C        6.78802         0.16816        -3.06485
| 19>    C        6.12322        -0.25256        -1.85898
| 20>    C        6.70420         0.02896        -0.63014
| 21>    C        6.12701        -0.34506         0.58156
| 22>    C        4.94228        -1.06141         0.63000
| 23>    C        4.33202        -1.47012         1.81666
| 24>    C        3.76234        -1.87091         2.80923
| 25>    C        3.06445        -2.39309         3.89065
| 26>    C        3.35472        -2.40982         5.25266
| 27>    C        2.32850        -3.10133         5.88457
| 28>    C        1.41728        -3.50693         4.90845
| 29>    C        0.22633        -4.30794         5.00397
| 30>    C       -0.53105        -4.41410         6.13442
| 31>    C       -1.56430        -5.44054         6.30977
| 32>    C       -2.68955        -5.24163         7.02538
| 33>    C       -3.13859        -3.97422         7.58961
| 34>    C       -3.18667        -2.81604         6.81290
| 35>    C       -3.57787        -1.61267         7.36670
| 36>    C       -3.93218        -1.54303         8.71215
| 37>    C       -4.36296        -0.27359         9.37222
| 38>    O       -5.10432        -0.25665        10.31485
| 39>    O       -3.86758         0.86581         8.86205
| 40>    C       -3.93885        -2.70921         9.47622
| 41>    C       -3.55329        -3.91104         8.92161
| 42>    C       -1.29190        -6.76870         5.73163
| 43>    C       -2.29961        -7.46658         5.06797
| 44>    C       -2.04570        -8.69903         4.49770
| 45>    C       -0.77331        -9.25935         4.58172
| 46>    C       -0.41537       -10.56502         3.94899
| 47>    O        0.70136       -10.82447         3.59895
| 48>    O       -1.41459       -11.44914         3.79088
| 49>    C        0.23385        -8.56651         5.25132
| 50>    C       -0.02288        -7.33970         5.82555
| 51>    C       -0.31727        -3.51594         7.28109
| 52>    C       -0.35923        -2.12729         7.14293
| 53>    F       -0.50852        -1.58851         5.92786
| 54>    C       -0.30369        -1.28155         8.24016
| 55>    F       -0.42791         0.03888         8.06976
| 56>    C       -0.17018        -1.80828         9.52222
| 57>    F       -0.12724        -0.99999        10.57765
| 58>    C       -0.09524        -3.18800         9.68572
| 59>    F        0.03502        -3.71004        10.90430
| 60>    C       -0.17818        -4.01941         8.57485
| 61>    F       -0.11486        -5.34184         8.76024
| 62>    C       -0.12647        -5.07822         3.79067
| 63>    C       -1.40306        -5.02607         3.23354
| 64>    F       -2.33376        -4.24167         3.78585
| 65>    C       -1.74202        -5.76515         2.10668
| 66>    F       -2.97972        -5.70316         1.61415
| 67>    C       -0.78945        -6.57716         1.49849
| 68>    F       -1.11091        -7.29267         0.42455
| 69>    C        0.49934        -6.63542         2.02342
| 70>    F        1.42060        -7.39904         1.44557
| 71>    C        0.81438        -5.89072         3.15415
| 72>    F        2.04671        -5.98361         3.65912
| 73>    N        1.89469        -3.06629         3.71005
| 74>    C        4.33572        -1.42867        -0.60625
| 75>    N        3.24299        -2.17111        -0.72405
| 76>   Se        2.91075        -2.42799        -2.42467
| 77>    N        4.29091        -1.48464        -2.92579
| 78>    C        4.92607        -1.02155        -1.85736
| 79>    N        8.10910         0.21312        -3.08665
| 80>    C        8.44655         0.56157        -4.34513
| 81>    C        9.55697         0.81063        -5.10651
| 82>    N       10.91145         0.85575        -5.02193
| 83>    C       11.31477         1.23534        -6.20766
| 84>    C       10.24084         1.46926        -7.15480
| 85>    C        9.10755         1.18963        -6.46389
| 86>    C        7.63418         1.16302        -6.54315
| 87>    O        6.92754         1.39780        -7.49855
| 88>    C        7.24477         0.77124        -5.17706
| 89>    H        3.19814         1.16643        -5.93178
| 90>    H        4.85720         0.94553        -6.68789
| 91>    H        4.14110         0.82347        -3.70989
| 92>    H        7.63359         0.57699        -0.63262
| 93>    H        6.61234        -0.07619         1.50757
| 94>    H        4.21959        -1.97766         5.71397
| 95>    H        2.27365        -3.32584         6.93106
| 96>    H       -3.32121        -6.09542         7.23222
| 97>    H       -2.93570        -2.86980         5.76517
| 98>    H       -3.63242        -0.73921         6.73066
| 99>    H       -3.22562         0.72387         8.15345
|100>    H       -4.25231        -2.64631        10.50691
|101>    H       -3.54902        -4.80866         9.52193
|102>    H       -3.28142        -7.02557         4.97783
|103>    H       -2.83967        -9.19486         3.95461
|104>    H       -2.25153       -11.14288         4.16410
|105>    H        1.21526        -9.01138         5.30780
|106>    H        0.75993        -6.81908         6.35560
|107>    H        1.44641        -3.17905         2.81517
|108>    H       12.36523         1.34819        -6.41352
|109>    H       10.36411         1.79000        -8.17025
|110> *
|111>
|112>                          ****END OF INPUT****

CARTESIAN COORDINATES (ANGSTROEM)
---------------------------------
  C      4.249450    0.975890   -5.799400
  C      4.770730    0.787820   -4.587820
  C      6.171690    0.561670   -4.355340
  C      6.788020    0.168160   -3.064850
  C      6.123220   -0.252560   -1.858980
  C      6.704200    0.028960   -0.630140
  C      6.127010   -0.345060    0.581560
  C      4.942280   -1.061410    0.630000
  C      4.332020   -1.470120    1.816660
  C      3.762340   -1.870910    2.809230
  C      3.064450   -2.393090    3.890650
  C      3.354720   -2.409820    5.252660
  C      2.328500   -3.101330    5.884570
  C      1.417280   -3.506930    4.908450
  C      0.226330   -4.307940    5.003970
  C     -0.531050   -4.414100    6.134420
  C     -1.564300   -5.440540    6.309770
  C     -2.689550   -5.241630    7.025380
  C     -3.138590   -3.974220    7.589610
  C     -3.186670   -2.816040    6.812900
  C     -3.577870   -1.612670    7.366700
  C     -3.932180   -1.543030    8.712150
  C     -4.362960   -0.273590    9.372220
  O     -5.104320   -0.256650   10.314850
  O     -3.867580    0.865810    8.862050
  C     -3.938850   -2.709210    9.476220
  C     -3.553290   -3.911040    8.921610
  C     -1.291900   -6.768700    5.731630
  C     -2.299610   -7.466580    5.067970
  C     -2.045700   -8.699030    4.497700
  C     -0.773310   -9.259350    4.581720
  C     -0.415370  -10.565020    3.948990
  O      0.701360  -10.824470    3.598950
  O     -1.414590  -11.449140    3.790880
  C      0.233850   -8.566510    5.251320
  C     -0.022880   -7.339700    5.825550
  C     -0.317270   -3.515940    7.281090
  C     -0.359230   -2.127290    7.142930
  F     -0.508520   -1.588510    5.927860
  C     -0.303690   -1.281550    8.240160
  F     -0.427910    0.038880    8.069760
  C     -0.170180   -1.808280    9.522220
  F     -0.127240   -0.999990   10.577650
  C     -0.095240   -3.188000    9.685720
  F      0.035020   -3.710040   10.904300
  C     -0.178180   -4.019410    8.574850
  F     -0.114860   -5.341840    8.760240
  C     -0.126470   -5.078220    3.790670
  C     -1.403060   -5.026070    3.233540
  F     -2.333760   -4.241670    3.785850
  C     -1.742020   -5.765150    2.106680
  F     -2.979720   -5.703160    1.614150
  C     -0.789450   -6.577160    1.498490
  F     -1.110910   -7.292670    0.424550
  C      0.499340   -6.635420    2.023420
  F      1.420600   -7.399040    1.445570
  C      0.814380   -5.890720    3.154150
  F      2.046710   -5.983610    3.659120
  N      1.894690   -3.066290    3.710050
  C      4.335720   -1.428670   -0.606250
  N      3.242990   -2.171110   -0.724050
  Se     2.910750   -2.427990   -2.424670
  N      4.290910   -1.484640   -2.925790
  C      4.926070   -1.021550   -1.857360
  N      8.109100    0.213120   -3.086650
  C      8.446550    0.561570   -4.345130
  C      9.556970    0.810630   -5.106510
  N     10.911450    0.855750   -5.021930
  C     11.314770    1.235340   -6.207660
  C     10.240840    1.469260   -7.154800
  C      9.107550    1.189630   -6.463890
  C      7.634180    1.163020   -6.543150
  O      6.927540    1.397800   -7.498550
  C      7.244770    0.771240   -5.177060
  H      3.198140    1.166430   -5.931780
  H      4.857200    0.945530   -6.687890
  H      4.141100    0.823470   -3.709890
  H      7.633590    0.576990   -0.632620
  H      6.612340   -0.076190    1.507570
  H      4.219590   -1.977660    5.713970
  H      2.273650   -3.325840    6.931060
  H     -3.321210   -6.095420    7.232220
  H     -2.935700   -2.869800    5.765170
  H     -3.632420   -0.739210    6.730660
  H     -3.225620    0.723870    8.153450
  H     -4.252310   -2.646310   10.506910
  H     -3.549020   -4.808660    9.521930
  H     -3.281420   -7.025570    4.977830
  H     -2.839670   -9.194860    3.954610
  H     -2.251530  -11.142880    4.164100
  H      1.215260   -9.011380    5.307800
  H      0.759930   -6.819080    6.355600
  H      1.446410   -3.179050    2.815170
  H     12.365230    1.348190   -6.413520
  H     10.364110    1.790000   -8.170250

 Total Charge           Charge          ....    0
 Multiplicity           Mult            ....    1
 Number of Electrons    NEL             ....  538
 Basis Dimension        Dim             .... 1159

ORBITAL ENERGIES
----------------

  NO   OCC          E(Eh)            E(eV)
   0   2.0000    -453.988847    -12353.6646
   1   2.0000     -58.202751     -1583.7774
   2   2.0000     -52.273426     -1422.4322
   3   2.0000     -52.271107     -1422.3691
   4   2.0000     -52.270597     -1422.3552
   5   2.0000     -24.828337      -675.6134
   6   2.0000     -24.825098      -675.5252
   7   2.0000     -24.822192      -675.4462
   8   2.0000     -24.821714      -675.4332
   9   2.0000     -24.821375      -675.4240
  10   2.0000     -24.820178      -675.3914
  11   2.0000     -24.819306      -675.3676
  12   2.0000     -24.818940      -675.3577
  13   2.0000     -24.817313      -675.3134
  14   2.0000     -24.814746      -675.2436
  15   2.0000     -19.265631      -524.2445
  16   2.0000     -19.260521      -524.1054
  17   2.0000     -19.205900      -522.6191
  18   2.0000     -19.201466      -522.4984
  19   2.0000     -19.197031      -522.3778
  20   2.0000     -14.482767      -394.0961
  21   2.0000     -14.446429      -393.1073
  22   2.0000     -14.442993      -393.0138
  23   2.0000     -14.406498      -392.0207
  24   2.0000     -14.400864      -391.8674
  25   2.0000     -10.408482      -283.2292
  26   2.0000     -10.405943      -283.1601
  27   2.0000     -10.405738      -283.1545
  28   2.0000     -10.404141      -283.1111
  29   2.0000     -10.401911      -283.0504
  30   2.0000     -10.401868      -283.0492
  31   2.0000     -10.401664      -283.0437
  32   2.0000     -10.401247      -283.0323
  33   2.0000     -10.396790      -282.9111
  34   2.0000     -10.396549      -282.9045
  35   2.0000     -10.395487      -282.8756
  36   2.0000     -10.395146      -282.8663
  37   2.0000     -10.365832      -282.0686
  38   2.0000     -10.341415      -281.4042
  39   2.0000     -10.336232      -281.2632
  40   2.0000     -10.335883      -281.2537
  41   2.0000     -10.335571      -281.2452
  42   2.0000     -10.331150      -281.1249
  43   2.0000     -10.330779      -281.1148
  44   2.0000     -10.327292      -281.0199
  45   2.0000     -10.326984      -281.0115
  46   2.0000     -10.326089      -280.9872
  47   2.0000     -10.324493      -280.9437
  48   2.0000     -10.321982      -280.8754
  49   2.0000     -10.319869      -280.8179
  50   2.0000     -10.317817      -280.7621
  51   2.0000     -10.309913      -280.5470
  52   2.0000     -10.307263      -280.4749
  53   2.0000     -10.306305      -280.4488
  54   2.0000     -10.304073      -280.3881
  55   2.0000     -10.303831      -280.3815
  56   2.0000     -10.302580      -280.3474
  57   2.0000     -10.302031      -280.3325
  58   2.0000     -10.300381      -280.2876
  59   2.0000     -10.300274      -280.2847
  60   2.0000     -10.298903      -280.2474
  61   2.0000     -10.298754      -280.2433
  62   2.0000     -10.298727      -280.2426
  63   2.0000     -10.298073      -280.2248
  64   2.0000     -10.294273      -280.1214
  65   2.0000     -10.293431      -280.0985
  66   2.0000     -10.293260      -280.0938
  67   2.0000     -10.292685      -280.0782
  68   2.0000     -10.292648      -280.0772
  69   2.0000     -10.291787      -280.0537
  70   2.0000     -10.289833      -280.0006
  71   2.0000     -10.284918      -279.8668
  72   2.0000     -10.283131      -279.8182
  73   2.0000     -10.282370      -279.7975
  74   2.0000     -10.280550      -279.7480
  75   2.0000     -10.279312      -279.7143
  76   2.0000     -10.272242      -279.5219
  77   2.0000     -10.260248      -279.1956
  78   2.0000      -7.978610      -217.1090
  79   2.0000      -5.928769      -161.3300
  80   2.0000      -5.922144      -161.1497
  81   2.0000      -5.918414      -161.0482
  82   2.0000      -2.282880       -62.1203
  83   2.0000      -2.282264       -62.1036
  84   2.0000      -2.277761       -61.9810
  85   2.0000      -2.272674       -61.8426
  86   2.0000      -2.272494       -61.8377
  87   2.0000      -1.353462       -36.8296
  88   2.0000      -1.348237       -36.6874
  89   2.0000      -1.347005       -36.6539
  90   2.0000      -1.341636       -36.5078
  91   2.0000      -1.341185       -36.4955
  92   2.0000      -1.335455       -36.3396
  93   2.0000      -1.331329       -36.2273
  94   2.0000      -1.326518       -36.0964
  95   2.0000      -1.325707       -36.0743
  96   2.0000      -1.321576       -35.9619
  97   2.0000      -1.187232       -32.3062
  98   2.0000      -1.182059       -32.1655
  99   2.0000      -1.120476       -30.4897
 100   2.0000      -1.103583       -30.0300
 101   2.0000      -1.101432       -29.9715
 102   2.0000      -1.100604       -29.9489
 103   2.0000      -1.096235       -29.8301
 104   2.0000      -1.074001       -29.2251
 105   2.0000      -1.054754       -28.7013
 106   2.0000      -1.018080       -27.7034
 107   2.0000      -1.008526       -27.4434
 108   2.0000      -0.987860       -26.8810
 109   2.0000      -0.979952       -26.6658
 110   2.0000      -0.976971       -26.5847
 111   2.0000      -0.970822       -26.4174
 112   2.0000      -0.961699       -26.1692
 113   2.0000      -0.930056       -25.3081
 114   2.0000      -0.924706       -25.1625
 115   2.0000      -0.902187       -24.5498
 116   2.0000      -0.899784       -24.4844
 117   2.0000      -0.894528       -24.3413
 118   2.0000      -0.890078       -24.2203
 119   2.0000      -0.883713       -24.0471
 120   2.0000      -0.879437       -23.9307
 121   2.0000      -0.875590       -23.8260
 122   2.0000      -0.873642       -23.7730
 123   2.0000      -0.861860       -23.4524
 124   2.0000      -0.858529       -23.3618
 125   2.0000      -0.857656       -23.3380
 126   2.0000      -0.857085       -23.3225
 127   2.0000      -0.851014       -23.1573
 128   2.0000      -0.837907       -22.8006
 129   2.0000      -0.821637       -22.3579
 130   2.0000      -0.815669       -22.1955
 131   2.0000      -0.790384       -21.5074
 132   2.0000      -0.779082       -21.1999
 133   2.0000      -0.768143       -20.9022
 134   2.0000      -0.763304       -20.7706
 135   2.0000      -0.758881       -20.6502
 136   2.0000      -0.755459       -20.5571
 137   2.0000      -0.752560       -20.4782
 138   2.0000      -0.744210       -20.2510
 139   2.0000      -0.735387       -20.0109
 140   2.0000      -0.728390       -19.8205
 141   2.0000      -0.719919       -19.5900
 142   2.0000      -0.717138       -19.5143
 143   2.0000      -0.713851       -19.4249
 144   2.0000      -0.706242       -19.2178
 145   2.0000      -0.704496       -19.1703
 146   2.0000      -0.703210       -19.1353
 147   2.0000      -0.701773       -19.0962
 148   2.0000      -0.699200       -19.0262
 149   2.0000      -0.694370       -18.8948
 150   2.0000      -0.691926       -18.8283
 151   2.0000      -0.690873       -18.7996
 152   2.0000      -0.687649       -18.7119
 153   2.0000      -0.683054       -18.5869
 154   2.0000      -0.675204       -18.3732
 155   2.0000      -0.668825       -18.1997
 156   2.0000      -0.667958       -18.1761
 157   2.0000      -0.657360       -17.8877
 158   2.0000      -0.655009       -17.8237
 159   2.0000      -0.649623       -17.6771
 160   2.0000      -0.644139       -17.5279
 161   2.0000      -0.641818       -17.4648
 162   2.0000      -0.640373       -17.4254
 163   2.0000      -0.639351       -17.3976
 164   2.0000      -0.636899       -17.3309
 165   2.0000      -0.630319       -17.1519
 166   2.0000      -0.627293       -17.0695
 167   2.0000      -0.623882       -16.9767
 168   2.0000      -0.623097       -16.9553
 169   2.0000      -0.620269       -16.8784
 170   2.0000      -0.615123       -16.7383
 171   2.0000      -0.611276       -16.6337
 172   2.0000      -0.601317       -16.3627
 173   2.0000      -0.599812       -16.3217
 174   2.0000      -0.595278       -16.1983
 175   2.0000      -0.593091       -16.1388
 176   2.0000      -0.591099       -16.0846
 177   2.0000      -0.590523       -16.0689
 178   2.0000      -0.588550       -16.0153
 179   2.0000      -0.585508       -15.9325
 180   2.0000      -0.583049       -15.8656
 181   2.0000      -0.571566       -15.5531
 182   2.0000      -0.569770       -15.5042
 183   2.0000      -0.566759       -15.4223
 184   2.0000      -0.564849       -15.3703
 185   2.0000      -0.563897       -15.3444
 186   2.0000      -0.563403       -15.3310
 187   2.0000      -0.560623       -15.2553
 188   2.0000      -0.558490       -15.1973
 189   2.0000      -0.556164       -15.1340
 190   2.0000      -0.552835       -15.0434
 191   2.0000      -0.546269       -14.8647
 192   2.0000      -0.544905       -14.8276
 193   2.0000      -0.543379       -14.7861
 194   2.0000      -0.541073       -14.7233
 195   2.0000      -0.540085       -14.6965
 196   2.0000      -0.539594       -14.6831
 197   2.0000      -0.538657       -14.6576
 198   2.0000      -0.537313       -14.6210
 199   2.0000      -0.536338       -14.5945
 200   2.0000      -0.535504       -14.5718
 201   2.0000      -0.534784       -14.5522
 202   2.0000      -0.531413       -14.4605
 203   2.0000      -0.529124       -14.3982
 204   2.0000      -0.526126       -14.3166
 205   2.0000      -0.521482       -14.1902
 206   2.0000      -0.521078       -14.1793
 207   2.0000      -0.519883       -14.1467
 208   2.0000      -0.516660       -14.0590
 209   2.0000      -0.512292       -13.9402
 210   2.0000      -0.512018       -13.9327
 211   2.0000      -0.510016       -13.8782
 212   2.0000      -0.507133       -13.7998
 213   2.0000      -0.502762       -13.6809
 214   2.0000      -0.502459       -13.6726
 215   2.0000      -0.501397       -13.6437
 216   2.0000      -0.498899       -13.5757
 217   2.0000      -0.494887       -13.4666
 218   2.0000      -0.487455       -13.2643
 219   2.0000      -0.483347       -13.1525
 220   2.0000      -0.482110       -13.1189
 221   2.0000      -0.480330       -13.0704
 222   2.0000      -0.476800       -12.9744
 223   2.0000      -0.475843       -12.9484
 224   2.0000      -0.475009       -12.9257
 225   2.0000      -0.474377       -12.9084
 226   2.0000      -0.473711       -12.8903
 227   2.0000      -0.468374       -12.7451
 228   2.0000      -0.466020       -12.6810
 229   2.0000      -0.462263       -12.5788
 230   2.0000      -0.459007       -12.4902
 231   2.0000      -0.456333       -12.4175
 232   2.0000      -0.453364       -12.3367
 233   2.0000      -0.448951       -12.2166
 234   2.0000      -0.445073       -12.1110
 235   2.0000      -0.442393       -12.0381
 236   2.0000      -0.439615       -11.9625
 237   2.0000      -0.435566       -11.8524
 238   2.0000      -0.432628       -11.7724
 239   2.0000      -0.424750       -11.5580
 240   2.0000      -0.416487       -11.3332
 241   2.0000      -0.404979       -11.0200
 242   2.0000      -0.400426       -10.8961
 243   2.0000      -0.395279       -10.7561
 244   2.0000      -0.391890       -10.6639
 245   2.0000      -0.388147       -10.5620
 246   2.0000      -0.382968       -10.4211
 247   2.0000      -0.371849       -10.1185
 248   2.0000      -0.370067       -10.0700
 249   2.0000      -0.361118        -9.8265
 250   2.0000      -0.357911        -9.7393
 251   2.0000      -0.356967        -9.7136
 252   2.0000      -0.354922        -9.6579
 253   2.0000      -0.353215        -9.6115
 254   2.0000      -0.351828        -9.5737
 255   2.0000      -0.349281        -9.5044
 256   2.0000      -0.348455        -9.4819
 257   2.0000      -0.346782        -9.4364
 258   2.0000      -0.336898        -9.1675
 259   2.0000      -0.335711        -9.1351
 260   2.0000      -0.331562        -9.0222
 261   2.0000      -0.330694        -8.9987
 262   2.0000      -0.328510        -8.9392
 263   2.0000      -0.325681        -8.8622
 264   2.0000      -0.323847        -8.8123
 265   2.0000      -0.309627        -8.4254
 266   2.0000      -0.297948        -8.1076
 267   2.0000      -0.290531        -7.9058
 268   2.0000      -0.256899        -6.9906
 269   0.0000      -0.112409        -3.0588
 270   0.0000      -0.078494        -2.1359
 271   0.0000      -0.069475        -1.8905
 272   0.0000      -0.042529        -1.1573
 273   0.0000      -0.039152        -1.0654

MULLIKEN ATOMIC CHARGES
-----------------------
   0 C :   -0.003557
   1 C :   -0.008628
   2 C :    0.042862
   3 C :   -0.019408
   4 C :    0.023694
   5 C :    0.018180
   6 C :   -0.007575
   7 C :    0.008408
   8 C :   -0.030544
   9 C :    0.089068
  10 C :   -0.016053
  11 C :    0.001135
  12 C :   -0.009442
  13 C :   -0.007556
  14 C :    0.126116
  15 C :   -0.023416
  16 C :    0.017987
  17 C :   -0.023697
  18 C :    0.046469
  19 C :    0.023493
  20 C :   -0.036635
  21 C :   -0.047371
  22 C :    0.170376
  23 O :   -0.173718
  24 O :   -0.155715
  25 C :    0.016459
  26 C :    0.003411
  27 C :    0.041539
  28 C :   -0.007523
  29 C :   -0.025857
  30 C :   -0.044857
  31 C :    0.166922
  32 O :   -0.169742
  33 O :   -0.154402
  34 C :    0.009381
  35 C :    0.016778
  36 C :   -0.186371
  37 C :    0.256153
  38 F :   -0.165087
  39 C :    0.155181
  40 F :   -0.167264
  41 C :    0.140402
  42 F :   -0.147430
  43 C :    0.158750
  44 F :   -0.154265
  45 C :    0.213657
  46 F :   -0.161078
  47 C :   -0.203707
  48 C :    0.213430
  49 F :   -0.154299
  50 C :    0.166286
  51 F :   -0.156406
  52 C :    0.133500
  53 F :   -0.146672
  54 C :    0.177532
  55 F :   -0.143482
  56 C :    0.209027
  57 F :   -0.154327
  58 N :   -0.037838
  59 C :   -0.000927
  60 N :   -0.273863
  61 Se:    0.535254
  62 N :   -0.262367
  63 C :    0.021308
  64 N :   -0.044791
  65 C :    0.073209
  66 C :   -0.028835
  67 N :   -0.055901
  68 C :    0.085260
  69 C :   -0.092420
  70 C :   -0.024850
  71 C :    0.218413
  72 O :   -0.135916
  73 C :   -0.168985
  74 H :    0.016956
  75 H :    0.041895
  76 H :   -0.020308
  77 H :    0.007925
  78 H :   -0.008123
  79 H :   -0.021185
  80 H :   -0.020719
  81 H :    0.003626
  82 H :   -0.006619
  83 H :   -0.014653
  84 H :    0.177934
  85 H :    0.008591
  86 H :   -0.011780
  87 H :   -0.008885
  88 H :   -0.018202
  89 H :    0.180852
  90 H :    0.009084
  91 H :   -0.000818
  92 H :    0.136948
  93 H :    0.007799
  94 H :   -0.007181
Sum of atomic charges:   -0.0000000

LOEWDIN ATOMIC CHARGES
----------------------
   0 C :   -0.008009
   1 C :   -0.034962
   2 C :   -0.012555
   3 C :    0.081327
   4 C :   -0.054650
   5 C :    0.038136
   6 C :   -0.005466
   7 C :   -0.024576
   8 C :   -0.015783
   9 C :   -0.025517
  10 C :   -0.026260
  11 C :   -0.033776
  12 C :   -0.053211
  13 C :   -0.016318
  14 C :   -0.005479
  15 C :   -0.016551
  16 C :   -0.021107
  17 C :   -0.001753
  18 C :   -0.023380
  19 C :   -0.010399
  20 C :   -0.025592
  21 C :   -0.080061
  22 C :    0.079049
  23 O :   -0.152775
  24 O :   -0.027839
  25 C :    0.013660
  26 C :   -0.012906
  27 C :   -0.009127
  28 C :   -0.019795
  29 C :   -0.027348
  30 C :   -0.082202
  31 C :    0.078032
  32 O :   -0.150146
  33 O :   -0.028816
  34 C :    0.013486
  35 C :   -0.008276
  36 C :   -0.074096
  37 C :    0.069780
  38 F :   -0.034137
  39 C :    0.023708
  40 F :   -0.042301
  41 C :    0.042677
  42 F :   -0.026433
  43 C :    0.026285
  44 F :   -0.034379
  45 C :    0.064647
  46 F :   -0.036766
  47 C :   -0.085969
  48 C :    0.065624
  49 F :   -0.032083
  50 C :    0.025010
  51 F :   -0.036449
  52 C :    0.044887
  53 F :   -0.025545
  54 C :    0.030310
  55 F :   -0.024694
  56 C :    0.064547
  57 F :   -0.028643
  58 N :    0.117478
  59 C :   -0.034326
  60 N :   -0.247866
  61 Se:    0.580554
  62 N :   -0.240616
  63 C :   -0.036002
  64 N :   -0.099668
  65 C :    0.046366
  66 C :    0.020421
  67 N :   -0.097265
  68 C :    0.070727
  69 C :   -0.037301
  70 C :   -0.038761
  71 C :    0.068878
  72 O :   -0.137514
  73 C :   -0.047704
  74 H :    0.023631
  75 H :    0.026387
  76 H :    0.023911
  77 H :    0.044274
  78 H :    0.040843
  79 H :    0.032698
  80 H :    0.027116
  81 H :    0.035806
  82 H :    0.028858
  83 H :    0.027405
  84 H :    0.088012
  85 H :    0.041097
  86 H :    0.033041
  87 H :    0.031088
  88 H :    0.026052
  89 H :    0.091235
  90 H :    0.041645
  91 H :    0.032634
  92 H :    0.095758
  93 H :    0.022640
  94 H :    0.033438

  Mayer bond orders larger than 0.100000
B(  0-C ,  1-C ) :   1.9313 B(  0-C , 74-H ) :   0.9461 B(  0-C , 75-H ) :   0.9366
B(  1-C ,  2-C ) :   1.1104 B(  1-C , 76-H ) :   0.9435 B(  2-C ,  3-C ) :   1.0432
B(  2-C , 73-C ) :   1.5823 B(  3-C ,  4-C ) :   1.0016 B(  3-C , 64-N ) :   1.6460
B(  3-C , 65-C ) :   0.1195 B(  4-C ,  5-C ) :   1.4935 B(  4-C ,  7-C ) :   0.1116
B(  4-C , 63-C ) :   1.1796 B(  5-C ,  6-C ) :   1.1604 B(  5-C , 77-H ) :   0.9995
B(  6-C ,  7-C ) :   1.4611 B(  6-C , 78-H ) :   1.0102 B(  7-C ,  8-C ) :   0.9227
B(  7-C , 59-C ) :   1.1751 B(  8-C ,  9-C ) :   2.2386 B(  9-C , 10-C ) :   0.7986
B( 10-C , 11-C ) :   1.4092 B( 10-C , 13-C ) :   0.1346 B( 10-C , 58-N ) :   1.2536
B( 11-C , 12-C ) :   1.3231 B( 11-C , 79-H ) :   1.0169 B( 12-C , 13-C ) :   1.4107
B( 12-C , 80-H ) :   1.0021 B( 13-C , 14-C ) :   1.0376 B( 13-C , 58-N ) :   1.2434
B( 14-C , 15-C ) :   1.7680 B( 14-C , 47-C ) :   0.9460 B( 15-C , 16-C ) :   1.0311
B( 15-C , 36-C ) :   0.9618 B( 16-C , 17-C ) :   1.8235 B( 16-C , 27-C ) :   0.9654
B( 17-C , 18-C ) :   1.0009 B( 17-C , 81-H ) :   0.9543 B( 18-C , 19-C ) :   1.3902
B( 18-C , 26-C ) :   1.3456 B( 19-C , 20-C ) :   1.3819 B( 19-C , 82-H ) :   0.9830
B( 20-C , 21-C ) :   1.3293 B( 20-C , 83-H ) :   0.9931 B( 21-C , 22-C ) :   0.8977
B( 21-C , 25-C ) :   1.3943 B( 22-C , 23-O ) :   2.1864 B( 22-C , 24-O ) :   1.2370
B( 24-O , 84-H ) :   0.9489 B( 25-C , 26-C ) :   1.3681 B( 25-C , 85-H ) :   0.9974
B( 26-C , 86-H ) :   1.0061 B( 27-C , 28-C ) :   1.3961 B( 27-C , 35-C ) :   1.3704
B( 28-C , 29-C ) :   1.3899 B( 28-C , 87-H ) :   0.9915 B( 29-C , 30-C ) :   1.3360
B( 29-C , 88-H ) :   0.9852 B( 30-C , 31-C ) :   0.8972 B( 30-C , 34-C ) :   1.3913
B( 31-C , 32-O ) :   2.1918 B( 31-C , 33-O ) :   1.2325 B( 33-O , 89-H ) :   0.9534
B( 34-C , 35-C ) :   1.3617 B( 34-C , 90-H ) :   0.9988 B( 35-C , 91-H ) :   0.9934
B( 36-C , 37-C ) :   1.3301 B( 36-C , 41-C ) :   0.1151 B( 36-C , 45-C ) :   1.3320
B( 37-C , 38-F ) :   1.1410 B( 37-C , 39-C ) :   1.3113 B( 39-C , 40-F ) :   1.1504
B( 39-C , 41-C ) :   1.2768 B( 41-C , 42-F ) :   1.1862 B( 41-C , 43-C ) :   1.2836
B( 43-C , 44-F ) :   1.1799 B( 43-C , 45-C ) :   1.2807 B( 45-C , 46-F ) :   1.1497
B( 47-C , 48-C ) :   1.3351 B( 47-C , 52-C ) :   0.1144 B( 47-C , 56-C ) :   1.3201
B( 48-C , 49-F ) :   1.1433 B( 48-C , 50-C ) :   1.2816 B( 50-C , 51-F ) :   1.1779
B( 50-C , 52-C ) :   1.2836 B( 52-C , 53-F ) :   1.1844 B( 52-C , 54-C ) :   1.2780
B( 54-C , 55-F ) :   1.1887 B( 54-C , 56-C ) :   1.2835 B( 56-C , 57-F ) :   1.1646
B( 58-N , 92-H ) :   0.9253 B( 59-C , 60-N ) :   1.6178 B( 59-C , 63-C ) :   1.1279
B( 60-N , 61-Se) :   1.2431 B( 60-N , 62-N ) :   0.1259 B( 61-Se, 62-N ) :   1.2381
B( 62-N , 63-C ) :   1.6045 B( 64-N , 65-C ) :   1.3324 B( 65-C , 66-C ) :   1.4386
B( 65-C , 73-C ) :   1.0484 B( 66-C , 67-N ) :   1.3037 B( 66-C , 70-C ) :   1.0597
B( 67-N , 68-C ) :   1.6672 B( 68-C , 69-C ) :   1.0682 B( 68-C , 93-H ) :   0.9892
B( 69-C , 70-C ) :   1.6140 B( 69-C , 94-H ) :   1.0096 B( 70-C , 71-C ) :   0.9230
B( 71-C , 72-O ) :   2.2172 B( 71-C , 73-C ) :   0.8852

-----------------------------------------------------------------------------
         ABSORPTION SPECTRUM VIA TRANSITION ELECTRIC DIPOLE MOMENTS
-----------------------------------------------------------------------------
State   Energy  Wavelength   fosc         T2         TX        TY        TZ
        (cm-1)    (nm)                  (au**2)     (au)      (au)      (au)
-----------------------------------------------------------------------------
   0   17552.1    569.7   1.300540247  24.39333  -2.80152  -1.38688   3.82379
   1   19593.7    510.4   0.141031385   2.36960  -1.11489  -0.31726   1.01290
   2   22238.3    449.7   0.007381756   0.10928   0.15979   0.15252  -0.24593
   3   23914.8    418.2   0.075099273   1.03382  -0.62470   0.00522   0.80221
   4   24944.3    400.9   0.209441913   2.76419   1.43080   0.11736  -0.83859
   5   26199.1    381.7   0.004925232   0.06189   0.20597   0.03098  -0.13604
   6   26445.1    378.1   0.001137262   0.01416  -0.00737   0.01716  -0.11751
   7   27128.4    368.6   0.033424207   0.40561  -0.39645  -0.18033   0.46468
   8   27999.4    357.2   0.004374393   0.05143  -0.08262   0.20894   0.03084
   9   28385.8    352.3   0.074014145   0.85840   0.66984   0.30904  -0.56054
  10   30189.3    331.2   0.061243122   0.66785  -0.56444  -0.14936   0.57179
  11   31164.5    320.9   0.001236924   0.01307   0.07580   0.05081  -0.06885
  12   31425.0    318.2   0.110065132   1.15306  -0.84670   0.61878  -0.23082
  13   31538.1    317.1   0.022750031   0.23748   0.03895   0.46334   0.14587
  14   31969.9    312.8   0.055361060   0.57008  -0.35985  -0.56813  -0.34325
  15   32781.6    305.0   0.047198095   0.47399   0.04125   0.25624  -0.63767
  16   33109.6    302.0   0.005352941   0.05322   0.08141  -0.15619   0.14900
  17   33765.7    296.2   0.122519570   1.19455   1.06895  -0.22322  -0.04562
  18   34403.8    290.7   0.375099297   3.58934  -1.50458  -0.94698   0.65485
  19   34629.9    288.8   0.099585837   0.94672   0.69742  -0.03188  -0.67773
  20   34987.5    285.8   0.230339634   2.16736  -0.95739   0.45694   1.02077
  21   35222.2    283.9   0.076570823   0.71569   0.71525   0.34334   0.29364
  22   35597.1    280.9   0.116676428   1.07906   0.65943   0.14796  -0.78887
  23   35837.8    279.0   0.034502863   0.31695  -0.07944  -0.03314   0.55636
  24   36249.2    275.9   0.035756548   0.32474   0.22795   0.11950  -0.50843
  25   36610.6    273.1   0.020928558   0.18820  -0.01718  -0.21384  -0.37706
  26   36900.2    271.0   0.010634306   0.09488   0.19603  -0.05483  -0.23117
  27   37001.6    270.3   0.030671399   0.27289   0.14278   0.46750  -0.18424
  28   37402.5    267.4   0.026745917   0.23541  -0.25088  -0.23875   0.33981
  29   37957.4    263.5   0.206158314   1.78805   0.61538   0.38487  -1.12305
  30   38386.8    260.5   0.014366414   0.12321  -0.16059   0.04913   0.30823
  31   38610.1    259.0   0.068498018   0.58405  -0.70339   0.03490   0.29678
  32   38821.0    257.6   0.044001223   0.37314  -0.55954  -0.18530  -0.16038
  33   38916.2    257.0   0.004148508   0.03509  -0.02493   0.16325   0.08845
  34   39171.0    255.3   0.006277933   0.05276  -0.09554   0.08911  -0.18893
  35   39617.7    252.4   0.030557714   0.25393   0.33135  -0.22851   0.30318
  36   39690.9    251.9   0.060489197   0.50172   0.17330   0.60237   0.32991
  37   39927.8    250.5   0.195593042   1.61270  -0.85062  -0.88483  -0.32592
  38   40062.1    249.6   0.353630748   2.90598   0.68640  -1.26912  -0.90784

FINAL SINGLE POINT ENERGY     -6077.387548552920

DIPOLE MOMENT
-------------
                                X             Y             Z
Electronic contribution:     -2.58265      -7.20609     -27.95064
Nuclear contribution   :      1.53395       6.80604      27.90052
                        -----------------------------------------
Total Dipole Moment    :     -1.04870      -0.40005      -0.05012
                        -----------------------------------------
Magnitude (a.u.)       :      1.12353
Magnitude (Debye)      :      2.85578

Rotational constants in cm-1:     0.001423     0.000361     0.000319
Rotational constants in MHz :    42.649766    10.808774     9.569686

                             ****ORCA TERMINATED NORMALLY****
TOTAL RUN TIME: 0 days 0 hours 11 minutes 44 seconds 949 msec
