                         Program Version 4.2.0 -  RELEASE  -
|  1> # ORCA input file
|  2> # SCF done       -150.804469667873          0.000745625570
|  3> ! CAM-B3LYP def2-SVP def2/J RIJCOSX Grid4 TightSCF
|  4> %maxcore 5000
|  5> %tddft
|  6>     Mode sTDDFT
|  7>     Ethresh 5.0
|  8>     maxcore 5000
|  9> end
| 10>
| 11> %pal
| 12>   nprocs 6
| 13>   end
| 14> * xyz 0 1
| 15>    C       -1.06388         9.59866         0.51796
| 16>    N        0.11551         9.05857         0.13421
| 17>    C        0.50125         8.11226         1.04554
| 18>    C       -0.47160         8.06058         2.03080
| 19>    C       -1.45415         8.99968         1.69129
| 20>    C        1.68116         7.38717         0.90377
| 21>    C        2.71221         6.76823         0.75657
| 22>    C        3.89398         6.03576         0.59993
| 23>    C        4.29338         5.09427         1.53464
| 24>    C        5.47888         4.38888         1.37532
| 25>    C        6.31451         4.58210         0.28670
| 26>    C        5.90656         5.50367        -0.71664
| 27>    C        4.71306         6.24931        -0.54390
| 28>    N        4.34419         7.16524        -1.45883
| 29>    C        5.08491         7.33070        -2.52135
| 30>    C        6.22908         6.50894        -2.74730
| 31>    N        6.61563         5.63681        -1.85527
| 32>    C        7.01406         6.60322        -4.01267
| 33>    C        4.68026         8.39257        -3.48602
| 34>    C        7.54671         3.82878         0.18777
| 35>    C        8.77063         4.18950        -0.31342
| 36>    C        9.74102         3.13635        -0.20100
| 37>    C       11.09979         3.15364        -0.50637
| 38>    C       11.85143         2.00067        -0.32965
| 39>    C       11.27802         0.82703         0.18861
| 40>    C        9.95167         0.81374         0.55251
| 41>    C        9.19668         1.96381         0.36017
| 42>    S        7.52847         2.17639         0.77527
| 43>    C       13.21784         2.00752        -0.68931
| 44>    N       14.32207         2.01166        -0.99917
| 45>    C        9.08155         5.49622        -0.87847
| 46>    C        8.75085         6.67610        -0.23615
| 47>    C        9.04584         7.91752        -0.78646
| 48>    C        9.73479         8.03484        -1.98482
| 49>    C       10.14908         6.83835        -2.63754
| 50>    C        9.78863         5.57598        -2.10904
| 51>    N       10.09199         4.45263        -2.78984
| 52>    C       10.77092         4.54516        -3.90232
| 53>    C       11.19304         5.81441        -4.39783
| 54>    N       10.85674         6.91855        -3.78162
| 55>    C       12.02149         5.93735        -5.63099
| 56>    C       11.09687         3.27526        -4.61353
| 57>    C       10.12230         9.28362        -2.57212
| 58>    C        9.41141        10.44204        -2.58352
| 59>    C        9.87340        11.71429        -3.11270
| 60>    C       11.17277        12.06258        -3.36321
| 61>    C       11.57158        13.32253        -3.85665
| 62>    N       11.95474        14.32575        -4.26292
| 63>    C       12.29257        11.23289        -3.13559
| 64>    N       13.25804        10.63688        -2.95973
| 65>    C        8.71098        12.58649        -3.24924
| 66>    C        7.57775        11.90736        -2.76672
| 67>    C        7.95559        10.55931        -2.30758
| 68>    O        7.20062         9.70644        -1.88677
| 69>    C        6.33052        12.50167        -2.77371
| 70>    C        6.21858        13.79331        -3.26423
| 71>    C        7.32806        14.48183        -3.74883
| 72>    C        8.58332        13.87271        -3.74239
| 73>    C        7.19067        15.86656        -4.29636
| 74>    H       -1.54555        10.36439        -0.05859
| 75>    H        0.64463         9.29955        -0.68751
| 76>    H       -0.46218         7.41640         2.88755
| 77>    H       -2.34738         9.21323         2.24412
| 78>    H        3.67614         4.91701         2.40267
| 79>    H        5.76903         3.67666         2.13503
| 80>    H        7.49971         7.57654        -4.07336
| 81>    H        6.36209         6.49374        -4.87797
| 82>    H        7.76898         5.82256        -4.03063
| 83>    H        3.74996         8.84319        -3.15260
| 84>    H        4.55183         7.98590        -4.48753
| 85>    H        5.45730         9.15414        -3.52026
| 86>    H       11.57323         4.04956        -0.87434
| 87>    H       11.89099        -0.05302         0.31072
| 88>    H        9.49957        -0.06828         0.97841
| 89>    H        8.24321         6.63131         0.71651
| 90>    H        8.77169         8.80795        -0.24340
| 91>    H       12.95184         5.38358        -5.51510
| 92>    H       12.24619         6.98449        -5.81232
| 93>    H       11.49117         5.52700        -6.48936
| 94>    H       10.63143         2.44344        -4.09220
| 95>    H       12.17560         3.12407        -4.63365
| 96>    H       10.74100         3.30628        -5.64199
| 97>    H       11.06089         9.24315        -3.11161
| 98>    H        5.47314        11.96538        -2.39590
| 99>    H        5.25348        14.27859        -3.27158
|100>    H        9.43325        14.41388        -4.12633
|101>    H        6.24009        16.31019        -4.01231
|102>    H        7.24624        15.84064        -5.38492
|103>    H        8.00054        16.50031        -3.94117
|104> *
|105>
|106>                          ****END OF INPUT****

CARTESIAN COORDINATES (ANGSTROEM)
---------------------------------
  C     -1.063880    9.598660    0.517960
  N      0.115510    9.058570    0.134210
  C      0.501250    8.112260    1.045540
  C     -0.471600    8.060580    2.030800
  C     -1.454150    8.999680    1.691290
  C      1.681160    7.387170    0.903770
  C      2.712210    6.768230    0.756570
  C      3.893980    6.035760    0.599930
  C      4.293380    5.094270    1.534640
  C      5.478880    4.388880    1.375320
  C      6.314510    4.582100    0.286700
  C      5.906560    5.503670   -0.716640
  C      4.713060    6.249310   -0.543900
  N      4.344190    7.165240   -1.458830
  C      5.084910    7.330700   -2.521350
  C      6.229080    6.508940   -2.747300
  N      6.615630    5.636810   -1.855270
  C      7.014060    6.603220   -4.012670
  C      4.680260    8.392570   -3.486020
  C      7.546710    3.828780    0.187770
  C      8.770630    4.189500   -0.313420
  C      9.741020    3.136350   -0.201000
  C     11.099790    3.153640   -0.506370
  C     11.851430    2.000670   -0.329650
  C     11.278020    0.827030    0.188610
  C      9.951670    0.813740    0.552510
  C      9.196680    1.963810    0.360170
  S      7.528470    2.176390    0.775270
  C     13.217840    2.007520   -0.689310
  N     14.322070    2.011660   -0.999170
  C      9.081550    5.496220   -0.878470
  C      8.750850    6.676100   -0.236150
  C      9.045840    7.917520   -0.786460
  C      9.734790    8.034840   -1.984820
  C     10.149080    6.838350   -2.637540
  C      9.788630    5.575980   -2.109040
  N     10.091990    4.452630   -2.789840
  C     10.770920    4.545160   -3.902320
  C     11.193040    5.814410   -4.397830
  N     10.856740    6.918550   -3.781620
  C     12.021490    5.937350   -5.630990
  C     11.096870    3.275260   -4.613530
  C     10.122300    9.283620   -2.572120
  C      9.411410   10.442040   -2.583520
  C      9.873400   11.714290   -3.112700
  C     11.172770   12.062580   -3.363210
  C     11.571580   13.322530   -3.856650
  N     11.954740   14.325750   -4.262920
  C     12.292570   11.232890   -3.135590
  N     13.258040   10.636880   -2.959730
  C      8.710980   12.586490   -3.249240
  C      7.577750   11.907360   -2.766720
  C      7.955590   10.559310   -2.307580
  O      7.200620    9.706440   -1.886770
  C      6.330520   12.501670   -2.773710
  C      6.218580   13.793310   -3.264230
  C      7.328060   14.481830   -3.748830
  C      8.583320   13.872710   -3.742390
  C      7.190670   15.866560   -4.296360
  H     -1.545550   10.364390   -0.058590
  H      0.644630    9.299550   -0.687510
  H     -0.462180    7.416400    2.887550
  H     -2.347380    9.213230    2.244120
  H      3.676140    4.917010    2.402670
  H      5.769030    3.676660    2.135030
  H      7.499710    7.576540   -4.073360
  H      6.362090    6.493740   -4.877970
  H      7.768980    5.822560   -4.030630
  H      3.749960    8.843190   -3.152600
  H      4.551830    7.985900   -4.487530
  H      5.457300    9.154140   -3.520260
  H     11.573230    4.049560   -0.874340
  H     11.890990   -0.053020    0.310720
  H      9.499570   -0.068280    0.978410
  H      8.243210    6.631310    0.716510
  H      8.771690    8.807950   -0.243400
  H     12.951840    5.383580   -5.515100
  H     12.246190    6.984490   -5.812320
  H     11.491170    5.527000   -6.489360
  H     10.631430    2.443440   -4.092200
  H     12.175600    3.124070   -4.633650
  H     10.741000    3.306280   -5.641990
  H     11.060890    9.243150   -3.111610
  H      5.473140   11.965380   -2.395900
  H      5.253480   14.278590   -3.271580
  H      9.433250   14.413880   -4.126330
  H      6.240090   16.310190   -4.012310
  H      7.246240   15.840640   -5.384920
  H      8.000540   16.500310   -3.941170

 Total Charge           Charge          ....    0
 Multiplicity           Mult            ....    1
 Number of Electrons    NEL             ....  404
 Basis Dimension        Dim             ....  980

ORBITAL ENERGIES
----------------

  NO   OCC          E(Eh)            E(eV)
   0   2.0000     -88.954654     -2420.5792
   1   2.0000     -19.220559      -523.0180
   2   2.0000     -14.457192      -393.4002
   3   2.0000     -14.420763      -392.4089
   4   2.0000     -14.418032      -392.3346
   5   2.0000     -14.415269      -392.2594
   6   2.0000     -14.413185      -392.2027
   7   2.0000     -14.411313      -392.1518
   8   2.0000     -14.409349      -392.0983
   9   2.0000     -14.392830      -391.6488
  10   2.0000     -10.371568      -282.2247
  11   2.0000     -10.343175      -281.4521
  12   2.0000     -10.339740      -281.3586
  13   2.0000     -10.325825      -280.9800
  14   2.0000     -10.322439      -280.8878
  15   2.0000     -10.317967      -280.7662
  16   2.0000     -10.316958      -280.7387
  17   2.0000     -10.316796      -280.7343
  18   2.0000     -10.315516      -280.6994
  19   2.0000     -10.314950      -280.6841
  20   2.0000     -10.312643      -280.6213
  21   2.0000     -10.311805      -280.5985
  22   2.0000     -10.311764      -280.5974
  23   2.0000     -10.310885      -280.5734
  24   2.0000     -10.308965      -280.5212
  25   2.0000     -10.306980      -280.4672
  26   2.0000     -10.306351      -280.4501
  27   2.0000     -10.303322      -280.3677
  28   2.0000     -10.302404      -280.3427
  29   2.0000     -10.300254      -280.2842
  30   2.0000     -10.298684      -280.2415
  31   2.0000     -10.297682      -280.2142
  32   2.0000     -10.296896      -280.1928
  33   2.0000     -10.296400      -280.1793
  34   2.0000     -10.293380      -280.0971
  35   2.0000     -10.293056      -280.0883
  36   2.0000     -10.292433      -280.0714
  37   2.0000     -10.291940      -280.0579
  38   2.0000     -10.290991      -280.0321
  39   2.0000     -10.290138      -280.0089
  40   2.0000     -10.289092      -279.9804
  41   2.0000     -10.288314      -279.9593
  42   2.0000     -10.287894      -279.9478
  43   2.0000     -10.286277      -279.9038
  44   2.0000     -10.286229      -279.9025
  45   2.0000     -10.285775      -279.8902
  46   2.0000     -10.285376      -279.8793
  47   2.0000     -10.282782      -279.8087
  48   2.0000     -10.280036      -279.7340
  49   2.0000     -10.278444      -279.6907
  50   2.0000     -10.277367      -279.6614
  51   2.0000     -10.270699      -279.4799
  52   2.0000     -10.268721      -279.4261
  53   2.0000     -10.266712      -279.3714
  54   2.0000     -10.266083      -279.3543
  55   2.0000     -10.262655      -279.2611
  56   2.0000     -10.262544      -279.2580
  57   2.0000     -10.252354      -278.9807
  58   2.0000     -10.248104      -278.8651
  59   2.0000      -8.050591      -219.0677
  60   2.0000      -6.020086      -163.8149
  61   2.0000      -6.016040      -163.7048
  62   2.0000      -6.012066      -163.5966
  63   2.0000      -1.134929       -30.8830
  64   2.0000      -1.081297       -29.4236
  65   2.0000      -1.073121       -29.2011
  66   2.0000      -1.072153       -29.1748
  67   2.0000      -1.017666       -27.6921
  68   2.0000      -1.008156       -27.4333
  69   2.0000      -1.000584       -27.2273
  70   2.0000      -0.996702       -27.1216
  71   2.0000      -0.994632       -27.0653
  72   2.0000      -0.992344       -27.0030
  73   2.0000      -0.979765       -26.6608
  74   2.0000      -0.963516       -26.2186
  75   2.0000      -0.959065       -26.0975
  76   2.0000      -0.951307       -25.8864
  77   2.0000      -0.934336       -25.4246
  78   2.0000      -0.906289       -24.6614
  79   2.0000      -0.900891       -24.5145
  80   2.0000      -0.888077       -24.1658
  81   2.0000      -0.884887       -24.0790
  82   2.0000      -0.880759       -23.9667
  83   2.0000      -0.873610       -23.7721
  84   2.0000      -0.865499       -23.5514
  85   2.0000      -0.862390       -23.4668
  86   2.0000      -0.854210       -23.2442
  87   2.0000      -0.849459       -23.1149
  88   2.0000      -0.831662       -22.6307
  89   2.0000      -0.820532       -22.3278
  90   2.0000      -0.818573       -22.2745
  91   2.0000      -0.811101       -22.0712
  92   2.0000      -0.804290       -21.8859
  93   2.0000      -0.801958       -21.8224
  94   2.0000      -0.792843       -21.5744
  95   2.0000      -0.785216       -21.3668
  96   2.0000      -0.772647       -21.0248
  97   2.0000      -0.745909       -20.2972
  98   2.0000      -0.737876       -20.0786
  99   2.0000      -0.722957       -19.6727
 100   2.0000      -0.719032       -19.5659
 101   2.0000      -0.718922       -19.5629
 102   2.0000      -0.714247       -19.4356
 103   2.0000      -0.712083       -19.3768
 104   2.0000      -0.699845       -19.0438
 105   2.0000      -0.693935       -18.8829
 106   2.0000      -0.686595       -18.6832
 107   2.0000      -0.682545       -18.5730
 108   2.0000      -0.675383       -18.3781
 109   2.0000      -0.665509       -18.1094
 110   2.0000      -0.660688       -17.9782
 111   2.0000      -0.654400       -17.8071
 112   2.0000      -0.650832       -17.7100
 113   2.0000      -0.642272       -17.4771
 114   2.0000      -0.635643       -17.2967
 115   2.0000      -0.631399       -17.1812
 116   2.0000      -0.614347       -16.7172
 117   2.0000      -0.609831       -16.5944
 118   2.0000      -0.604918       -16.4607
 119   2.0000      -0.601613       -16.3707
 120   2.0000      -0.591442       -16.0940
 121   2.0000      -0.581035       -15.8108
 122   2.0000      -0.577050       -15.7023
 123   2.0000      -0.569921       -15.5083
 124   2.0000      -0.560564       -15.2537
 125   2.0000      -0.557636       -15.1741
 126   2.0000      -0.556979       -15.1562
 127   2.0000      -0.553763       -15.0687
 128   2.0000      -0.547971       -14.9110
 129   2.0000      -0.544711       -14.8223
 130   2.0000      -0.538811       -14.6618
 131   2.0000      -0.536308       -14.5937
 132   2.0000      -0.531715       -14.4687
 133   2.0000      -0.528043       -14.3688
 134   2.0000      -0.525228       -14.2922
 135   2.0000      -0.524351       -14.2683
 136   2.0000      -0.518317       -14.1041
 137   2.0000      -0.514728       -14.0065
 138   2.0000      -0.513905       -13.9841
 139   2.0000      -0.513131       -13.9630
 140   2.0000      -0.510659       -13.8957
 141   2.0000      -0.505612       -13.7584
 142   2.0000      -0.503848       -13.7104
 143   2.0000      -0.502763       -13.6809
 144   2.0000      -0.498988       -13.5782
 145   2.0000      -0.496881       -13.5208
 146   2.0000      -0.495723       -13.4893
 147   2.0000      -0.492975       -13.4145
 148   2.0000      -0.490977       -13.3602
 149   2.0000      -0.488529       -13.2936
 150   2.0000      -0.487297       -13.2600
 151   2.0000      -0.483794       -13.1647
 152   2.0000      -0.477537       -12.9945
 153   2.0000      -0.476376       -12.9629
 154   2.0000      -0.475273       -12.9328
 155   2.0000      -0.473394       -12.8817
 156   2.0000      -0.472346       -12.8532
 157   2.0000      -0.471332       -12.8256
 158   2.0000      -0.469933       -12.7875
 159   2.0000      -0.464490       -12.6394
 160   2.0000      -0.460193       -12.5225
 161   2.0000      -0.458017       -12.4633
 162   2.0000      -0.454602       -12.3704
 163   2.0000      -0.453729       -12.3466
 164   2.0000      -0.450950       -12.2710
 165   2.0000      -0.449079       -12.2201
 166   2.0000      -0.445912       -12.1339
 167   2.0000      -0.441945       -12.0259
 168   2.0000      -0.441176       -12.0050
 169   2.0000      -0.440106       -11.9759
 170   2.0000      -0.438131       -11.9221
 171   2.0000      -0.434533       -11.8243
 172   2.0000      -0.427142       -11.6231
 173   2.0000      -0.425110       -11.5678
 174   2.0000      -0.423725       -11.5301
 175   2.0000      -0.420465       -11.4414
 176   2.0000      -0.417053       -11.3486
 177   2.0000      -0.416739       -11.3400
 178   2.0000      -0.412390       -11.2217
 179   2.0000      -0.409109       -11.1324
 180   2.0000      -0.403802       -10.9880
 181   2.0000      -0.397950       -10.8288
 182   2.0000      -0.388144       -10.5619
 183   2.0000      -0.386495       -10.5171
 184   2.0000      -0.377428       -10.2703
 185   2.0000      -0.374898       -10.2015
 186   2.0000      -0.359940        -9.7945
 187   2.0000      -0.352586        -9.5943
 188   2.0000      -0.342551        -9.3213
 189   2.0000      -0.338417        -9.2088
 190   2.0000      -0.335549        -9.1307
 191   2.0000      -0.327870        -8.9218
 192   2.0000      -0.321066        -8.7367
 193   2.0000      -0.319196        -8.6858
 194   2.0000      -0.317424        -8.6375
 195   2.0000      -0.316743        -8.6190
 196   2.0000      -0.313019        -8.5177
 197   2.0000      -0.311760        -8.4834
 198   2.0000      -0.295991        -8.0543
 199   2.0000      -0.290992        -7.9183
 200   2.0000      -0.272164        -7.4059
 201   2.0000      -0.243447        -6.6245
 202   0.0000      -0.086297        -2.3483
 203   0.0000      -0.063896        -1.7387
 204   0.0000      -0.050509        -1.3744
 205   0.0000      -0.032958        -0.8968
 206   0.0000      -0.004772        -0.1298

MULLIKEN ATOMIC CHARGES
-----------------------
   0 C :    0.045476
   1 N :   -0.047345
   2 C :   -0.050017
   3 C :   -0.015770
   4 C :   -0.000002
   5 C :    0.086213
   6 C :   -0.045667
   7 C :    0.000158
   8 C :   -0.012850
   9 C :   -0.047281
  10 C :    0.066435
  11 C :   -0.052173
  12 C :   -0.040989
  13 N :    0.031553
  14 C :   -0.161378
  15 C :   -0.156594
  16 N :    0.019067
  17 C :    0.133853
  18 C :    0.139378
  19 C :   -0.160215
  20 C :    0.163435
  21 C :    0.103379
  22 C :   -0.017030
  23 C :   -0.114727
  24 C :    0.035811
  25 C :    0.002969
  26 C :   -0.064830
  27 S :    0.130629
  28 C :   -0.145454
  29 N :    0.092840
  30 C :    0.050779
  31 C :   -0.023462
  32 C :    0.026359
  33 C :    0.033943
  34 C :   -0.038664
  35 C :   -0.063021
  36 N :    0.025494
  37 C :   -0.177071
  38 C :   -0.170764
  39 N :    0.009158
  40 C :    0.128523
  41 C :    0.130190
  42 C :   -0.028840
  43 C :   -0.075495
  44 C :    0.298751
  45 C :   -0.337867
  46 C :   -0.185980
  47 N :    0.153289
  48 C :   -0.204824
  49 N :    0.169264
  50 C :    0.049424
  51 C :   -0.026448
  52 C :    0.145577
  53 O :   -0.162697
  54 C :   -0.021835
  55 C :    0.006430
  56 C :   -0.038642
  57 C :   -0.071272
  58 C :    0.091717
  59 H :   -0.003861
  60 H :    0.126725
  61 H :   -0.029947
  62 H :   -0.022174
  63 H :   -0.018971
  64 H :   -0.011606
  65 H :    0.032352
  66 H :    0.020246
  67 H :    0.023562
  68 H :    0.008901
  69 H :    0.012973
  70 H :    0.027628
  71 H :   -0.009674
  72 H :   -0.006244
  73 H :   -0.018050
  74 H :   -0.015334
  75 H :   -0.013953
  76 H :    0.033393
  77 H :    0.032281
  78 H :    0.025786
  79 H :    0.032567
  80 H :    0.037471
  81 H :    0.020708
  82 H :    0.043133
  83 H :   -0.008372
  84 H :   -0.016684
  85 H :   -0.010368
  86 H :    0.015209
  87 H :    0.043811
  88 H :    0.037605
Sum of atomic charges:   -0.0000000

LOEWDIN ATOMIC CHARGES
----------------------
   0 C :   -0.011391
   1 N :    0.103916
   2 C :   -0.047345
   3 C :   -0.047994
   4 C :   -0.080284
   5 C :   -0.033466
   6 C :   -0.028135
   7 C :   -0.029638
   8 C :   -0.007894
   9 C :   -0.017095
  10 C :   -0.054824
  11 C :   -0.006835
  12 C :   -0.003812
  13 N :   -0.041765
  14 C :    0.011222
  15 C :    0.010817
  16 N :   -0.036689
  17 C :   -0.054872
  18 C :   -0.055025
  19 C :   -0.124935
  20 C :   -0.042233
  21 C :   -0.028888
  22 C :    0.026905
  23 C :   -0.081167
  24 C :   -0.000041
  25 C :   -0.036482
  26 C :   -0.146496
  27 S :    0.422012
  28 C :   -0.029358
  29 N :   -0.069832
  30 C :    0.019475
  31 C :   -0.018165
  32 C :    0.036650
  33 C :   -0.055842
  34 C :    0.002904
  35 C :   -0.019096
  36 N :   -0.031789
  37 C :   -0.004646
  38 C :    0.006766
  39 N :   -0.049756
  40 C :   -0.051547
  41 C :   -0.052320
  42 C :    0.095167
  43 C :   -0.099967
  44 C :    0.075566
  45 C :   -0.132836
  46 C :   -0.017251
  47 N :   -0.052566
  48 C :   -0.024893
  49 N :   -0.043242
  50 C :   -0.009482
  51 C :   -0.054456
  52 C :    0.085726
  53 O :   -0.146701
  54 C :    0.014445
  55 C :   -0.011255
  56 C :    0.002188
  57 C :   -0.003929
  58 C :   -0.043223
  59 H :    0.019792
  60 H :    0.094475
  61 H :    0.026688
  62 H :    0.023802
  63 H :    0.036426
  64 H :    0.025843
  65 H :    0.039559
  66 H :    0.034962
  67 H :    0.035416
  68 H :    0.032278
  69 H :    0.032330
  70 H :    0.036106
  71 H :    0.035674
  72 H :    0.037883
  73 H :    0.032991
  74 H :    0.035102
  75 H :    0.034761
  76 H :    0.042236
  77 H :    0.040728
  78 H :    0.038658
  79 H :    0.041298
  80 H :    0.043167
  81 H :    0.035996
  82 H :    0.046181
  83 H :    0.037963
  84 H :    0.030838
  85 H :    0.037080
  86 H :    0.031413
  87 H :    0.044795
  88 H :    0.041257

  Mayer bond orders larger than 0.100000
B(  0-C ,  1-N ) :   1.2369 B(  0-C ,  2-C ) :   0.1082 B(  0-C ,  4-C ) :   1.4672
B(  0-C , 59-H ) :   0.9927 B(  1-N ,  2-C ) :   1.2478 B(  1-N , 60-H ) :   0.9417
B(  2-C ,  3-C ) :   1.4756 B(  2-C ,  5-C ) :   0.8043 B(  3-C ,  4-C ) :   1.3185
B(  3-C , 61-H ) :   1.0155 B(  4-C , 62-H ) :   1.0032 B(  5-C ,  6-C ) :   2.2541
B(  6-C ,  7-C ) :   0.8968 B(  7-C ,  8-C ) :   1.4314 B(  7-C , 10-C ) :   0.1146
B(  7-C , 12-C ) :   1.2200 B(  8-C ,  9-C ) :   1.2455 B(  8-C , 63-H ) :   1.0075
B(  9-C , 10-C ) :   1.4088 B(  9-C , 64-H ) :   0.9935 B( 10-C , 11-C ) :   1.2516
B( 10-C , 19-C ) :   1.0109 B( 11-C , 12-C ) :   1.2647 B( 11-C , 16-N ) :   1.4395
B( 12-C , 13-N ) :   1.4858 B( 13-N , 14-C ) :   1.7032 B( 14-C , 15-C ) :   1.1611
B( 14-C , 18-C ) :   1.0986 B( 15-C , 16-N ) :   1.6885 B( 15-C , 17-C ) :   1.0960
B( 17-C , 65-H ) :   0.9306 B( 17-C , 66-H ) :   0.9383 B( 17-C , 67-H ) :   0.9365
B( 18-C , 68-H ) :   0.9385 B( 18-C , 69-H ) :   0.9359 B( 18-C , 70-H ) :   0.9340
B( 19-C , 20-C ) :   1.6314 B( 19-C , 27-S ) :   1.0934 B( 20-C , 21-C ) :   1.1412
B( 20-C , 30-C ) :   0.9435 B( 21-C , 22-C ) :   1.3043 B( 21-C , 26-C ) :   1.3209
B( 22-C , 23-C ) :   1.4312 B( 22-C , 71-H ) :   0.9817 B( 23-C , 24-C ) :   1.3169
B( 23-C , 28-C ) :   1.0588 B( 24-C , 25-C ) :   1.4380 B( 24-C , 72-H ) :   0.9923
B( 25-C , 26-C ) :   1.3286 B( 25-C , 73-H ) :   0.9937 B( 26-C , 27-S ) :   1.0616
B( 28-C , 29-N ) :   3.0510 B( 30-C , 31-C ) :   1.4462 B( 30-C , 33-C ) :   0.1186
B( 30-C , 35-C ) :   1.2524 B( 31-C , 32-C ) :   1.2644 B( 31-C , 74-H ) :   0.9938
B( 32-C , 33-C ) :   1.3822 B( 32-C , 75-H ) :   0.9942 B( 33-C , 34-C ) :   1.1953
B( 33-C , 42-C ) :   1.1101 B( 34-C , 35-C ) :   1.2599 B( 34-C , 39-N ) :   1.4545
B( 35-C , 36-N ) :   1.4450 B( 36-N , 37-C ) :   1.6823 B( 37-C , 38-C ) :   1.1551
B( 37-C , 41-C ) :   1.0964 B( 38-C , 39-N ) :   1.6948 B( 38-C , 40-C ) :   1.0987
B( 40-C , 76-H ) :   0.9404 B( 40-C , 77-H ) :   0.9412 B( 40-C , 78-H ) :   0.9396
B( 41-C , 79-H ) :   0.9418 B( 41-C , 80-H ) :   0.9391 B( 41-C , 81-H ) :   0.9408
B( 42-C , 43-C ) :   1.6065 B( 42-C , 82-H ) :   0.9362 B( 43-C , 44-C ) :   1.0394
B( 43-C , 52-C ) :   0.9519 B( 44-C , 45-C ) :   1.6616 B( 44-C , 50-C ) :   0.9870
B( 45-C , 46-C ) :   1.1419 B( 45-C , 48-C ) :   1.1389 B( 46-C , 47-N ) :   2.9717
B( 48-C , 49-N ) :   2.9971 B( 50-C , 51-C ) :   1.3170 B( 50-C , 57-C ) :   1.3693
B( 51-C , 52-C ) :   0.9569 B( 51-C , 54-C ) :   1.3837 B( 52-C , 53-O ) :   2.1540
B( 54-C , 55-C ) :   1.3444 B( 54-C , 83-H ) :   1.0050 B( 55-C , 56-C ) :   1.3877
B( 55-C , 84-H ) :   0.9910 B( 56-C , 57-C ) :   1.3501 B( 56-C , 58-C ) :   1.0532
B( 57-C , 85-H ) :   0.9877 B( 58-C , 86-H ) :   0.9596 B( 58-C , 87-H ) :   0.9510
B( 58-C , 88-H ) :   0.9555

-----------------------------------------------------------------------------
         ABSORPTION SPECTRUM VIA TRANSITION ELECTRIC DIPOLE MOMENTS
-----------------------------------------------------------------------------
State   Energy  Wavelength   fosc         T2         TX        TY        TZ
        (cm-1)    (nm)                  (au**2)     (au)      (au)      (au)
-----------------------------------------------------------------------------
   0   20886.0    478.8   0.268585260   4.23354   1.34615   1.36517  -0.74682
   1   24214.3    413.0   0.398451547   5.41725  -0.53547  -2.16438   0.66782
   2   25363.1    394.3   0.767138101   9.95743   2.49005  -1.90192  -0.37383
   3   26278.0    380.5   0.195585368   2.45030   1.33056  -0.81433  -0.12952
   4   27677.2    361.3   0.008255011   0.09819  -0.23497  -0.20114  -0.05023
   5   28340.8    352.8   0.007132466   0.08285  -0.27751   0.05343   0.05465
   6   29293.2    341.4   0.045451787   0.51081  -0.61645   0.34023   0.12265
   7   30016.6    333.1   0.007264577   0.07968   0.20136  -0.12090   0.15657
   8   30359.8    329.4   0.133250455   1.44492   0.24095  -1.16124  -0.19591
   9   31303.5    319.5   0.036580503   0.38471  -0.36316   0.44298   0.23789
  10   31701.7    315.4   0.059963301   0.62270  -0.74798   0.07608  -0.23965
  11   31889.1    313.6   0.003688517   0.03808   0.05405   0.18246  -0.04320
  12   32087.3    311.7   0.025607447   0.26273  -0.23770  -0.02103   0.45364
  13   32187.6    310.7   0.011943235   0.12215  -0.23951   0.23806   0.09011
  14   32979.3    303.2   0.063696277   0.63584  -0.64578   0.44836   0.13331
  15   33467.8    298.8   0.004566088   0.04492   0.01999   0.16152  -0.13574
  16   34244.4    292.0   0.071000654   0.68257  -0.23052  -0.65685   0.44494
  17   34565.4    289.3   0.036648525   0.34905  -0.15062   0.50128  -0.27401
  18   34754.4    287.7   0.037857147   0.35860   0.58782  -0.08923  -0.07149
  19   35237.3    283.8   0.030256754   0.28268  -0.34404   0.40533   0.00548
  20   35644.8    280.5   0.036686468   0.33883  -0.22588   0.46598  -0.26586
  21   35841.0    279.0   0.344998941   3.16894   1.25224  -1.18791   0.43556
  22   36013.0    277.7   0.230500860   2.10712  -1.30681   0.62552   0.09000
  23   36320.7    275.3   0.120798157   1.09492   0.94686  -0.16801  -0.41250
  24   36670.9    272.7   0.022106306   0.19846   0.24101  -0.37448   0.01154
  25   37170.9    269.0   0.540472056   4.78680  -2.16459   0.00698   0.31826
  26   37922.7    263.7   0.049872257   0.43295   0.61875   0.13932  -0.17518
  27   38182.6    261.9   0.044819905   0.38644  -0.41536   0.37484   0.27095
  28   38454.0    260.1   0.019288766   0.16513   0.18593   0.36134   0.00101
  29   38535.8    259.5   0.184830912   1.57901  -0.86497   0.86051  -0.30058
  30   38856.5    257.4   0.085057013   0.72065   0.05408  -0.76821   0.35718
  31   39097.5    255.8   0.238489081   2.00815  -0.44771  -0.44398   1.26909
  32   39474.6    253.3   0.007032716   0.05865  -0.07219   0.11585   0.20005
  33   39843.8    251.0   0.007057180   0.05831   0.09569  -0.03551  -0.21885
  34   40225.0    248.6   0.011446942   0.09368  -0.13696   0.11817   0.24690
  35   40282.9    248.2   0.006929712   0.05663   0.22653  -0.02228  -0.06942

FINAL SINGLE POINT ENERGY     -2793.489477323749

DIPOLE MOMENT
-------------
                                X             Y             Z
Electronic contribution:     14.90801     -14.85207      22.43342
Nuclear contribution   :    -18.41843      15.37148     -23.44392
                        -----------------------------------------
Total Dipole Moment    :     -3.51043       0.51941      -1.01050
                        -----------------------------------------
Magnitude (a.u.)       :      3.68971
Magnitude (Debye)      :      9.37850

Rotational constants in cm-1:     0.001375     0.001229     0.000702
Rotational constants in MHz :    41.235008    36.842743    21.032375

                             ****ORCA TERMINATED NORMALLY****
TOTAL RUN TIME: 0 days 0 hours 8 minutes 16 seconds 97 msec
