                         Program Version 4.2.0 -  RELEASE  -
|  1> # ORCA input file
|  2> # SCF done       -203.994299595530          0.000908982880
|  3> ! CAM-B3LYP def2-SVP def2/J RIJCOSX Grid4 TightSCF
|  4> %maxcore 5000
|  5> %tddft
|  6>     Mode sTDDFT
|  7>     Ethresh 5.0
|  8>     maxcore 5000
|  9> end
| 10>
| 11> %pal
| 12>   nprocs 6
| 13>   end
| 14> * xyz 0 1
| 15>    C       -0.95597         2.57527         7.62533
| 16>    C       -0.61440         3.77229         8.20522
| 17>    C        0.34061         3.90462         9.23387
| 18>    N        1.10427         4.08137        10.07334
| 19>    C       -1.11410         5.04185         7.84823
| 20>    N       -1.44541         6.11761         7.61665
| 21>    C       -0.34072         1.29126         7.94628
| 22>    C       -0.82738         0.32424         7.03662
| 23>    C       -0.43518        -0.99116         7.06903
| 24>    C        0.47883        -1.37417         8.05628
| 25>    C        0.95538        -0.40241         8.96669
| 26>    C        0.56233         0.93017         8.92836
| 27>    S        2.06884        -1.09052        10.11054
| 28>    C        1.87990        -2.65271         9.35953
| 29>    C        1.02965        -2.66124         8.30609
| 30>   Br        2.82384        -4.12586        10.03663
| 31>    C       -1.79050         0.95686         6.11122
| 32>    O       -2.34740         0.38754         5.19230
| 33>    C       -1.91544         2.35700         6.55909
| 34>    C       -2.84039         3.30141         6.17698
| 35>    C       -3.83199         3.28271         5.18827
| 36>    C       -4.13480         2.39032         4.16141
| 37>    C       -5.23639         2.74941         3.40611
| 38>    C       -5.80488         3.95957         3.85873
| 39>    S       -4.96280         4.63996         5.18067
| 40>    C       -6.97310         4.36794         3.18126
| 41>    C       -7.41402         3.52013         2.15557
| 42>   Si       -6.23061         2.07517         1.96886
| 43>    C       -5.29693         2.11276         0.34665
| 44>    C       -7.02548         0.41932         2.32515
| 45>    C       -8.60311         3.98076         1.59681
| 46>    C       -9.07440         5.15157         2.16604
| 47>    S       -8.01189         5.72171         3.42848
| 48>    C      -10.27579         5.83719         1.86020
| 49>    C      -10.74086         7.03309         2.37514
| 50>    C      -11.99870         7.40281         1.89846
| 51>    C      -12.49718         6.45213         1.00008
| 52>    S      -11.42058         5.13832         0.73643
| 53>    C      -13.79310         6.70211         0.49257
| 54>    C      -14.41055         7.87461         0.94354
| 55>   Si      -13.25526         8.77897         2.11231
| 56>    C      -13.92428         8.90002         3.85650
| 57>    C      -12.66389        10.42342         1.44127
| 58>    C      -15.69664         7.99973         0.41775
| 59>    C      -16.06794         6.95582        -0.40948
| 60>    S      -14.78452         5.77686        -0.56387
| 61>    C      -17.30475         6.74812        -1.06809
| 62>    C      -17.66933         5.66931        -1.85545
| 63>    C      -18.97438         5.73659        -2.33599
| 64>    C      -19.61579         6.90506        -1.90208
| 65>    S      -18.60968         7.89817        -0.91662
| 66>    C      -20.95056         7.06902        -2.32886
| 67>    C      -21.46480         6.02028        -3.11653
| 68>   Si      -20.14443         4.72002        -3.39263
| 69>    C      -19.63382         4.61042        -5.18805
| 70>    C      -20.55017         3.06221        -2.62135
| 71>    C      -22.75618         6.29024        -3.53103
| 72>    C      -23.25831         7.51086        -3.08246
| 73>    S      -22.07598         8.33230        -2.07751
| 74>    C      -24.52062         8.09157        -3.26796
| 75>    C      -25.50177         7.77275        -4.17144
| 76>    C      -25.50358         7.01379        -5.39546
| 77>    C      -24.44782         6.83073        -6.25733
| 78>    C      -24.53479         6.12291        -7.47091
| 79>    N      -24.53770         5.53607        -8.45861
| 80>    C      -23.17111         7.39331        -6.07184
| 81>    N      -22.11928         7.84845        -5.99426
| 82>    C      -26.89493         6.69156        -5.70794
| 83>    C      -27.73555         7.41646        -4.82750
| 84>    C      -26.89679         8.18045        -3.87905
| 85>    O      -27.26774         8.94444        -3.01521
| 86>    C      -29.10518         7.35315        -4.89629
| 87>    C      -29.67219         6.52579        -5.87254
| 88>    C      -28.82385         5.79656        -6.73771
| 89>    C      -27.43696         5.86797        -6.67472
| 90>    S      -29.73298         4.82922        -7.85929
| 91>    C      -31.22073         5.41344        -7.16233
| 92>    C      -31.04800         6.28606        -6.14191
| 93>   Br      -32.86099         4.81293        -7.84674
| 94>    H       -0.82376        -1.70304         6.35772
| 95>    H        0.95280         1.63002         9.64769
| 96>    H        0.79793        -3.53748         7.72854
| 97>    H       -2.84000         4.21533         6.75983
| 98>    H       -3.55604         1.50057         3.99802
| 99>    H       -4.84860         3.08508         0.15041
|100>    H       -5.94484         1.88321        -0.49695
|101>    H       -4.49100         1.38192         0.33565
|102>    H       -7.59345         0.42444         3.25364
|103>    H       -6.27829        -0.36659         2.41356
|104>    H       -7.70888         0.12040         1.53286
|105>    H       -9.12870         3.48421         0.80008
|106>    H      -10.16942         7.60763         3.08309
|107>    H      -14.26503         7.93876         4.23650
|108>    H      -14.76838         9.58408         3.91456
|109>    H      -13.17060         9.26853         4.54932
|110>    H      -12.27529        10.34109         0.42800
|111>    H      -11.86964        10.84344         2.05501
|112>    H      -13.46652        11.15762         1.41696
|113>    H      -16.35995         8.81992         0.63014
|114>    H      -16.99097         4.85966        -2.06027
|115>    H      -19.52106         5.59542        -5.63776
|116>    H      -20.37435         4.07674        -5.78079
|117>    H      -18.68846         4.08648        -5.31443
|118>    H      -20.85161         3.15141        -1.57920
|119>    H      -19.69563         2.38932        -2.64967
|120>    H      -21.36151         2.56341        -3.14753
|121>    H      -23.34833         5.60144        -4.10735
|122>    H      -24.80605         8.85555        -2.55081
|123>    H      -29.72196         7.92301        -4.21931
|124>    H      -26.83100         5.29060        -7.35321
|125>    H      -31.85551         6.74276        -5.59943
|126> *
|127>
|128>                          ****END OF INPUT****

CARTESIAN COORDINATES (ANGSTROEM)
---------------------------------
  C     -0.955970    2.575270    7.625330
  C     -0.614400    3.772290    8.205220
  C      0.340610    3.904620    9.233870
  N      1.104270    4.081370   10.073340
  C     -1.114100    5.041850    7.848230
  N     -1.445410    6.117610    7.616650
  C     -0.340720    1.291260    7.946280
  C     -0.827380    0.324240    7.036620
  C     -0.435180   -0.991160    7.069030
  C      0.478830   -1.374170    8.056280
  C      0.955380   -0.402410    8.966690
  C      0.562330    0.930170    8.928360
  S      2.068840   -1.090520   10.110540
  C      1.879900   -2.652710    9.359530
  C      1.029650   -2.661240    8.306090
  Br     2.823840   -4.125860   10.036630
  C     -1.790500    0.956860    6.111220
  O     -2.347400    0.387540    5.192300
  C     -1.915440    2.357000    6.559090
  C     -2.840390    3.301410    6.176980
  C     -3.831990    3.282710    5.188270
  C     -4.134800    2.390320    4.161410
  C     -5.236390    2.749410    3.406110
  C     -5.804880    3.959570    3.858730
  S     -4.962800    4.639960    5.180670
  C     -6.973100    4.367940    3.181260
  C     -7.414020    3.520130    2.155570
  Si    -6.230610    2.075170    1.968860
  C     -5.296930    2.112760    0.346650
  C     -7.025480    0.419320    2.325150
  C     -8.603110    3.980760    1.596810
  C     -9.074400    5.151570    2.166040
  S     -8.011890    5.721710    3.428480
  C    -10.275790    5.837190    1.860200
  C    -10.740860    7.033090    2.375140
  C    -11.998700    7.402810    1.898460
  C    -12.497180    6.452130    1.000080
  S    -11.420580    5.138320    0.736430
  C    -13.793100    6.702110    0.492570
  C    -14.410550    7.874610    0.943540
  Si   -13.255260    8.778970    2.112310
  C    -13.924280    8.900020    3.856500
  C    -12.663890   10.423420    1.441270
  C    -15.696640    7.999730    0.417750
  C    -16.067940    6.955820   -0.409480
  S    -14.784520    5.776860   -0.563870
  C    -17.304750    6.748120   -1.068090
  C    -17.669330    5.669310   -1.855450
  C    -18.974380    5.736590   -2.335990
  C    -19.615790    6.905060   -1.902080
  S    -18.609680    7.898170   -0.916620
  C    -20.950560    7.069020   -2.328860
  C    -21.464800    6.020280   -3.116530
  Si   -20.144430    4.720020   -3.392630
  C    -19.633820    4.610420   -5.188050
  C    -20.550170    3.062210   -2.621350
  C    -22.756180    6.290240   -3.531030
  C    -23.258310    7.510860   -3.082460
  S    -22.075980    8.332300   -2.077510
  C    -24.520620    8.091570   -3.267960
  C    -25.501770    7.772750   -4.171440
  C    -25.503580    7.013790   -5.395460
  C    -24.447820    6.830730   -6.257330
  C    -24.534790    6.122910   -7.470910
  N    -24.537700    5.536070   -8.458610
  C    -23.171110    7.393310   -6.071840
  N    -22.119280    7.848450   -5.994260
  C    -26.894930    6.691560   -5.707940
  C    -27.735550    7.416460   -4.827500
  C    -26.896790    8.180450   -3.879050
  O    -27.267740    8.944440   -3.015210
  C    -29.105180    7.353150   -4.896290
  C    -29.672190    6.525790   -5.872540
  C    -28.823850    5.796560   -6.737710
  C    -27.436960    5.867970   -6.674720
  S    -29.732980    4.829220   -7.859290
  C    -31.220730    5.413440   -7.162330
  C    -31.048000    6.286060   -6.141910
  Br   -32.860990    4.812930   -7.846740
  H     -0.823760   -1.703040    6.357720
  H      0.952800    1.630020    9.647690
  H      0.797930   -3.537480    7.728540
  H     -2.840000    4.215330    6.759830
  H     -3.556040    1.500570    3.998020
  H     -4.848600    3.085080    0.150410
  H     -5.944840    1.883210   -0.496950
  H     -4.491000    1.381920    0.335650
  H     -7.593450    0.424440    3.253640
  H     -6.278290   -0.366590    2.413560
  H     -7.708880    0.120400    1.532860
  H     -9.128700    3.484210    0.800080
  H    -10.169420    7.607630    3.083090
  H    -14.265030    7.938760    4.236500
  H    -14.768380    9.584080    3.914560
  H    -13.170600    9.268530    4.549320
  H    -12.275290   10.341090    0.428000
  H    -11.869640   10.843440    2.055010
  H    -13.466520   11.157620    1.416960
  H    -16.359950    8.819920    0.630140
  H    -16.990970    4.859660   -2.060270
  H    -19.521060    5.595420   -5.637760
  H    -20.374350    4.076740   -5.780790
  H    -18.688460    4.086480   -5.314430
  H    -20.851610    3.151410   -1.579200
  H    -19.695630    2.389320   -2.649670
  H    -21.361510    2.563410   -3.147530
  H    -23.348330    5.601440   -4.107350
  H    -24.806050    8.855550   -2.550810
  H    -29.721960    7.923010   -4.219310
  H    -26.831000    5.290600   -7.353210
  H    -31.855510    6.742760   -5.599430

 Total Charge           Charge          ....    0
 Multiplicity           Mult            ....    1
 Number of Electrons    NEL             ....  676
 Basis Dimension        Dim             .... 1346

ORBITAL ENERGIES
----------------

  NO   OCC          E(Eh)            E(eV)
   0   2.0000    -482.882314    -13139.8958
   1   2.0000    -482.881560    -13139.8753
   2   2.0000     -88.971629     -2421.0411
   3   2.0000     -88.971461     -2421.0365
   4   2.0000     -88.971361     -2421.0338
   5   2.0000     -88.970852     -2421.0200
   6   2.0000     -88.970069     -2420.9987
   7   2.0000     -88.969972     -2420.9960
   8   2.0000     -88.969732     -2420.9895
   9   2.0000     -88.969404     -2420.9806
  10   2.0000     -66.202002     -1801.4481
  11   2.0000     -66.201568     -1801.4362
  12   2.0000     -66.200964     -1801.4198
  13   2.0000     -62.560004     -1702.3443
  14   2.0000     -62.559268     -1702.3242
  15   2.0000     -56.393951     -1534.5574
  16   2.0000     -56.393214     -1534.5374
  17   2.0000     -56.391245     -1534.4838
  18   2.0000     -56.391209     -1534.4828
  19   2.0000     -56.390507     -1534.4637
  20   2.0000     -56.390474     -1534.4628
  21   2.0000     -19.210164      -522.7351
  22   2.0000     -19.205364      -522.6045
  23   2.0000     -14.409392      -392.0995
  24   2.0000     -14.408885      -392.0857
  25   2.0000     -14.406983      -392.0339
  26   2.0000     -14.405112      -391.9830
  27   2.0000     -10.361401      -281.9481
  28   2.0000     -10.356909      -281.8258
  29   2.0000     -10.354462      -281.7592
  30   2.0000     -10.353638      -281.7368
  31   2.0000     -10.335292      -281.2376
  32   2.0000     -10.333033      -281.1761
  33   2.0000     -10.332348      -281.1575
  34   2.0000     -10.330337      -281.1028
  35   2.0000     -10.326967      -281.0111
  36   2.0000     -10.325232      -280.9638
  37   2.0000     -10.320633      -280.8387
  38   2.0000     -10.319904      -280.8189
  39   2.0000     -10.319065      -280.7960
  40   2.0000     -10.318393      -280.7778
  41   2.0000     -10.315490      -280.6987
  42   2.0000     -10.314804      -280.6801
  43   2.0000     -10.314447      -280.6704
  44   2.0000     -10.313791      -280.6525
  45   2.0000     -10.313733      -280.6509
  46   2.0000     -10.313148      -280.6350
  47   2.0000     -10.313145      -280.6349
  48   2.0000     -10.313086      -280.6333
  49   2.0000     -10.313018      -280.6315
  50   2.0000     -10.310743      -280.5696
  51   2.0000     -10.310548      -280.5643
  52   2.0000     -10.308938      -280.5205
  53   2.0000     -10.308651      -280.5127
  54   2.0000     -10.307897      -280.4921
  55   2.0000     -10.302439      -280.3436
  56   2.0000     -10.302022      -280.3323
  57   2.0000     -10.301265      -280.3117
  58   2.0000     -10.300221      -280.2833
  59   2.0000     -10.300140      -280.2811
  60   2.0000     -10.298350      -280.2324
  61   2.0000     -10.295628      -280.1583
  62   2.0000     -10.294246      -280.1207
  63   2.0000     -10.294228      -280.1202
  64   2.0000     -10.292525      -280.0738
  65   2.0000     -10.291773      -280.0534
  66   2.0000     -10.287660      -279.9415
  67   2.0000     -10.286196      -279.9016
  68   2.0000     -10.285541      -279.8838
  69   2.0000     -10.285492      -279.8825
  70   2.0000     -10.284868      -279.8655
  71   2.0000     -10.284505      -279.8556
  72   2.0000     -10.284500      -279.8555
  73   2.0000     -10.283861      -279.8381
  74   2.0000     -10.283616      -279.8314
  75   2.0000     -10.269227      -279.4399
  76   2.0000     -10.267579      -279.3950
  77   2.0000     -10.262715      -279.2627
  78   2.0000     -10.262623      -279.2602
  79   2.0000     -10.262503      -279.2569
  80   2.0000     -10.262173      -279.2479
  81   2.0000     -10.255984      -279.0795
  82   2.0000     -10.255892      -279.0770
  83   2.0000     -10.255847      -279.0758
  84   2.0000     -10.255550      -279.0677
  85   2.0000     -10.255523      -279.0670
  86   2.0000     -10.250772      -278.9377
  87   2.0000      -8.789418      -239.1722
  88   2.0000      -8.788688      -239.1524
  89   2.0000      -8.067365      -219.5242
  90   2.0000      -8.066878      -219.5109
  91   2.0000      -8.066818      -219.5093
  92   2.0000      -8.066000      -219.4870
  93   2.0000      -8.065984      -219.4866
  94   2.0000      -8.065623      -219.4768
  95   2.0000      -8.065015      -219.4602
  96   2.0000      -8.064619      -219.4494
  97   2.0000      -6.625671      -180.2937
  98   2.0000      -6.624971      -180.2746
  99   2.0000      -6.611166      -179.8990
 100   2.0000      -6.610988      -179.8941
 101   2.0000      -6.610433      -179.8790
 102   2.0000      -6.610231      -179.8735
 103   2.0000      -6.037094      -164.2777
 104   2.0000      -6.036131      -164.2515
 105   2.0000      -6.035907      -164.2454
 106   2.0000      -6.035695      -164.2396
 107   2.0000      -6.035248      -164.2275
 108   2.0000      -6.034655      -164.2113
 109   2.0000      -6.034230      -164.1997
 110   2.0000      -6.033842      -164.1892
 111   2.0000      -6.032764      -164.1598
 112   2.0000      -6.032113      -164.1421
 113   2.0000      -6.031959      -164.1379
 114   2.0000      -6.031400      -164.1227
 115   2.0000      -6.031258      -164.1189
 116   2.0000      -6.030741      -164.1048
 117   2.0000      -6.030254      -164.0916
 118   2.0000      -6.029870      -164.0811
 119   2.0000      -6.029146      -164.0614
 120   2.0000      -6.028980      -164.0569
 121   2.0000      -6.028616      -164.0470
 122   2.0000      -6.028148      -164.0342
 123   2.0000      -6.027970      -164.0294
 124   2.0000      -6.027183      -164.0080
 125   2.0000      -6.027162      -164.0074
 126   2.0000      -6.026798      -163.9975
 127   2.0000      -5.368494      -146.0842
 128   2.0000      -5.367752      -146.0640
 129   2.0000      -5.367356      -146.0532
 130   2.0000      -3.732040      -101.5540
 131   2.0000      -3.731244      -101.5323
 132   2.0000      -3.730948      -101.5243
 133   2.0000      -3.730553      -101.5135
 134   2.0000      -3.729903      -101.4958
 135   2.0000      -3.729485      -101.4844
 136   2.0000      -3.729446      -101.4834
 137   2.0000      -3.728738      -101.4641
 138   2.0000      -3.728223      -101.4501
 139   2.0000      -2.741587       -74.6024
 140   2.0000      -2.740824       -74.5816
 141   2.0000      -2.737443       -74.4896
 142   2.0000      -2.737340       -74.4868
 143   2.0000      -2.736752       -74.4708
 144   2.0000      -2.736659       -74.4683
 145   2.0000      -2.725802       -74.1728
 146   2.0000      -2.725786       -74.1724
 147   2.0000      -2.725065       -74.1528
 148   2.0000      -2.725056       -74.1526
 149   2.0000      -1.124321       -30.5943
 150   2.0000      -1.120390       -30.4874
 151   2.0000      -1.017652       -27.6917
 152   2.0000      -1.015974       -27.6461
 153   2.0000      -1.011864       -27.5342
 154   2.0000      -1.009572       -27.4718
 155   2.0000      -1.007017       -27.4023
 156   2.0000      -1.005659       -27.3654
 157   2.0000      -1.001467       -27.2513
 158   2.0000      -0.990606       -26.9558
 159   2.0000      -0.987076       -26.8597
 160   2.0000      -0.985128       -26.8067
 161   2.0000      -0.983488       -26.7621
 162   2.0000      -0.981916       -26.7193
 163   2.0000      -0.978348       -26.6222
 164   2.0000      -0.968168       -26.3452
 165   2.0000      -0.937140       -25.5009
 166   2.0000      -0.936227       -25.4760
 167   2.0000      -0.909192       -24.7404
 168   2.0000      -0.903933       -24.5973
 169   2.0000      -0.902647       -24.5623
 170   2.0000      -0.901116       -24.5206
 171   2.0000      -0.889756       -24.2115
 172   2.0000      -0.880622       -23.9630
 173   2.0000      -0.879368       -23.9288
 174   2.0000      -0.877672       -23.8827
 175   2.0000      -0.868091       -23.6220
 176   2.0000      -0.854714       -23.2580
 177   2.0000      -0.852615       -23.2008
 178   2.0000      -0.850988       -23.1566
 179   2.0000      -0.846621       -23.0377
 180   2.0000      -0.840529       -22.8720
 181   2.0000      -0.837217       -22.7818
 182   2.0000      -0.830565       -22.6008
 183   2.0000      -0.824143       -22.4261
 184   2.0000      -0.823762       -22.4157
 185   2.0000      -0.822672       -22.3861
 186   2.0000      -0.812869       -22.1193
 187   2.0000      -0.799844       -21.7649
 188   2.0000      -0.798894       -21.7390
 189   2.0000      -0.797183       -21.6925
 190   2.0000      -0.792286       -21.5592
 191   2.0000      -0.778106       -21.1733
 192   2.0000      -0.774363       -21.0715
 193   2.0000      -0.774335       -21.0707
 194   2.0000      -0.771876       -21.0038
 195   2.0000      -0.763405       -20.7733
 196   2.0000      -0.753289       -20.4980
 197   2.0000      -0.751648       -20.4534
 198   2.0000      -0.736404       -20.0386
 199   2.0000      -0.720570       -19.6077
 200   2.0000      -0.706038       -19.2123
 201   2.0000      -0.697599       -18.9826
 202   2.0000      -0.693049       -18.8588
 203   2.0000      -0.689700       -18.7677
 204   2.0000      -0.681573       -18.5465
 205   2.0000      -0.680827       -18.5262
 206   2.0000      -0.678527       -18.4637
 207   2.0000      -0.676321       -18.4036
 208   2.0000      -0.664601       -18.0847
 209   2.0000      -0.659954       -17.9583
 210   2.0000      -0.652603       -17.7582
 211   2.0000      -0.651037       -17.7156
 212   2.0000      -0.635079       -17.2814
 213   2.0000      -0.631490       -17.1837
 214   2.0000      -0.620988       -16.8980
 215   2.0000      -0.619592       -16.8600
 216   2.0000      -0.618487       -16.8299
 217   2.0000      -0.615931       -16.7603
 218   2.0000      -0.614973       -16.7343
 219   2.0000      -0.612926       -16.6786
 220   2.0000      -0.609384       -16.5822
 221   2.0000      -0.607055       -16.5188
 222   2.0000      -0.598259       -16.2794
 223   2.0000      -0.592855       -16.1324
 224   2.0000      -0.591051       -16.0833
 225   2.0000      -0.588840       -16.0232
 226   2.0000      -0.575140       -15.6504
 227   2.0000      -0.571893       -15.5620
 228   2.0000      -0.569453       -15.4956
 229   2.0000      -0.560073       -15.2404
 230   2.0000      -0.553291       -15.0558
 231   2.0000      -0.545660       -14.8482
 232   2.0000      -0.543158       -14.7801
 233   2.0000      -0.536880       -14.6092
 234   2.0000      -0.534707       -14.5501
 235   2.0000      -0.533813       -14.5258
 236   2.0000      -0.532741       -14.4966
 237   2.0000      -0.531316       -14.4579
 238   2.0000      -0.527321       -14.3491
 239   2.0000      -0.526170       -14.3178
 240   2.0000      -0.519167       -14.1273
 241   2.0000      -0.517954       -14.0942
 242   2.0000      -0.516087       -14.0434
 243   2.0000      -0.514784       -14.0080
 244   2.0000      -0.513466       -13.9721
 245   2.0000      -0.511315       -13.9136
 246   2.0000      -0.510418       -13.8892
 247   2.0000      -0.506769       -13.7899
 248   2.0000      -0.506075       -13.7710
 249   2.0000      -0.502830       -13.6827
 250   2.0000      -0.501723       -13.6526
 251   2.0000      -0.498154       -13.5555
 252   2.0000      -0.496813       -13.5190
 253   2.0000      -0.495142       -13.4735
 254   2.0000      -0.493154       -13.4194
 255   2.0000      -0.493070       -13.4171
 256   2.0000      -0.492359       -13.3978
 257   2.0000      -0.491803       -13.3826
 258   2.0000      -0.490900       -13.3581
 259   2.0000      -0.488371       -13.2893
 260   2.0000      -0.486960       -13.2509
 261   2.0000      -0.485303       -13.2058
 262   2.0000      -0.484442       -13.1824
 263   2.0000      -0.482736       -13.1359
 264   2.0000      -0.481196       -13.0940
 265   2.0000      -0.478412       -13.0182
 266   2.0000      -0.477141       -12.9837
 267   2.0000      -0.476399       -12.9635
 268   2.0000      -0.474732       -12.9181
 269   2.0000      -0.474322       -12.9070
 270   2.0000      -0.472996       -12.8709
 271   2.0000      -0.471923       -12.8417
 272   2.0000      -0.468891       -12.7592
 273   2.0000      -0.467606       -12.7242
 274   2.0000      -0.465524       -12.6675
 275   2.0000      -0.464453       -12.6384
 276   2.0000      -0.462623       -12.5886
 277   2.0000      -0.455200       -12.3866
 278   2.0000      -0.454245       -12.3606
 279   2.0000      -0.453265       -12.3340
 280   2.0000      -0.453145       -12.3307
 281   2.0000      -0.452291       -12.3075
 282   2.0000      -0.451358       -12.2821
 283   2.0000      -0.444093       -12.0844
 284   2.0000      -0.441409       -12.0113
 285   2.0000      -0.441240       -12.0068
 286   2.0000      -0.440820       -11.9953
 287   2.0000      -0.439549       -11.9607
 288   2.0000      -0.436680       -11.8827
 289   2.0000      -0.436227       -11.8703
 290   2.0000      -0.434789       -11.8312
 291   2.0000      -0.433283       -11.7902
 292   2.0000      -0.431066       -11.7299
 293   2.0000      -0.426613       -11.6087
 294   2.0000      -0.422524       -11.4975
 295   2.0000      -0.421893       -11.4803
 296   2.0000      -0.421310       -11.4644
 297   2.0000      -0.418585       -11.3903
 298   2.0000      -0.415850       -11.3159
 299   2.0000      -0.413781       -11.2595
 300   2.0000      -0.412062       -11.2128
 301   2.0000      -0.404100       -10.9961
 302   2.0000      -0.403857       -10.9895
 303   2.0000      -0.401496       -10.9253
 304   2.0000      -0.400135       -10.8882
 305   2.0000      -0.399037       -10.8583
 306   2.0000      -0.392588       -10.6829
 307   2.0000      -0.392036       -10.6678
 308   2.0000      -0.391611       -10.6563
 309   2.0000      -0.390858       -10.6358
 310   2.0000      -0.386659       -10.5215
 311   2.0000      -0.384831       -10.4718
 312   2.0000      -0.383769       -10.4429
 313   2.0000      -0.382234       -10.4011
 314   2.0000      -0.382134       -10.3984
 315   2.0000      -0.379465       -10.3258
 316   2.0000      -0.371748       -10.1158
 317   2.0000      -0.371102       -10.0982
 318   2.0000      -0.370776       -10.0893
 319   2.0000      -0.357777        -9.7356
 320   2.0000      -0.348120        -9.4728
 321   2.0000      -0.338124        -9.2008
 322   2.0000      -0.337121        -9.1735
 323   2.0000      -0.335278        -9.1234
 324   2.0000      -0.334040        -9.0897
 325   2.0000      -0.332158        -9.0385
 326   2.0000      -0.330852        -9.0029
 327   2.0000      -0.329820        -8.9749
 328   2.0000      -0.328494        -8.9388
 329   2.0000      -0.325180        -8.8486
 330   2.0000      -0.310292        -8.4435
 331   2.0000      -0.309621        -8.4252
 332   2.0000      -0.307783        -8.3752
 333   2.0000      -0.289640        -7.8815
 334   2.0000      -0.288180        -7.8418
 335   2.0000      -0.278247        -7.5715
 336   2.0000      -0.251228        -6.8363
 337   2.0000      -0.225090        -6.1250
 338   0.0000      -0.093775        -2.5517
 339   0.0000      -0.086884        -2.3642
 340   0.0000      -0.062225        -1.6932
 341   0.0000      -0.055745        -1.5169
 342   0.0000      -0.044427        -1.2089

MULLIKEN ATOMIC CHARGES
-----------------------
   0 C :    0.306442
   1 C :   -0.360621
   2 C :   -0.185815
   3 N :    0.141297
   4 C :   -0.200791
   5 N :    0.152047
   6 C :    0.012182
   7 C :   -0.005595
   8 C :   -0.078253
   9 C :    0.119282
  10 C :   -0.092492
  11 C :   -0.020783
  12 S :    0.182555
  13 C :   -0.122532
  14 C :    0.036821
  15 Br:    0.018226
  16 C :    0.152255
  17 O :   -0.167501
  18 C :   -0.106544
  19 C :    0.056724
  20 C :   -0.116793
  21 C :    0.001771
  22 C :   -0.140815
  23 C :   -0.060614
  24 S :    0.165547
  25 C :   -0.097892
  26 C :   -0.096308
  27 Si:    0.533843
  28 C :   -0.199886
  29 C :   -0.202705
  30 C :   -0.070059
  31 C :   -0.027371
  32 S :    0.155596
  33 C :   -0.042559
  34 C :   -0.060490
  35 C :   -0.113584
  36 C :   -0.083239
  37 S :    0.141081
  38 C :   -0.081739
  39 C :   -0.116401
  40 Si:    0.520983
  41 C :   -0.200562
  42 C :   -0.197363
  43 C :   -0.055659
  44 C :   -0.043395
  45 S :    0.140935
  46 C :   -0.029440
  47 C :   -0.066526
  48 C :   -0.097937
  49 C :   -0.094502
  50 S :    0.152888
  51 C :   -0.059758
  52 C :   -0.134359
  53 Si:    0.521929
  54 C :   -0.198368
  55 C :   -0.198967
  56 C :    0.013473
  57 C :   -0.109625
  58 S :    0.171889
  59 C :    0.089013
  60 C :   -0.151615
  61 C :    0.279176
  62 C :   -0.361051
  63 C :   -0.174610
  64 N :    0.143528
  65 C :   -0.207254
  66 N :    0.167771
  67 C :    0.000869
  68 C :    0.004108
  69 C :    0.132390
  70 O :   -0.153104
  71 C :   -0.072623
  72 C :    0.111138
  73 C :   -0.091093
  74 C :   -0.024822
  75 S :    0.179887
  76 C :   -0.125910
  77 C :    0.042415
  78 Br:    0.018584
  79 H :   -0.015016
  80 H :   -0.007295
  81 H :   -0.005765
  82 H :    0.007813
  83 H :    0.011160
  84 H :    0.055705
  85 H :    0.043652
  86 H :    0.050094
  87 H :    0.055596
  88 H :    0.052511
  89 H :    0.043553
  90 H :   -0.013550
  91 H :   -0.013188
  92 H :    0.055043
  93 H :    0.045101
  94 H :    0.044618
  95 H :    0.055945
  96 H :    0.045466
  97 H :    0.045738
  98 H :   -0.015044
  99 H :   -0.013971
 100 H :    0.070249
 101 H :    0.047549
 102 H :    0.042280
 103 H :    0.054566
 104 H :    0.045312
 105 H :    0.046501
 106 H :    0.000590
 107 H :    0.019094
 108 H :   -0.010817
 109 H :   -0.005925
 110 H :   -0.004284
Sum of atomic charges:   -0.0000000

LOEWDIN ATOMIC CHARGES
----------------------
   0 C :    0.078053
   1 C :   -0.152520
   2 C :   -0.018002
   3 N :   -0.062729
   4 C :   -0.026001
   5 N :   -0.059032
   6 C :   -0.020455
   7 C :   -0.048713
   8 C :    0.017977
   9 C :   -0.034519
  10 C :   -0.145093
  11 C :   -0.011170
  12 S :    0.429595
  13 C :   -0.273228
  14 C :   -0.071183
  15 Br:    0.132659
  16 C :    0.086499
  17 O :   -0.154528
  18 C :   -0.113675
  19 C :    0.046395
  20 C :   -0.187869
  21 C :    0.000641
  22 C :   -0.211863
  23 C :   -0.159124
  24 S :    0.456685
  25 C :   -0.207530
  26 C :   -0.178714
  27 Si:    0.668391
  28 C :   -0.241799
  29 C :   -0.242526
  30 C :   -0.070369
  31 C :   -0.168666
  32 S :    0.444763
  33 C :   -0.189875
  34 C :   -0.055210
  35 C :   -0.200776
  36 C :   -0.189158
  37 S :    0.439206
  38 C :   -0.191066
  39 C :   -0.199955
  40 Si:    0.666715
  41 C :   -0.242757
  42 C :   -0.242121
  43 C :   -0.056543
  44 C :   -0.187490
  45 S :    0.439362
  46 C :   -0.170815
  47 C :   -0.068444
  48 C :   -0.180194
  49 C :   -0.203771
  50 S :    0.443807
  51 C :   -0.158230
  52 C :   -0.201877
  53 Si:    0.667379
  54 C :   -0.240426
  55 C :   -0.243277
  56 C :   -0.003459
  57 C :   -0.192996
  58 S :    0.460910
  59 C :    0.050536
  60 C :   -0.113477
  61 C :    0.067951
  62 C :   -0.156161
  63 C :   -0.021730
  64 N :   -0.063672
  65 C :   -0.017476
  66 N :   -0.051796
  67 C :   -0.017746
  68 C :   -0.051183
  69 C :    0.081000
  70 O :   -0.153115
  71 C :    0.020454
  72 C :   -0.035475
  73 C :   -0.144651
  74 C :   -0.015500
  75 S :    0.428242
  76 C :   -0.273744
  77 C :   -0.070188
  78 Br:    0.132949
  79 H :    0.038845
  80 H :    0.040589
  81 H :    0.037806
  82 H :    0.042503
  83 H :    0.032689
  84 H :    0.042723
  85 H :    0.036982
  86 H :    0.039671
  87 H :    0.042614
  88 H :    0.040824
  89 H :    0.036951
  90 H :    0.023780
  91 H :    0.025236
  92 H :    0.042183
  93 H :    0.037464
  94 H :    0.037495
  95 H :    0.042604
  96 H :    0.037600
  97 H :    0.037644
  98 H :    0.024702
  99 H :    0.023618
 100 H :    0.048750
 101 H :    0.039662
 102 H :    0.036734
 103 H :    0.041838
 104 H :    0.037568
 105 H :    0.037941
 106 H :    0.033315
 107 H :    0.044446
 108 H :    0.040538
 109 H :    0.039813
 110 H :    0.038366

  Mayer bond orders larger than 0.100000
B(  0-C ,  1-C ) :   1.6057 B(  0-C ,  6-C ) :   0.9920 B(  0-C , 18-C ) :   1.1003
B(  1-C ,  2-C ) :   1.1483 B(  1-C ,  4-C ) :   1.1423 B(  2-C ,  3-N ) :   2.9670
B(  4-C ,  5-N ) :   2.9823 B(  6-C ,  7-C ) :   1.2789 B(  6-C , 11-C ) :   1.4145
B(  7-C ,  8-C ) :   1.4263 B(  7-C , 16-C ) :   0.9499 B(  8-C ,  9-C ) :   1.2415
B(  8-C , 79-H ) :   1.0164 B(  9-C , 10-C ) :   1.3116 B(  9-C , 14-C ) :   1.1609
B( 10-C , 11-C ) :   1.3269 B( 10-C , 12-S ) :   1.0835 B( 11-C , 80-H ) :   0.9795
B( 12-S , 13-C ) :   1.0858 B( 13-C , 14-C ) :   1.6201 B( 13-C , 15-Br) :   1.0155
B( 14-C , 81-H ) :   1.0002 B( 16-C , 17-O ) :   2.1554 B( 16-C , 18-C ) :   0.9569
B( 18-C , 19-C ) :   1.5335 B( 19-C , 20-C ) :   1.2718 B( 19-C , 82-H ) :   0.9131
B( 20-C , 21-C ) :   1.3794 B( 20-C , 24-S ) :   1.0615 B( 21-C , 22-C ) :   1.3171
B( 21-C , 83-H ) :   0.9791 B( 22-C , 23-C ) :   1.4236 B( 22-C , 27-Si) :   0.8738
B( 23-C , 24-S ) :   1.1661 B( 23-C , 25-C ) :   1.1844 B( 25-C , 26-C ) :   1.4950
B( 25-C , 32-S ) :   1.0930 B( 26-C , 27-Si) :   0.8725 B( 26-C , 30-C ) :   1.2822
B( 27-Si, 28-C ) :   1.0614 B( 27-Si, 29-C ) :   1.0604 B( 28-C , 84-H ) :   0.9492
B( 28-C , 85-H ) :   0.9533 B( 28-C , 86-H ) :   0.9537 B( 29-C , 87-H ) :   0.9494
B( 29-C , 88-H ) :   0.9536 B( 29-C , 89-H ) :   0.9532 B( 30-C , 31-C ) :   1.4622
B( 30-C , 90-H ) :   0.9938 B( 31-C , 32-S ) :   1.1237 B( 31-C , 33-C ) :   1.1689
B( 33-C , 34-C ) :   1.4763 B( 33-C , 37-S ) :   1.1028 B( 34-C , 35-C ) :   1.2688
B( 34-C , 91-H ) :   0.9944 B( 35-C , 36-C ) :   1.5118 B( 35-C , 40-Si) :   0.8780
B( 36-C , 37-S ) :   1.1133 B( 36-C , 38-C ) :   1.1600 B( 38-C , 39-C ) :   1.5136
B( 38-C , 45-S ) :   1.1110 B( 39-C , 40-Si) :   0.8798 B( 39-C , 43-C ) :   1.2675
B( 40-Si, 41-C ) :   1.0560 B( 40-Si, 42-C ) :   1.0602 B( 41-C , 92-H ) :   0.9503
B( 41-C , 93-H ) :   0.9536 B( 41-C , 94-H ) :   0.9537 B( 42-C , 95-H ) :   0.9500
B( 42-C , 96-H ) :   0.9528 B( 42-C , 97-H ) :   0.9527 B( 43-C , 44-C ) :   1.4768
B( 43-C , 98-H ) :   0.9937 B( 44-C , 45-S ) :   1.1055 B( 44-C , 46-C ) :   1.1708
B( 46-C , 47-C ) :   1.4642 B( 46-C , 50-S ) :   1.1220 B( 47-C , 48-C ) :   1.2796
B( 47-C , 99-H ) :   0.9926 B( 48-C , 49-C ) :   1.4993 B( 48-C , 53-Si) :   0.8754
B( 49-C , 50-S ) :   1.0944 B( 49-C , 51-C ) :   1.1832 B( 51-C , 52-C ) :   1.4432
B( 51-C , 58-S ) :   1.1586 B( 52-C , 53-Si) :   0.8700 B( 52-C , 56-C ) :   1.3681
B( 53-Si, 54-C ) :   1.0691 B( 53-Si, 55-C ) :   1.0581 B( 54-C ,100-H ) :   0.9465
B( 54-C ,101-H ) :   0.9510 B( 54-C ,102-H ) :   0.9526 B( 55-C ,103-H ) :   0.9495
B( 55-C ,104-H ) :   0.9530 B( 55-C ,105-H ) :   0.9535 B( 56-C , 57-C ) :   1.3716
B( 56-C ,106-H ) :   0.9861 B( 57-C , 58-S ) :   1.0713 B( 57-C , 59-C ) :   1.2000
B( 59-C , 60-C ) :   1.5853 B( 59-C ,107-H ) :   0.9299 B( 60-C , 61-C ) :   1.0727
B( 60-C , 69-C ) :   0.9608 B( 61-C , 62-C ) :   1.6090 B( 61-C , 67-C ) :   1.0075
B( 62-C , 63-C ) :   1.1317 B( 62-C , 65-C ) :   1.1755 B( 63-C , 64-N ) :   2.9814
B( 65-C , 66-N ) :   2.9925 B( 67-C , 68-C ) :   1.2784 B( 67-C , 74-C ) :   1.4206
B( 68-C , 69-C ) :   0.9171 B( 68-C , 71-C ) :   1.4344 B( 69-C , 70-O ) :   2.2560
B( 71-C , 72-C ) :   1.2476 B( 71-C ,108-H ) :   1.0154 B( 72-C , 73-C ) :   1.3143
B( 72-C , 77-C ) :   1.1624 B( 73-C , 74-C ) :   1.3243 B( 73-C , 75-S ) :   1.0813
B( 74-C ,109-H ) :   0.9824 B( 75-S , 76-C ) :   1.0863 B( 76-C , 77-C ) :   1.6197
B( 76-C , 78-Br) :   1.0161 B( 77-C ,110-H ) :   0.9998

-----------------------------------------------------------------------------
         ABSORPTION SPECTRUM VIA TRANSITION ELECTRIC DIPOLE MOMENTS
-----------------------------------------------------------------------------
State   Energy  Wavelength   fosc         T2         TX        TY        TZ
        (cm-1)    (nm)                  (au**2)     (au)      (au)      (au)
-----------------------------------------------------------------------------
   0   14880.1    672.0   3.257755148  72.07541   7.39451  -1.30248   3.96234
   1   17552.1    569.7   0.202180654   3.79216  -1.36750   1.11796  -0.81992
   2   22506.1    444.3   0.142787932   2.08865   1.24333  -0.42319  -0.60307
   3   23204.3    431.0   0.004698609   0.06666   0.06443   0.07048  -0.23988
   4   24563.3    407.1   0.037741944   0.50584  -0.32039  -0.62939  -0.08406
   5   25191.3    397.0   0.296306913   3.87228  -1.51990   0.33509  -1.20412
   6   26187.2    381.9   0.041905419   0.52681  -0.58939  -0.28281  -0.31536
   7   28008.3    357.0   0.325226191   3.82274  -1.85098  -0.62248  -0.09551
   8   28305.3    353.3   0.310965780   3.61677  -0.92139   1.61213  -0.41091
   9   29693.3    336.8   0.029688124   0.32915   0.14737  -0.09643   0.54602
  10   29772.2    335.9   0.104053899   1.15060   0.84743  -0.47171   0.45821
  11   30030.7    333.0   0.010280415   0.11270   0.25524   0.06863  -0.20698
  12   30241.5    330.7   0.041624869   0.45313  -0.22601   0.61924   0.13634
  13   30714.1    325.6   0.004674540   0.05010  -0.04368   0.17417  -0.13365
  14   31051.6    322.0   0.012192763   0.12927   0.29072   0.19508   0.08181
  15   31166.1    320.9   0.021655915   0.22875   0.43772  -0.11595   0.15400
  16   31370.9    318.8   0.016202389   0.17003  -0.25398   0.32485  -0.00043
  17   31945.8    313.0   0.026529166   0.27339   0.06827  -0.51785   0.02366
  18   32316.1    309.4   0.150448763   1.53266  -0.97324   0.76157   0.07395
  19   33816.4    295.7   0.285499909   2.77942   1.16617   1.17204  -0.21403
  20   34062.4    293.6   0.445619568   4.30690  -1.52336   1.40647   0.09004
  21   34190.4    292.5   0.183408840   1.76600  -0.47557  -1.24001   0.04697
  22   34543.5    289.5   0.095905801   0.91402  -0.83336  -0.44125  -0.15756
  23   34884.8    286.7   0.083577269   0.78873   0.82769  -0.26724  -0.17954
  24   35894.2    278.6   0.026075731   0.23916   0.03229   0.38731   0.29683
  25   36122.3    276.8   0.070156467   0.63939  -0.63503   0.33876  -0.34837
  26   36707.1    272.4   0.060869788   0.54592   0.19302  -0.58806  -0.40354
  27   36912.3    270.9   0.005382326   0.04800  -0.13366  -0.17235  -0.02080
  28   37429.4    267.2   0.017142766   0.15078   0.28325   0.20706   0.16636
  29   37541.9    266.4   0.018277097   0.16028   0.34431  -0.16735  -0.11715
  30   37826.4    264.4   0.056983761   0.49594   0.06448   0.70127  -0.00313
  31   37937.5    263.6   0.024110628   0.20923  -0.42707  -0.14693   0.07246
  32   38360.6    260.7   0.059602416   0.51151  -0.10604   0.59698   0.37932
  33   38456.6    260.0   0.006248796   0.05349   0.06399   0.20415   0.08786
  34   38576.4    259.2   0.016472345   0.14058  -0.28725  -0.17779   0.16265
  35   38801.2    257.7   0.020601053   0.17479   0.18328  -0.37492  -0.02515
  36   38830.0    257.5   0.022439416   0.19025  -0.17218   0.39766   0.04966
  37   39353.7    254.1   0.024647063   0.20618  -0.38996  -0.23000  -0.03483
  38   39462.6    253.4   0.008058949   0.06723  -0.00166   0.13308   0.22253
  39   39521.4    253.0   0.252667464   2.10471   0.63984   0.79978   1.02745
  40   39724.6    251.7   0.257020253   2.13002   0.15806   0.85303   1.17362
  41   40236.1    248.5   0.002514979   0.02058   0.06559  -0.05977  -0.11271

FINAL SINGLE POINT ENERGY    -11872.423625697202

DIPOLE MOMENT
-------------
                                X             Y             Z
Electronic contribution:    -31.23454     -84.96995      17.49151
Nuclear contribution   :     29.46264      82.74287     -17.84528
                        -----------------------------------------
Total Dipole Moment    :     -1.77190      -2.22708      -0.35377
                        -----------------------------------------
Magnitude (a.u.)       :      2.86786
Magnitude (Debye)      :      7.28953

Rotational constants in cm-1:     0.001602     0.000076     0.000074
Rotational constants in MHz :    48.015271     2.274240     2.209953

                             ****ORCA TERMINATED NORMALLY****
TOTAL RUN TIME: 0 days 0 hours 12 minutes 34 seconds 479 msec
