                         Program Version 4.2.0 -  RELEASE  -
|  1> # ORCA input file
|  2> # SCF done       -129.719444477335          0.000891577037
|  3> ! CAM-B3LYP def2-SVP def2/J RIJCOSX Grid4 TightSCF
|  4> %maxcore 5000
|  5> %tddft
|  6>     Mode sTDDFT
|  7>     Ethresh 5.0
|  8>     maxcore 5000
|  9> end
| 10>
| 11> %pal
| 12>   nprocs 6
| 13>   end
| 14> * xyz 0 1
| 15>    C       -1.42130        -2.77884         1.78054
| 16>    C       -0.54818        -2.44142         0.79244
| 17>    C       -0.46592        -1.04422         0.63510
| 18>    C       -1.29658        -0.35580         1.52751
| 19>    S       -2.16729        -1.41274         2.54631
| 20>    C       -1.14920         1.04248         1.30144
| 21>    C       -0.22323         1.22789         0.26652
| 22>    C        0.23589        -0.07833        -0.18920
| 23>    C        1.13422        -0.33127        -1.18520
| 24>    C        1.75736         0.69559        -1.92494
| 25>    N        2.27921         1.51440        -2.53546
| 26>    C        1.50545        -1.64265        -1.54729
| 27>    N        1.80713        -2.70651        -1.85256
| 28>    C       -0.00380         2.57279        -0.03459
| 29>    C       -0.75738         3.41246         0.76211
| 30>    S       -1.75427         2.52071         1.90417
| 31>    C       -0.78817         4.84067         0.73427
| 32>    C       -1.59978         5.60170         1.57336
| 33>    N       -1.67231         6.91814         1.59556
| 34>    C       -0.94521         7.67571         0.79007
| 35>    C       -0.05801         7.03962        -0.13306
| 36>    C        0.01254         5.60160        -0.15683
| 37>    N        0.87532         5.15877        -1.06906
| 38>    S        1.53117         6.41575        -1.82433
| 39>    N        0.75717         7.58391        -1.03319
| 40>    C       -1.09487         9.10204         0.89802
| 41>    C       -0.30654        10.00693         0.18327
| 42>    N       -0.39489        11.31777         0.26174
| 43>    C       -1.28248        11.92713         1.05506
| 44>    C       -2.15884        11.12462         1.84055
| 45>    C       -2.06153         9.69016         1.76345
| 46>    N       -2.94815         9.09672         2.55261
| 47>    S       -3.80982        10.22138         3.31426
| 48>    N       -3.10268        11.52922         2.67879
| 49>    C       -1.27684        13.33110         1.05311
| 50>    C       -0.36860        14.00458         0.26726
| 51>    C       -0.20582        15.40316         0.13439
| 52>    C        0.79683        15.76445        -0.71589
| 53>    C        1.46531        14.66014        -1.28501
| 54>    S        0.77465        13.13790        -0.71644
| 55>    C        2.52895        14.68665        -2.16763
| 56>    C        3.18628        15.80897        -2.72059
| 57>    C        4.21074        15.48902        -3.55706
| 58>    C        4.43133        14.09552        -3.71682
| 59>    S        3.25806        13.21259        -2.75370
| 60>    C        5.42644        13.55202        -4.49415
| 61>    C        5.77223        12.20332        -4.72446
| 62>    C        5.10630        11.09790        -4.23874
| 63>    C        5.66470         9.82717        -4.60134
| 64>    C        6.77600         9.85967        -5.37832
| 65>   Si        7.23738        11.61604        -5.74514
| 66>    H       -1.68447        -3.76071         2.11919
| 67>    H        0.00311        -3.15838         0.21176
| 68>    H        0.66313         2.94948        -0.78818
| 69>    H       -2.24476         5.10372         2.28740
| 70>    H        0.44859         9.63783        -0.49544
| 71>    H       -1.98165        13.86294         1.67130
| 72>    H       -0.83218        16.09373         0.67159
| 73>    H        1.06350        16.78375        -0.93423
| 74>    H        2.88722        16.81463        -2.48584
| 75>    H        4.82456        16.21032        -4.06797
| 76>    H        6.05181        14.28201        -4.99621
| 77>    H        4.21729        11.14052        -3.63016
| 78>    H        5.19864         8.91575        -4.25538
| 79>    H        7.26277         8.95162        -5.69508
| 80>    H        7.13159        11.99223        -7.15675
| 81>    H        8.52351        12.04057        -5.18712
| 82> *
| 83>
| 84>                          ****END OF INPUT****

CARTESIAN COORDINATES (ANGSTROEM)
---------------------------------
  C     -1.421300   -2.778840    1.780540
  C     -0.548180   -2.441420    0.792440
  C     -0.465920   -1.044220    0.635100
  C     -1.296580   -0.355800    1.527510
  S     -2.167290   -1.412740    2.546310
  C     -1.149200    1.042480    1.301440
  C     -0.223230    1.227890    0.266520
  C      0.235890   -0.078330   -0.189200
  C      1.134220   -0.331270   -1.185200
  C      1.757360    0.695590   -1.924940
  N      2.279210    1.514400   -2.535460
  C      1.505450   -1.642650   -1.547290
  N      1.807130   -2.706510   -1.852560
  C     -0.003800    2.572790   -0.034590
  C     -0.757380    3.412460    0.762110
  S     -1.754270    2.520710    1.904170
  C     -0.788170    4.840670    0.734270
  C     -1.599780    5.601700    1.573360
  N     -1.672310    6.918140    1.595560
  C     -0.945210    7.675710    0.790070
  C     -0.058010    7.039620   -0.133060
  C      0.012540    5.601600   -0.156830
  N      0.875320    5.158770   -1.069060
  S      1.531170    6.415750   -1.824330
  N      0.757170    7.583910   -1.033190
  C     -1.094870    9.102040    0.898020
  C     -0.306540   10.006930    0.183270
  N     -0.394890   11.317770    0.261740
  C     -1.282480   11.927130    1.055060
  C     -2.158840   11.124620    1.840550
  C     -2.061530    9.690160    1.763450
  N     -2.948150    9.096720    2.552610
  S     -3.809820   10.221380    3.314260
  N     -3.102680   11.529220    2.678790
  C     -1.276840   13.331100    1.053110
  C     -0.368600   14.004580    0.267260
  C     -0.205820   15.403160    0.134390
  C      0.796830   15.764450   -0.715890
  C      1.465310   14.660140   -1.285010
  S      0.774650   13.137900   -0.716440
  C      2.528950   14.686650   -2.167630
  C      3.186280   15.808970   -2.720590
  C      4.210740   15.489020   -3.557060
  C      4.431330   14.095520   -3.716820
  S      3.258060   13.212590   -2.753700
  C      5.426440   13.552020   -4.494150
  C      5.772230   12.203320   -4.724460
  C      5.106300   11.097900   -4.238740
  C      5.664700    9.827170   -4.601340
  C      6.776000    9.859670   -5.378320
  Si     7.237380   11.616040   -5.745140
  H     -1.684470   -3.760710    2.119190
  H      0.003110   -3.158380    0.211760
  H      0.663130    2.949480   -0.788180
  H     -2.244760    5.103720    2.287400
  H      0.448590    9.637830   -0.495440
  H     -1.981650   13.862940    1.671300
  H     -0.832180   16.093730    0.671590
  H      1.063500   16.783750   -0.934230
  H      2.887220   16.814630   -2.485840
  H      4.824560   16.210320   -4.067970
  H      6.051810   14.282010   -4.996210
  H      4.217290   11.140520   -3.630160
  H      5.198640    8.915750   -4.255380
  H      7.262770    8.951620   -5.695080
  H      7.131590   11.992230   -7.156750
  H      8.523510   12.040570   -5.187120

 Total Charge           Charge          ....    0
 Multiplicity           Mult            ....    1
 Number of Electrons    NEL             ....  398
 Basis Dimension        Dim             ....  822

ORBITAL ENERGIES
----------------

  NO   OCC          E(Eh)            E(eV)
   0   2.0000     -89.027430     -2422.5595
   1   2.0000     -89.007529     -2422.0180
   2   2.0000     -88.978511     -2421.2284
   3   2.0000     -88.976013     -2421.1604
   4   2.0000     -88.950680     -2420.4710
   5   2.0000     -88.941804     -2420.2295
   6   2.0000     -66.188999     -1801.0942
   7   2.0000     -14.444454      -393.0536
   8   2.0000     -14.439274      -392.9126
   9   2.0000     -14.429845      -392.6560
  10   2.0000     -14.419462      -392.3735
  11   2.0000     -14.418204      -392.3393
  12   2.0000     -14.418169      -392.3383
  13   2.0000     -14.399020      -391.8173
  14   2.0000     -14.396813      -391.7572
  15   2.0000     -10.351745      -281.6853
  16   2.0000     -10.339641      -281.3559
  17   2.0000     -10.327222      -281.0180
  18   2.0000     -10.324284      -280.9381
  19   2.0000     -10.323629      -280.9202
  20   2.0000     -10.320154      -280.8257
  21   2.0000     -10.319848      -280.8173
  22   2.0000     -10.318805      -280.7889
  23   2.0000     -10.318608      -280.7836
  24   2.0000     -10.317793      -280.7614
  25   2.0000     -10.316843      -280.7356
  26   2.0000     -10.312522      -280.6180
  27   2.0000     -10.310845      -280.5724
  28   2.0000     -10.309865      -280.5457
  29   2.0000     -10.309112      -280.5252
  30   2.0000     -10.307357      -280.4774
  31   2.0000     -10.306380      -280.4508
  32   2.0000     -10.302571      -280.3472
  33   2.0000     -10.301516      -280.3185
  34   2.0000     -10.294544      -280.1288
  35   2.0000     -10.292799      -280.0813
  36   2.0000     -10.292034      -280.0605
  37   2.0000     -10.288868      -279.9743
  38   2.0000     -10.288826      -279.9732
  39   2.0000     -10.288648      -279.9684
  40   2.0000     -10.288452      -279.9630
  41   2.0000     -10.286979      -279.9229
  42   2.0000     -10.286544      -279.9111
  43   2.0000     -10.281487      -279.7735
  44   2.0000     -10.280988      -279.7599
  45   2.0000     -10.279691      -279.7246
  46   2.0000     -10.279287      -279.7136
  47   2.0000     -10.275321      -279.6057
  48   2.0000     -10.266305      -279.3604
  49   2.0000     -10.264194      -279.3029
  50   2.0000     -10.256096      -279.0825
  51   2.0000      -8.119043      -220.9304
  52   2.0000      -8.099671      -220.4033
  53   2.0000      -8.073416      -219.6888
  54   2.0000      -8.070340      -219.6051
  55   2.0000      -8.046491      -218.9561
  56   2.0000      -8.034353      -218.6258
  57   2.0000      -6.090311      -165.7258
  58   2.0000      -6.082425      -165.5112
  59   2.0000      -6.081483      -165.4856
  60   2.0000      -6.070945      -165.1988
  61   2.0000      -6.063125      -164.9860
  62   2.0000      -6.061970      -164.9546
  63   2.0000      -6.042657      -164.4290
  64   2.0000      -6.039624      -164.3465
  65   2.0000      -6.038251      -164.3092
  66   2.0000      -6.036065      -164.2497
  67   2.0000      -6.035390      -164.2313
  68   2.0000      -6.032802      -164.1609
  69   2.0000      -6.016128      -163.7072
  70   2.0000      -6.012031      -163.5957
  71   2.0000      -6.007692      -163.4776
  72   2.0000      -6.004513      -163.3911
  73   2.0000      -5.999475      -163.2540
  74   2.0000      -5.995817      -163.1545
  75   2.0000      -5.360766      -145.8739
  76   2.0000      -3.723530      -101.3224
  77   2.0000      -3.722186      -101.2858
  78   2.0000      -3.722108      -101.2837
  79   2.0000      -1.127608       -30.6838
  80   2.0000      -1.110493       -30.2181
  81   2.0000      -1.040678       -28.3183
  82   2.0000      -1.035424       -28.1753
  83   2.0000      -1.030521       -28.0419
  84   2.0000      -1.010110       -27.4865
  85   2.0000      -0.996210       -27.1083
  86   2.0000      -0.994462       -27.0607
  87   2.0000      -0.987592       -26.8737
  88   2.0000      -0.977074       -26.5875
  89   2.0000      -0.970438       -26.4070
  90   2.0000      -0.964136       -26.2355
  91   2.0000      -0.945138       -25.7185
  92   2.0000      -0.923935       -25.1415
  93   2.0000      -0.909850       -24.7583
  94   2.0000      -0.899247       -24.4698
  95   2.0000      -0.888481       -24.1768
  96   2.0000      -0.887080       -24.1387
  97   2.0000      -0.874311       -23.7912
  98   2.0000      -0.862735       -23.4762
  99   2.0000      -0.851214       -23.1627
 100   2.0000      -0.848404       -23.0863
 101   2.0000      -0.839337       -22.8395
 102   2.0000      -0.832224       -22.6460
 103   2.0000      -0.820999       -22.3405
 104   2.0000      -0.808645       -22.0044
 105   2.0000      -0.788164       -21.4470
 106   2.0000      -0.773607       -21.0509
 107   2.0000      -0.764469       -20.8023
 108   2.0000      -0.756919       -20.5968
 109   2.0000      -0.745508       -20.2863
 110   2.0000      -0.728118       -19.8131
 111   2.0000      -0.723528       -19.6882
 112   2.0000      -0.713718       -19.4212
 113   2.0000      -0.702924       -19.1275
 114   2.0000      -0.700551       -19.0630
 115   2.0000      -0.690408       -18.7870
 116   2.0000      -0.681854       -18.5542
 117   2.0000      -0.671189       -18.2640
 118   2.0000      -0.665140       -18.0994
 119   2.0000      -0.648039       -17.6340
 120   2.0000      -0.640598       -17.4316
 121   2.0000      -0.632929       -17.2229
 122   2.0000      -0.626440       -17.0463
 123   2.0000      -0.619357       -16.8536
 124   2.0000      -0.617576       -16.8051
 125   2.0000      -0.614759       -16.7284
 126   2.0000      -0.602196       -16.3866
 127   2.0000      -0.601715       -16.3735
 128   2.0000      -0.599008       -16.2998
 129   2.0000      -0.592581       -16.1249
 130   2.0000      -0.581084       -15.8121
 131   2.0000      -0.577725       -15.7207
 132   2.0000      -0.574881       -15.6433
 133   2.0000      -0.563049       -15.3213
 134   2.0000      -0.556385       -15.1400
 135   2.0000      -0.554217       -15.0810
 136   2.0000      -0.549122       -14.9424
 137   2.0000      -0.539913       -14.6918
 138   2.0000      -0.538505       -14.6535
 139   2.0000      -0.533111       -14.5067
 140   2.0000      -0.529644       -14.4123
 141   2.0000      -0.522618       -14.2211
 142   2.0000      -0.516312       -14.0496
 143   2.0000      -0.506006       -13.7691
 144   2.0000      -0.502064       -13.6619
 145   2.0000      -0.497869       -13.5477
 146   2.0000      -0.495406       -13.4807
 147   2.0000      -0.493041       -13.4163
 148   2.0000      -0.492130       -13.3915
 149   2.0000      -0.483480       -13.1562
 150   2.0000      -0.481847       -13.1117
 151   2.0000      -0.481411       -13.0999
 152   2.0000      -0.479101       -13.0370
 153   2.0000      -0.478173       -13.0117
 154   2.0000      -0.477397       -12.9906
 155   2.0000      -0.468598       -12.7512
 156   2.0000      -0.468416       -12.7462
 157   2.0000      -0.467015       -12.7081
 158   2.0000      -0.460026       -12.5180
 159   2.0000      -0.458793       -12.4844
 160   2.0000      -0.455546       -12.3960
 161   2.0000      -0.452132       -12.3031
 162   2.0000      -0.450956       -12.2711
 163   2.0000      -0.447493       -12.1769
 164   2.0000      -0.446684       -12.1549
 165   2.0000      -0.439566       -11.9612
 166   2.0000      -0.435198       -11.8423
 167   2.0000      -0.430180       -11.7058
 168   2.0000      -0.429532       -11.6882
 169   2.0000      -0.428162       -11.6509
 170   2.0000      -0.427385       -11.6297
 171   2.0000      -0.425521       -11.5790
 172   2.0000      -0.415162       -11.2971
 173   2.0000      -0.410797       -11.1784
 174   2.0000      -0.404682       -11.0120
 175   2.0000      -0.401790       -10.9333
 176   2.0000      -0.397993       -10.8299
 177   2.0000      -0.397047       -10.8042
 178   2.0000      -0.396617       -10.7925
 179   2.0000      -0.385996       -10.5035
 180   2.0000      -0.381202       -10.3730
 181   2.0000      -0.377787       -10.2801
 182   2.0000      -0.370086       -10.0706
 183   2.0000      -0.366337        -9.9685
 184   2.0000      -0.362514        -9.8645
 185   2.0000      -0.350734        -9.5440
 186   2.0000      -0.347407        -9.4534
 187   2.0000      -0.345619        -9.4048
 188   2.0000      -0.336666        -9.1612
 189   2.0000      -0.334350        -9.0981
 190   2.0000      -0.324866        -8.8401
 191   2.0000      -0.317181        -8.6309
 192   2.0000      -0.309612        -8.4250
 193   2.0000      -0.309271        -8.4157
 194   2.0000      -0.305056        -8.3010
 195   2.0000      -0.300778        -8.1846
 196   2.0000      -0.275795        -7.5048
 197   2.0000      -0.246982        -6.7207
 198   2.0000      -0.214378        -5.8335
 199   0.0000      -0.100426        -2.7327
 200   0.0000      -0.090065        -2.4508
 201   0.0000      -0.067195        -1.8285
 202   0.0000      -0.041374        -1.1258
 203   0.0000      -0.013744        -0.3740

MULLIKEN ATOMIC CHARGES
-----------------------
   0 C :   -0.083878
   1 C :    0.037746
   2 C :   -0.034003
   3 C :   -0.118251
   4 S :    0.175740
   5 C :   -0.092474
   6 C :    0.022341
   7 C :    0.304232
   8 C :   -0.308210
   9 C :   -0.187638
  10 N :    0.173376
  11 C :   -0.192533
  12 N :    0.169121
  13 C :   -0.060352
  14 C :   -0.103082
  15 S :    0.162111
  16 C :    0.084893
  17 C :   -0.072640
  18 N :   -0.004016
  19 C :   -0.026149
  20 C :    0.013392
  21 C :    0.032948
  22 N :   -0.282366
  23 S :    0.527183
  24 N :   -0.268679
  25 C :   -0.050919
  26 C :    0.015998
  27 N :   -0.156108
  28 C :    0.061614
  29 C :    0.008582
  30 C :    0.036662
  31 N :   -0.234122
  32 S :    0.482034
  33 N :   -0.255144
  34 C :   -0.079657
  35 C :    0.022724
  36 C :    0.024383
  37 C :    0.034256
  38 C :   -0.047752
  39 S :    0.147278
  40 C :   -0.031134
  41 C :    0.024052
  42 C :    0.043741
  43 C :   -0.024758
  44 S :    0.079187
  45 C :    0.015666
  46 C :   -0.173662
  47 C :   -0.025677
  48 C :    0.034428
  49 C :   -0.164145
  50 Si:    0.504957
  51 H :    0.031987
  52 H :    0.010483
  53 H :    0.018216
  54 H :    0.001858
  55 H :    0.002777
  56 H :   -0.014239
  57 H :   -0.012785
  58 H :   -0.017553
  59 H :   -0.012181
  60 H :   -0.008346
  61 H :   -0.018842
  62 H :    0.004936
  63 H :   -0.006222
  64 H :    0.012435
  65 H :   -0.076977
  66 H :   -0.076844
Sum of atomic charges:    0.0000000

LOEWDIN ATOMIC CHARGES
----------------------
   0 C :   -0.181192
   1 C :   -0.034935
   2 C :   -0.078928
   3 C :   -0.181824
   4 S :    0.472703
   5 C :   -0.181862
   6 C :   -0.073458
   7 C :    0.084960
   8 C :   -0.106921
   9 C :   -0.017007
  10 N :   -0.036084
  11 C :   -0.016312
  12 N :   -0.039395
  13 C :   -0.025392
  14 C :   -0.159110
  15 S :    0.471151
  16 C :   -0.077544
  17 C :    0.008657
  18 N :   -0.051395
  19 C :    0.021895
  20 C :   -0.056819
  21 C :   -0.031712
  22 N :   -0.278703
  23 S :    0.653115
  24 N :   -0.269808
  25 C :   -0.092355
  26 C :    0.047844
  27 N :   -0.113189
  28 C :    0.021174
  29 C :   -0.069981
  30 C :   -0.032742
  31 N :   -0.266937
  32 S :    0.622098
  33 N :   -0.277952
  34 C :   -0.080330
  35 C :   -0.109687
  36 C :   -0.043701
  37 C :   -0.019230
  38 C :   -0.206691
  39 S :    0.445734
  40 C :   -0.149427
  41 C :   -0.044521
  42 C :   -0.014160
  43 C :   -0.152378
  44 S :    0.401242
  45 C :   -0.044125
  46 C :   -0.186378
  47 C :   -0.016714
  48 C :   -0.014326
  49 C :   -0.185587
  50 Si:    0.547590
  51 H :    0.025924
  52 H :    0.041781
  53 H :    0.037662
  54 H :    0.015492
  55 H :    0.021338
  56 H :    0.036426
  57 H :    0.032978
  58 H :    0.028410
  59 H :    0.032432
  60 H :    0.034924
  61 H :    0.030679
  62 H :    0.010931
  63 H :    0.026400
  64 H :    0.022008
  65 H :   -0.088337
  66 H :   -0.088396

  Mayer bond orders larger than 0.100000
B(  0-C ,  1-C ) :   1.5487 B(  0-C ,  4-S ) :   1.1461 B(  0-C , 51-H ) :   0.9650
B(  1-C ,  2-C ) :   1.2770 B(  1-C , 52-H ) :   0.9954 B(  2-C ,  3-C ) :   1.4587
B(  2-C ,  7-C ) :   1.0137 B(  3-C ,  4-S ) :   1.1354 B(  3-C ,  5-C ) :   1.1790
B(  5-C ,  6-C ) :   1.4612 B(  5-C , 15-S ) :   1.1220 B(  6-C ,  7-C ) :   0.9968
B(  6-C , 13-C ) :   1.2387 B(  7-C ,  8-C ) :   1.7046 B(  8-C ,  9-C ) :   1.1382
B(  8-C , 11-C ) :   1.1322 B(  9-C , 10-N ) :   2.9900 B( 11-C , 12-N ) :   3.0023
B( 13-C , 14-C ) :   1.4914 B( 13-C , 53-H ) :   0.9846 B( 14-C , 15-S ) :   1.0946
B( 14-C , 16-C ) :   1.1091 B( 16-C , 17-C ) :   1.3974 B( 16-C , 19-C ) :   0.1089
B( 16-C , 21-C ) :   1.2124 B( 17-C , 18-N ) :   1.4755 B( 17-C , 54-H ) :   0.9781
B( 18-N , 19-C ) :   1.6778 B( 19-C , 20-C ) :   1.1219 B( 19-C , 25-C ) :   1.1109
B( 20-C , 21-C ) :   1.1853 B( 20-C , 24-N ) :   1.5450 B( 21-C , 22-N ) :   1.5224
B( 22-N , 23-S ) :   1.2569 B( 22-N , 24-N ) :   0.1461 B( 23-S , 24-N ) :   1.2673
B( 25-C , 26-C ) :   1.4355 B( 25-C , 30-C ) :   1.1459 B( 26-C , 27-N ) :   1.4327
B( 26-C , 55-H ) :   0.9443 B( 27-N , 28-C ) :   1.4387 B( 27-N , 39-S ) :   0.1415
B( 28-C , 29-C ) :   1.0927 B( 28-C , 34-C ) :   1.2773 B( 29-C , 30-C ) :   1.1863
B( 29-C , 33-N ) :   1.6103 B( 30-C , 31-N ) :   1.5707 B( 31-N , 32-S ) :   1.2484
B( 31-N , 33-N ) :   0.1411 B( 32-S , 33-N ) :   1.2453 B( 34-C , 35-C ) :   1.4332
B( 34-C , 56-H ) :   0.9917 B( 35-C , 36-C ) :   1.1591 B( 35-C , 39-S ) :   1.1138
B( 36-C , 37-C ) :   1.5603 B( 36-C , 57-H ) :   1.0013 B( 37-C , 38-C ) :   1.1984
B( 37-C , 58-H ) :   0.9957 B( 38-C , 39-S ) :   0.9667 B( 38-C , 40-C ) :   1.5023
B( 40-C , 41-C ) :   1.1859 B( 40-C , 44-S ) :   1.0622 B( 41-C , 42-C ) :   1.5817
B( 41-C , 59-H ) :   0.9941 B( 42-C , 43-C ) :   1.1473 B( 42-C , 60-H ) :   0.9988
B( 43-C , 44-S ) :   1.0326 B( 43-C , 45-C ) :   1.5671 B( 45-C , 46-C ) :   1.1911
B( 45-C , 61-H ) :   0.9649 B( 46-C , 47-C ) :   1.6230 B( 46-C , 50-Si) :   0.9143
B( 47-C , 48-C ) :   1.1173 B( 47-C , 62-H ) :   0.9758 B( 48-C , 49-C ) :   1.7955
B( 48-C , 63-H ) :   0.9848 B( 49-C , 50-Si) :   0.9509 B( 49-C , 64-H ) :   0.9455
B( 50-Si, 65-H ) :   0.9502 B( 50-Si, 66-H ) :   0.9505

-----------------------------------------------------------------------------
         ABSORPTION SPECTRUM VIA TRANSITION ELECTRIC DIPOLE MOMENTS
-----------------------------------------------------------------------------
State   Energy  Wavelength   fosc         T2         TX        TY        TZ
        (cm-1)    (nm)                  (au**2)     (au)      (au)      (au)
-----------------------------------------------------------------------------
   0   11069.2    903.4   0.827777413  24.61909  -2.84463  -3.30847   2.36246
   1   13534.3    738.9   0.087765133   2.13482  -1.06720   0.58117   0.81127
   2   17879.8    559.3   0.239975159   4.41853   1.38550  -1.08929  -1.14559
   3   19041.3    525.2   0.727857526  12.58420  -1.51395   2.97581   1.19863
   4   20070.4    498.2   0.095494523   1.56638   0.48372  -1.08899  -0.38274
   5   22545.8    443.5   0.171941541   2.51068   0.35715  -1.52711  -0.22596
   6   23855.5    419.2   0.003093070   0.04269  -0.10630   0.16831  -0.05529
   7   24411.8    409.6   0.249541188   3.36525   0.74100  -1.56693  -0.60074
   8   25122.2    398.1   0.053957419   0.70708   0.03347   0.83945  -0.03579
   9   25301.4    395.2   0.008432459   0.10972  -0.07508   0.32242  -0.01145
  10   27065.2    369.5   0.008944230   0.10879   0.15530  -0.25268  -0.14433
  11   28094.1    355.9   0.014964966   0.17536  -0.15456  -0.36367   0.13863
  12   28662.9    348.9   0.007933824   0.09113  -0.21392   0.03292   0.21042
  13   30522.9    327.6   0.182645544   1.96997  -0.25178  -1.35236   0.27874
  14   30855.6    324.1   0.036507804   0.38952  -0.27492  -0.48538   0.27990
  15   31402.5    318.4   0.218733384   2.29312  -0.94466   0.63491   0.99881
  16   31546.8    317.0   0.341092721   3.55954   1.13982  -0.81479  -1.26351
  17   31801.0    314.5   0.097879858   1.01328  -0.67758   0.07553   0.74058
  18   32226.6    310.3   0.001488780   0.01521  -0.01248  -0.12028   0.02420
  19   32280.8    309.8   0.125675496   1.28169  -0.04339  -1.12843   0.08029
  20   33023.3    302.8   0.520698099   5.19088  -0.10982  -2.26033   0.26403
  21   33380.6    299.6   0.156679454   1.54523   0.58849   0.89508  -0.63067
  22   33838.0    295.5   0.002199721   0.02140  -0.10510   0.07988   0.06303
  23   34005.2    294.1   0.082528771   0.79898  -0.52848   0.50998   0.50951
  24   34621.3    288.8   0.075833490   0.72110   0.52977   0.23490  -0.62070
  25   35076.0    285.1   0.012148607   0.11402   0.20319   0.17099  -0.20856
  26   35482.9    281.8   0.025044195   0.23236  -0.34855   0.12683   0.30787
  27   36050.1    277.4   0.027648092   0.25248  -0.15362   0.44987   0.16279
  28   36258.8    275.8   0.000875042   0.00794  -0.01629  -0.04635  -0.07438
  29   37148.9    269.2   0.007144250   0.06331  -0.16853  -0.11765   0.14514
  30   37325.2    267.9   0.001781308   0.01571   0.08130  -0.08552  -0.04230
  31   37808.4    264.5   0.084611360   0.73674  -0.39738   0.63741   0.41539
  32   37876.9    264.0   0.011351455   0.09866  -0.09304   0.29873   0.02774
  33   38118.9    262.3   0.087455070   0.75530  -0.45373  -0.55733   0.48869
  34   38258.6    261.4   0.003807446   0.03276   0.07421  -0.16431  -0.01604
  35   38363.2    260.7   0.141903428   1.21774   0.30648   1.00159  -0.34731
  36   38602.1    259.1   0.018345372   0.15646   0.08910   0.37085  -0.10483
  37   38808.2    257.7   0.058492846   0.49620  -0.08011   0.69982  -0.00538
  38   39369.8    254.0   0.023280288   0.19467  -0.08892  -0.41648   0.11537
  39   40036.7    249.8   0.007921063   0.06513  -0.08022   0.23505   0.05873

FINAL SINGLE POINT ENERGY     -4494.824468870480

DIPOLE MOMENT
-------------
                                X             Y             Z
Electronic contribution:    -28.51070     -32.75222      22.88030
Nuclear contribution   :     28.61156      34.82980     -22.62856
                        -----------------------------------------
Total Dipole Moment    :      0.10086       2.07758       0.25173
                        -----------------------------------------
Magnitude (a.u.)       :      2.09521
Magnitude (Debye)      :      5.32560

Rotational constants in cm-1:     0.001931     0.000615     0.000468
Rotational constants in MHz :    57.886288    18.443312    14.016693

                             ****ORCA TERMINATED NORMALLY****
TOTAL RUN TIME: 0 days 0 hours 4 minutes 51 seconds 52 msec
