                         Program Version 4.2.0 -  RELEASE  -
|  1> # ORCA input file
|  2> # SCF done       -215.170541145641          0.000815910169
|  3> ! CAM-B3LYP def2-SVP def2/J RIJCOSX Grid4 TightSCF
|  4> %maxcore 5000
|  5> %tddft
|  6>     Mode sTDDFT
|  7>     Ethresh 5.0
|  8>     maxcore 5000
|  9> end
| 10>
| 11> %pal
| 12>   nprocs 6
| 13>   end
| 14> * xyz 0 1
| 15>    C       -5.88535        -5.08635        -3.09713
| 16>    C       -6.25510        -5.01658        -4.43841
| 17>    C       -7.61025        -4.51521        -4.84951
| 18>    O       -8.16751        -4.92327        -5.82774
| 19>    O       -8.17145        -3.59203        -4.06045
| 20>    C       -5.38735        -5.47837        -5.44248
| 21>    C       -5.72721        -5.39186        -6.81698
| 22>    N       -5.88773        -5.33639        -7.94936
| 23>    C       -4.14185        -6.01964        -5.10911
| 24>    C       -3.79435        -6.08194        -3.77752
| 25>    C       -4.64545        -5.60944        -2.76507
| 26>    C       -3.98752        -5.79930        -1.47347
| 27>    C       -4.42884        -5.27258        -0.28608
| 28>    C       -5.59966        -4.49452        -0.17424
| 29>    N       -6.53453        -3.83876        -0.05557
| 30>    C       -3.76193        -5.36355         0.95424
| 31>    N       -3.27564        -5.38149         1.99428
| 32>    C       -2.75113        -6.51822        -1.70961
| 33>    C       -2.56449        -6.64740        -3.17123
| 34>    O       -1.64294        -7.14260        -3.78059
| 35>    C       -1.98815        -7.06681        -0.70848
| 36>    C       -0.73141        -7.68867        -0.74159
| 37>    C        0.24331        -7.80147        -1.73105
| 38>    C        1.37907        -8.44947        -1.27572
| 39>    C        1.28395        -8.85614         0.08002
| 40>    S       -0.19532        -8.41848         0.78528
| 41>    C        2.48499        -9.49930         0.44233
| 42>    C        3.35111        -9.49982        -0.66845
| 43>    C        2.68640        -8.83555        -1.78140
| 44>    C        3.20643        -8.60349        -3.01967
| 45>    C        4.50620        -9.02868        -3.37152
| 46>    N        5.56217        -9.37088        -3.65847
| 47>    C        2.50932        -7.90452        -4.03019
| 48>    N        1.97652        -7.32801        -4.86478
| 49>    C        4.58071       -10.09272        -0.40225
| 50>    C        4.66262       -10.54444         0.90769
| 51>    S        3.19094       -10.23911         1.81429
| 52>    C        5.76626       -11.15535         1.54907
| 53>    C        7.04034       -11.39529         1.02565
| 54>    O        7.29752       -11.04240        -0.24418
| 55>    C        8.61462       -11.13314        -0.75963
| 56>    C        7.91146       -11.98500         1.97540
| 57>    O        9.21512       -12.31613         1.71738
| 58>    C        9.46947       -13.70481         1.56139
| 59>    C        7.31201       -12.17623         3.21753
| 60>    S        5.65445       -11.67689         3.20016
| 61>    C        7.90688       -12.64766         4.41786
| 62>    C        9.25745       -12.76896         4.70513
| 63>    C        9.47088       -13.20645         6.00982
| 64>    C        8.27582       -13.41891         6.72292
| 65>    S        6.88995       -13.08574         5.78147
| 66>    C        8.59819       -13.83034         8.03733
| 67>    C       10.00512       -13.86247         8.16105
| 68>    C       10.59559       -13.50381         6.88329
| 69>    C       11.92087       -13.51616         6.56241
| 70>    C       12.89925       -13.85900         7.52040
| 71>    N       13.67335       -14.13655         8.31897
| 72>    C       12.37851       -13.21713         5.26187
| 73>    N       12.73649       -12.98227         4.19852
| 74>    C       10.42889       -14.25805         9.42003
| 75>    C        9.36478       -14.55034        10.26634
| 76>    S        7.81142       -14.28409         9.47321
| 77>    C        9.36873       -14.95648        11.61249
| 78>    C       10.39572       -15.41617        12.38693
| 79>    C       10.22732       -15.37233        13.86409
| 80>    O        9.20367       -15.17654        14.47436
| 81>    C       11.58981       -15.56426        14.41303
| 82>    C       12.48568       -15.82463        13.35902
| 83>    C       13.83775       -15.95293        13.61975
| 84>    C       14.29400       -15.86531        14.93584
| 85>    C       13.38306       -15.64580        15.98375
| 86>    C       12.01738       -15.47979        15.71805
| 87>    C       13.78011       -15.55704        17.33924
| 88>    N       14.05115       -15.49932        18.45267
| 89>    C       15.78914       -15.95349        15.11139
| 90>    O       16.52339       -15.65898        14.21126
| 91>    O       16.26907       -16.38047        16.27997
| 92>    C       11.72856       -15.90388        12.10711
| 93>    C       12.15072       -16.58025        10.99345
| 94>    C       11.32322       -16.85626         9.88721
| 95>    N       10.66492       -17.11490         8.98303
| 96>    C       13.42314       -17.18292        10.87402
| 97>    N       14.43116       -17.70973        10.73169
| 98>    H       -6.57623        -4.77945        -2.32660
| 99>    H       -7.62629        -3.32195        -3.30845
|100>    H       -3.47129        -6.38337        -5.87277
|101>    H       -2.41923        -7.03192         0.28572
|102>    H        0.10027        -7.42277        -2.72708
|103>    H        5.38845       -10.19996        -1.09995
|104>    H        8.57402       -10.62389        -1.72138
|105>    H        8.91129       -12.17298        -0.91323
|106>    H        9.33567       -10.64178        -0.10511
|107>    H        9.15105       -14.27576         2.43745
|108>    H       10.54647       -13.79420         1.43782
|109>    H        8.96091       -14.09863         0.67526
|110>    H       10.02885       -12.50946         4.00382
|111>    H       11.45510       -14.28331         9.73696
|112>    H        8.43340       -14.82393        12.14901
|113>    H       14.56822       -16.09851        12.83887
|114>    H       11.31968       -15.28573        16.51868
|115>    H       15.60908       -16.54903        16.96848
|116> *
|117>
|118>                          ****END OF INPUT****

CARTESIAN COORDINATES (ANGSTROEM)
---------------------------------
  C     -5.885350   -5.086350   -3.097130
  C     -6.255100   -5.016580   -4.438410
  C     -7.610250   -4.515210   -4.849510
  O     -8.167510   -4.923270   -5.827740
  O     -8.171450   -3.592030   -4.060450
  C     -5.387350   -5.478370   -5.442480
  C     -5.727210   -5.391860   -6.816980
  N     -5.887730   -5.336390   -7.949360
  C     -4.141850   -6.019640   -5.109110
  C     -3.794350   -6.081940   -3.777520
  C     -4.645450   -5.609440   -2.765070
  C     -3.987520   -5.799300   -1.473470
  C     -4.428840   -5.272580   -0.286080
  C     -5.599660   -4.494520   -0.174240
  N     -6.534530   -3.838760   -0.055570
  C     -3.761930   -5.363550    0.954240
  N     -3.275640   -5.381490    1.994280
  C     -2.751130   -6.518220   -1.709610
  C     -2.564490   -6.647400   -3.171230
  O     -1.642940   -7.142600   -3.780590
  C     -1.988150   -7.066810   -0.708480
  C     -0.731410   -7.688670   -0.741590
  C      0.243310   -7.801470   -1.731050
  C      1.379070   -8.449470   -1.275720
  C      1.283950   -8.856140    0.080020
  S     -0.195320   -8.418480    0.785280
  C      2.484990   -9.499300    0.442330
  C      3.351110   -9.499820   -0.668450
  C      2.686400   -8.835550   -1.781400
  C      3.206430   -8.603490   -3.019670
  C      4.506200   -9.028680   -3.371520
  N      5.562170   -9.370880   -3.658470
  C      2.509320   -7.904520   -4.030190
  N      1.976520   -7.328010   -4.864780
  C      4.580710  -10.092720   -0.402250
  C      4.662620  -10.544440    0.907690
  S      3.190940  -10.239110    1.814290
  C      5.766260  -11.155350    1.549070
  C      7.040340  -11.395290    1.025650
  O      7.297520  -11.042400   -0.244180
  C      8.614620  -11.133140   -0.759630
  C      7.911460  -11.985000    1.975400
  O      9.215120  -12.316130    1.717380
  C      9.469470  -13.704810    1.561390
  C      7.312010  -12.176230    3.217530
  S      5.654450  -11.676890    3.200160
  C      7.906880  -12.647660    4.417860
  C      9.257450  -12.768960    4.705130
  C      9.470880  -13.206450    6.009820
  C      8.275820  -13.418910    6.722920
  S      6.889950  -13.085740    5.781470
  C      8.598190  -13.830340    8.037330
  C     10.005120  -13.862470    8.161050
  C     10.595590  -13.503810    6.883290
  C     11.920870  -13.516160    6.562410
  C     12.899250  -13.859000    7.520400
  N     13.673350  -14.136550    8.318970
  C     12.378510  -13.217130    5.261870
  N     12.736490  -12.982270    4.198520
  C     10.428890  -14.258050    9.420030
  C      9.364780  -14.550340   10.266340
  S      7.811420  -14.284090    9.473210
  C      9.368730  -14.956480   11.612490
  C     10.395720  -15.416170   12.386930
  C     10.227320  -15.372330   13.864090
  O      9.203670  -15.176540   14.474360
  C     11.589810  -15.564260   14.413030
  C     12.485680  -15.824630   13.359020
  C     13.837750  -15.952930   13.619750
  C     14.294000  -15.865310   14.935840
  C     13.383060  -15.645800   15.983750
  C     12.017380  -15.479790   15.718050
  C     13.780110  -15.557040   17.339240
  N     14.051150  -15.499320   18.452670
  C     15.789140  -15.953490   15.111390
  O     16.523390  -15.658980   14.211260
  O     16.269070  -16.380470   16.279970
  C     11.728560  -15.903880   12.107110
  C     12.150720  -16.580250   10.993450
  C     11.323220  -16.856260    9.887210
  N     10.664920  -17.114900    8.983030
  C     13.423140  -17.182920   10.874020
  N     14.431160  -17.709730   10.731690
  H     -6.576230   -4.779450   -2.326600
  H     -7.626290   -3.321950   -3.308450
  H     -3.471290   -6.383370   -5.872770
  H     -2.419230   -7.031920    0.285720
  H      0.100270   -7.422770   -2.727080
  H      5.388450  -10.199960   -1.099950
  H      8.574020  -10.623890   -1.721380
  H      8.911290  -12.172980   -0.913230
  H      9.335670  -10.641780   -0.105110
  H      9.151050  -14.275760    2.437450
  H     10.546470  -13.794200    1.437820
  H      8.960910  -14.098630    0.675260
  H     10.028850  -12.509460    4.003820
  H     11.455100  -14.283310    9.736960
  H      8.433400  -14.823930   12.149010
  H     14.568220  -16.098510   12.838870
  H     11.319680  -15.285730   16.518680
  H     15.609080  -16.549030   16.968480

 Total Charge           Charge          ....    0
 Multiplicity           Mult            ....    1
 Number of Electrons    NEL             ....  592
 Basis Dimension        Dim             .... 1272

ORBITAL ENERGIES
----------------

  NO   OCC          E(Eh)            E(eV)
   0   2.0000     -89.014176     -2422.1989
   1   2.0000     -89.014090     -2422.1965
   2   2.0000     -89.008281     -2422.0385
   3   2.0000     -89.007202     -2422.0091
   4   2.0000     -88.995754     -2421.6976
   5   2.0000     -19.283586      -524.7331
   6   2.0000     -19.275425      -524.5110
   7   2.0000     -19.275247      -524.5061
   8   2.0000     -19.275145      -524.5034
   9   2.0000     -19.239771      -523.5408
  10   2.0000     -19.238094      -523.4951
  11   2.0000     -19.215973      -522.8932
  12   2.0000     -19.214281      -522.8472
  13   2.0000     -14.449338      -393.1865
  14   2.0000     -14.448811      -393.1721
  15   2.0000     -14.448551      -393.1651
  16   2.0000     -14.443904      -393.0386
  17   2.0000     -14.439948      -392.9309
  18   2.0000     -14.438449      -392.8902
  19   2.0000     -14.434435      -392.7809
  20   2.0000     -14.434282      -392.7768
  21   2.0000     -14.429605      -392.6495
  22   2.0000     -14.410779      -392.1372
  23   2.0000     -10.424374      -283.6616
  24   2.0000     -10.420106      -283.5455
  25   2.0000     -10.391051      -282.7549
  26   2.0000     -10.389465      -282.7117
  27   2.0000     -10.385735      -282.6102
  28   2.0000     -10.380147      -282.4582
  29   2.0000     -10.376838      -282.3681
  30   2.0000     -10.372263      -282.2436
  31   2.0000     -10.370593      -282.1982
  32   2.0000     -10.367618      -282.1172
  33   2.0000     -10.366253      -282.0801
  34   2.0000     -10.364207      -282.0244
  35   2.0000     -10.363828      -282.0141
  36   2.0000     -10.362160      -281.9687
  37   2.0000     -10.362141      -281.9682
  38   2.0000     -10.361916      -281.9621
  39   2.0000     -10.361039      -281.9382
  40   2.0000     -10.357033      -281.8292
  41   2.0000     -10.353934      -281.7449
  42   2.0000     -10.352443      -281.7043
  43   2.0000     -10.349550      -281.6256
  44   2.0000     -10.349132      -281.6142
  45   2.0000     -10.348548      -281.5983
  46   2.0000     -10.347412      -281.5674
  47   2.0000     -10.346752      -281.5494
  48   2.0000     -10.345803      -281.5236
  49   2.0000     -10.345523      -281.5160
  50   2.0000     -10.345488      -281.5150
  51   2.0000     -10.345372      -281.5119
  52   2.0000     -10.344202      -281.4800
  53   2.0000     -10.343764      -281.4681
  54   2.0000     -10.343597      -281.4636
  55   2.0000     -10.341723      -281.4126
  56   2.0000     -10.340777      -281.3869
  57   2.0000     -10.339939      -281.3640
  58   2.0000     -10.338721      -281.3309
  59   2.0000     -10.338470      -281.3241
  60   2.0000     -10.338437      -281.3232
  61   2.0000     -10.337679      -281.3025
  62   2.0000     -10.336913      -281.2817
  63   2.0000     -10.336676      -281.2753
  64   2.0000     -10.336182      -281.2618
  65   2.0000     -10.335594      -281.2458
  66   2.0000     -10.332890      -281.1722
  67   2.0000     -10.330555      -281.1087
  68   2.0000     -10.330136      -281.0973
  69   2.0000     -10.330061      -281.0953
  70   2.0000     -10.326949      -281.0106
  71   2.0000     -10.326500      -280.9983
  72   2.0000     -10.325875      -280.9813
  73   2.0000     -10.325555      -280.9726
  74   2.0000     -10.325538      -280.9722
  75   2.0000     -10.322404      -280.8869
  76   2.0000     -10.322069      -280.8778
  77   2.0000     -10.320916      -280.8464
  78   2.0000     -10.320043      -280.8226
  79   2.0000     -10.319940      -280.8198
  80   2.0000     -10.315614      -280.7021
  81   2.0000     -10.311835      -280.5993
  82   2.0000     -10.310421      -280.5608
  83   2.0000      -8.108908      -220.6546
  84   2.0000      -8.108845      -220.6529
  85   2.0000      -8.103128      -220.4973
  86   2.0000      -8.101956      -220.4654
  87   2.0000      -8.091576      -220.1830
  88   2.0000      -6.078181      -165.3957
  89   2.0000      -6.078052      -165.3922
  90   2.0000      -6.073975      -165.2813
  91   2.0000      -6.073869      -165.2784
  92   2.0000      -6.072247      -165.2342
  93   2.0000      -6.071355      -165.2100
  94   2.0000      -6.071314      -165.2089
  95   2.0000      -6.071092      -165.2028
  96   2.0000      -6.068111      -165.1217
  97   2.0000      -6.067129      -165.0950
  98   2.0000      -6.065625      -165.0540
  99   2.0000      -6.064080      -165.0120
 100   2.0000      -6.061044      -164.9294
 101   2.0000      -6.057158      -164.8236
 102   2.0000      -6.052967      -164.7096
 103   2.0000      -1.201287       -32.6887
 104   2.0000      -1.199113       -32.6295
 105   2.0000      -1.192533       -32.4505
 106   2.0000      -1.171356       -31.8742
 107   2.0000      -1.155725       -31.4489
 108   2.0000      -1.153950       -31.4006
 109   2.0000      -1.115435       -30.3525
 110   2.0000      -1.114249       -30.3203
 111   2.0000      -1.068975       -29.0883
 112   2.0000      -1.062816       -28.9207
 113   2.0000      -1.044304       -28.4170
 114   2.0000      -1.041369       -28.3371
 115   2.0000      -1.040349       -28.3093
 116   2.0000      -1.035839       -28.1866
 117   2.0000      -1.034874       -28.1604
 118   2.0000      -1.031187       -28.0600
 119   2.0000      -1.026478       -27.9319
 120   2.0000      -1.022610       -27.8266
 121   2.0000      -1.021654       -27.8006
 122   2.0000      -1.020406       -27.7667
 123   2.0000      -1.018191       -27.7064
 124   2.0000      -1.013305       -27.5734
 125   2.0000      -1.010509       -27.4973
 126   2.0000      -1.007500       -27.4155
 127   2.0000      -0.998255       -27.1639
 128   2.0000      -0.985892       -26.8275
 129   2.0000      -0.979839       -26.6628
 130   2.0000      -0.976210       -26.5640
 131   2.0000      -0.971441       -26.4343
 132   2.0000      -0.942644       -25.6506
 133   2.0000      -0.935795       -25.4643
 134   2.0000      -0.927497       -25.2385
 135   2.0000      -0.924017       -25.1438
 136   2.0000      -0.914682       -24.8898
 137   2.0000      -0.907118       -24.6839
 138   2.0000      -0.901783       -24.5388
 139   2.0000      -0.897747       -24.4289
 140   2.0000      -0.896463       -24.3940
 141   2.0000      -0.888251       -24.1705
 142   2.0000      -0.883570       -24.0431
 143   2.0000      -0.878236       -23.8980
 144   2.0000      -0.875054       -23.8114
 145   2.0000      -0.869656       -23.6645
 146   2.0000      -0.852639       -23.2015
 147   2.0000      -0.843364       -22.9491
 148   2.0000      -0.827352       -22.5134
 149   2.0000      -0.814441       -22.1621
 150   2.0000      -0.808432       -21.9985
 151   2.0000      -0.803483       -21.8639
 152   2.0000      -0.800021       -21.7697
 153   2.0000      -0.794244       -21.6125
 154   2.0000      -0.790152       -21.5011
 155   2.0000      -0.781358       -21.2618
 156   2.0000      -0.764743       -20.8097
 157   2.0000      -0.757800       -20.6208
 158   2.0000      -0.748834       -20.3768
 159   2.0000      -0.743217       -20.2240
 160   2.0000      -0.731000       -19.8915
 161   2.0000      -0.724812       -19.7231
 162   2.0000      -0.720493       -19.6056
 163   2.0000      -0.718259       -19.5448
 164   2.0000      -0.713573       -19.4173
 165   2.0000      -0.713258       -19.4087
 166   2.0000      -0.708950       -19.2915
 167   2.0000      -0.704765       -19.1776
 168   2.0000      -0.699711       -19.0401
 169   2.0000      -0.697540       -18.9810
 170   2.0000      -0.688732       -18.7414
 171   2.0000      -0.685408       -18.6509
 172   2.0000      -0.676205       -18.4005
 173   2.0000      -0.671656       -18.2767
 174   2.0000      -0.666313       -18.1313
 175   2.0000      -0.657963       -17.9041
 176   2.0000      -0.655476       -17.8364
 177   2.0000      -0.651865       -17.7381
 178   2.0000      -0.647767       -17.6266
 179   2.0000      -0.643926       -17.5221
 180   2.0000      -0.639669       -17.4063
 181   2.0000      -0.636185       -17.3115
 182   2.0000      -0.629872       -17.1397
 183   2.0000      -0.621187       -16.9034
 184   2.0000      -0.619383       -16.8543
 185   2.0000      -0.617130       -16.7930
 186   2.0000      -0.606174       -16.4948
 187   2.0000      -0.602736       -16.4013
 188   2.0000      -0.597654       -16.2630
 189   2.0000      -0.594988       -16.1904
 190   2.0000      -0.592756       -16.1297
 191   2.0000      -0.586585       -15.9618
 192   2.0000      -0.577661       -15.7189
 193   2.0000      -0.571472       -15.5505
 194   2.0000      -0.568798       -15.4778
 195   2.0000      -0.568521       -15.4702
 196   2.0000      -0.567197       -15.4342
 197   2.0000      -0.566003       -15.4017
 198   2.0000      -0.565124       -15.3778
 199   2.0000      -0.563596       -15.3362
 200   2.0000      -0.563148       -15.3240
 201   2.0000      -0.560294       -15.2464
 202   2.0000      -0.557590       -15.1728
 203   2.0000      -0.556451       -15.1418
 204   2.0000      -0.550354       -14.9759
 205   2.0000      -0.547169       -14.8892
 206   2.0000      -0.544978       -14.8296
 207   2.0000      -0.541668       -14.7395
 208   2.0000      -0.539356       -14.6766
 209   2.0000      -0.537567       -14.6280
 210   2.0000      -0.534008       -14.5311
 211   2.0000      -0.533171       -14.5083
 212   2.0000      -0.531089       -14.4517
 213   2.0000      -0.528019       -14.3681
 214   2.0000      -0.527126       -14.3438
 215   2.0000      -0.524984       -14.2855
 216   2.0000      -0.523435       -14.2434
 217   2.0000      -0.520407       -14.1610
 218   2.0000      -0.519017       -14.1232
 219   2.0000      -0.517290       -14.0762
 220   2.0000      -0.513949       -13.9853
 221   2.0000      -0.513367       -13.9694
 222   2.0000      -0.511988       -13.9319
 223   2.0000      -0.508776       -13.8445
 224   2.0000      -0.506752       -13.7894
 225   2.0000      -0.504339       -13.7238
 226   2.0000      -0.499116       -13.5816
 227   2.0000      -0.498117       -13.5544
 228   2.0000      -0.495406       -13.4807
 229   2.0000      -0.492523       -13.4022
 230   2.0000      -0.490551       -13.3486
 231   2.0000      -0.486056       -13.2262
 232   2.0000      -0.485145       -13.2015
 233   2.0000      -0.480547       -13.0764
 234   2.0000      -0.479338       -13.0435
 235   2.0000      -0.478951       -13.0329
 236   2.0000      -0.476548       -12.9675
 237   2.0000      -0.473720       -12.8906
 238   2.0000      -0.473338       -12.8802
 239   2.0000      -0.471501       -12.8302
 240   2.0000      -0.469035       -12.7631
 241   2.0000      -0.468964       -12.7612
 242   2.0000      -0.467834       -12.7304
 243   2.0000      -0.466862       -12.7040
 244   2.0000      -0.466229       -12.6867
 245   2.0000      -0.465765       -12.6741
 246   2.0000      -0.462810       -12.5937
 247   2.0000      -0.460975       -12.5438
 248   2.0000      -0.460159       -12.5216
 249   2.0000      -0.459250       -12.4968
 250   2.0000      -0.458540       -12.4775
 251   2.0000      -0.456986       -12.4352
 252   2.0000      -0.455029       -12.3820
 253   2.0000      -0.452667       -12.3177
 254   2.0000      -0.452314       -12.3081
 255   2.0000      -0.451151       -12.2764
 256   2.0000      -0.449749       -12.2383
 257   2.0000      -0.447274       -12.1709
 258   2.0000      -0.445836       -12.1318
 259   2.0000      -0.445301       -12.1173
 260   2.0000      -0.445116       -12.1122
 261   2.0000      -0.444257       -12.0888
 262   2.0000      -0.443918       -12.0796
 263   2.0000      -0.442839       -12.0503
 264   2.0000      -0.439837       -11.9686
 265   2.0000      -0.437982       -11.9181
 266   2.0000      -0.436535       -11.8787
 267   2.0000      -0.432917       -11.7803
 268   2.0000      -0.428835       -11.6692
 269   2.0000      -0.427631       -11.6364
 270   2.0000      -0.425141       -11.5687
 271   2.0000      -0.422690       -11.5020
 272   2.0000      -0.419386       -11.4121
 273   2.0000      -0.409590       -11.1455
 274   2.0000      -0.407262       -11.0822
 275   2.0000      -0.403871       -10.9899
 276   2.0000      -0.399125       -10.8608
 277   2.0000      -0.389536       -10.5998
 278   2.0000      -0.380930       -10.3656
 279   2.0000      -0.380141       -10.3442
 280   2.0000      -0.373865       -10.1734
 281   2.0000      -0.371126       -10.0989
 282   2.0000      -0.367512       -10.0005
 283   2.0000      -0.364546        -9.9198
 284   2.0000      -0.364229        -9.9112
 285   2.0000      -0.361970        -9.8497
 286   2.0000      -0.361824        -9.8457
 287   2.0000      -0.356280        -9.6949
 288   2.0000      -0.345031        -9.3888
 289   2.0000      -0.342759        -9.3270
 290   2.0000      -0.337548        -9.1852
 291   2.0000      -0.335390        -9.1264
 292   2.0000      -0.330022        -8.9804
 293   2.0000      -0.316924        -8.6239
 294   2.0000      -0.290990        -7.9182
 295   2.0000      -0.258864        -7.0440
 296   0.0000      -0.134663        -3.6644
 297   0.0000      -0.123975        -3.3735
 298   0.0000      -0.109431        -2.9778
 299   0.0000      -0.106715        -2.9039
 300   0.0000      -0.094345        -2.5673

MULLIKEN ATOMIC CHARGES
-----------------------
   0 C :   -0.085557
   1 C :    0.011358
   2 C :    0.182232
   3 O :   -0.147125
   4 O :   -0.142133
   5 C :   -0.075026
   6 C :   -0.155578
   7 N :    0.141863
   8 C :   -0.029253
   9 C :   -0.004910
  10 C :    0.038994
  11 C :    0.301007
  12 C :   -0.340131
  13 C :   -0.182543
  14 N :    0.145006
  15 C :   -0.195569
  16 N :    0.163400
  17 C :   -0.106633
  18 C :    0.164582
  19 O :   -0.136441
  20 C :    0.040686
  21 C :   -0.114376
  22 C :    0.002761
  23 C :   -0.010007
  24 C :   -0.073849
  25 S :    0.206076
  26 C :   -0.106008
  27 C :    0.037938
  28 C :    0.311022
  29 C :   -0.296281
  30 C :   -0.188287
  31 N :    0.177937
  32 C :   -0.191877
  33 N :    0.197608
  34 C :   -0.073851
  35 C :   -0.041811
  36 S :    0.185160
  37 C :   -0.117542
  38 C :    0.187547
  39 O :   -0.305886
  40 C :    0.187414
  41 C :    0.079160
  42 O :   -0.343964
  43 C :    0.181407
  44 C :   -0.080081
  45 S :    0.143514
  46 C :   -0.080302
  47 C :   -0.063492
  48 C :    0.021616
  49 C :   -0.102729
  50 S :    0.198156
  51 C :   -0.069431
  52 C :   -0.003252
  53 C :    0.298442
  54 C :   -0.278785
  55 C :   -0.183238
  56 N :    0.176207
  57 C :   -0.182609
  58 N :    0.178766
  59 C :   -0.000225
  60 C :   -0.107665
  61 S :    0.217710
  62 C :    0.088004
  63 C :   -0.145458
  64 C :    0.143397
  65 O :   -0.131446
  66 C :    0.016799
  67 C :    0.044946
  68 C :   -0.064941
  69 C :   -0.003594
  70 C :   -0.044610
  71 C :   -0.031746
  72 C :   -0.223908
  73 N :    0.130179
  74 C :    0.172534
  75 O :   -0.155089
  76 O :   -0.130627
  77 C :    0.263798
  78 C :   -0.313174
  79 C :   -0.197902
  80 N :    0.171530
  81 C :   -0.175640
  82 N :    0.185128
  83 H :   -0.000943
  84 H :    0.191351
  85 H :    0.020166
  86 H :    0.017198
  87 H :    0.040233
  88 H :    0.020259
  89 H :    0.052309
  90 H :    0.019401
  91 H :    0.044240
  92 H :    0.036158
  93 H :    0.057897
  94 H :    0.025334
  95 H :    0.027129
  96 H :    0.025532
  97 H :    0.024218
  98 H :    0.039322
  99 H :    0.018369
 100 H :    0.182526
Sum of atomic charges:   -0.0000000

LOEWDIN ATOMIC CHARGES
----------------------
   0 C :   -0.002423
   1 C :   -0.037640
   2 C :    0.080334
   3 O :   -0.119172
   4 O :   -0.014471
   5 C :   -0.023025
   6 C :   -0.034174
   7 N :   -0.023520
   8 C :    0.050140
   9 C :   -0.029735
  10 C :   -0.000606
  11 C :    0.073879
  12 C :   -0.138905
  13 C :   -0.016293
  14 N :   -0.055352
  15 C :   -0.025652
  16 N :   -0.043987
  17 C :   -0.110287
  18 C :    0.086023
  19 O :   -0.125839
  20 C :    0.048264
  21 C :   -0.181656
  22 C :    0.026364
  23 C :   -0.077920
  24 C :   -0.146474
  25 S :    0.494508
  26 C :   -0.202427
  27 C :   -0.043185
  28 C :    0.074647
  29 C :   -0.089851
  30 C :   -0.013200
  31 N :   -0.029677
  32 C :   -0.023086
  33 N :   -0.011519
  34 C :   -0.032656
  35 C :   -0.154146
  36 S :    0.466373
  37 C :   -0.223803
  38 C :    0.023319
  39 O :   -0.080749
  40 C :    0.086796
  41 C :   -0.012134
  42 O :   -0.122239
  43 C :    0.082448
  44 C :   -0.205900
  45 S :    0.432132
  46 C :   -0.169873
  47 C :   -0.028518
  48 C :   -0.051693
  49 C :   -0.190318
  50 S :    0.477696
  51 C :   -0.153174
  52 C :   -0.067538
  53 C :    0.079759
  54 C :   -0.091385
  55 C :   -0.013125
  56 N :   -0.024234
  57 C :   -0.015445
  58 N :   -0.026422
  59 C :    0.017465
  60 C :   -0.183494
  61 S :    0.502027
  62 C :    0.047927
  63 C :   -0.100501
  64 C :    0.083412
  65 O :   -0.132006
  66 C :   -0.035074
  67 C :    0.007115
  68 C :    0.037095
  69 C :   -0.030615
  70 C :   -0.056090
  71 C :    0.048015
  72 C :   -0.042771
  73 N :   -0.027818
  74 C :    0.081415
  75 O :   -0.134311
  76 O :   -0.007820
  77 C :    0.057690
  78 C :   -0.121032
  79 C :   -0.013572
  80 N :   -0.036396
  81 C :   -0.025126
  82 N :   -0.023982
  83 H :    0.035278
  84 H :    0.099184
  85 H :    0.054558
  86 H :    0.043846
  87 H :    0.044809
  88 H :    0.040781
  89 H :    0.033658
  90 H :    0.017397
  91 H :    0.024120
  92 H :    0.016828
  93 H :    0.034957
  94 H :    0.014820
  95 H :    0.043797
  96 H :    0.043380
  97 H :    0.047519
  98 H :    0.053387
  99 H :    0.052832
 100 H :    0.088043

  Mayer bond orders larger than 0.100000
B(  0-C ,  1-C ) :   1.3223 B(  0-C , 10-C ) :   1.3862 B(  0-C , 83-H ) :   0.9626
B(  1-C ,  2-C ) :   0.8682 B(  1-C ,  5-C ) :   1.3975 B(  2-C ,  3-O ) :   2.1681
B(  2-C ,  4-O ) :   1.2562 B(  4-O , 84-H ) :   0.9457 B(  5-C ,  6-C ) :   1.0677
B(  5-C ,  8-C ) :   1.3563 B(  6-C ,  7-N ) :   3.0371 B(  8-C ,  9-C ) :   1.3570
B(  8-C , 85-H ) :   1.0159 B(  9-C , 10-C ) :   1.3463 B(  9-C , 18-C ) :   0.9291
B( 10-C , 11-C ) :   0.9734 B( 11-C , 12-C ) :   1.6254 B( 11-C , 17-C ) :   1.1007
B( 12-C , 13-C ) :   1.1471 B( 12-C , 15-C ) :   1.1378 B( 13-C , 14-N ) :   2.9721
B( 15-C , 16-N ) :   2.9872 B( 17-C , 18-C ) :   0.9529 B( 17-C , 20-C ) :   1.5429
B( 18-C , 19-O ) :   2.1856 B( 20-C , 21-C ) :   1.2565 B( 20-C , 86-H ) :   0.9167
B( 21-C , 22-C ) :   1.3649 B( 21-C , 25-S ) :   1.0591 B( 22-C , 23-C ) :   1.3453
B( 22-C , 87-H ) :   0.9711 B( 23-C , 24-C ) :   1.3518 B( 23-C , 28-C ) :   0.9949
B( 24-C , 25-S ) :   1.1758 B( 24-C , 26-C ) :   1.2303 B( 26-C , 27-C ) :   1.4175
B( 26-C , 36-S ) :   1.0950 B( 27-C , 28-C ) :   0.9921 B( 27-C , 34-C ) :   1.2748
B( 28-C , 29-C ) :   1.7197 B( 29-C , 30-C ) :   1.1407 B( 29-C , 32-C ) :   1.1333
B( 30-C , 31-N ) :   2.9897 B( 32-C , 33-N ) :   2.9976 B( 34-C , 35-C ) :   1.4489
B( 34-C , 88-H ) :   0.9971 B( 35-C , 36-S ) :   1.1094 B( 35-C , 37-C ) :   1.1585
B( 37-C , 38-C ) :   1.4792 B( 37-C , 44-C ) :   0.1463 B( 37-C , 45-S ) :   1.0936
B( 38-C , 39-O ) :   1.2096 B( 38-C , 41-C ) :   1.2269 B( 39-O , 40-C ) :   0.9145
B( 40-C , 89-H ) :   0.9767 B( 40-C , 90-H ) :   0.9758 B( 40-C , 91-H ) :   0.9730
B( 41-C , 42-O ) :   1.1424 B( 41-C , 44-C ) :   1.4934 B( 42-O , 43-C ) :   0.9094
B( 43-C , 92-H ) :   0.9694 B( 43-C , 93-H ) :   0.9825 B( 43-C , 94-H ) :   0.9644
B( 44-C , 45-S ) :   1.1145 B( 44-C , 46-C ) :   1.1277 B( 46-C , 47-C ) :   1.4582
B( 46-C , 50-S ) :   1.1111 B( 47-C , 48-C ) :   1.2804 B( 47-C , 95-H ) :   0.9967
B( 48-C , 49-C ) :   1.4365 B( 48-C , 53-C ) :   0.9905 B( 49-C , 50-S ) :   1.1094
B( 49-C , 51-C ) :   1.2055 B( 51-C , 52-C ) :   1.3940 B( 51-C , 61-S ) :   1.1634
B( 52-C , 53-C ) :   0.9984 B( 52-C , 59-C ) :   1.3746 B( 53-C , 54-C ) :   1.7258
B( 54-C , 55-C ) :   1.1320 B( 54-C , 57-C ) :   1.1319 B( 55-C , 56-N ) :   2.9817
B( 57-C , 58-N ) :   2.9913 B( 59-C , 60-C ) :   1.3694 B( 59-C , 96-H ) :   0.9777
B( 60-C , 61-S ) :   1.0797 B( 60-C , 62-C ) :   1.1708 B( 62-C , 63-C ) :   1.6358
B( 62-C , 97-H ) :   0.9253 B( 63-C , 64-C ) :   0.9567 B( 63-C , 77-C ) :   1.0451
B( 64-C , 65-O ) :   2.2691 B( 64-C , 66-C ) :   0.9005 B( 66-C , 67-C ) :   1.3316
B( 66-C , 71-C ) :   1.3817 B( 67-C , 68-C ) :   1.3358 B( 67-C , 77-C ) :   0.9818
B( 68-C , 69-C ) :   1.3748 B( 68-C , 98-H ) :   0.9910 B( 69-C , 70-C ) :   1.3524
B( 69-C , 74-C ) :   0.8600 B( 70-C , 71-C ) :   1.3563 B( 70-C , 72-C ) :   1.0572
B( 71-C , 99-H ) :   1.0108 B( 72-C , 73-N ) :   2.9929 B( 74-C , 75-O ) :   2.1789
B( 74-C , 76-O ) :   1.2742 B( 76-O ,100-H ) :   0.9385 B( 77-C , 78-C ) :   1.6641
B( 78-C , 79-C ) :   1.1717 B( 78-C , 81-C ) :   1.1231 B( 79-C , 80-N ) :   2.9884
B( 81-C , 82-N ) :   3.0032

-----------------------------------------------------------------------------
         ABSORPTION SPECTRUM VIA TRANSITION ELECTRIC DIPOLE MOMENTS
-----------------------------------------------------------------------------
State   Energy  Wavelength   fosc         T2         TX        TY        TZ
        (cm-1)    (nm)                  (au**2)     (au)      (au)      (au)
-----------------------------------------------------------------------------
   0   11520.7    868.0   0.894543727  25.56216   3.38648  -2.18284   3.05436
   1   13007.9    768.8   0.051911989   1.31382  -0.83961   0.20585   0.75266
   2   18210.6    549.1   1.419800649  25.66724   3.58285  -2.37282   2.68331
   3   19542.3    511.7   0.249456020   4.20236  -1.72844   0.47644   0.99390
   4   20368.0    491.0   0.042487806   0.68674  -0.28493   0.37229  -0.68334
   5   22499.0    444.5   0.125278029   1.83311   0.00671  -0.07811  -1.35165
   6   23468.6    426.1   0.230425539   3.23236  -1.34304   0.60667  -1.02983
   7   24098.2    415.0   0.247518150   3.38140   0.00507   0.33979  -1.80719
   8   26425.4    378.4   0.023483541   0.29256  -0.06425  -0.18953   0.50250
   9   26785.9    373.3   0.012389064   0.15227  -0.19822  -0.05003  -0.33237
  10   27214.7    367.4   0.025302752   0.30608  -0.29542   0.42781  -0.18918
  11   27797.9    359.7   0.078883359   0.93422   0.39177  -0.41538  -0.77987
  12   28274.6    353.7   0.300276412   3.49624  -1.29527   0.77695  -1.10220
  13   28420.8    351.9   0.033581603   0.38899   0.43526  -0.24486   0.37361
  14   29172.6    342.8   0.008371482   0.09447  -0.12394   0.23141  -0.15988
  15   29399.3    340.1   0.056210024   0.62944   0.76918  -0.11856  -0.15410
  16   30015.0    333.2   0.019632710   0.21534  -0.26190   0.14465   0.35471
  17   30290.7    330.1   0.091665095   0.99626  -0.00652   0.11922  -0.99096
  18   30402.7    328.9   0.461794681   5.00049   1.70465   0.20646  -1.43249
  19   30945.5    323.1   0.102552302   1.09100  -0.35629  -0.17243   0.96660
  20   31143.0    321.1   0.029232399   0.30902  -0.45863  -0.30895  -0.05679
  21   31363.7    318.8   0.083151070   0.87280  -0.51976   0.05538  -0.77433
  22   31745.9    315.0   0.042180051   0.43742   0.03518   0.25647   0.60861
  23   31875.0    313.7   0.008286358   0.08558   0.16453  -0.09324  -0.22320
  24   32561.3    307.1   0.291872612   2.95098  -0.93327   0.44872  -1.37064
  25   32796.7    304.9   0.052650702   0.52850  -0.03693   0.15840  -0.70856
  26   33099.1    302.1   0.374064534   3.72054   1.38707  -0.24523   1.31774
  27   33246.5    300.8   0.024935644   0.24692  -0.26622   0.37406   0.19006
  28   33748.8    296.3   0.104628569   1.02063   0.35334  -0.14309  -0.93558
  29   33963.2    294.4   0.021787511   0.21119  -0.41302  -0.02910   0.19939
  30   34063.9    293.6   0.221931878   2.14487  -1.35399  -0.34329  -0.44016
  31   34527.3    289.6   0.085031726   0.81076   0.40476   0.09534  -0.79865
  32   34695.5    288.2   0.421626145   4.00065  -0.10509  -0.43596  -1.94924
  33   34820.0    287.2   0.059137331   0.55912   0.35859  -0.12188   0.64474
  34   35159.4    284.4   0.189767045   1.77687  -0.43681   0.15308   1.25005
  35   35216.5    284.0   0.041931575   0.39199   0.18677  -0.15637  -0.57676
  36   35503.2    281.7   0.022279110   0.20659   0.38596  -0.20567   0.12380
  37   35735.9    279.8   0.186906508   1.72185  -0.43355  -0.14341   1.23017
  38   35772.7    279.5   0.048211744   0.44369   0.09470   0.09971  -0.65175
  39   36072.2    277.2   0.098020294   0.89458   0.76052  -0.05300  -0.55981
  40   36379.7    274.9   0.033759588   0.30550   0.38641   0.10857   0.38000
  41   36478.5    274.1   0.410055647   3.70068  -0.42136   0.29773   1.85324
  42   36781.0    271.9   0.144705425   1.29520   0.07131   0.02532   1.13555
  43   36805.6    271.7   0.084717827   0.75777   0.52477   0.09340  -0.68823
  44   36927.1    270.8   0.013850131   0.12348  -0.23397  -0.23164  -0.12278
  45   37065.6    269.8   0.067921910   0.60327   0.75328  -0.08931  -0.16691
  46   37751.9    264.9   0.062192857   0.54235  -0.31377   0.54421   0.38436
  47   37818.6    264.4   0.023727280   0.20655   0.43978  -0.11189  -0.02488
  48   37982.2    263.3   0.032552603   0.28215  -0.30435   0.18490   0.39412
  49   38140.4    262.2   0.003259804   0.02814   0.13679  -0.06194  -0.07477
  50   38502.7    259.7   0.030264857   0.25878  -0.36903   0.19212   0.29272
  51   38659.9    258.7   0.006438646   0.05483  -0.05936  -0.00763   0.22638
  52   38810.8    257.7   0.017437529   0.14791  -0.18096  -0.03642  -0.33740
  53   38928.9    256.9   0.012894861   0.10905   0.17222   0.12319  -0.25340
  54   39283.3    254.6   0.031165935   0.26118   0.48811  -0.12161   0.09026
  55   39313.3    254.4   0.020070826   0.16807   0.24900  -0.10168  -0.30941
  56   39453.5    253.5   0.010032917   0.08372   0.27214  -0.09332   0.03075
  57   39744.0    251.6   0.033877625   0.28062   0.41616  -0.17493   0.27719
  58   39920.9    250.5   0.047456718   0.39136   0.56193  -0.27048  -0.04929
  59   40104.5    249.3   0.061480631   0.50469   0.04115   0.02703   0.70870
  60   40284.5    248.2   0.069929272   0.57147   0.26102  -0.10487   0.70167

FINAL SINGLE POINT ENERGY     -5432.347248256925

DIPOLE MOMENT
-------------
                                X             Y             Z
Electronic contribution:    -16.69227       3.00885      13.54753
Nuclear contribution   :     17.27476      -4.51786     -11.30814
                        -----------------------------------------
Total Dipole Moment    :      0.58249      -1.50901       2.23940
                        -----------------------------------------
Magnitude (a.u.)       :      2.76248
Magnitude (Debye)      :      7.02167

Rotational constants in cm-1:     0.001774     0.000141     0.000132
Rotational constants in MHz :    53.198155     4.232732     3.969109

                             ****ORCA TERMINATED NORMALLY****
TOTAL RUN TIME: 0 days 0 hours 16 minutes 42 seconds 457 msec
