                         Program Version 4.2.0 -  RELEASE  -
|  1> # ORCA input file
|  2> # SCF done       -158.438778249155          0.001125275036
|  3> ! CAM-B3LYP def2-SVP def2/J RIJCOSX Grid4 TightSCF
|  4> %maxcore 5000
|  5> %tddft
|  6>     Mode sTDDFT
|  7>     Ethresh 5.0
|  8>     maxcore 5000
|  9> end
| 10>
| 11> %pal
| 12>   nprocs 6
| 13>   end
| 14> * xyz 0 1
| 15>    C        1.10676         0.85438         0.63334
| 16>    O        0.37616        -0.04686         0.27156
| 17>    C        0.78745         2.25867         0.82464
| 18>    C        1.87899         2.96426         1.32436
| 19>    C        1.59345         4.32632         1.53182
| 20>    C        0.30608         4.61193         1.18033
| 21>    S       -0.58545         3.25376         0.60650
| 22>    C        2.98591         2.05011         1.50581
| 23>    C        4.16114         2.33686         2.13949
| 24>    C        4.44455         3.63730         2.61226
| 25>    N        4.68420         4.69122         2.99512
| 26>    C        5.15810         1.39033         2.46149
| 27>    N        5.97112         0.65627         2.80138
| 28>    C        2.55291         0.76070         0.96964
| 29>    C        3.38467        -0.26761         0.66626
| 30>    C        3.08395        -1.53584         0.10451
| 31>    C        4.06055        -2.42206        -0.34500
| 32>    C        5.51257        -2.09843        -0.32340
| 33>    O        5.95932        -1.02955        -0.62931
| 34>    O        6.31636        -3.09861         0.07956
| 35>    C        3.51920        -3.64429        -0.81848
| 36>    C        2.14878        -3.67026        -0.67656
| 37>    S        1.49830        -2.23746        -0.03376
| 38>    C        4.27301        -4.69341        -1.47522
| 39>    S        5.50416        -4.30909        -2.63247
| 40>    C        5.79726        -5.98755        -2.96485
| 41>    C        4.95670        -6.79180        -2.20827
| 42>    C        4.09382        -6.05915        -1.37252
| 43>    S        2.97542        -6.72285        -0.18174
| 44>    C        3.23731        -8.47418        -0.10565
| 45>    O        2.78182        -9.05340         0.83814
| 46>    C        3.89393        -9.25776        -1.22429
| 47>    O        3.70006       -10.43831        -1.30414
| 48>    S        4.98222        -8.53778        -2.41401
| 49>    C        6.77158        -6.42016        -3.90285
| 50>    C        7.55498        -5.58697        -4.62105
| 51>    C        8.48916        -6.02074        -5.60616
| 52>    C        9.37571        -5.26303        -6.35317
| 53>    C        9.64168        -3.80858        -6.28251
| 54>    O        9.98757        -3.18795        -7.25155
| 55>    O        9.51859        -3.21320        -5.08647
| 56>    C       10.00644        -6.01415        -7.38708
| 57>    C        9.63989        -7.33015        -7.36658
| 58>    S        8.51880        -7.68438        -6.12533
| 59>    C       10.95965        -5.43583        -8.31465
| 60>    C       10.91845        -5.48261        -9.65605
| 61>    C       12.14070        -5.09769       -10.44548
| 62>    O       13.15011        -4.60301       -10.00819
| 63>    C       11.82512        -5.53019       -11.79977
| 64>    C       10.53726        -6.05311       -11.87984
| 65>    C        9.89190        -5.94567       -10.58755
| 66>    C        8.54995        -6.09714       -10.38035
| 67>    C        7.68985        -6.53289       -11.41415
| 68>    N        6.97558        -6.90764       -12.22940
| 69>    C        7.83217        -5.79534        -9.20567
| 70>    N        7.14153        -5.54755        -8.32254
| 71>    C       10.21014        -6.48553       -13.18040
| 72>    C       11.25176        -6.28470       -14.03683
| 73>    S       12.63615        -5.56547       -13.30289
| 74>    H        2.28718         5.05426         1.90953
| 75>    H       -0.18084         5.56640         1.23103
| 76>    H        4.44547        -0.10173         0.81459
| 77>    H        5.82803        -3.87722         0.37899
| 78>    H        1.49616        -4.46239        -0.98689
| 79>    H        6.86256        -7.49131        -4.02801
| 80>    H        7.42835        -4.51858        -4.49502
| 81>    H        9.34310        -3.83004        -4.36394
| 82>    H        9.99382        -8.11580        -8.00523
| 83>    H       11.83058        -4.95502        -7.88139
| 84>    H        9.27319        -6.92238       -13.47179
| 85>    H       11.28290        -6.51945       -15.08303
| 86> *
| 87>
| 88>                          ****END OF INPUT****

CARTESIAN COORDINATES (ANGSTROEM)
---------------------------------
  C      1.106760    0.854380    0.633340
  O      0.376160   -0.046860    0.271560
  C      0.787450    2.258670    0.824640
  C      1.878990    2.964260    1.324360
  C      1.593450    4.326320    1.531820
  C      0.306080    4.611930    1.180330
  S     -0.585450    3.253760    0.606500
  C      2.985910    2.050110    1.505810
  C      4.161140    2.336860    2.139490
  C      4.444550    3.637300    2.612260
  N      4.684200    4.691220    2.995120
  C      5.158100    1.390330    2.461490
  N      5.971120    0.656270    2.801380
  C      2.552910    0.760700    0.969640
  C      3.384670   -0.267610    0.666260
  C      3.083950   -1.535840    0.104510
  C      4.060550   -2.422060   -0.345000
  C      5.512570   -2.098430   -0.323400
  O      5.959320   -1.029550   -0.629310
  O      6.316360   -3.098610    0.079560
  C      3.519200   -3.644290   -0.818480
  C      2.148780   -3.670260   -0.676560
  S      1.498300   -2.237460   -0.033760
  C      4.273010   -4.693410   -1.475220
  S      5.504160   -4.309090   -2.632470
  C      5.797260   -5.987550   -2.964850
  C      4.956700   -6.791800   -2.208270
  C      4.093820   -6.059150   -1.372520
  S      2.975420   -6.722850   -0.181740
  C      3.237310   -8.474180   -0.105650
  O      2.781820   -9.053400    0.838140
  C      3.893930   -9.257760   -1.224290
  O      3.700060  -10.438310   -1.304140
  S      4.982220   -8.537780   -2.414010
  C      6.771580   -6.420160   -3.902850
  C      7.554980   -5.586970   -4.621050
  C      8.489160   -6.020740   -5.606160
  C      9.375710   -5.263030   -6.353170
  C      9.641680   -3.808580   -6.282510
  O      9.987570   -3.187950   -7.251550
  O      9.518590   -3.213200   -5.086470
  C     10.006440   -6.014150   -7.387080
  C      9.639890   -7.330150   -7.366580
  S      8.518800   -7.684380   -6.125330
  C     10.959650   -5.435830   -8.314650
  C     10.918450   -5.482610   -9.656050
  C     12.140700   -5.097690  -10.445480
  O     13.150110   -4.603010  -10.008190
  C     11.825120   -5.530190  -11.799770
  C     10.537260   -6.053110  -11.879840
  C      9.891900   -5.945670  -10.587550
  C      8.549950   -6.097140  -10.380350
  C      7.689850   -6.532890  -11.414150
  N      6.975580   -6.907640  -12.229400
  C      7.832170   -5.795340   -9.205670
  N      7.141530   -5.547550   -8.322540
  C     10.210140   -6.485530  -13.180400
  C     11.251760   -6.284700  -14.036830
  S     12.636150   -5.565470  -13.302890
  H      2.287180    5.054260    1.909530
  H     -0.180840    5.566400    1.231030
  H      4.445470   -0.101730    0.814590
  H      5.828030   -3.877220    0.378990
  H      1.496160   -4.462390   -0.986890
  H      6.862560   -7.491310   -4.028010
  H      7.428350   -4.518580   -4.495020
  H      9.343100   -3.830040   -4.363940
  H      9.993820   -8.115800   -8.005230
  H     11.830580   -4.955020   -7.881390
  H      9.273190   -6.922380  -13.471790
  H     11.282900   -6.519450  -15.083030

 Total Charge           Charge          ....    0
 Multiplicity           Mult            ....    1
 Number of Electrons    NEL             ....  456
 Basis Dimension        Dim             ....  914

ORBITAL ENERGIES
----------------

  NO   OCC          E(Eh)            E(eV)
   0   2.0000     -88.998219     -2421.7647
   1   2.0000     -88.993092     -2421.6251
   2   2.0000     -88.991142     -2421.5721
   3   2.0000     -88.990464     -2421.5536
   4   2.0000     -88.983796     -2421.3722
   5   2.0000     -88.983675     -2421.3689
   6   2.0000     -88.982171     -2421.3280
   7   2.0000     -19.274799      -524.4939
   8   2.0000     -19.271496      -524.4041
   9   2.0000     -19.255514      -523.9692
  10   2.0000     -19.252846      -523.8966
  11   2.0000     -19.236979      -523.4648
  12   2.0000     -19.219733      -522.9955
  13   2.0000     -19.218180      -522.9533
  14   2.0000     -19.209846      -522.7265
  15   2.0000     -14.424455      -392.5094
  16   2.0000     -14.424004      -392.4971
  17   2.0000     -14.420455      -392.4005
  18   2.0000     -14.418497      -392.3472
  19   2.0000     -10.423345      -283.6336
  20   2.0000     -10.418860      -283.5116
  21   2.0000     -10.418120      -283.4915
  22   2.0000     -10.414941      -283.4050
  23   2.0000     -10.393362      -282.8178
  24   2.0000     -10.377260      -282.3796
  25   2.0000     -10.357286      -281.8361
  26   2.0000     -10.354416      -281.7580
  27   2.0000     -10.351155      -281.6693
  28   2.0000     -10.350553      -281.6529
  29   2.0000     -10.348002      -281.5835
  30   2.0000     -10.346156      -281.5332
  31   2.0000     -10.345809      -281.5238
  32   2.0000     -10.341259      -281.4000
  33   2.0000     -10.339864      -281.3620
  34   2.0000     -10.336777      -281.2780
  35   2.0000     -10.332123      -281.1514
  36   2.0000     -10.331893      -281.1451
  37   2.0000     -10.326542      -280.9995
  38   2.0000     -10.326507      -280.9985
  39   2.0000     -10.326053      -280.9862
  40   2.0000     -10.325537      -280.9721
  41   2.0000     -10.325427      -280.9691
  42   2.0000     -10.325170      -280.9622
  43   2.0000     -10.322612      -280.8926
  44   2.0000     -10.322504      -280.8896
  45   2.0000     -10.322185      -280.8809
  46   2.0000     -10.321822      -280.8711
  47   2.0000     -10.321368      -280.8587
  48   2.0000     -10.320939      -280.8470
  49   2.0000     -10.319721      -280.8139
  50   2.0000     -10.318639      -280.7845
  51   2.0000     -10.317182      -280.7448
  52   2.0000     -10.316659      -280.7306
  53   2.0000     -10.316098      -280.7153
  54   2.0000     -10.309819      -280.5444
  55   2.0000     -10.308025      -280.4956
  56   2.0000     -10.306864      -280.4640
  57   2.0000     -10.303239      -280.3654
  58   2.0000     -10.302103      -280.3345
  59   2.0000      -8.093209      -220.2274
  60   2.0000      -8.088208      -220.0913
  61   2.0000      -8.086286      -220.0390
  62   2.0000      -8.084463      -219.9894
  63   2.0000      -8.080368      -219.8780
  64   2.0000      -8.080166      -219.8725
  65   2.0000      -8.077995      -219.8134
  66   2.0000      -6.062388      -164.9660
  67   2.0000      -6.057898      -164.8438
  68   2.0000      -6.057403      -164.8303
  69   2.0000      -6.055949      -164.7907
  70   2.0000      -6.055420      -164.7764
  71   2.0000      -6.053650      -164.7282
  72   2.0000      -6.053498      -164.7240
  73   2.0000      -6.050995      -164.6559
  74   2.0000      -6.050250      -164.6357
  75   2.0000      -6.050212      -164.6346
  76   2.0000      -6.050124      -164.6323
  77   2.0000      -6.049013      -164.6020
  78   2.0000      -6.048947      -164.6002
  79   2.0000      -6.047267      -164.5545
  80   2.0000      -6.047208      -164.5529
  81   2.0000      -6.045681      -164.5113
  82   2.0000      -6.045521      -164.5070
  83   2.0000      -6.042923      -164.4363
  84   2.0000      -6.041156      -164.3882
  85   2.0000      -6.040833      -164.3794
  86   2.0000      -6.040252      -164.3636
  87   2.0000      -1.199934       -32.6519
  88   2.0000      -1.193898       -32.4876
  89   2.0000      -1.192398       -32.4468
  90   2.0000      -1.160527       -31.5795
  91   2.0000      -1.154505       -31.4157
  92   2.0000      -1.137280       -30.9469
  93   2.0000      -1.116096       -30.3705
  94   2.0000      -1.108982       -30.1769
  95   2.0000      -1.041095       -28.3296
  96   2.0000      -1.038211       -28.2511
  97   2.0000      -1.031478       -28.0679
  98   2.0000      -1.018585       -27.7171
  99   2.0000      -1.017069       -27.6759
 100   2.0000      -1.016141       -27.6506
 101   2.0000      -1.010470       -27.4963
 102   2.0000      -1.002428       -27.2774
 103   2.0000      -0.996789       -27.1240
 104   2.0000      -0.975544       -26.5459
 105   2.0000      -0.967844       -26.3364
 106   2.0000      -0.952259       -25.9123
 107   2.0000      -0.944615       -25.7043
 108   2.0000      -0.921370       -25.0718
 109   2.0000      -0.916691       -24.9444
 110   2.0000      -0.907361       -24.6905
 111   2.0000      -0.902764       -24.5655
 112   2.0000      -0.892312       -24.2810
 113   2.0000      -0.885385       -24.0926
 114   2.0000      -0.867251       -23.5991
 115   2.0000      -0.866019       -23.5656
 116   2.0000      -0.859214       -23.3804
 117   2.0000      -0.852011       -23.1844
 118   2.0000      -0.848526       -23.0896
 119   2.0000      -0.836633       -22.7660
 120   2.0000      -0.805886       -21.9293
 121   2.0000      -0.783179       -21.3114
 122   2.0000      -0.776133       -21.1196
 123   2.0000      -0.772999       -21.0344
 124   2.0000      -0.764164       -20.7940
 125   2.0000      -0.757578       -20.6147
 126   2.0000      -0.747718       -20.3464
 127   2.0000      -0.734464       -19.9858
 128   2.0000      -0.725024       -19.7289
 129   2.0000      -0.716630       -19.5005
 130   2.0000      -0.707617       -19.2552
 131   2.0000      -0.696634       -18.9564
 132   2.0000      -0.695257       -18.9189
 133   2.0000      -0.693007       -18.8577
 134   2.0000      -0.689892       -18.7729
 135   2.0000      -0.687460       -18.7067
 136   2.0000      -0.678227       -18.4555
 137   2.0000      -0.671125       -18.2622
 138   2.0000      -0.665644       -18.1131
 139   2.0000      -0.653726       -17.7888
 140   2.0000      -0.648146       -17.6370
 141   2.0000      -0.641151       -17.4466
 142   2.0000      -0.626102       -17.0371
 143   2.0000      -0.621717       -16.9178
 144   2.0000      -0.621481       -16.9114
 145   2.0000      -0.613232       -16.6869
 146   2.0000      -0.603693       -16.4273
 147   2.0000      -0.600161       -16.3312
 148   2.0000      -0.585911       -15.9434
 149   2.0000      -0.577329       -15.7099
 150   2.0000      -0.572302       -15.5731
 151   2.0000      -0.570135       -15.5142
 152   2.0000      -0.567064       -15.4306
 153   2.0000      -0.560374       -15.2485
 154   2.0000      -0.559165       -15.2156
 155   2.0000      -0.558126       -15.1874
 156   2.0000      -0.555397       -15.1131
 157   2.0000      -0.552405       -15.0317
 158   2.0000      -0.551269       -15.0008
 159   2.0000      -0.547673       -14.9029
 160   2.0000      -0.547047       -14.8859
 161   2.0000      -0.544287       -14.8108
 162   2.0000      -0.538521       -14.6539
 163   2.0000      -0.537440       -14.6245
 164   2.0000      -0.535172       -14.5628
 165   2.0000      -0.531833       -14.4719
 166   2.0000      -0.526313       -14.3217
 167   2.0000      -0.524708       -14.2780
 168   2.0000      -0.522125       -14.2077
 169   2.0000      -0.514491       -14.0000
 170   2.0000      -0.511501       -13.9186
 171   2.0000      -0.510711       -13.8972
 172   2.0000      -0.505453       -13.7541
 173   2.0000      -0.504388       -13.7251
 174   2.0000      -0.500466       -13.6184
 175   2.0000      -0.497942       -13.5497
 176   2.0000      -0.496570       -13.5124
 177   2.0000      -0.494664       -13.4605
 178   2.0000      -0.491722       -13.3804
 179   2.0000      -0.489600       -13.3227
 180   2.0000      -0.486073       -13.2267
 181   2.0000      -0.482848       -13.1390
 182   2.0000      -0.479786       -13.0556
 183   2.0000      -0.476821       -12.9750
 184   2.0000      -0.472901       -12.8683
 185   2.0000      -0.470604       -12.8058
 186   2.0000      -0.465602       -12.6697
 187   2.0000      -0.459698       -12.5090
 188   2.0000      -0.457942       -12.4612
 189   2.0000      -0.456137       -12.4121
 190   2.0000      -0.455838       -12.4040
 191   2.0000      -0.452928       -12.3248
 192   2.0000      -0.450134       -12.2488
 193   2.0000      -0.449355       -12.2276
 194   2.0000      -0.445179       -12.1139
 195   2.0000      -0.443696       -12.0736
 196   2.0000      -0.442300       -12.0356
 197   2.0000      -0.436247       -11.8709
 198   2.0000      -0.435673       -11.8553
 199   2.0000      -0.434191       -11.8149
 200   2.0000      -0.432341       -11.7646
 201   2.0000      -0.431559       -11.7433
 202   2.0000      -0.427153       -11.6234
 203   2.0000      -0.420493       -11.4422
 204   2.0000      -0.419179       -11.4064
 205   2.0000      -0.417687       -11.3658
 206   2.0000      -0.414373       -11.2757
 207   2.0000      -0.406495       -11.0613
 208   2.0000      -0.403218       -10.9721
 209   2.0000      -0.401248       -10.9185
 210   2.0000      -0.391654       -10.6575
 211   2.0000      -0.390386       -10.6229
 212   2.0000      -0.377762       -10.2794
 213   2.0000      -0.371099       -10.0981
 214   2.0000      -0.362685        -9.8692
 215   2.0000      -0.354209        -9.6385
 216   2.0000      -0.352337        -9.5876
 217   2.0000      -0.351506        -9.5650
 218   2.0000      -0.347858        -9.4657
 219   2.0000      -0.347095        -9.4449
 220   2.0000      -0.339692        -9.2435
 221   2.0000      -0.338061        -9.1991
 222   2.0000      -0.326888        -8.8951
 223   2.0000      -0.323402        -8.8002
 224   2.0000      -0.317801        -8.6478
 225   2.0000      -0.312239        -8.4965
 226   2.0000      -0.306707        -8.3459
 227   2.0000      -0.275302        -7.4914
 228   0.0000      -0.094778        -2.5790
 229   0.0000      -0.083808        -2.2805
 230   0.0000      -0.082039        -2.2324
 231   0.0000      -0.080068        -2.1788
 232   0.0000      -0.065076        -1.7708

MULLIKEN ATOMIC CHARGES
-----------------------
   0 C :    0.149799
   1 O :   -0.169532
   2 C :   -0.170281
   3 C :    0.012555
   4 C :    0.025536
   5 C :   -0.054742
   6 S :    0.218651
   7 C :    0.280406
   8 C :   -0.304785
   9 C :   -0.189709
  10 N :    0.162541
  11 C :   -0.197344
  12 N :    0.174731
  13 C :   -0.098734
  14 C :   -0.034679
  15 C :   -0.120541
  16 C :   -0.016170
  17 C :    0.156305
  18 O :   -0.167519
  19 O :   -0.150824
  20 C :    0.057824
  21 C :   -0.085820
  22 S :    0.246840
  23 C :   -0.233891
  24 S :    0.194956
  25 C :   -0.104315
  26 C :   -0.036937
  27 C :    0.007336
  28 S :    0.083997
  29 C :    0.073023
  30 O :   -0.120141
  31 C :    0.084779
  32 O :   -0.127806
  33 S :    0.088275
  34 C :   -0.000898
  35 C :   -0.039969
  36 C :   -0.087189
  37 C :    0.021145
  38 C :    0.157604
  39 O :   -0.169054
  40 O :   -0.145367
  41 C :   -0.015660
  42 C :   -0.072784
  43 S :    0.148219
  44 C :    0.054062
  45 C :   -0.135482
  46 C :    0.125260
  47 O :   -0.128699
  48 C :   -0.162334
  49 C :   -0.018240
  50 C :    0.316426
  51 C :   -0.346530
  52 C :   -0.196523
  53 N :    0.154236
  54 C :   -0.158546
  55 N :    0.163204
  56 C :    0.032381
  57 C :   -0.058647
  58 S :    0.214936
  59 H :    0.021599
  60 H :    0.047448
  61 H :    0.049546
  62 H :    0.194375
  63 H :    0.043761
  64 H :    0.020505
  65 H :    0.012578
  66 H :    0.185323
  67 H :    0.035315
  68 H :    0.041923
  69 H :    0.017424
  70 H :    0.044866
Sum of atomic charges:   -0.0000000

LOEWDIN ATOMIC CHARGES
----------------------
   0 C :    0.068285
   1 O :   -0.160346
   2 C :   -0.210566
   3 C :   -0.033975
   4 C :   -0.042402
   5 C :   -0.143767
   6 S :    0.508195
   7 C :    0.072770
   8 C :   -0.120623
   9 C :   -0.016574
  10 N :   -0.042227
  11 C :   -0.026365
  12 N :   -0.030715
  13 C :   -0.081835
  14 C :    0.051937
  15 C :   -0.164715
  16 C :   -0.088957
  17 C :    0.068623
  18 O :   -0.137867
  19 O :   -0.022601
  20 C :   -0.102970
  21 C :   -0.167891
  22 S :    0.560501
  23 C :   -0.203820
  24 S :    0.491259
  25 C :   -0.185823
  26 C :   -0.216305
  27 C :   -0.216465
  28 S :    0.380097
  29 C :   -0.108973
  30 O :   -0.092158
  31 C :   -0.111458
  32 O :   -0.098133
  33 S :    0.389384
  34 C :   -0.034728
  35 C :   -0.047376
  36 C :   -0.146806
  37 C :   -0.102396
  38 C :    0.085109
  39 O :   -0.140145
  40 O :   -0.018461
  41 C :   -0.057936
  42 C :   -0.158869
  43 S :    0.477976
  44 C :    0.086645
  45 C :   -0.077996
  46 C :    0.067393
  47 O :   -0.131110
  48 C :   -0.209331
  49 C :   -0.038172
  50 C :    0.071766
  51 C :   -0.129266
  52 C :   -0.016474
  53 N :   -0.049666
  54 C :   -0.014304
  55 N :   -0.050406
  56 C :   -0.045927
  57 C :   -0.147398
  58 S :    0.506148
  59 H :    0.045320
  60 H :    0.033265
  61 H :    0.054169
  62 H :    0.095055
  63 H :    0.026594
  64 H :    0.026499
  65 H :    0.027322
  66 H :    0.091592
  67 H :    0.030604
  68 H :    0.052332
  69 H :    0.043459
  70 H :    0.031996

  Mayer bond orders larger than 0.100000
B(  0-C ,  1-O ) :   2.1305 B(  0-C ,  2-C ) :   1.0817 B(  0-C , 13-C ) :   0.9503
B(  2-C ,  3-C ) :   1.4483 B(  2-C ,  6-S ) :   1.1262 B(  3-C ,  4-C ) :   1.2759
B(  3-C ,  7-C ) :   1.0086 B(  4-C ,  5-C ) :   1.5374 B(  4-C , 59-H ) :   0.9960
B(  5-C ,  6-S ) :   1.1915 B(  5-C , 60-H ) :   0.9624 B(  7-C ,  8-C ) :   1.6926
B(  7-C , 13-C ) :   1.0330 B(  8-C ,  9-C ) :   1.1388 B(  8-C , 11-C ) :   1.1229
B(  9-C , 10-N ) :   2.9954 B( 11-C , 12-N ) :   3.0066 B( 13-C , 14-C ) :   1.6536
B( 14-C , 15-C ) :   1.1861 B( 14-C , 61-H ) :   0.9287 B( 15-C , 16-C ) :   1.4460
B( 15-C , 22-S ) :   1.1608 B( 16-C , 17-C ) :   0.9053 B( 16-C , 20-C ) :   1.2897
B( 17-C , 18-O ) :   2.1295 B( 17-C , 19-O ) :   1.2290 B( 19-O , 62-H ) :   0.9489
B( 20-C , 21-C ) :   1.4944 B( 20-C , 23-C ) :   0.9906 B( 21-C , 22-S ) :   1.2067
B( 21-C , 63-H ) :   0.9624 B( 23-C , 24-S ) :   1.1678 B( 23-C , 25-C ) :   0.1219
B( 23-C , 27-C ) :   1.5897 B( 24-S , 25-C ) :   1.1261 B( 25-C , 26-C ) :   1.5575
B( 25-C , 34-C ) :   1.1602 B( 26-C , 27-C ) :   1.2744 B( 26-C , 33-S ) :   0.9694
B( 27-C , 28-S ) :   0.9747 B( 28-S , 29-C ) :   1.0358 B( 28-S , 30-O ) :   0.1326
B( 29-C , 30-O ) :   2.1722 B( 29-C , 31-C ) :   0.7671 B( 31-C , 32-O ) :   2.1585
B( 31-C , 33-S ) :   1.0485 B( 32-O , 33-S ) :   0.1373 B( 34-C , 35-C ) :   1.6890
B( 34-C , 64-H ) :   0.9613 B( 35-C , 36-C ) :   1.1332 B( 35-C , 65-H ) :   0.9576
B( 36-C , 37-C ) :   1.4669 B( 36-C , 43-S ) :   1.1533 B( 37-C , 38-C ) :   0.9097
B( 37-C , 41-C ) :   1.2644 B( 38-C , 39-O ) :   2.1290 B( 38-C , 40-O ) :   1.2433
B( 40-O , 66-H ) :   0.9473 B( 41-C , 42-C ) :   1.5689 B( 41-C , 44-C ) :   0.9602
B( 42-C , 43-S ) :   1.1574 B( 42-C , 67-H ) :   0.9732 B( 44-C , 45-C ) :   1.8450
B( 44-C , 68-H ) :   0.9166 B( 45-C , 46-C ) :   0.9282 B( 45-C , 50-C ) :   0.9928
B( 46-C , 47-O ) :   2.2587 B( 46-C , 48-C ) :   1.0307 B( 48-C , 49-C ) :   1.4492
B( 48-C , 58-S ) :   1.1312 B( 49-C , 50-C ) :   1.0222 B( 49-C , 56-C ) :   1.2682
B( 50-C , 51-C ) :   1.6763 B( 51-C , 52-C ) :   1.1292 B( 51-C , 54-C ) :   1.1611
B( 52-C , 53-N ) :   2.9952 B( 54-C , 55-N ) :   2.9819 B( 56-C , 57-C ) :   1.5454
B( 56-C , 69-H ) :   0.9935 B( 57-C , 58-S ) :   1.1886 B( 57-C , 70-H ) :   0.9615

-----------------------------------------------------------------------------
         ABSORPTION SPECTRUM VIA TRANSITION ELECTRIC DIPOLE MOMENTS
-----------------------------------------------------------------------------
State   Energy  Wavelength   fosc         T2         TX        TY        TZ
        (cm-1)    (nm)                  (au**2)     (au)      (au)      (au)
-----------------------------------------------------------------------------
   0   24925.9    401.2   0.807912546  10.67062   1.44190  -1.87311  -2.25456
   1   25937.3    385.5   0.037318583   0.47367   0.67130   0.04725   0.14422
   2   26253.9    380.9   0.626521301   7.85628  -2.03111  -0.07182   1.93021
   3   27352.5    365.6   0.024950050   0.30030  -0.03857  -0.17804   0.51683
   4   28401.1    352.1   0.183442134   2.12637   0.82905  -0.33085  -1.15308
   5   29902.7    334.4   0.321316907   3.53752  -0.58130  -1.76163  -0.31025
   6   30348.8    329.5   0.002688376   0.02916   0.08571  -0.14142   0.04263
   7   30826.2    324.4   0.009639158   0.10294  -0.28943   0.04531  -0.13083
   8   31126.3    321.3   0.067897574   0.71813   0.27714   0.79694   0.07884
   9   31580.2    316.7   0.019792272   0.20633  -0.36691   0.09961  -0.24856
  10   31683.7    315.6   0.037261762   0.38717  -0.59155  -0.18298   0.06128
  11   32633.7    306.4   0.140938209   1.42180   0.30301  -1.03012   0.51850
  12   32681.1    306.0   0.127278888   1.28214   0.36527   1.05916  -0.16401
  13   32764.2    305.2   0.092022234   0.92463  -0.74123   0.28792  -0.54066
  14   33632.8    297.3   0.061574523   0.60272  -0.45876  -0.58505   0.22354
  15   33881.6    295.1   0.309668712   3.00891   1.02370  -1.39705  -0.09595
  16   33994.9    294.2   0.048843634   0.47301  -0.45188   0.50861   0.10068
  17   34537.0    289.5   0.235083207   2.24085  -1.16707  -0.69979   0.62378
  18   34863.5    286.8   0.025871745   0.24430   0.09559   0.42909  -0.22594
  19   35224.6    283.9   0.074175947   0.69325   0.58567  -0.23865  -0.54156
  20   35358.6    282.8   0.034382673   0.32013   0.30683  -0.27800  -0.38561
  21   35768.5    279.6   0.023657983   0.21775  -0.32530   0.28436  -0.17624
  22   36255.7    275.8   0.592821119   5.38298  -2.03297  -0.51935  -0.99008
  23   36717.9    272.3   0.576876239   5.17226   2.08776   0.34628  -0.83282
  24   37126.8    269.3   0.242211455   2.14774  -0.33030  -1.41208  -0.21136
  25   37561.8    266.2   0.073983946   0.64844   0.55075   0.06495  -0.58386
  26   37671.6    265.5   0.041869604   0.36590  -0.01069  -0.60438  -0.02265
  27   38099.3    262.5   0.083088690   0.71796  -0.76708  -0.34523  -0.10179
  28   38398.8    260.4   0.121760500   1.04391   0.74439  -0.66351  -0.22259
  29   38590.5    259.1   0.078113079   0.66637  -0.17336   0.77323  -0.19604
  30   39275.1    254.6   0.003019983   0.02531  -0.02800  -0.09348  -0.12567
  31   39526.4    253.0   0.015111034   0.12586   0.02389  -0.34414   0.08281
  32   39562.2    252.8   0.004010947   0.03338  -0.04971  -0.16772   0.05269
  33   39665.5    252.1   0.023551496   0.19547   0.15995  -0.40943  -0.04745
  34   40082.5    249.5   0.131869282   1.08309  -0.19668   0.85910  -0.55349
  35   40318.0    248.0   0.168569698   1.37644  -0.80274  -0.16150   0.84022

FINAL SINGLE POINT ENERGY     -5135.746240958510

DIPOLE MOMENT
-------------
                                X             Y             Z
Electronic contribution:     -9.52278      -4.70367       8.40490
Nuclear contribution   :      8.31239       4.11597      -9.36078
                        -----------------------------------------
Total Dipole Moment    :     -1.21038      -0.58769      -0.95588
                        -----------------------------------------
Magnitude (a.u.)       :      1.65049
Magnitude (Debye)      :      4.19521

Rotational constants in cm-1:     0.001628     0.000427     0.000371
Rotational constants in MHz :    48.804393    12.797451    11.109813

                             ****ORCA TERMINATED NORMALLY****
TOTAL RUN TIME: 0 days 0 hours 5 minutes 58 seconds 259 msec
