                         Program Version 4.2.0 -  RELEASE  -
|  1> # ORCA input file
|  2> # SCF done       -196.028233459916          0.000986324573
|  3> ! CAM-B3LYP def2-SVP def2/J RIJCOSX Grid4 TightSCF
|  4> %maxcore 5000
|  5> %tddft
|  6>     Mode sTDDFT
|  7>     Ethresh 5.0
|  8>     maxcore 5000
|  9> end
| 10>
| 11> %pal
| 12>   nprocs 6
| 13>   end
| 14> * xyz 0 1
| 15>    C      -11.83101         0.68326        -3.95296
| 16>    O      -10.63114         0.80262        -3.97814
| 17>    C      -12.62290        -0.56997        -3.90568
| 18>    C      -13.96237        -0.30175        -4.23945
| 19>    C      -14.90872        -1.31472        -4.22359
| 20>    C      -14.49438        -2.58502        -3.85633
| 21>    C      -13.16690        -2.86799        -3.53790
| 22>    C      -12.21198        -1.85245        -3.58561
| 23>    F      -10.94459        -2.12658        -3.30816
| 24>    F      -12.81867        -4.10529        -3.17105
| 25>    F      -15.39102        -3.57317        -3.79945
| 26>    C      -14.10570         1.12313        -4.53503
| 27>    C      -15.23586         1.73366        -5.00502
| 28>    C      -16.44477         1.06096        -5.28910
| 29>    N      -17.45158         0.57229        -5.54016
| 30>    C      -15.33875         3.11124        -5.29831
| 31>    N      -15.48590         4.22004        -5.55416
| 32>    C      -12.84502         1.75877        -4.20262
| 33>    C      -12.54872         3.08337        -4.14149
| 34>    C      -11.40630         3.57656        -3.45144
| 35>    C      -10.67063         4.82003        -3.70825
| 36>    N       -9.74882         5.08326        -2.82923
| 37>    C       -9.81147         4.07621        -1.91274
| 38>    C      -10.82164         3.08397        -2.30516
| 39>    C      -10.99054         2.10482        -1.26116
| 40>    S      -12.14037         0.92004        -1.23496
| 41>    C      -10.05468         2.49531        -0.24566
| 42>    C       -9.33591         3.70832        -0.68031
| 43>    N       -8.46738         4.12196         0.28215
| 44>    C       -8.62468         3.30330         1.27752
| 45>    C       -9.63282         2.25507         1.05233
| 46>    C      -10.01322         1.23545         1.95910
| 47>    S      -10.78940        -0.19121         1.34870
| 48>    C      -10.90967        -0.86714         2.94012
| 49>    C      -10.36938        -0.00438         3.89986
| 50>    C       -9.85527         1.17044         3.34843
| 51>    C       -9.23213         2.23728         4.19280
| 52>    C       -9.58135         2.04812         5.66525
| 53>    C       -9.31162         0.60631         6.08986
| 54>    O       -9.46179         0.53841         7.49023
| 55>    C       -8.95886        -0.63010         8.08969
| 56>    C      -10.29883        -0.31833         5.35943
| 57>    C      -11.50262        -2.14306         3.10784
| 58>    C      -12.13174        -2.67915         4.32738
| 59>    N      -12.60458        -3.88089         4.20339
| 60>    C      -12.33079        -4.25785         2.92198
| 61>    C      -11.68375        -3.15810         2.18630
| 62>    C      -11.33926        -3.59413         0.86025
| 63>    S      -10.53172        -2.79215        -0.32479
| 64>    C      -11.79121        -4.96567         0.81059
| 65>    C      -12.40312        -5.34655         2.09311
| 66>    N      -12.78979        -6.65242         2.06798
| 67>    C      -12.40167        -7.11294         0.91771
| 68>    C      -11.73267        -6.11722         0.06312
| 69>    C      -11.21549        -6.33366        -1.24386
| 70>    C      -10.68311        -7.48764        -1.71698
| 71>    C      -10.54476        -7.71487        -3.18653
| 72>    O      -10.62015        -6.89135        -4.05740
| 73>    C      -10.34544        -9.18207        -3.31273
| 74>    C      -10.22378        -9.76199        -2.03499
| 75>    C      -10.28087        -8.69945        -1.03179
| 76>    C       -9.81797        -8.78245         0.25288
| 77>    C       -9.37917        -9.98170         0.85516
| 78>    N       -9.03653       -10.93750         1.38803
| 79>    C       -9.62295        -7.65715         1.08512
| 80>    N       -9.37225        -6.77282         1.77166
| 81>    C      -10.05790       -11.12849        -1.88798
| 82>    C      -10.01139       -11.90541        -3.03652
| 83>    C      -10.11821       -11.34865        -4.31090
| 84>    C      -10.28794        -9.96890        -4.45086
| 85>    F      -10.39372        -9.44429        -5.66465
| 86>    F      -10.06124       -12.12979        -5.38955
| 87>    F       -9.86213       -13.22463        -2.92202
| 88>    H      -15.94580        -1.15579        -4.46847
| 89>    H      -13.22099         3.82497        -4.55280
| 90>    H      -10.82886         5.46664        -4.55356
| 91>    H       -8.00197         3.39596         2.14735
| 92>    H       -9.56455         3.22196         3.85844
| 93>    H       -8.14437         2.18986         4.07714
| 94>    H      -10.63401         2.27233         5.84148
| 95>    H       -8.98773         2.72076         6.28345
| 96>    H       -8.27958         0.32759         5.81456
| 97>    H       -9.00977        -0.46445         9.16380
| 98>    H       -7.91666        -0.80790         7.79851
| 99>    H       -9.55363        -1.51451         7.83633
|100>    H      -11.28123        -0.16654         5.81862
|101>    H      -10.01548        -1.36406         5.49737
|102>    H      -12.26889        -2.14351         5.24832
|103>    H      -12.63118        -8.12337         0.62619
|104>    H      -11.30628        -5.51837        -1.95271
|105>    H       -9.97337       -11.60957        -0.92725
|106> *
|107>
|108>                          ****END OF INPUT****

CARTESIAN COORDINATES (ANGSTROEM)
---------------------------------
  C    -11.831010    0.683260   -3.952960
  O    -10.631140    0.802620   -3.978140
  C    -12.622900   -0.569970   -3.905680
  C    -13.962370   -0.301750   -4.239450
  C    -14.908720   -1.314720   -4.223590
  C    -14.494380   -2.585020   -3.856330
  C    -13.166900   -2.867990   -3.537900
  C    -12.211980   -1.852450   -3.585610
  F    -10.944590   -2.126580   -3.308160
  F    -12.818670   -4.105290   -3.171050
  F    -15.391020   -3.573170   -3.799450
  C    -14.105700    1.123130   -4.535030
  C    -15.235860    1.733660   -5.005020
  C    -16.444770    1.060960   -5.289100
  N    -17.451580    0.572290   -5.540160
  C    -15.338750    3.111240   -5.298310
  N    -15.485900    4.220040   -5.554160
  C    -12.845020    1.758770   -4.202620
  C    -12.548720    3.083370   -4.141490
  C    -11.406300    3.576560   -3.451440
  C    -10.670630    4.820030   -3.708250
  N     -9.748820    5.083260   -2.829230
  C     -9.811470    4.076210   -1.912740
  C    -10.821640    3.083970   -2.305160
  C    -10.990540    2.104820   -1.261160
  S    -12.140370    0.920040   -1.234960
  C    -10.054680    2.495310   -0.245660
  C     -9.335910    3.708320   -0.680310
  N     -8.467380    4.121960    0.282150
  C     -8.624680    3.303300    1.277520
  C     -9.632820    2.255070    1.052330
  C    -10.013220    1.235450    1.959100
  S    -10.789400   -0.191210    1.348700
  C    -10.909670   -0.867140    2.940120
  C    -10.369380   -0.004380    3.899860
  C     -9.855270    1.170440    3.348430
  C     -9.232130    2.237280    4.192800
  C     -9.581350    2.048120    5.665250
  C     -9.311620    0.606310    6.089860
  O     -9.461790    0.538410    7.490230
  C     -8.958860   -0.630100    8.089690
  C    -10.298830   -0.318330    5.359430
  C    -11.502620   -2.143060    3.107840
  C    -12.131740   -2.679150    4.327380
  N    -12.604580   -3.880890    4.203390
  C    -12.330790   -4.257850    2.921980
  C    -11.683750   -3.158100    2.186300
  C    -11.339260   -3.594130    0.860250
  S    -10.531720   -2.792150   -0.324790
  C    -11.791210   -4.965670    0.810590
  C    -12.403120   -5.346550    2.093110
  N    -12.789790   -6.652420    2.067980
  C    -12.401670   -7.112940    0.917710
  C    -11.732670   -6.117220    0.063120
  C    -11.215490   -6.333660   -1.243860
  C    -10.683110   -7.487640   -1.716980
  C    -10.544760   -7.714870   -3.186530
  O    -10.620150   -6.891350   -4.057400
  C    -10.345440   -9.182070   -3.312730
  C    -10.223780   -9.761990   -2.034990
  C    -10.280870   -8.699450   -1.031790
  C     -9.817970   -8.782450    0.252880
  C     -9.379170   -9.981700    0.855160
  N     -9.036530  -10.937500    1.388030
  C     -9.622950   -7.657150    1.085120
  N     -9.372250   -6.772820    1.771660
  C    -10.057900  -11.128490   -1.887980
  C    -10.011390  -11.905410   -3.036520
  C    -10.118210  -11.348650   -4.310900
  C    -10.287940   -9.968900   -4.450860
  F    -10.393720   -9.444290   -5.664650
  F    -10.061240  -12.129790   -5.389550
  F     -9.862130  -13.224630   -2.922020
  H    -15.945800   -1.155790   -4.468470
  H    -13.220990    3.824970   -4.552800
  H    -10.828860    5.466640   -4.553560
  H     -8.001970    3.395960    2.147350
  H     -9.564550    3.221960    3.858440
  H     -8.144370    2.189860    4.077140
  H    -10.634010    2.272330    5.841480
  H     -8.987730    2.720760    6.283450
  H     -8.279580    0.327590    5.814560
  H     -9.009770   -0.464450    9.163800
  H     -7.916660   -0.807900    7.798510
  H     -9.553630   -1.514510    7.836330
  H    -11.281230   -0.166540    5.818620
  H    -10.015480   -1.364060    5.497370
  H    -12.268890   -2.143510    5.248320
  H    -12.631180   -8.123370    0.626190
  H    -11.306280   -5.518370   -1.952710
  H     -9.973370  -11.609570   -0.927250

 Total Charge           Charge          ....    0
 Multiplicity           Mult            ....    1
 Number of Electrons    NEL             ....  518
 Basis Dimension        Dim             .... 1124

ORBITAL ENERGIES
----------------

  NO   OCC          E(Eh)            E(eV)
   0   2.0000     -88.972409     -2421.0623
   1   2.0000     -88.923427     -2419.7295
   2   2.0000     -88.914909     -2419.4977
   3   2.0000     -24.820690      -675.4053
   4   2.0000     -24.820618      -675.4033
   5   2.0000     -24.820026      -675.3872
   6   2.0000     -24.818726      -675.3519
   7   2.0000     -24.813566      -675.2115
   8   2.0000     -24.812891      -675.1931
   9   2.0000     -19.234693      -523.4026
  10   2.0000     -19.222999      -523.0844
  11   2.0000     -19.221933      -523.0554
  12   2.0000     -14.435307      -392.8047
  13   2.0000     -14.433459      -392.7544
  14   2.0000     -14.433256      -392.7489
  15   2.0000     -14.431348      -392.6969
  16   2.0000     -14.430085      -392.6626
  17   2.0000     -14.428574      -392.6215
  18   2.0000     -14.428069      -392.6077
  19   2.0000     -14.427594      -392.5948
  20   2.0000     -10.410116      -283.2737
  21   2.0000     -10.407553      -283.2039
  22   2.0000     -10.404955      -283.1332
  23   2.0000     -10.401985      -283.0524
  24   2.0000     -10.400584      -283.0143
  25   2.0000     -10.399794      -282.9928
  26   2.0000     -10.390191      -282.7315
  27   2.0000     -10.385043      -282.5914
  28   2.0000     -10.369082      -282.1571
  29   2.0000     -10.364482      -282.0319
  30   2.0000     -10.360483      -281.9231
  31   2.0000     -10.359560      -281.8980
  32   2.0000     -10.357528      -281.8427
  33   2.0000     -10.355315      -281.7825
  34   2.0000     -10.353394      -281.7302
  35   2.0000     -10.352153      -281.6964
  36   2.0000     -10.349014      -281.6110
  37   2.0000     -10.348747      -281.6037
  38   2.0000     -10.347564      -281.5715
  39   2.0000     -10.346530      -281.5434
  40   2.0000     -10.343545      -281.4622
  41   2.0000     -10.343442      -281.4594
  42   2.0000     -10.340303      -281.3739
  43   2.0000     -10.336392      -281.2675
  44   2.0000     -10.334772      -281.2234
  45   2.0000     -10.333254      -281.1821
  46   2.0000     -10.332548      -281.1629
  47   2.0000     -10.332054      -281.1495
  48   2.0000     -10.331679      -281.1393
  49   2.0000     -10.330871      -281.1173
  50   2.0000     -10.329902      -281.0909
  51   2.0000     -10.328050      -281.0405
  52   2.0000     -10.326930      -281.0100
  53   2.0000     -10.324804      -280.9522
  54   2.0000     -10.324317      -280.9389
  55   2.0000     -10.323608      -280.9197
  56   2.0000     -10.322510      -280.8898
  57   2.0000     -10.321555      -280.8638
  58   2.0000     -10.319696      -280.8132
  59   2.0000     -10.319363      -280.8041
  60   2.0000     -10.318575      -280.7827
  61   2.0000     -10.317884      -280.7639
  62   2.0000     -10.316974      -280.7391
  63   2.0000     -10.316565      -280.7280
  64   2.0000     -10.315927      -280.7106
  65   2.0000     -10.315587      -280.7014
  66   2.0000     -10.311167      -280.5811
  67   2.0000     -10.309643      -280.5396
  68   2.0000     -10.303625      -280.3759
  69   2.0000     -10.303191      -280.3641
  70   2.0000     -10.294911      -280.1388
  71   2.0000     -10.290402      -280.0161
  72   2.0000     -10.278322      -279.6874
  73   2.0000      -8.066660      -219.5050
  74   2.0000      -8.018552      -218.1959
  75   2.0000      -8.010326      -217.9721
  76   2.0000      -6.035666      -164.2388
  77   2.0000      -6.031514      -164.1258
  78   2.0000      -6.029104      -164.0603
  79   2.0000      -5.987198      -162.9200
  80   2.0000      -5.986585      -162.9033
  81   2.0000      -5.979296      -162.7049
  82   2.0000      -5.978829      -162.6922
  83   2.0000      -5.978515      -162.6837
  84   2.0000      -5.969408      -162.4358
  85   2.0000      -1.348392       -36.6916
  86   2.0000      -1.343964       -36.5711
  87   2.0000      -1.337716       -36.4011
  88   2.0000      -1.330974       -36.2176
  89   2.0000      -1.326623       -36.0993
  90   2.0000      -1.322043       -35.9746
  91   2.0000      -1.153345       -31.3841
  92   2.0000      -1.142966       -31.1017
  93   2.0000      -1.126221       -30.6460
  94   2.0000      -1.100168       -29.9371
  95   2.0000      -1.099683       -29.9239
  96   2.0000      -1.080746       -29.4086
  97   2.0000      -1.080172       -29.3930
  98   2.0000      -1.041292       -28.3350
  99   2.0000      -1.034247       -28.1433
 100   2.0000      -1.021649       -27.8005
 101   2.0000      -1.015971       -27.6460
 102   2.0000      -1.012581       -27.5537
 103   2.0000      -1.011111       -27.5137
 104   2.0000      -1.007317       -27.4105
 105   2.0000      -0.981210       -26.7001
 106   2.0000      -0.979311       -26.6484
 107   2.0000      -0.978099       -26.6154
 108   2.0000      -0.971616       -26.4390
 109   2.0000      -0.933070       -25.3901
 110   2.0000      -0.930337       -25.3158
 111   2.0000      -0.928555       -25.2673
 112   2.0000      -0.925106       -25.1734
 113   2.0000      -0.918835       -25.0028
 114   2.0000      -0.912117       -24.8200
 115   2.0000      -0.889119       -24.1942
 116   2.0000      -0.886917       -24.1342
 117   2.0000      -0.882829       -24.0230
 118   2.0000      -0.874590       -23.7988
 119   2.0000      -0.872412       -23.7395
 120   2.0000      -0.864749       -23.5310
 121   2.0000      -0.857366       -23.3301
 122   2.0000      -0.855284       -23.2735
 123   2.0000      -0.845047       -22.9949
 124   2.0000      -0.815161       -22.1817
 125   2.0000      -0.812688       -22.1144
 126   2.0000      -0.805813       -21.9273
 127   2.0000      -0.796235       -21.6667
 128   2.0000      -0.791775       -21.5453
 129   2.0000      -0.786101       -21.3909
 130   2.0000      -0.781322       -21.2608
 131   2.0000      -0.776500       -21.1296
 132   2.0000      -0.760556       -20.6958
 133   2.0000      -0.752799       -20.4847
 134   2.0000      -0.742201       -20.1963
 135   2.0000      -0.737033       -20.0557
 136   2.0000      -0.732987       -19.9456
 137   2.0000      -0.730622       -19.8812
 138   2.0000      -0.727763       -19.8035
 139   2.0000      -0.720677       -19.6106
 140   2.0000      -0.717261       -19.5177
 141   2.0000      -0.706968       -19.2376
 142   2.0000      -0.704620       -19.1737
 143   2.0000      -0.699893       -19.0451
 144   2.0000      -0.688756       -18.7420
 145   2.0000      -0.682751       -18.5786
 146   2.0000      -0.678329       -18.4583
 147   2.0000      -0.670242       -18.2382
 148   2.0000      -0.669435       -18.2162
 149   2.0000      -0.663970       -18.0676
 150   2.0000      -0.662241       -18.0205
 151   2.0000      -0.659107       -17.9352
 152   2.0000      -0.653280       -17.7767
 153   2.0000      -0.645685       -17.5700
 154   2.0000      -0.644689       -17.5429
 155   2.0000      -0.641382       -17.4529
 156   2.0000      -0.632225       -17.2037
 157   2.0000      -0.627703       -17.0807
 158   2.0000      -0.621893       -16.9226
 159   2.0000      -0.618214       -16.8224
 160   2.0000      -0.614133       -16.7114
 161   2.0000      -0.612183       -16.6583
 162   2.0000      -0.609588       -16.5877
 163   2.0000      -0.602493       -16.3947
 164   2.0000      -0.596827       -16.2405
 165   2.0000      -0.594175       -16.1683
 166   2.0000      -0.590881       -16.0787
 167   2.0000      -0.588484       -16.0135
 168   2.0000      -0.586151       -15.9500
 169   2.0000      -0.582584       -15.8529
 170   2.0000      -0.581126       -15.8132
 171   2.0000      -0.576340       -15.6830
 172   2.0000      -0.574105       -15.6222
 173   2.0000      -0.565034       -15.3753
 174   2.0000      -0.564330       -15.3562
 175   2.0000      -0.563721       -15.3396
 176   2.0000      -0.561752       -15.2860
 177   2.0000      -0.560126       -15.2418
 178   2.0000      -0.559818       -15.2334
 179   2.0000      -0.556288       -15.1374
 180   2.0000      -0.554854       -15.0983
 181   2.0000      -0.551666       -15.0116
 182   2.0000      -0.548194       -14.9171
 183   2.0000      -0.547549       -14.8996
 184   2.0000      -0.545123       -14.8335
 185   2.0000      -0.541560       -14.7366
 186   2.0000      -0.539480       -14.6800
 187   2.0000      -0.537775       -14.6336
 188   2.0000      -0.535831       -14.5807
 189   2.0000      -0.533461       -14.5162
 190   2.0000      -0.526214       -14.3190
 191   2.0000      -0.525127       -14.2894
 192   2.0000      -0.521799       -14.1989
 193   2.0000      -0.518459       -14.1080
 194   2.0000      -0.514935       -14.0121
 195   2.0000      -0.513681       -13.9780
 196   2.0000      -0.511388       -13.9156
 197   2.0000      -0.509966       -13.8769
 198   2.0000      -0.507738       -13.8163
 199   2.0000      -0.506417       -13.7803
 200   2.0000      -0.505771       -13.7627
 201   2.0000      -0.502462       -13.6727
 202   2.0000      -0.499761       -13.5992
 203   2.0000      -0.498715       -13.5707
 204   2.0000      -0.494579       -13.4582
 205   2.0000      -0.491934       -13.3862
 206   2.0000      -0.488868       -13.3028
 207   2.0000      -0.487185       -13.2570
 208   2.0000      -0.485239       -13.2040
 209   2.0000      -0.482876       -13.1397
 210   2.0000      -0.481779       -13.1099
 211   2.0000      -0.478014       -13.0074
 212   2.0000      -0.468701       -12.7540
 213   2.0000      -0.467077       -12.7098
 214   2.0000      -0.465953       -12.6792
 215   2.0000      -0.463650       -12.6166
 216   2.0000      -0.461137       -12.5482
 217   2.0000      -0.460847       -12.5403
 218   2.0000      -0.458727       -12.4826
 219   2.0000      -0.455905       -12.4058
 220   2.0000      -0.455860       -12.4046
 221   2.0000      -0.452480       -12.3126
 222   2.0000      -0.449365       -12.2278
 223   2.0000      -0.443920       -12.0797
 224   2.0000      -0.443536       -12.0692
 225   2.0000      -0.439639       -11.9632
 226   2.0000      -0.438653       -11.9364
 227   2.0000      -0.436950       -11.8900
 228   2.0000      -0.434786       -11.8311
 229   2.0000      -0.432749       -11.7757
 230   2.0000      -0.428817       -11.6687
 231   2.0000      -0.423060       -11.5121
 232   2.0000      -0.422843       -11.5061
 233   2.0000      -0.421396       -11.4668
 234   2.0000      -0.420033       -11.4297
 235   2.0000      -0.396173       -10.7804
 236   2.0000      -0.391118       -10.6429
 237   2.0000      -0.386801       -10.5254
 238   2.0000      -0.384885       -10.4732
 239   2.0000      -0.372958       -10.1487
 240   2.0000      -0.368973       -10.0403
 241   2.0000      -0.366241        -9.9659
 242   2.0000      -0.365651        -9.9499
 243   2.0000      -0.358175        -9.7464
 244   2.0000      -0.355413        -9.6713
 245   2.0000      -0.352570        -9.5939
 246   2.0000      -0.349650        -9.5145
 247   2.0000      -0.344974        -9.3872
 248   2.0000      -0.341724        -9.2988
 249   2.0000      -0.338077        -9.1995
 250   2.0000      -0.337396        -9.1810
 251   2.0000      -0.332828        -9.0567
 252   2.0000      -0.330350        -8.9893
 253   2.0000      -0.326155        -8.8751
 254   2.0000      -0.314210        -8.5501
 255   2.0000      -0.311231        -8.4690
 256   2.0000      -0.292486        -7.9590
 257   2.0000      -0.289866        -7.8876
 258   2.0000      -0.275963        -7.5093
 259   0.0000      -0.136357        -3.7105
 260   0.0000      -0.128193        -3.4883
 261   0.0000      -0.111796        -3.0421
 262   0.0000      -0.103022        -2.8034
 263   0.0000      -0.088399        -2.4055

MULLIKEN ATOMIC CHARGES
-----------------------
   0 C :    0.077091
   1 O :   -0.119057
   2 C :   -0.056438
   3 C :    0.072534
   4 C :   -0.106130
   5 C :    0.242109
   6 C :    0.155609
   7 C :    0.167031
   8 F :   -0.130478
   9 F :   -0.151151
  10 F :   -0.160507
  11 C :    0.295965
  12 C :   -0.335618
  13 C :   -0.188238
  14 N :    0.164542
  15 C :   -0.181759
  16 N :    0.158931
  17 C :   -0.035781
  18 C :   -0.024215
  19 C :    0.000255
  20 C :    0.071364
  21 N :   -0.023636
  22 C :    0.013572
  23 C :    0.016756
  24 C :    0.020077
  25 S :   -0.106784
  26 C :   -0.040883
  27 C :    0.010822
  28 N :   -0.016657
  29 C :    0.052958
  30 C :    0.003332
  31 C :   -0.139322
  32 S :    0.245923
  33 C :   -0.130144
  34 C :   -0.073046
  35 C :   -0.097064
  36 C :    0.087368
  37 C :    0.089222
  38 C :    0.080132
  39 O :   -0.369883
  40 C :    0.189532
  41 C :    0.134917
  42 C :   -0.008207
  43 C :    0.054029
  44 N :   -0.016739
  45 C :    0.012433
  46 C :   -0.029506
  47 C :   -0.020282
  48 S :   -0.088100
  49 C :    0.059267
  50 C :    0.024870
  51 N :   -0.009817
  52 C :    0.062762
  53 C :   -0.075919
  54 C :    0.040446
  55 C :   -0.121938
  56 C :    0.137616
  57 O :   -0.097405
  58 C :   -0.073342
  59 C :    0.048861
  60 C :    0.244226
  61 C :   -0.327029
  62 C :   -0.180445
  63 N :    0.173775
  64 C :   -0.185874
  65 N :    0.178075
  66 C :   -0.095612
  67 C :    0.235565
  68 C :    0.156398
  69 C :    0.159807
  70 F :   -0.133900
  71 F :   -0.148824
  72 F :   -0.155123
  73 H :    0.015676
  74 H :    0.028160
  75 H :    0.017985
  76 H :    0.012961
  77 H :    0.025489
  78 H :    0.031834
  79 H :    0.010152
  80 H :    0.013132
  81 H :   -0.011738
  82 H :    0.034294
  83 H :    0.002283
  84 H :    0.006184
  85 H :    0.029206
  86 H :    0.020650
  87 H :    0.012300
  88 H :    0.019244
  89 H :    0.029980
  90 H :    0.018888
Sum of atomic charges:   -0.0000000

LOEWDIN ATOMIC CHARGES
----------------------
   0 C :    0.058541
   1 O :   -0.130489
   2 C :   -0.076338
   3 C :   -0.004408
   4 C :   -0.029523
   5 C :    0.079146
   6 C :    0.043803
   7 C :    0.081121
   8 F :   -0.014428
   9 F :   -0.030029
  10 F :   -0.038265
  11 C :    0.073857
  12 C :   -0.125329
  13 C :   -0.020654
  14 N :   -0.039080
  15 C :   -0.017686
  16 N :   -0.040433
  17 C :   -0.059966
  18 C :    0.048999
  19 C :   -0.042733
  20 C :    0.094260
  21 N :   -0.074799
  22 C :    0.036820
  23 C :   -0.000482
  24 C :   -0.127834
  25 S :    0.117204
  26 C :   -0.051226
  27 C :    0.049534
  28 N :   -0.068639
  29 C :    0.091849
  30 C :   -0.042331
  31 C :   -0.181688
  32 S :    0.531991
  33 C :   -0.176932
  34 C :   -0.045830
  35 C :   -0.044851
  36 C :   -0.029623
  37 C :   -0.024527
  38 C :    0.068029
  39 O :   -0.167235
  40 C :    0.069025
  41 C :   -0.041232
  42 C :   -0.047878
  43 C :    0.091711
  44 N :   -0.071425
  45 C :    0.051565
  46 C :   -0.045985
  47 C :   -0.150355
  48 S :    0.086011
  49 C :    0.005732
  50 C :    0.037122
  51 N :   -0.069549
  52 C :    0.085254
  53 C :   -0.059252
  54 C :    0.080738
  55 C :   -0.077873
  56 C :    0.084523
  57 O :   -0.107808
  58 C :   -0.081815
  59 C :   -0.004020
  60 C :    0.063222
  61 C :   -0.121113
  62 C :   -0.021390
  63 N :   -0.031839
  64 C :   -0.019168
  65 N :   -0.032699
  66 C :   -0.030165
  67 C :    0.081957
  68 C :    0.041922
  69 C :    0.088015
  70 F :   -0.017151
  71 F :   -0.029387
  72 F :   -0.032412
  73 H :    0.052431
  74 H :    0.047314
  75 H :    0.030604
  76 H :    0.027680
  77 H :    0.035289
  78 H :    0.034086
  79 H :    0.027807
  80 H :    0.031394
  81 H :    0.006781
  82 H :    0.026411
  83 H :    0.008268
  84 H :    0.004720
  85 H :    0.036669
  86 H :    0.031383
  87 H :    0.027630
  88 H :    0.026111
  89 H :    0.048293
  90 H :    0.053057

  Mayer bond orders larger than 0.100000
B(  0-C ,  1-O ) :   2.2817 B(  0-C ,  2-C ) :   0.9051 B(  0-C , 17-C ) :   0.8942
B(  0-C , 25-S ) :   0.1000 B(  2-C ,  3-C ) :   1.3557 B(  2-C ,  7-C ) :   1.2601
B(  3-C ,  4-C ) :   1.3127 B(  3-C , 11-C ) :   1.0190 B(  4-C ,  5-C ) :   1.3414
B(  4-C , 73-H ) :   0.9978 B(  5-C ,  6-C ) :   1.2956 B(  5-C , 10-F ) :   1.1485
B(  6-C ,  7-C ) :   1.2659 B(  6-C ,  9-F ) :   1.1342 B(  7-C ,  8-F ) :   1.2467
B( 11-C , 12-C ) :   1.6516 B( 11-C , 17-C ) :   1.0756 B( 12-C , 13-C ) :   1.1318
B( 12-C , 15-C ) :   1.1457 B( 13-C , 14-N ) :   2.9817 B( 15-C , 16-N ) :   2.9691
B( 17-C , 18-C ) :   1.6745 B( 18-C , 19-C ) :   1.0839 B( 18-C , 74-H ) :   0.9356
B( 19-C , 20-C ) :   1.0263 B( 19-C , 23-C ) :   1.5250 B( 20-C , 21-N ) :   1.7167
B( 20-C , 75-H ) :   0.9953 B( 21-N , 22-C ) :   1.2797 B( 22-C , 23-C ) :   1.0718
B( 22-C , 27-C ) :   1.5089 B( 23-C , 24-C ) :   1.0476 B( 24-C , 25-S ) :   1.6302
B( 24-C , 26-C ) :   1.0696 B( 26-C , 27-C ) :   1.0714 B( 26-C , 30-C ) :   1.4985
B( 27-C , 28-N ) :   1.2661 B( 28-N , 29-C ) :   1.7282 B( 29-C , 30-C ) :   1.0239
B( 29-C , 76-H ) :   0.9883 B( 30-C , 31-C ) :   1.1322 B( 31-C , 32-S ) :   1.1572
B( 31-C , 33-C ) :   0.1076 B( 31-C , 35-C ) :   1.4191 B( 32-S , 33-C ) :   1.1653
B( 33-C , 34-C ) :   1.4197 B( 33-C , 42-C ) :   1.1163 B( 34-C , 35-C ) :   1.3981
B( 34-C , 41-C ) :   1.0386 B( 35-C , 36-C ) :   1.0405 B( 36-C , 37-C ) :   1.0734
B( 36-C , 77-H ) :   0.9154 B( 36-C , 78-H ) :   0.9020 B( 37-C , 38-C ) :   1.0331
B( 37-C , 79-H ) :   0.9362 B( 37-C , 80-H ) :   0.9274 B( 38-C , 39-O ) :   1.0535
B( 38-C , 41-C ) :   1.0342 B( 38-C , 81-H ) :   0.9347 B( 39-O , 40-C ) :   0.9878
B( 40-C , 82-H ) :   0.9826 B( 40-C , 83-H ) :   0.9635 B( 40-C , 84-H ) :   0.9669
B( 41-C , 85-H ) :   0.8832 B( 41-C , 86-H ) :   0.9080 B( 42-C , 43-C ) :   1.0223
B( 42-C , 46-C ) :   1.5216 B( 43-C , 44-N ) :   1.7296 B( 43-C , 87-H ) :   0.9889
B( 44-N , 45-C ) :   1.2634 B( 45-C , 46-C ) :   1.0693 B( 45-C , 50-C ) :   1.5093
B( 46-C , 47-C ) :   1.0379 B( 47-C , 48-S ) :   1.7012 B( 47-C , 49-C ) :   1.0154
B( 49-C , 50-C ) :   1.0700 B( 49-C , 53-C ) :   1.5611 B( 50-C , 51-N ) :   1.2610
B( 51-N , 52-C ) :   1.7452 B( 52-C , 53-C ) :   1.0065 B( 52-C , 88-H ) :   0.9893
B( 53-C , 54-C ) :   1.0324 B( 54-C , 55-C ) :   1.6979 B( 54-C , 89-H ) :   0.9467
B( 55-C , 56-C ) :   0.9295 B( 55-C , 60-C ) :   1.0327 B( 56-C , 57-O ) :   2.3308
B( 56-C , 58-C ) :   0.9029 B( 58-C , 59-C ) :   1.3505 B( 58-C , 69-C ) :   1.2750
B( 59-C , 60-C ) :   1.0247 B( 59-C , 66-C ) :   1.3281 B( 60-C , 61-C ) :   1.6701
B( 61-C , 62-C ) :   1.1267 B( 61-C , 64-C ) :   1.1548 B( 62-C , 63-N ) :   2.9972
B( 64-C , 65-N ) :   3.0035 B( 66-C , 67-C ) :   1.3276 B( 66-C , 90-H ) :   1.0017
B( 67-C , 68-C ) :   1.2922 B( 67-C , 72-F ) :   1.1503 B( 68-C , 69-C ) :   1.2614
B( 68-C , 71-F ) :   1.1776 B( 69-C , 70-F ) :   1.2503

-----------------------------------------------------------------------------
         ABSORPTION SPECTRUM VIA TRANSITION ELECTRIC DIPOLE MOMENTS
-----------------------------------------------------------------------------
State   Energy  Wavelength   fosc         T2         TX        TY        TZ
        (cm-1)    (nm)                  (au**2)     (au)      (au)      (au)
-----------------------------------------------------------------------------
   0   13094.4    763.7   0.031249788   0.78566   0.01378   0.82592  -0.32144
   1   13511.4    740.1   0.119850223   2.92022   0.23872  -1.52954   0.72369
   2   13937.2    717.5   0.061541541   1.45368  -0.23871  -1.15796   0.23626
   3   14671.0    681.6   0.038988020   0.87487   0.03901   0.81745   0.45291
   4   15306.0    653.3   0.005308822   0.11419  -0.03131  -0.33621   0.01289
   5   15723.4    636.0   0.003731820   0.07814   0.08415   0.20259   0.17325
   6   18867.2    530.0   0.314150872   5.48160  -0.33614   1.90594  -1.31757
   7   19432.2    514.6   0.012036707   0.20392   0.28642   0.30081   0.17719
   8   19564.5    511.1   0.019107244   0.32152  -0.31530  -0.21499  -0.41938
   9   20130.3    496.8   0.017548431   0.28699   0.28191  -0.14628  -0.43141
  10   21144.6    472.9   0.002234746   0.03479   0.04526  -0.17487  -0.04656
  11   21368.7    468.0   0.061769175   0.95163  -0.34745  -0.52740  -0.74348
  12   22567.3    443.1   0.013978643   0.20392   0.19780  -0.26233   0.30980
  13   22721.8    440.1   0.026488730   0.38379   0.38264   0.22988   0.42957
  14   22734.9    439.9   0.123302367   1.78548  -0.67531   0.27298  -1.12023
  15   23584.1    424.0   0.102786897   1.43481  -0.11948   0.98415   0.67230
  16   23946.9    417.6   0.034065789   0.46832   0.53808   0.13822   0.39961
  17   24743.0    404.2   0.025668381   0.34152   0.36551  -0.45596  -0.00517
  18   24868.6    402.1   0.174557447   2.31080   0.65598  -1.34498  -0.26742
  19   24921.9    401.3   0.054820208   0.72416   0.30288   0.75322   0.25511
  20   25056.5    399.1   0.105433373   1.38527   0.33014  -1.07304  -0.35336
  21   25701.3    389.1   0.090515082   1.15942   0.74726   0.09752   0.76910
  22   25832.3    387.1   0.006352146   0.08095   0.18662   0.08999   0.19501
  23   25932.5    385.6   0.021536686   0.27341  -0.07199   0.51778   0.01144
  24   26250.6    380.9   0.016095393   0.20185  -0.37627   0.11679  -0.21596
  25   26462.0    377.9   0.039540039   0.49191   0.23345  -0.65988  -0.04441
  26   26497.2    377.4   0.021975273   0.27303  -0.07189   0.44603   0.26252
  27   26997.2    370.4   0.008421027   0.10269   0.24827  -0.18076   0.09153
  28   27359.3    365.5   0.026551516   0.31949  -0.19130   0.02966  -0.53105
  29   27683.0    361.2   0.017545618   0.20866   0.14091  -0.02451   0.43382
  30   27807.3    359.6   0.055219028   0.65374   0.60712   0.33661   0.41454
  31   28050.8    356.5   0.127829887   1.50025   0.19118  -1.13328  -0.42353
  32   28329.4    353.0   0.012104131   0.14066  -0.18140   0.32820   0.00656
  33   28510.1    350.8   0.037277622   0.43045   0.34503   0.37043   0.41736
  34   28821.3    347.0   0.072469165   0.82778   0.02333  -0.77945  -0.46872
  35   29037.1    344.4   0.040214322   0.45594  -0.43935  -0.38405  -0.33972
  36   29242.7    342.0   0.020340396   0.22899  -0.34026  -0.23872  -0.23713
  37   29427.6    339.8   0.008267218   0.09249  -0.19347  -0.08969   0.21682
  38   29656.5    337.2   0.097128177   1.07820  -0.72363  -0.65016  -0.36311
  39   29954.1    333.8   0.229813214   2.52577  -0.67413  -0.89072  -1.13046
  40   30341.0    329.6   0.135540271   1.47067  -0.35171  -0.84335  -0.79732
  41   30366.4    329.3   0.042962801   0.46577  -0.66467  -0.13127   0.08221
  42   30596.4    326.8   0.025969060   0.27942  -0.27108   0.11021   0.44022
  43   30765.8    325.0   0.040166846   0.42981   0.29052   0.23950   0.53670
  44   31022.0    322.4   0.078298678   0.83092  -0.65549  -0.56080  -0.29455
  45   31249.2    320.0   0.006095351   0.06421   0.13173   0.07221  -0.20408
  46   31488.9    317.6   0.045576811   0.47650   0.25515   0.52414   0.36970
  47   31888.3    313.6   0.033868692   0.34966   0.24460   0.51700   0.15013
  48   31973.4    312.8   0.223419898   2.30043  -0.40720  -1.16211  -0.88551
  49   32053.2    312.0   0.137088815   1.40801  -0.05517  -0.17032  -1.17301
  50   32194.6    310.6   0.007541782   0.07712   0.21173   0.14289   0.10896
  51   32272.0    309.9   0.078368596   0.79945  -0.07604   0.84643   0.27791
  52   32510.6    307.6   0.124957434   1.26536   0.16875  -0.69151  -0.87103
  53   32718.7    305.6   0.180336138   1.81452  -0.90381  -0.02236  -0.99857
  54   32770.6    305.2   0.032439264   0.32588  -0.50138   0.12024  -0.24503
  55   33039.1    302.7   0.006481238   0.06458  -0.06775  -0.12875   0.20836
  56   33067.6    302.4   0.028493417   0.28367  -0.15394   0.00745   0.50982
  57   33247.3    300.8   0.004584721   0.04540  -0.13484   0.00961   0.16470
  58   33348.2    299.9   0.076949161   0.75964   0.18650   0.70849   0.47212
  59   33482.3    298.7   0.029251699   0.28762  -0.11284  -0.23466  -0.46885
  60   33523.8    298.3   0.003701108   0.03635   0.06583  -0.16608   0.06655
  61   33629.5    297.4   0.013331959   0.13051   0.04995   0.31106   0.17681
  62   33836.2    295.5   0.033453647   0.32549   0.18211   0.42933   0.32864
  63   34137.7    292.9   0.259832916   2.50574   0.09207   0.91033   1.29172
  64   34360.5    291.0   0.006893456   0.06605  -0.16212  -0.16007  -0.11891
  65   34488.1    290.0   0.050901581   0.48589  -0.26276  -0.55785  -0.32503
  66   34552.8    289.4   0.056467648   0.53801  -0.00231   0.56852   0.46346
  67   34615.6    288.9   0.011583662   0.11017   0.12007   0.28362   0.12372
  68   34880.2    286.7   0.041162587   0.38851   0.41728   0.10045   0.45199
  69   35093.4    285.0   0.059359113   0.55685  -0.48635  -0.40749  -0.39277
  70   35221.8    283.9   0.043832231   0.40969   0.09329   0.32124   0.54570
  71   35322.1    283.1   0.015256405   0.14219   0.07462   0.32630  -0.17365
  72   35488.2    281.8   0.039548518   0.36688   0.15836   0.36726   0.45489
  73   35584.9    281.0   0.084098930   0.77804   0.23004   0.12423   0.84243
  74   35733.1    279.9   0.036768024   0.33875   0.24284   0.25256   0.46475
  75   35798.4    279.3   0.198883382   1.82899   0.14970   0.57019   1.21715
  76   36096.2    277.0   0.077346351   0.70543   0.75555  -0.36665   0.01183
  77   36191.7    276.3   0.016180742   0.14719  -0.23808   0.10777  -0.28087
  78   36395.4    274.8   0.194570491   1.75997   0.43249  -1.24030   0.18593
  79   36626.9    273.0   0.279474221   2.51199  -0.24707   0.97552  -1.22446
  80   36676.3    272.7   0.152097647   1.36525  -0.20990   1.13276   0.19503
  81   36827.5    271.5   0.046060627   0.41175  -0.00922  -0.64161  -0.00157
  82   37017.4    270.1   0.036550801   0.32506   0.14319   0.43117  -0.34446
  83   37195.6    268.8   0.037271606   0.32988  -0.50084   0.24641   0.13538
  84   37649.9    265.6   0.071548433   0.62562   0.26754   0.09909  -0.73772
  85   37775.9    264.7   0.242939918   2.11719   0.16478   0.08477  -1.44321
  86   37971.8    263.4   0.032298330   0.28002   0.47761   0.22732   0.01525
  87   38166.7    262.0   0.005881986   0.05074  -0.19206  -0.10754  -0.04781
  88   38284.8    261.2   0.010731940   0.09228   0.26273  -0.09582   0.11864
  89   38781.4    257.9   0.020485582   0.17390  -0.24833  -0.31864  -0.10345
  90   38843.1    257.4   0.039067289   0.33111   0.32175  -0.10178  -0.46608
  91   38875.6    257.2   0.013894420   0.11766  -0.09184   0.03249   0.32889
  92   38972.9    256.6   0.002713268   0.02292   0.07232   0.03630  -0.12795
  93   39116.5    255.6   0.076816906   0.64651  -0.05703  -0.50920   0.61965
  94   39446.6    253.5   0.005629980   0.04699   0.00448  -0.14901   0.15736
  95   39488.4    253.2   0.047579943   0.39667   0.08203   0.12140  -0.61254
  96   39648.6    252.2   0.042833488   0.35566  -0.30011  -0.25408   0.44837
  97   39956.3    250.3   0.024013857   0.19786   0.03918  -0.36203   0.25545
  98   39978.7    250.1   0.062091836   0.51131  -0.19694  -0.66661   0.16778
  99   40087.5    249.5   0.012664953   0.10401  -0.17976  -0.21344   0.16167
 100   40152.1    249.1   0.285946874   2.34451  -0.02784   1.39751  -0.62505

FINAL SINGLE POINT ENERGY     -4483.099761473550

DIPOLE MOMENT
-------------
                                X             Y             Z
Electronic contribution:    -15.88860     -61.66233     -80.45728
Nuclear contribution   :     16.65554      61.86577      82.28786
                        -----------------------------------------
Total Dipole Moment    :      0.76694       0.20344       1.83059
                        -----------------------------------------
Magnitude (a.u.)       :      1.99516
Magnitude (Debye)      :      5.07128

Rotational constants in cm-1:     0.001074     0.000608     0.000437
Rotational constants in MHz :    32.212256    18.220214    13.110292

                             ****ORCA TERMINATED NORMALLY****
TOTAL RUN TIME: 0 days 0 hours 15 minutes 41 seconds 535 msec
