                         Program Version 4.2.0 -  RELEASE  -
|  1> # ORCA input file
|  2> # SCF done       -144.454313840298          0.000981425886
|  3> ! CAM-B3LYP def2-SVP def2/J RIJCOSX Grid4 TightSCF
|  4> %maxcore 5000
|  5> %tddft
|  6>     Mode sTDDFT
|  7>     Ethresh 5.0
|  8>     maxcore 5000
|  9> end
| 10>
| 11> %pal
| 12>   nprocs 6
| 13>   end
| 14> * xyz 0 1
| 15>    C       -6.44076        -4.27925         3.21643
| 16>    N       -6.74697        -3.90222         1.97959
| 17>    C       -6.17358        -4.56383         1.00461
| 18>    C       -5.21262        -5.56147         1.28869
| 19>    N       -4.99806        -5.88164         2.56779
| 20>    N       -5.62877        -5.27501         3.51301
| 21>    C       -4.47341        -6.27610         0.28784
| 22>    C       -3.67485        -7.46306         0.56867
| 23>    N       -3.07556        -7.95967        -0.47977
| 24>    C       -3.42462        -7.15490        -1.51457
| 25>    C       -4.32469        -6.07914        -1.06989
| 26>    C       -4.60937        -5.19728        -2.18421
| 27>    S       -5.39359        -3.74890        -2.14837
| 28>    C       -3.93070        -5.78906        -3.30032
| 29>    C       -3.18109        -6.97245        -2.85849
| 30>    N       -2.45190        -7.49068        -3.88103
| 31>    C       -2.66419        -6.69579        -4.89727
| 32>    C       -3.58263        -5.59748        -4.62373
| 33>    C       -4.02535        -4.60724        -5.56378
| 34>    C       -5.30664        -4.09705        -5.46718
| 35>    C       -5.73433        -3.11047        -6.37139
| 36>    C       -6.94275        -2.42633        -6.48944
| 37>    C       -8.24679        -2.55159        -5.77536
| 38>    C       -9.26236        -3.31647        -6.66677
| 39>    N       -8.82987        -4.67583        -6.93029
| 40>    C       -8.21893        -3.11603        -4.34601
| 41>    N       -7.94233        -4.54043        -4.26890
| 42>    C       -6.77298        -1.47812        -7.57390
| 43>    C       -7.60308        -0.54285        -8.07234
| 44>    C       -7.21170         0.32438        -9.21573
| 45>    C       -5.81645         0.10289        -9.71700
| 46>    C       -4.99716        -0.83383        -9.20386
| 47>    C       -5.42407        -1.64267        -8.12467
| 48>    C       -4.80185        -2.63088        -7.38531
| 49>    C       -3.50993        -3.19527        -7.47466
| 50>    C       -3.14005        -4.16301        -6.59589
| 51>    C       -8.14041         0.13439       -10.39376
| 52>    C       -8.79439        -1.00866       -10.62094
| 53>    C       -9.67061        -1.26275       -11.72194
| 54>    C       -9.99876        -0.41352       -12.86067
| 55>    N      -10.85671        -0.94157       -13.69789
| 56>    C      -11.16235        -2.16230       -13.18717
| 57>    C      -10.43078        -2.39208       -11.93432
| 58>    C      -10.75270        -3.68505       -11.39500
| 59>    S      -10.10471        -4.39707       -10.06437
| 60>    C      -11.71076        -4.22637       -12.32510
| 61>    C      -11.93269        -3.28131       -13.43093
| 62>    N      -12.79851        -3.79759       -14.33916
| 63>    C      -13.11781        -4.98407       -13.88880
| 64>    C      -12.48076        -5.32903       -12.62890
| 65>    C      -12.66119        -6.54895       -11.90103
| 66>    N      -13.27641        -7.57600       -12.50745
| 67>    C      -13.36617        -8.69685       -11.83471
| 68>    C      -12.72812        -8.81392       -10.59242
| 69>    N      -12.24492        -7.73011       -10.01748
| 70>    N      -12.26172        -6.59690       -10.62326
| 71>    H       -6.89462        -3.74333         4.03742
| 72>    H       -6.45451        -4.30988        -0.00893
| 73>    H       -3.57113        -7.90887         1.54094
| 74>    H       -2.21315        -6.90772        -5.85141
| 75>    H       -6.00946        -4.47954        -4.73988
| 76>    H       -8.64775        -1.53381        -5.67892
| 77>    H       -9.41967        -2.73419        -7.58856
| 78>    H      -10.21846        -3.36792        -6.13699
| 79>    H       -7.97357        -4.67204        -7.47531
| 80>    H       -9.53504        -5.17030        -7.46579
| 81>    H       -9.19420        -2.86421        -3.89660
| 82>    H       -7.44878        -2.58828        -3.76973
| 83>    H       -8.38889        -5.01827        -5.05012
| 84>    H       -8.28429        -4.91993        -3.39451
| 85>    H       -8.59593        -0.38202        -7.67432
| 86>    H       -7.30754         1.37216        -8.89145
| 87>    H       -5.50634         0.72582       -10.54196
| 88>    H       -4.00114        -0.96890        -9.59955
| 89>    H       -2.82783        -2.84668        -8.23608
| 90>    H       -2.15053        -4.59265        -6.64306
| 91>    H       -8.21259         0.96604       -11.07904
| 92>    H       -8.69046        -1.83360        -9.92690
| 93>    H       -9.60462         0.56970       -13.04765
| 94>    H      -13.79770        -5.62015       -14.42607
| 95>    H      -13.93405        -9.49985       -12.28493
| 96>    H      -12.63892        -9.74042       -10.04843
| 97> *
| 98>
| 99>                          ****END OF INPUT****

CARTESIAN COORDINATES (ANGSTROEM)
---------------------------------
  C     -6.440760   -4.279250    3.216430
  N     -6.746970   -3.902220    1.979590
  C     -6.173580   -4.563830    1.004610
  C     -5.212620   -5.561470    1.288690
  N     -4.998060   -5.881640    2.567790
  N     -5.628770   -5.275010    3.513010
  C     -4.473410   -6.276100    0.287840
  C     -3.674850   -7.463060    0.568670
  N     -3.075560   -7.959670   -0.479770
  C     -3.424620   -7.154900   -1.514570
  C     -4.324690   -6.079140   -1.069890
  C     -4.609370   -5.197280   -2.184210
  S     -5.393590   -3.748900   -2.148370
  C     -3.930700   -5.789060   -3.300320
  C     -3.181090   -6.972450   -2.858490
  N     -2.451900   -7.490680   -3.881030
  C     -2.664190   -6.695790   -4.897270
  C     -3.582630   -5.597480   -4.623730
  C     -4.025350   -4.607240   -5.563780
  C     -5.306640   -4.097050   -5.467180
  C     -5.734330   -3.110470   -6.371390
  C     -6.942750   -2.426330   -6.489440
  C     -8.246790   -2.551590   -5.775360
  C     -9.262360   -3.316470   -6.666770
  N     -8.829870   -4.675830   -6.930290
  C     -8.218930   -3.116030   -4.346010
  N     -7.942330   -4.540430   -4.268900
  C     -6.772980   -1.478120   -7.573900
  C     -7.603080   -0.542850   -8.072340
  C     -7.211700    0.324380   -9.215730
  C     -5.816450    0.102890   -9.717000
  C     -4.997160   -0.833830   -9.203860
  C     -5.424070   -1.642670   -8.124670
  C     -4.801850   -2.630880   -7.385310
  C     -3.509930   -3.195270   -7.474660
  C     -3.140050   -4.163010   -6.595890
  C     -8.140410    0.134390  -10.393760
  C     -8.794390   -1.008660  -10.620940
  C     -9.670610   -1.262750  -11.721940
  C     -9.998760   -0.413520  -12.860670
  N    -10.856710   -0.941570  -13.697890
  C    -11.162350   -2.162300  -13.187170
  C    -10.430780   -2.392080  -11.934320
  C    -10.752700   -3.685050  -11.395000
  S    -10.104710   -4.397070  -10.064370
  C    -11.710760   -4.226370  -12.325100
  C    -11.932690   -3.281310  -13.430930
  N    -12.798510   -3.797590  -14.339160
  C    -13.117810   -4.984070  -13.888800
  C    -12.480760   -5.329030  -12.628900
  C    -12.661190   -6.548950  -11.901030
  N    -13.276410   -7.576000  -12.507450
  C    -13.366170   -8.696850  -11.834710
  C    -12.728120   -8.813920  -10.592420
  N    -12.244920   -7.730110  -10.017480
  N    -12.261720   -6.596900  -10.623260
  H     -6.894620   -3.743330    4.037420
  H     -6.454510   -4.309880   -0.008930
  H     -3.571130   -7.908870    1.540940
  H     -2.213150   -6.907720   -5.851410
  H     -6.009460   -4.479540   -4.739880
  H     -8.647750   -1.533810   -5.678920
  H     -9.419670   -2.734190   -7.588560
  H    -10.218460   -3.367920   -6.136990
  H     -7.973570   -4.672040   -7.475310
  H     -9.535040   -5.170300   -7.465790
  H     -9.194200   -2.864210   -3.896600
  H     -7.448780   -2.588280   -3.769730
  H     -8.388890   -5.018270   -5.050120
  H     -8.284290   -4.919930   -3.394510
  H     -8.595930   -0.382020   -7.674320
  H     -7.307540    1.372160   -8.891450
  H     -5.506340    0.725820  -10.541960
  H     -4.001140   -0.968900   -9.599550
  H     -2.827830   -2.846680   -8.236080
  H     -2.150530   -4.592650   -6.643060
  H     -8.212590    0.966040  -11.079040
  H     -8.690460   -1.833600   -9.926900
  H     -9.604620    0.569700  -13.047650
  H    -13.797700   -5.620150  -14.426070
  H    -13.934050   -9.499850  -12.284930
  H    -12.638920   -9.740420  -10.048430

 Total Charge           Charge          ....    0
 Multiplicity           Mult            ....    1
 Number of Electrons    NEL             ....  394
 Basis Dimension        Dim             ....  922

ORBITAL ENERGIES
----------------

  NO   OCC          E(Eh)            E(eV)
   0   2.0000     -88.906535     -2419.2698
   1   2.0000     -88.894027     -2418.9294
   2   2.0000     -14.463977      -393.5848
   3   2.0000     -14.453396      -393.2969
   4   2.0000     -14.449499      -393.1908
   5   2.0000     -14.446435      -393.1075
   6   2.0000     -14.437119      -392.8540
   7   2.0000     -14.425345      -392.5336
   8   2.0000     -14.422874      -392.4663
   9   2.0000     -14.419765      -392.3817
  10   2.0000     -14.409213      -392.0946
  11   2.0000     -14.404290      -391.9607
  12   2.0000     -14.384130      -391.4121
  13   2.0000     -14.355186      -390.6245
  14   2.0000     -10.366593      -282.0893
  15   2.0000     -10.348677      -281.6018
  16   2.0000     -10.348033      -281.5843
  17   2.0000     -10.346939      -281.5545
  18   2.0000     -10.343526      -281.4617
  19   2.0000     -10.340121      -281.3690
  20   2.0000     -10.340018      -281.3662
  21   2.0000     -10.337631      -281.3012
  22   2.0000     -10.335480      -281.2427
  23   2.0000     -10.331126      -281.1242
  24   2.0000     -10.329475      -281.0793
  25   2.0000     -10.326242      -280.9913
  26   2.0000     -10.325484      -280.9707
  27   2.0000     -10.321856      -280.8720
  28   2.0000     -10.321638      -280.8660
  29   2.0000     -10.321004      -280.8488
  30   2.0000     -10.313370      -280.6411
  31   2.0000     -10.312279      -280.6114
  32   2.0000     -10.310481      -280.5624
  33   2.0000     -10.305721      -280.4329
  34   2.0000     -10.304770      -280.4071
  35   2.0000     -10.303617      -280.3757
  36   2.0000     -10.301089      -280.3069
  37   2.0000     -10.299536      -280.2646
  38   2.0000     -10.297128      -280.1991
  39   2.0000     -10.295486      -280.1544
  40   2.0000     -10.290531      -280.0196
  41   2.0000     -10.285230      -279.8753
  42   2.0000     -10.281959      -279.7863
  43   2.0000     -10.276900      -279.6487
  44   2.0000     -10.275913      -279.6218
  45   2.0000     -10.274792      -279.5913
  46   2.0000     -10.273741      -279.5627
  47   2.0000     -10.273444      -279.5546
  48   2.0000     -10.270898      -279.4853
  49   2.0000     -10.268443      -279.4185
  50   2.0000     -10.268061      -279.4081
  51   2.0000     -10.266538      -279.3667
  52   2.0000     -10.264580      -279.3134
  53   2.0000     -10.263238      -279.2769
  54   2.0000     -10.262648      -279.2608
  55   2.0000     -10.256179      -279.0848
  56   2.0000      -8.001760      -217.7390
  57   2.0000      -7.989431      -217.4035
  58   2.0000      -5.970735      -162.4720
  59   2.0000      -5.970388      -162.4625
  60   2.0000      -5.960799      -162.2016
  61   2.0000      -5.958324      -162.1342
  62   2.0000      -5.957703      -162.1173
  63   2.0000      -5.948878      -161.8772
  64   2.0000      -1.158577       -31.5265
  65   2.0000      -1.140653       -31.0388
  66   2.0000      -1.093138       -29.7458
  67   2.0000      -1.076719       -29.2990
  68   2.0000      -1.073506       -29.2116
  69   2.0000      -1.057170       -28.7671
  70   2.0000      -1.042328       -28.3632
  71   2.0000      -1.020378       -27.7659
  72   2.0000      -0.986934       -26.8558
  73   2.0000      -0.972381       -26.4598
  74   2.0000      -0.970177       -26.3999
  75   2.0000      -0.956639       -26.0315
  76   2.0000      -0.951073       -25.8800
  77   2.0000      -0.950254       -25.8577
  78   2.0000      -0.939881       -25.5755
  79   2.0000      -0.935479       -25.4557
  80   2.0000      -0.923709       -25.1354
  81   2.0000      -0.903796       -24.5935
  82   2.0000      -0.879949       -23.9446
  83   2.0000      -0.876373       -23.8473
  84   2.0000      -0.867492       -23.6057
  85   2.0000      -0.860798       -23.4235
  86   2.0000      -0.855638       -23.2831
  87   2.0000      -0.843442       -22.9512
  88   2.0000      -0.835844       -22.7445
  89   2.0000      -0.834895       -22.7187
  90   2.0000      -0.825631       -22.4666
  91   2.0000      -0.804632       -21.8951
  92   2.0000      -0.794744       -21.6261
  93   2.0000      -0.787162       -21.4198
  94   2.0000      -0.782760       -21.3000
  95   2.0000      -0.771501       -20.9936
  96   2.0000      -0.770023       -20.9534
  97   2.0000      -0.759497       -20.6670
  98   2.0000      -0.756099       -20.5745
  99   2.0000      -0.745629       -20.2896
 100   2.0000      -0.735698       -20.0194
 101   2.0000      -0.722356       -19.6563
 102   2.0000      -0.720479       -19.6052
 103   2.0000      -0.711150       -19.3514
 104   2.0000      -0.694556       -18.8998
 105   2.0000      -0.687734       -18.7142
 106   2.0000      -0.675443       -18.3797
 107   2.0000      -0.672665       -18.3041
 108   2.0000      -0.668459       -18.1897
 109   2.0000      -0.657999       -17.9051
 110   2.0000      -0.654116       -17.7994
 111   2.0000      -0.645577       -17.5670
 112   2.0000      -0.643953       -17.5228
 113   2.0000      -0.642298       -17.4778
 114   2.0000      -0.630211       -17.1489
 115   2.0000      -0.620455       -16.8834
 116   2.0000      -0.618606       -16.8331
 117   2.0000      -0.606494       -16.5036
 118   2.0000      -0.601383       -16.3645
 119   2.0000      -0.595379       -16.2011
 120   2.0000      -0.590488       -16.0680
 121   2.0000      -0.580612       -15.7992
 122   2.0000      -0.578334       -15.7373
 123   2.0000      -0.575924       -15.6717
 124   2.0000      -0.572919       -15.5899
 125   2.0000      -0.566430       -15.4133
 126   2.0000      -0.563630       -15.3372
 127   2.0000      -0.561606       -15.2821
 128   2.0000      -0.558900       -15.2084
 129   2.0000      -0.554606       -15.0916
 130   2.0000      -0.550205       -14.9718
 131   2.0000      -0.546474       -14.8703
 132   2.0000      -0.543101       -14.7785
 133   2.0000      -0.539359       -14.6767
 134   2.0000      -0.537351       -14.6221
 135   2.0000      -0.531397       -14.4600
 136   2.0000      -0.524617       -14.2756
 137   2.0000      -0.520109       -14.1529
 138   2.0000      -0.518832       -14.1181
 139   2.0000      -0.509932       -13.8759
 140   2.0000      -0.508810       -13.8454
 141   2.0000      -0.508152       -13.8275
 142   2.0000      -0.506083       -13.7712
 143   2.0000      -0.501807       -13.6549
 144   2.0000      -0.499181       -13.5834
 145   2.0000      -0.497011       -13.5243
 146   2.0000      -0.495775       -13.4907
 147   2.0000      -0.488888       -13.3033
 148   2.0000      -0.486794       -13.2463
 149   2.0000      -0.485666       -13.2156
 150   2.0000      -0.481716       -13.1082
 151   2.0000      -0.480522       -13.0757
 152   2.0000      -0.475228       -12.9316
 153   2.0000      -0.470049       -12.7907
 154   2.0000      -0.469222       -12.7682
 155   2.0000      -0.461015       -12.5449
 156   2.0000      -0.451781       -12.2936
 157   2.0000      -0.446393       -12.1470
 158   2.0000      -0.442211       -12.0332
 159   2.0000      -0.438256       -11.9255
 160   2.0000      -0.437359       -11.9011
 161   2.0000      -0.435523       -11.8512
 162   2.0000      -0.429359       -11.6834
 163   2.0000      -0.426353       -11.6016
 164   2.0000      -0.423276       -11.5179
 165   2.0000      -0.419527       -11.4159
 166   2.0000      -0.418184       -11.3794
 167   2.0000      -0.416386       -11.3304
 168   2.0000      -0.408915       -11.1272
 169   2.0000      -0.408852       -11.1254
 170   2.0000      -0.408098       -11.1049
 171   2.0000      -0.402705       -10.9582
 172   2.0000      -0.397383       -10.8133
 173   2.0000      -0.392492       -10.6803
 174   2.0000      -0.390283       -10.6201
 175   2.0000      -0.387784       -10.5521
 176   2.0000      -0.377473       -10.2716
 177   2.0000      -0.366823        -9.9817
 178   2.0000      -0.362507        -9.8643
 179   2.0000      -0.359748        -9.7892
 180   2.0000      -0.351440        -9.5632
 181   2.0000      -0.346332        -9.4242
 182   2.0000      -0.341720        -9.2987
 183   2.0000      -0.330432        -8.9915
 184   2.0000      -0.328818        -8.9476
 185   2.0000      -0.319053        -8.6819
 186   2.0000      -0.312249        -8.4967
 187   2.0000      -0.311868        -8.4864
 188   2.0000      -0.307009        -8.3541
 189   2.0000      -0.302618        -8.2346
 190   2.0000      -0.298728        -8.1288
 191   2.0000      -0.293475        -7.9859
 192   2.0000      -0.285108        -7.7582
 193   2.0000      -0.279045        -7.5932
 194   2.0000      -0.277437        -7.5494
 195   2.0000      -0.275147        -7.4871
 196   2.0000      -0.221067        -6.0155
 197   0.0000      -0.123736        -3.3670
 198   0.0000      -0.107930        -2.9369
 199   0.0000      -0.089711        -2.4412
 200   0.0000      -0.079687        -2.1684
 201   0.0000      -0.062105        -1.6900

MULLIKEN ATOMIC CHARGES
-----------------------
   0 C :    0.060437
   1 N :   -0.057746
   2 C :    0.058181
   3 C :   -0.090586
   4 N :   -0.054362
   5 N :   -0.072157
   6 C :    0.040662
   7 C :    0.061229
   8 N :   -0.026757
   9 C :   -0.004225
  10 C :   -0.012697
  11 C :   -0.003274
  12 S :   -0.118985
  13 C :   -0.010574
  14 C :    0.012975
  15 N :   -0.032769
  16 C :    0.058962
  17 C :    0.011920
  18 C :    0.062724
  19 C :   -0.022769
  20 C :    0.010563
  21 C :   -0.026757
  22 C :   -0.070957
  23 C :    0.132580
  24 N :   -0.231087
  25 C :    0.171501
  26 N :   -0.218005
  27 C :    0.101297
  28 C :   -0.164099
  29 C :    0.179599
  30 C :   -0.037305
  31 C :    0.027488
  32 C :    0.014518
  33 C :    0.043164
  34 C :   -0.014142
  35 C :   -0.013235
  36 C :   -0.088884
  37 C :    0.013795
  38 C :    0.014341
  39 C :    0.065896
  40 N :   -0.030569
  41 C :    0.030318
  42 C :   -0.001746
  43 C :    0.001063
  44 S :   -0.106607
  45 C :    0.002613
  46 C :   -0.009030
  47 N :   -0.031742
  48 C :    0.072862
  49 C :    0.070882
  50 C :   -0.159798
  51 N :   -0.041188
  52 C :    0.050269
  53 C :    0.045588
  54 N :   -0.049248
  55 N :   -0.018060
  56 H :    0.028867
  57 H :   -0.000604
  58 H :    0.020265
  59 H :    0.009475
  60 H :   -0.028376
  61 H :   -0.006520
  62 H :   -0.016897
  63 H :   -0.001966
  64 H :    0.110903
  65 H :    0.115677
  66 H :   -0.022165
  67 H :   -0.002165
  68 H :    0.096839
  69 H :    0.086947
  70 H :    0.003538
  71 H :    0.032491
  72 H :   -0.015143
  73 H :   -0.035497
  74 H :   -0.039082
  75 H :   -0.033050
  76 H :    0.001239
  77 H :    0.016765
  78 H :    0.010822
  79 H :    0.018311
  80 H :    0.026751
  81 H :    0.026507
Sum of atomic charges:   -0.0000000

LOEWDIN ATOMIC CHARGES
----------------------
   0 C :    0.023661
   1 N :   -0.055497
   2 C :    0.048061
   3 C :   -0.036974
   4 N :   -0.025546
   5 N :   -0.055794
   6 C :   -0.054184
   7 C :    0.098055
   8 N :   -0.084092
   9 C :    0.028671
  10 C :   -0.020323
  11 C :   -0.134113
  12 S :    0.096692
  13 C :   -0.051120
  14 C :    0.048133
  15 N :   -0.083452
  16 C :    0.093366
  17 C :   -0.015411
  18 C :   -0.050727
  19 C :    0.035542
  20 C :   -0.023405
  21 C :   -0.020924
  22 C :   -0.040427
  23 C :    0.027495
  24 N :   -0.083386
  25 C :    0.028128
  26 N :   -0.105653
  27 C :   -0.015860
  28 C :    0.063061
  29 C :   -0.030136
  30 C :   -0.033370
  31 C :   -0.014349
  32 C :   -0.040807
  33 C :   -0.024610
  34 C :   -0.018308
  35 C :   -0.025268
  36 C :    0.017401
  37 C :   -0.029145
  38 C :   -0.034264
  39 C :    0.102026
  40 N :   -0.083035
  41 C :    0.049951
  42 C :   -0.036894
  43 C :   -0.145692
  44 S :    0.097751
  45 C :    0.004113
  46 C :    0.033276
  47 N :   -0.086182
  48 C :    0.101941
  49 C :   -0.062748
  50 C :    0.002073
  51 N :   -0.059118
  52 C :    0.035526
  53 C :   -0.019222
  54 N :   -0.008717
  55 N :   -0.042498
  56 H :    0.025220
  57 H :    0.004851
  58 H :    0.030058
  59 H :    0.025846
  60 H :    0.019201
  61 H :    0.032559
  62 H :   -0.007059
  63 H :    0.017526
  64 H :    0.057595
  65 H :    0.052734
  66 H :    0.003048
  67 H :    0.005495
  68 H :    0.031675
  69 H :    0.049055
  70 H :    0.030174
  71 H :    0.057717
  72 H :    0.023176
  73 H :    0.030776
  74 H :    0.026248
  75 H :    0.023396
  76 H :    0.023988
  77 H :    0.030659
  78 H :    0.026000
  79 H :    0.030292
  80 H :    0.032034
  81 H :    0.034064

  Mayer bond orders larger than 0.100000
B(  0-C ,  1-N ) :   1.4683 B(  0-C ,  5-N ) :   1.5330 B(  0-C , 56-H ) :   0.9794
B(  1-N ,  2-C ) :   1.6093 B(  2-C ,  3-C ) :   1.2830 B(  2-C , 57-H ) :   0.9505
B(  3-C ,  4-N ) :   1.5897 B(  3-C ,  6-C ) :   1.0057 B(  4-N ,  5-N ) :   1.3261
B(  6-C ,  7-C ) :   1.0504 B(  6-C , 10-C ) :   1.5423 B(  7-C ,  8-N ) :   1.6867
B(  7-C , 58-H ) :   0.9928 B(  8-N ,  9-C ) :   1.2955 B(  9-C , 10-C ) :   1.0695
B(  9-C , 14-C ) :   1.4858 B( 10-C , 11-C ) :   1.0173 B( 11-C , 12-S ) :   1.6867
B( 11-C , 13-C ) :   1.0576 B( 13-C , 14-C ) :   1.0648 B( 13-C , 17-C ) :   1.5259
B( 14-C , 15-N ) :   1.2778 B( 15-N , 16-C ) :   1.6991 B( 16-C , 17-C ) :   1.0422
B( 16-C , 59-H ) :   0.9900 B( 17-C , 18-C ) :   1.0146 B( 18-C , 19-C ) :   1.4853
B( 18-C , 35-C ) :   1.1128 B( 19-C , 20-C ) :   1.1688 B( 19-C , 60-H ) :   0.9368
B( 20-C , 21-C ) :   1.4599 B( 20-C , 33-C ) :   1.1077 B( 21-C , 22-C ) :   1.0321
B( 21-C , 27-C ) :   1.0870 B( 22-C , 23-C ) :   1.0351 B( 22-C , 25-C ) :   1.0665
B( 22-C , 61-H ) :   0.8832 B( 23-C , 24-N ) :   1.0607 B( 23-C , 62-H ) :   0.9294
B( 23-C , 63-H ) :   0.9405 B( 24-N , 64-H ) :   0.9633 B( 24-N , 65-H ) :   0.9637
B( 24-N , 68-H ) :   0.1281 B( 25-C , 26-N ) :   1.0646 B( 25-C , 66-H ) :   0.9285
B( 25-C , 67-H ) :   0.9366 B( 26-N , 60-H ) :   0.1914 B( 26-N , 68-H ) :   0.9163
B( 26-N , 69-H ) :   0.9629 B( 27-C , 28-C ) :   1.6625 B( 27-C , 32-C ) :   1.0510
B( 28-C , 29-C ) :   0.9664 B( 28-C , 70-H ) :   0.9710 B( 29-C , 30-C ) :   0.9854
B( 29-C , 36-C ) :   0.9598 B( 29-C , 71-H ) :   0.8596 B( 30-C , 31-C ) :   1.7344
B( 30-C , 72-H ) :   0.9657 B( 31-C , 32-C ) :   1.1286 B( 31-C , 73-H ) :   0.9871
B( 32-C , 33-C ) :   1.4433 B( 33-C , 34-C ) :   1.1409 B( 34-C , 35-C ) :   1.6087
B( 34-C , 74-H ) :   0.9919 B( 35-C , 75-H ) :   0.9853 B( 36-C , 37-C ) :   1.7943
B( 36-C , 76-H ) :   0.9700 B( 37-C , 38-C ) :   1.0847 B( 37-C , 77-H ) :   0.9510
B( 38-C , 39-C ) :   1.0160 B( 38-C , 42-C ) :   1.5330 B( 39-C , 40-N ) :   1.7057
B( 39-C , 78-H ) :   0.9910 B( 40-N , 41-C ) :   1.2766 B( 41-C , 42-C ) :   1.0613
B( 41-C , 46-C ) :   1.4872 B( 42-C , 43-C ) :   1.0183 B( 43-C , 44-S ) :   1.7358
B( 43-C , 45-C ) :   1.0172 B( 45-C , 46-C ) :   1.0693 B( 45-C , 49-C ) :   1.5446
B( 46-C , 47-N ) :   1.2910 B( 47-N , 48-C ) :   1.6822 B( 48-C , 49-C ) :   1.0560
B( 48-C , 79-H ) :   0.9925 B( 49-C , 50-C ) :   0.9809 B( 49-C , 55-N ) :  -0.1033
B( 50-C , 51-N ) :   1.5643 B( 50-C , 55-N ) :   1.5901 B( 51-N , 52-C ) :   1.5759
B( 52-C , 53-C ) :   1.2832 B( 52-C , 80-H ) :   0.9746 B( 53-C , 54-N ) :   1.5550
B( 53-C , 81-H ) :   0.9844 B( 54-N , 55-N ) :   1.3460

-----------------------------------------------------------------------------
         ABSORPTION SPECTRUM VIA TRANSITION ELECTRIC DIPOLE MOMENTS
-----------------------------------------------------------------------------
State   Energy  Wavelength   fosc         T2         TX        TY        TZ
        (cm-1)    (nm)                  (au**2)     (au)      (au)      (au)
-----------------------------------------------------------------------------
   0    8440.0   1184.8   0.038560653   1.50410   0.80692  -0.03225   0.92301
   1    9312.3   1073.9   0.056116815   1.98387  -0.46145   0.74912  -1.09988
   2   12039.0    830.6   0.001421513   0.03887   0.05437  -0.14233   0.12513
   3   13105.8    763.0   0.014426702   0.36239  -0.56141  -0.12447   0.17811
   4   14145.7    706.9   0.028699415   0.66792  -0.46921   0.00912  -0.66909
   5   15168.4    659.3   0.000385222   0.00836  -0.04718   0.06385   0.04536
   6   15920.3    628.1   0.000553846   0.01145   0.00281  -0.06581   0.08435
   7   16235.2    615.9   0.151568763   3.07347   0.07715  -0.76619   1.57495
   8   17211.6    581.0   0.038033417   0.72748   0.54019   0.64341   0.14729
   9   17920.0    558.0   0.001908858   0.03507  -0.03417  -0.06342  -0.17285
  10   18598.2    537.7   0.051371515   0.90934   0.17536  -0.38464   0.85478
  11   19843.5    503.9   0.013149997   0.21816  -0.03347  -0.22721   0.40672
  12   20176.5    495.6   0.001756296   0.02866  -0.05910   0.13924  -0.07600
  13   20425.8    489.6   0.006216383   0.10019   0.10943  -0.04487   0.29360
  14   21466.6    465.8   0.002582811   0.03961  -0.14320  -0.07769  -0.11431
  15   21811.8    458.5   0.000021700   0.00033   0.01096  -0.00454  -0.01367
  16   22050.0    453.5   0.006619641   0.09883   0.20774  -0.22731   0.06330
  17   23083.1    433.2   0.005505433   0.07852   0.01153   0.01280   0.27968
  18   23647.1    422.9   0.001806589   0.02515  -0.04525  -0.06257   0.13852
  19   24329.9    411.0   0.006975959   0.09439   0.01668  -0.27549  -0.13499
  20   24562.3    407.1   0.084450908   1.13191  -0.07670   0.29334  -1.01979
  21   24604.2    406.4   0.002257386   0.03020  -0.13844   0.05653  -0.08856
  22   24674.2    405.3   0.014926349   0.19915   0.40238   0.15852  -0.11008
  23   24902.5    401.6   0.002003967   0.02649   0.12664  -0.02695  -0.09864
  24   24918.4    401.3   0.001660365   0.02194   0.08172   0.09456  -0.07947
  25   25764.0    388.1   0.014581688   0.18632   0.12617  -0.26836   0.31367
  26   25815.5    387.4   0.013833139   0.17641  -0.30206  -0.20115  -0.21143
  27   25957.4    385.2   0.008178587   0.10373   0.13640  -0.16667   0.23946
  28   26207.1    381.6   0.127443552   1.60094  -0.81342   0.40565  -0.88018
  29   26514.5    377.2   0.006366588   0.07905   0.03746   0.17654  -0.21559
  30   26546.3    376.7   0.073553998   0.91218   0.34739  -0.11131   0.88267
  31   26710.8    374.4   0.010118431   0.12471  -0.23367  -0.24456   0.10147
  32   26802.1    373.1   0.140813665   1.72962   0.42231  -0.27276   1.21527
  33   27434.0    364.5   0.125911652   1.51096  -0.26974   0.20421  -1.18174
  34   27933.7    358.0   0.011630763   0.13707  -0.19911   0.08104  -0.30143
  35   28448.3    351.5   0.037380631   0.43258   0.44296   0.14587   0.46378
  36   29011.9    344.7   0.357375527   4.05532  -1.28840  -1.25535  -0.90522
  37   29302.5    341.3   0.235359941   2.64426  -0.48810  -1.25700   0.90882
  38   29560.5    338.3   0.012275280   0.13671   0.26077   0.04855   0.25758
  39   29764.2    336.0   0.054699906   0.60502   0.40990   0.65979  -0.04085
  40   29984.8    333.5   0.005750166   0.06313  -0.23023  -0.08072  -0.06008
  41   30055.0    332.7   0.010506411   0.11508  -0.24085  -0.23718  -0.02864
  42   30082.3    332.4   0.006201333   0.06787  -0.17227  -0.16194  -0.10938
  43   30256.7    330.5   0.001730515   0.01883  -0.00189   0.01461  -0.13643
  44   30305.0    330.0   0.233525047   2.53685  -0.28287  -0.22149   1.55170
  45   30716.2    325.6   0.113851169   1.22024   0.33453  -0.00138  -1.05277
  46   31076.8    321.8   0.008841830   0.09367   0.12816   0.15622  -0.22986
  47   31135.8    321.2   0.001650502   0.01745   0.10266   0.06477   0.05212
  48   31376.0    318.7   0.095697278   1.00410  -0.57452  -0.80544   0.15903
  49   31408.8    318.4   0.095599757   1.00203   0.60007   0.77250   0.21258
  50   32030.4    312.2   0.192739027   1.98099   0.92520   0.90528   0.55269
  51   32361.4    309.0   0.123631892   1.25770   0.37819   1.05151  -0.09488
  52   32390.9    308.7   0.229724478   2.33485  -0.66468  -1.24422   0.58734
  53   32542.3    307.3   0.028624930   0.28958  -0.26312   0.23793   0.40465
  54   32979.3    303.2   0.012497390   0.12475  -0.09934  -0.30429   0.14930
  55   33099.1    302.1   0.001862190   0.01852  -0.07912  -0.10950  -0.01650
  56   33825.9    295.6   0.016020375   0.15592   0.09859   0.00772  -0.38228
  57   34089.7    293.3   0.044488877   0.42964   0.38690  -0.37398  -0.37428
  58   34567.5    289.3   0.312381435   2.97504   0.12850   0.66828  -1.58490
  59   35010.9    285.6   0.006216101   0.05845  -0.08420   0.22594   0.01768
  60   35043.1    285.4   0.000350145   0.00329  -0.04169  -0.02735  -0.02834
  61   35190.5    284.2   0.168403935   1.57544  -0.00898  -0.33754   1.20890
  62   35428.3    282.3   0.012817324   0.11910   0.24219  -0.22036  -0.10903
  63   35520.0    281.5   0.166857937   1.54650  -0.87551   0.85970   0.20223
  64   35549.0    281.3   0.083204943   0.77054   0.37859  -0.79066   0.04544
  65   35603.4    280.9   0.001161914   0.01074   0.00444   0.02653  -0.10010
  66   35686.2    280.2   0.022479499   0.20738   0.31722  -0.26391   0.19262
  67   35893.9    278.6   0.025357761   0.23258  -0.13505   0.35680   0.29502
  68   35990.6    277.9   0.112842724   1.03219   0.20470  -0.11049  -0.98898
  69   36249.9    275.9   0.011912007   0.10818   0.08826  -0.26569   0.17264
  70   36254.7    275.8   0.001877933   0.01705   0.00414   0.06241   0.11463
  71   36567.2    273.5   0.153429233   1.38131   0.71523  -0.01927   0.93241
  72   36818.1    271.6   0.031683795   0.28330  -0.52747  -0.00943   0.07061
  73   37054.6    269.9   0.005852147   0.05199   0.07027  -0.18102  -0.11953
  74   37125.2    269.4   0.072653963   0.64427   0.45426  -0.53289  -0.39236
  75   37476.8    266.8   0.003006075   0.02641  -0.16179  -0.00319  -0.01485
  76   37562.4    266.2   0.009593184   0.08408  -0.00189  -0.28149   0.06956
  77   37899.2    263.9   0.018929674   0.16443  -0.26416   0.24685  -0.18362
  78   38084.7    262.6   0.113071038   0.97741  -0.25453   0.74000  -0.60418
  79   38415.6    260.3   0.001807949   0.01549  -0.04376   0.11629  -0.00740
  80   38876.0    257.2   0.020697009   0.17527   0.12677  -0.33878   0.21077
  81   38892.6    257.1   0.077658152   0.65735   0.15484  -0.68732   0.40120
  82   39212.2    255.0   0.011732486   0.09850  -0.22584   0.21334   0.04458
  83   39463.9    253.4   0.017599077   0.14681   0.17447  -0.33215   0.07777
  84   39478.0    253.3   0.003911014   0.03261  -0.14654  -0.10548  -0.00402
  85   39577.9    252.7   0.021987067   0.18289  -0.15578   0.38173  -0.11360
  86   39663.4    252.1   0.008323530   0.06909  -0.10981  -0.23821   0.01690
  87   39786.4    251.3   0.014555994   0.12044  -0.17733   0.23144  -0.18823
  88   39957.9    250.3   0.032272889   0.26590   0.21939  -0.37650   0.27570
  89   40185.5    248.8   0.008232636   0.06744  -0.03363  -0.15495   0.20568
  90   40294.3    248.2   0.027949802   0.22835  -0.28212   0.01750  -0.38530

FINAL SINGLE POINT ENERGY     -3066.069671204980

DIPOLE MOMENT
-------------
                                X             Y             Z
Electronic contribution:      2.13872     -15.71133       0.92186
Nuclear contribution   :     -4.05562      16.62611      -3.83568
                        -----------------------------------------
Total Dipole Moment    :     -1.91690       0.91478      -2.91382
                        -----------------------------------------
Magnitude (a.u.)       :      3.60578
Magnitude (Debye)      :      9.16517

Rotational constants in cm-1:     0.002457     0.000628     0.000572
Rotational constants in MHz :    73.661291    18.825682    17.140856

                             ****ORCA TERMINATED NORMALLY****
TOTAL RUN TIME: 0 days 0 hours 7 minutes 25 seconds 266 msec
