                         Program Version 4.2.0 -  RELEASE  -
|  1> # ORCA input file
|  2> # SCF done       -141.837388841919          0.000715013715
|  3> ! CAM-B3LYP def2-SVP def2/J RIJCOSX Grid4 TightSCF
|  4> %maxcore 5000
|  5> %tddft
|  6>     Mode sTDDFT
|  7>     Ethresh 5.0
|  8>     maxcore 5000
|  9> end
| 10>
| 11> %pal
| 12>   nprocs 6
| 13>   end
| 14> * xyz 0 1
| 15>    C        1.83013         9.08232       -10.42690
| 16>    O        0.79475         8.40233       -10.92682
| 17>    C       -0.12562         8.29732        -9.94481
| 18>    C        0.30454         8.90243        -8.81208
| 19>    C        1.60222         9.43054        -9.11093
| 20>    C        2.43448        10.15044        -8.19951
| 21>    C        3.66056        10.65573        -8.49935
| 22>    C        4.50233        11.36616        -7.60864
| 23>    C        4.20707        11.64886        -6.30091
| 24>    C        5.03431        12.34150        -5.41498
| 25>    C        4.65850        12.57996        -4.10532
| 26>    C        5.35495        13.24537        -3.07714
| 27>    C        4.67926        13.29613        -1.88421
| 28>    C        3.42220        12.67337        -1.92649
| 29>    S        3.10935        12.01965        -3.50852
| 30>    C        2.44251        12.50937        -0.94652
| 31>    C        2.39076        12.90260         0.39695
| 32>    C        1.22508        12.53805         1.02446
| 33>    C        0.31521        11.84727         0.20032
| 34>    S        0.98522        11.67006        -1.39932
| 35>    C       -0.93456        11.37329         0.57339
| 36>    C       -1.86231        10.70602        -0.21490
| 37>    S       -3.41278        10.22318         0.49747
| 38>    C       -4.04697         9.51723        -0.98585
| 39>    C       -3.05669         9.65003        -1.99089
| 40>    C       -1.87793        10.29544        -1.55387
| 41>    O       -0.98852        10.37501        -2.55861
| 42>    C       -1.57952         9.78964        -3.63314
| 43>    N       -0.86187         9.73004        -4.83154
| 44>    O       -1.41652         9.19020        -5.78240
| 45>    O        0.25941        10.20833        -4.87135
| 46>    C       -2.84820         9.32806        -3.34264
| 47>    C       -5.29279         8.95304        -1.12181
| 48>    C       -6.26461         8.79882        -0.13637
| 49>    C       -7.53945         8.24333        -0.31568
| 50>    C       -8.29830         8.19793         0.82724
| 51>    C       -7.64318         8.71155         1.95485
| 52>    S       -6.04195         9.27059         1.52984
| 53>    C       -8.11546         8.78817         3.26288
| 54>    C       -9.37265         8.40300         3.75538
| 55>    C       -9.51994         8.59008         5.10184
| 56>    C       -8.38175         9.12898         5.74440
| 57>    S       -7.11869         9.40316         4.56000
| 58>    C       -8.28563         9.38144         7.09469
| 59>    C       -7.18783         9.89002         7.80639
| 60>    S       -7.33744        10.07044         9.53850
| 61>    C       -5.71198        10.68126         9.66868
| 62>    C       -5.08993        11.07284        10.93005
| 63>    O       -3.96267        11.49430        10.98994
| 64>    O       -5.83864        10.94098        12.04594
| 65>    C       -5.11219        10.73501         8.42683
| 66>    C       -5.92529        10.29765         7.38963
| 67>    H        2.66086         9.25711       -11.08167
| 68>    H       -1.03079         7.77393       -10.17989
| 69>    H       -0.21801         8.97572        -7.88007
| 70>    H        2.01765        10.27785        -7.21060
| 71>    H        4.04191        10.51037        -9.50162
| 72>    H        5.45266        11.70551        -8.00222
| 73>    H        3.25939        11.31366        -5.90087
| 74>    H        5.99769        12.70391        -5.74840
| 75>    H        6.33146        13.66817        -3.23682
| 76>    H        5.05779        13.76302        -0.99218
| 77>    H        3.19340        13.43590         0.87433
| 78>    H        1.00131        12.75151         2.05488
| 79>    H       -1.22910        11.54921         1.59976
| 80>    H       -3.50314         8.83294        -4.02931
| 81>    H       -5.54795         8.58678        -2.10796
| 82>    H       -7.87209         7.89014        -1.27586
| 83>    H       -9.29687         7.80282         0.87177
| 84>    H      -10.13784         8.00026         3.11644
| 85>    H      -10.41251         8.35186         5.65283
| 86>    H       -9.16539         9.14708         7.68069
| 87>    H       -6.72167        10.59265        11.86266
| 88>    H       -4.10370        11.08802         8.30717
| 89>    H       -5.61471        10.27505         6.36197
| 90> *
| 91>
| 92>                          ****END OF INPUT****

CARTESIAN COORDINATES (ANGSTROEM)
---------------------------------
  C      1.830130    9.082320  -10.426900
  O      0.794750    8.402330  -10.926820
  C     -0.125620    8.297320   -9.944810
  C      0.304540    8.902430   -8.812080
  C      1.602220    9.430540   -9.110930
  C      2.434480   10.150440   -8.199510
  C      3.660560   10.655730   -8.499350
  C      4.502330   11.366160   -7.608640
  C      4.207070   11.648860   -6.300910
  C      5.034310   12.341500   -5.414980
  C      4.658500   12.579960   -4.105320
  C      5.354950   13.245370   -3.077140
  C      4.679260   13.296130   -1.884210
  C      3.422200   12.673370   -1.926490
  S      3.109350   12.019650   -3.508520
  C      2.442510   12.509370   -0.946520
  C      2.390760   12.902600    0.396950
  C      1.225080   12.538050    1.024460
  C      0.315210   11.847270    0.200320
  S      0.985220   11.670060   -1.399320
  C     -0.934560   11.373290    0.573390
  C     -1.862310   10.706020   -0.214900
  S     -3.412780   10.223180    0.497470
  C     -4.046970    9.517230   -0.985850
  C     -3.056690    9.650030   -1.990890
  C     -1.877930   10.295440   -1.553870
  O     -0.988520   10.375010   -2.558610
  C     -1.579520    9.789640   -3.633140
  N     -0.861870    9.730040   -4.831540
  O     -1.416520    9.190200   -5.782400
  O      0.259410   10.208330   -4.871350
  C     -2.848200    9.328060   -3.342640
  C     -5.292790    8.953040   -1.121810
  C     -6.264610    8.798820   -0.136370
  C     -7.539450    8.243330   -0.315680
  C     -8.298300    8.197930    0.827240
  C     -7.643180    8.711550    1.954850
  S     -6.041950    9.270590    1.529840
  C     -8.115460    8.788170    3.262880
  C     -9.372650    8.403000    3.755380
  C     -9.519940    8.590080    5.101840
  C     -8.381750    9.128980    5.744400
  S     -7.118690    9.403160    4.560000
  C     -8.285630    9.381440    7.094690
  C     -7.187830    9.890020    7.806390
  S     -7.337440   10.070440    9.538500
  C     -5.711980   10.681260    9.668680
  C     -5.089930   11.072840   10.930050
  O     -3.962670   11.494300   10.989940
  O     -5.838640   10.940980   12.045940
  C     -5.112190   10.735010    8.426830
  C     -5.925290   10.297650    7.389630
  H      2.660860    9.257110  -11.081670
  H     -1.030790    7.773930  -10.179890
  H     -0.218010    8.975720   -7.880070
  H      2.017650   10.277850   -7.210600
  H      4.041910   10.510370   -9.501620
  H      5.452660   11.705510   -8.002220
  H      3.259390   11.313660   -5.900870
  H      5.997690   12.703910   -5.748400
  H      6.331460   13.668170   -3.236820
  H      5.057790   13.763020   -0.992180
  H      3.193400   13.435900    0.874330
  H      1.001310   12.751510    2.054880
  H     -1.229100   11.549210    1.599760
  H     -3.503140    8.832940   -4.029310
  H     -5.547950    8.586780   -2.107960
  H     -7.872090    7.890140   -1.275860
  H     -9.296870    7.802820    0.871770
  H    -10.137840    8.000260    3.116440
  H    -10.412510    8.351860    5.652830
  H     -9.165390    9.147080    7.680690
  H     -6.721670   10.592650   11.862660
  H     -4.103700   11.088020    8.307170
  H     -5.614710   10.275050    6.361970

 Total Charge           Charge          ....    0
 Multiplicity           Mult            ....    1
 Number of Electrons    NEL             ....  408
 Basis Dimension        Dim             ....  867

ORBITAL ENERGIES
----------------

  NO   OCC          E(Eh)            E(eV)
   0   2.0000     -88.966477     -2420.9009
   1   2.0000     -88.960642     -2420.7421
   2   2.0000     -88.954073     -2420.5634
   3   2.0000     -88.950659     -2420.4705
   4   2.0000     -88.941252     -2420.2145
   5   2.0000     -88.939052     -2420.1547
   6   2.0000     -19.314345      -525.5700
   7   2.0000     -19.280166      -524.6400
   8   2.0000     -19.251510      -523.8602
   9   2.0000     -19.248738      -523.7848
  10   2.0000     -19.246239      -523.7168
  11   2.0000     -19.179617      -521.9039
  12   2.0000     -14.661209      -398.9518
  13   2.0000     -10.390488      -282.7396
  14   2.0000     -10.389348      -282.7085
  15   2.0000     -10.351400      -281.6759
  16   2.0000     -10.321407      -280.8598
  17   2.0000     -10.317803      -280.7617
  18   2.0000     -10.317589      -280.7559
  19   2.0000     -10.315657      -280.7033
  20   2.0000     -10.312736      -280.6238
  21   2.0000     -10.312735      -280.6238
  22   2.0000     -10.312385      -280.6143
  23   2.0000     -10.311914      -280.6014
  24   2.0000     -10.311031      -280.5774
  25   2.0000     -10.309940      -280.5477
  26   2.0000     -10.308816      -280.5171
  27   2.0000     -10.305220      -280.4193
  28   2.0000     -10.301199      -280.3099
  29   2.0000     -10.300425      -280.2888
  30   2.0000     -10.300235      -280.2837
  31   2.0000     -10.296026      -280.1691
  32   2.0000     -10.295177      -280.1460
  33   2.0000     -10.288520      -279.9649
  34   2.0000     -10.288277      -279.9582
  35   2.0000     -10.286883      -279.9203
  36   2.0000     -10.286173      -279.9010
  37   2.0000     -10.286010      -279.8965
  38   2.0000     -10.285654      -279.8869
  39   2.0000     -10.285154      -279.8733
  40   2.0000     -10.285025      -279.8697
  41   2.0000     -10.284762      -279.8626
  42   2.0000     -10.284258      -279.8489
  43   2.0000     -10.278891      -279.7028
  44   2.0000     -10.278746      -279.6989
  45   2.0000     -10.277766      -279.6722
  46   2.0000     -10.274003      -279.5698
  47   2.0000     -10.272701      -279.5344
  48   2.0000     -10.268605      -279.4229
  49   2.0000     -10.265296      -279.3329
  50   2.0000     -10.263210      -279.2761
  51   2.0000     -10.250144      -278.9206
  52   2.0000      -8.060819      -219.3460
  53   2.0000      -8.056604      -219.2313
  54   2.0000      -8.050039      -219.0527
  55   2.0000      -8.046594      -218.9589
  56   2.0000      -8.037585      -218.7138
  57   2.0000      -8.035569      -218.6589
  58   2.0000      -6.030461      -164.0972
  59   2.0000      -6.026334      -163.9849
  60   2.0000      -6.025833      -163.9712
  61   2.0000      -6.022319      -163.8756
  62   2.0000      -6.021895      -163.8641
  63   2.0000      -6.019712      -163.8047
  64   2.0000      -6.018679      -163.7766
  65   2.0000      -6.016301      -163.7119
  66   2.0000      -6.015535      -163.6910
  67   2.0000      -6.012199      -163.6002
  68   2.0000      -6.011265      -163.5748
  69   2.0000      -6.007682      -163.4773
  70   2.0000      -6.007195      -163.4641
  71   2.0000      -6.005169      -163.4090
  72   2.0000      -6.003095      -163.3525
  73   2.0000      -6.000979      -163.2949
  74   2.0000      -5.998735      -163.2339
  75   2.0000      -5.996610      -163.1760
  76   2.0000      -1.328678       -36.1552
  77   2.0000      -1.236334       -33.6424
  78   2.0000      -1.197675       -32.5904
  79   2.0000      -1.166258       -31.7355
  80   2.0000      -1.143184       -31.1076
  81   2.0000      -1.079035       -29.3620
  82   2.0000      -1.002126       -27.2692
  83   2.0000      -0.996071       -27.1045
  84   2.0000      -0.992290       -27.0016
  85   2.0000      -0.984051       -26.7774
  86   2.0000      -0.974153       -26.5081
  87   2.0000      -0.971313       -26.4308
  88   2.0000      -0.942169       -25.6377
  89   2.0000      -0.917626       -24.9699
  90   2.0000      -0.906780       -24.6747
  91   2.0000      -0.901642       -24.5349
  92   2.0000      -0.896165       -24.3859
  93   2.0000      -0.886194       -24.1146
  94   2.0000      -0.872818       -23.7506
  95   2.0000      -0.859547       -23.3895
  96   2.0000      -0.851865       -23.1804
  97   2.0000      -0.845842       -23.0165
  98   2.0000      -0.836398       -22.7595
  99   2.0000      -0.832669       -22.6581
 100   2.0000      -0.829863       -22.5817
 101   2.0000      -0.825599       -22.4657
 102   2.0000      -0.817198       -22.2371
 103   2.0000      -0.814576       -22.1657
 104   2.0000      -0.804236       -21.8844
 105   2.0000      -0.795341       -21.6423
 106   2.0000      -0.782505       -21.2930
 107   2.0000      -0.762974       -20.7616
 108   2.0000      -0.747312       -20.3354
 109   2.0000      -0.731863       -19.9150
 110   2.0000      -0.713456       -19.4141
 111   2.0000      -0.709977       -19.3195
 112   2.0000      -0.698728       -19.0133
 113   2.0000      -0.685610       -18.6564
 114   2.0000      -0.682746       -18.5785
 115   2.0000      -0.671991       -18.2858
 116   2.0000      -0.666002       -18.1228
 117   2.0000      -0.665335       -18.1047
 118   2.0000      -0.658084       -17.9074
 119   2.0000      -0.655281       -17.8311
 120   2.0000      -0.648916       -17.6579
 121   2.0000      -0.644601       -17.5405
 122   2.0000      -0.636901       -17.3310
 123   2.0000      -0.632505       -17.2113
 124   2.0000      -0.630626       -17.1602
 125   2.0000      -0.625582       -17.0230
 126   2.0000      -0.620577       -16.8868
 127   2.0000      -0.619155       -16.8481
 128   2.0000      -0.615657       -16.7529
 129   2.0000      -0.614336       -16.7169
 130   2.0000      -0.605209       -16.4686
 131   2.0000      -0.599364       -16.3095
 132   2.0000      -0.592697       -16.1281
 133   2.0000      -0.584255       -15.8984
 134   2.0000      -0.579687       -15.7741
 135   2.0000      -0.572403       -15.5759
 136   2.0000      -0.570940       -15.5361
 137   2.0000      -0.556047       -15.1308
 138   2.0000      -0.546824       -14.8798
 139   2.0000      -0.542932       -14.7739
 140   2.0000      -0.538421       -14.6512
 141   2.0000      -0.536281       -14.5930
 142   2.0000      -0.534034       -14.5318
 143   2.0000      -0.527631       -14.3576
 144   2.0000      -0.522939       -14.2299
 145   2.0000      -0.522817       -14.2266
 146   2.0000      -0.516706       -14.0603
 147   2.0000      -0.514351       -13.9962
 148   2.0000      -0.512152       -13.9364
 149   2.0000      -0.507990       -13.8231
 150   2.0000      -0.502557       -13.6753
 151   2.0000      -0.498597       -13.5675
 152   2.0000      -0.495863       -13.4931
 153   2.0000      -0.495736       -13.4897
 154   2.0000      -0.493390       -13.4258
 155   2.0000      -0.488646       -13.2967
 156   2.0000      -0.486645       -13.2423
 157   2.0000      -0.483759       -13.1638
 158   2.0000      -0.480490       -13.0748
 159   2.0000      -0.472208       -12.8494
 160   2.0000      -0.471985       -12.8434
 161   2.0000      -0.470374       -12.7995
 162   2.0000      -0.467861       -12.7312
 163   2.0000      -0.466586       -12.6965
 164   2.0000      -0.464620       -12.6430
 165   2.0000      -0.455976       -12.4077
 166   2.0000      -0.453049       -12.3281
 167   2.0000      -0.450790       -12.2666
 168   2.0000      -0.447947       -12.1893
 169   2.0000      -0.445879       -12.1330
 170   2.0000      -0.440348       -11.9825
 171   2.0000      -0.438444       -11.9307
 172   2.0000      -0.433031       -11.7834
 173   2.0000      -0.429604       -11.6901
 174   2.0000      -0.427657       -11.6371
 175   2.0000      -0.424681       -11.5562
 176   2.0000      -0.421074       -11.4580
 177   2.0000      -0.415867       -11.3163
 178   2.0000      -0.415603       -11.3091
 179   2.0000      -0.411810       -11.2059
 180   2.0000      -0.399604       -10.8738
 181   2.0000      -0.396210       -10.7814
 182   2.0000      -0.393581       -10.7099
 183   2.0000      -0.390626       -10.6295
 184   2.0000      -0.386071       -10.5055
 185   2.0000      -0.382819       -10.4170
 186   2.0000      -0.378908       -10.3106
 187   2.0000      -0.376480       -10.2445
 188   2.0000      -0.367293        -9.9945
 189   2.0000      -0.356334        -9.6964
 190   2.0000      -0.342607        -9.3228
 191   2.0000      -0.336958        -9.1691
 192   2.0000      -0.334210        -9.0943
 193   2.0000      -0.332971        -9.0606
 194   2.0000      -0.330678        -8.9982
 195   2.0000      -0.325997        -8.8708
 196   2.0000      -0.319331        -8.6894
 197   2.0000      -0.318488        -8.6665
 198   2.0000      -0.311410        -8.4739
 199   2.0000      -0.298661        -8.1270
 200   2.0000      -0.279439        -7.6039
 201   2.0000      -0.255843        -6.9618
 202   2.0000      -0.224806        -6.1173
 203   2.0000      -0.182782        -4.9737
 204   0.0000      -0.110393        -3.0040
 205   0.0000      -0.074112        -2.0167
 206   0.0000      -0.059135        -1.6091
 207   0.0000      -0.029041        -0.7903
 208   0.0000      -0.010369        -0.2822

MULLIKEN ATOMIC CHARGES
-----------------------
   0 C :    0.067098
   1 O :   -0.178339
   2 C :    0.127555
   3 C :   -0.030465
   4 C :    0.029793
   5 C :    0.052554
   6 C :    0.002331
   7 C :    0.025804
   8 C :   -0.010920
   9 C :    0.025917
  10 C :   -0.038750
  11 C :    0.043524
  12 C :    0.016464
  13 C :   -0.027183
  14 S :    0.076118
  15 C :   -0.035307
  16 C :    0.033920
  17 C :    0.020689
  18 C :   -0.032401
  19 S :    0.084473
  20 C :    0.042606
  21 C :   -0.180411
  22 S :    0.115623
  23 C :   -0.089935
  24 C :    0.123347
  25 C :    0.184925
  26 O :   -0.183819
  27 C :    0.231388
  28 N :    0.291778
  29 O :   -0.249064
  30 O :   -0.233759
  31 C :   -0.097302
  32 C :   -0.010420
  33 C :   -0.046261
  34 C :    0.029764
  35 C :    0.017107
  36 C :   -0.026436
  37 S :    0.075614
  38 C :   -0.041967
  39 C :    0.028817
  40 C :    0.025866
  41 C :   -0.026103
  42 S :    0.066772
  43 C :    0.036303
  44 C :   -0.084247
  45 S :    0.076409
  46 C :   -0.180451
  47 C :    0.179058
  48 O :   -0.181375
  49 O :   -0.168926
  50 C :    0.044933
  51 C :    0.002874
  52 H :    0.003340
  53 H :    0.005341
  54 H :   -0.024185
  55 H :   -0.008886
  56 H :   -0.024929
  57 H :   -0.018108
  58 H :    0.028943
  59 H :   -0.015732
  60 H :   -0.012719
  61 H :   -0.014649
  62 H :   -0.014717
  63 H :   -0.014788
  64 H :   -0.022324
  65 H :    0.010668
  66 H :   -0.015353
  67 H :   -0.013612
  68 H :   -0.015716
  69 H :   -0.013346
  70 H :   -0.013006
  71 H :   -0.017440
  72 H :    0.176006
  73 H :    0.006811
  74 H :    0.002816
Sum of atomic charges:    0.0000000

LOEWDIN ATOMIC CHARGES
----------------------
   0 C :    0.038225
   1 O :    0.025614
   2 C :    0.026087
   3 C :   -0.060056
   4 C :   -0.083091
   5 C :    0.020541
   6 C :   -0.048951
   7 C :   -0.003462
   8 C :   -0.040707
   9 C :   -0.025515
  10 C :   -0.160667
  11 C :   -0.024436
  12 C :   -0.044072
  13 C :   -0.162590
  14 S :    0.404098
  15 C :   -0.198392
  16 C :   -0.028496
  17 C :   -0.048316
  18 C :   -0.142475
  19 S :    0.417734
  20 C :   -0.095576
  21 C :   -0.180874
  22 S :    0.429594
  23 C :   -0.176817
  24 C :   -0.071089
  25 C :    0.010377
  26 O :    0.010882
  27 C :    0.014385
  28 N :    0.280698
  29 O :   -0.219118
  30 O :   -0.203913
  31 C :   -0.000784
  32 C :   -0.065567
  33 C :   -0.167812
  34 C :   -0.031788
  35 C :   -0.047664
  36 C :   -0.170649
  37 S :    0.385760
  38 C :   -0.186432
  39 C :   -0.032935
  40 C :   -0.040429
  41 C :   -0.136947
  42 S :    0.391260
  43 C :   -0.090534
  44 C :   -0.147337
  45 S :    0.408231
  46 C :   -0.247839
  47 C :    0.061329
  48 O :   -0.170099
  49 O :   -0.042961
  50 C :   -0.004284
  51 C :   -0.075597
  52 H :    0.018682
  53 H :    0.020591
  54 H :    0.024793
  55 H :    0.032835
  56 H :    0.024536
  57 H :    0.028098
  58 H :    0.022619
  59 H :    0.033079
  60 H :    0.033384
  61 H :    0.031720
  62 H :    0.031769
  63 H :    0.031662
  64 H :    0.034802
  65 H :    0.045584
  66 H :    0.040444
  67 H :    0.033173
  68 H :    0.031216
  69 H :    0.032395
  70 H :    0.032877
  71 H :    0.032500
  72 H :    0.075750
  73 H :    0.041680
  74 H :    0.019264

  Mayer bond orders larger than 0.100000
B(  0-C ,  1-O ) :   1.1879 B(  0-C ,  4-C ) :   1.4753 B(  0-C , 52-H ) :   1.0033
B(  1-O ,  2-C ) :   1.1305 B(  2-C ,  3-C ) :   1.5813 B(  2-C , 53-H ) :   1.0017
B(  3-C ,  4-C ) :   1.2014 B(  3-C , 54-H ) :   0.9929 B(  4-C ,  5-C ) :   1.1183
B(  5-C ,  6-C ) :   1.6614 B(  5-C , 55-H ) :   0.9622 B(  6-C ,  7-C ) :   1.1644
B(  6-C , 56-H ) :   0.9739 B(  7-C ,  8-C ) :   1.5990 B(  7-C , 57-H ) :   0.9812
B(  8-C ,  9-C ) :   1.2065 B(  8-C , 58-H ) :   0.9568 B(  9-C , 10-C ) :   1.4933
B(  9-C , 59-H ) :   0.9882 B( 10-C , 11-C ) :   1.1842 B( 10-C , 14-S ) :   1.0379
B( 11-C , 12-C ) :   1.5295 B( 11-C , 60-H ) :   0.9982 B( 12-C , 13-C ) :   1.2419
B( 12-C , 61-H ) :   0.9967 B( 13-C , 14-S ) :   1.0859 B( 13-C , 15-C ) :   1.3959
B( 15-C , 16-C ) :   1.2558 B( 15-C , 19-S ) :   1.0485 B( 16-C , 17-C ) :   1.5098
B( 16-C , 62-H ) :   0.9946 B( 17-C , 18-C ) :   1.2129 B( 17-C , 63-H ) :   1.0001
B( 18-C , 19-S ) :   1.0772 B( 18-C , 20-C ) :   1.4599 B( 20-C , 21-C ) :   1.2825
B( 20-C , 64-H ) :   0.9416 B( 21-C , 22-S ) :   1.0847 B( 21-C , 25-C ) :   1.3067
B( 22-S , 23-C ) :   1.0655 B( 23-C , 24-C ) :   1.2438 B( 23-C , 32-C ) :   1.3568
B( 24-C , 25-C ) :   1.2941 B( 24-C , 31-C ) :   1.1537 B( 25-C , 26-O ) :   1.1075
B( 26-O , 27-C ) :   1.1221 B( 27-C , 28-N ) :   0.9456 B( 27-C , 31-C ) :   1.5004
B( 28-N , 29-O ) :   1.4862 B( 28-N , 30-O ) :   1.4865 B( 29-O , 30-O ) :   0.2589
B( 31-C , 65-H ) :   1.0210 B( 32-C , 33-C ) :   1.4253 B( 32-C , 66-H ) :   0.9653
B( 33-C , 34-C ) :   1.2215 B( 33-C , 37-S ) :   1.0518 B( 34-C , 35-C ) :   1.5096
B( 34-C , 67-H ) :   1.0008 B( 35-C , 36-C ) :   1.2456 B( 35-C , 68-H ) :   0.9933
B( 36-C , 37-S ) :   1.0628 B( 36-C , 38-C ) :   1.4288 B( 38-C , 39-C ) :   1.2320
B( 38-C , 42-S ) :   1.0442 B( 39-C , 40-C ) :   1.5462 B( 39-C , 69-H ) :   0.9929
B( 40-C , 41-C ) :   1.1722 B( 40-C , 70-H ) :   0.9988 B( 41-C , 42-S ) :   1.0522
B( 41-C , 43-C ) :   1.5686 B( 43-C , 44-C ) :   1.1828 B( 43-C , 71-H ) :   0.9501
B( 44-C , 45-S ) :   1.1288 B( 44-C , 51-C ) :   1.4327 B( 45-S , 46-C ) :   1.0787
B( 46-C , 47-C ) :   0.9572 B( 46-C , 50-C ) :   1.5210 B( 47-C , 48-O ) :   2.1945
B( 47-C , 49-O ) :   1.2250 B( 49-O , 72-H ) :   0.9526 B( 50-C , 51-C ) :   1.2958
B( 50-C , 73-H ) :   0.9998 B( 51-C , 74-H ) :   0.9814

-----------------------------------------------------------------------------
         ABSORPTION SPECTRUM VIA TRANSITION ELECTRIC DIPOLE MOMENTS
-----------------------------------------------------------------------------
State   Energy  Wavelength   fosc         T2         TX        TY        TZ
        (cm-1)    (nm)                  (au**2)     (au)      (au)      (au)
-----------------------------------------------------------------------------
   0    4154.4   2407.1   0.470973676  37.32158   4.23784   0.83534  -4.32025
   1   10002.2    999.8   0.298555790   9.82662  -1.82315  -0.14749   2.54578
   2   12301.0    812.9   0.001746309   0.04674   0.11082   0.01221   0.18522
   3   14248.9    701.8   0.077577954   1.79240   0.22313   0.09043  -1.31698
   4   18252.1    547.9   0.091524184   1.65082  -0.20336  -0.42625  -1.19489
   5   19330.4    517.3   0.004090410   0.06966  -0.23842   0.09656   0.05911
   6   22164.5    451.2   1.452587672  21.57546   1.87671   1.88391   3.80845
   7   23220.9    430.6   0.060115450   0.85228   0.03389   0.25690   0.88608
   8   23918.9    418.1   0.549938319   7.56917   1.75149   1.14610   1.78547
   9   25248.4    396.1   0.365354412   4.76384  -1.58997  -0.84557  -1.23323
  10   26261.5    380.8   0.135265737   1.69568  -0.86917  -0.72825  -0.64021
  11   26987.6    370.5   0.003045007   0.03714  -0.14174  -0.07403  -0.10759
  12   27978.6    357.4   0.024438816   0.28756  -0.50647  -0.02747   0.17406
  13   29288.1    341.4   0.029577494   0.33246  -0.47307   0.00537   0.32960
  14   29351.2    340.7   0.060062644   0.67368  -0.08409   0.23524   0.78184
  15   29661.1    337.1   0.008688638   0.09644  -0.07156  -0.15716  -0.25810
  16   30370.4    329.3   0.029856915   0.32365   0.01473  -0.29744  -0.48473
  17   30635.3    326.4   0.022671293   0.24363  -0.11653  -0.03185  -0.47858
  18   31084.8    321.7   0.046566074   0.49317  -0.41297  -0.32937  -0.46275
  19   31403.3    318.4   0.075217857   0.78854   0.47137  -0.01066  -0.75248
  20   32064.4    311.9   0.000214580   0.00220   0.01092  -0.02125   0.04040
  21   32289.6    309.7   0.023855791   0.24322   0.10787   0.16390   0.45247
  22   32661.0    306.2   0.014026366   0.14138   0.10304   0.10637   0.34561
  23   33014.7    302.9   0.014293788   0.14253  -0.06790  -0.13817  -0.34472
  24   33889.7    295.1   0.002835174   0.02754  -0.12501  -0.05043   0.09680
  25   34118.5    293.1   0.065277108   0.62986   0.19309  -0.10966  -0.76194
  26   34430.5    290.4   0.005949953   0.05689   0.08249  -0.06372  -0.21454
  27   34681.1    288.3   0.000059782   0.00057   0.01499   0.01502   0.01082
  28   34955.9    286.1   0.024183752   0.22776   0.44854   0.14210  -0.07986
  29   35215.1    284.0   0.063489367   0.59354   0.35463   0.03554  -0.68302
  30   35261.2    283.6   0.002486762   0.02322  -0.14009  -0.02547  -0.05426
  31   35507.4    281.6   0.359982433   3.33763   1.65987   0.55638  -0.52241
  32   35869.7    278.8   0.049955047   0.45849  -0.40910  -0.03217   0.53860
  33   36165.6    276.5   0.000359017   0.00327   0.02560  -0.05104   0.00274
  34   36696.9    272.5   0.009766946   0.08762   0.17183   0.02327  -0.23990
  35   37137.5    269.3   0.127615868   1.13127  -0.30057   0.15152   1.00895
  36   38014.2    263.1   0.060101956   0.52050  -0.31336  -0.31112  -0.57053
  37   38660.6    258.7   0.000709234   0.00604   0.05852  -0.05028  -0.00931
  38   38823.3    257.6   0.019559184   0.16586   0.24098  -0.00045  -0.32830
  39   39173.9    255.3   0.000644489   0.00542  -0.03006   0.01466  -0.06556
  40   39443.1    253.5   0.037869562   0.31608   0.39299   0.04654  -0.39934
  41   39728.4    251.7   0.007457392   0.06180   0.02825   0.11228   0.21998
  42   40089.6    249.4   0.022221644   0.18248  -0.03407  -0.16478  -0.39264
  43   40315.3    248.0   0.019157895   0.15644   0.16988   0.01377  -0.35692

FINAL SINGLE POINT ENERGY     -4391.770584806547

DIPOLE MOMENT
-------------
                                X             Y             Z
Electronic contribution:    -15.69591      -0.88082      23.66887
Nuclear contribution   :     14.83869       0.42638     -25.73797
                        -----------------------------------------
Total Dipole Moment    :     -0.85723      -0.45444      -2.06911
                        -----------------------------------------
Magnitude (a.u.)       :      2.28529
Magnitude (Debye)      :      5.80875

Rotational constants in cm-1:     0.002375     0.000451     0.000380
Rotational constants in MHz :    71.194984    13.523503    11.398593

                             ****ORCA TERMINATED NORMALLY****
TOTAL RUN TIME: 0 days 0 hours 6 minutes 14 seconds 846 msec
