                         Program Version 4.2.0 -  RELEASE  -
|  1> # ORCA input file
|  2> # SCF done       -159.948146096886          0.000279049053
|  3> ! CAM-B3LYP def2-SVP def2/J RIJCOSX Grid4 TightSCF
|  4> %maxcore 5000
|  5> %tddft
|  6>     Mode sTDDFT
|  7>     Ethresh 5.0
|  8>     maxcore 5000
|  9> end
| 10>
| 11> %pal
| 12>   nprocs 6
| 13>   end
| 14> * xyz 0 1
| 15>    C       13.96236        -7.90414         4.94648
| 16>    S       13.40235        -9.39631         4.35146
| 17>    C       12.55052        -8.64841         3.00827
| 18>    C       12.79429        -7.25810         3.02045
| 19>    C       13.56970        -6.84585         4.15030
| 20>    C       13.85527        -5.47990         4.33935
| 21>    C       13.43287        -4.53292         3.44006
| 22>    O       13.76813        -3.25466         3.75702
| 23>    C       13.18821        -2.14697         3.10379
| 24>    C       12.74442        -4.95802         2.25367
| 25>    O       12.41984        -3.99763         1.34323
| 26>    C       11.68845        -4.36091         0.19447
| 27>    C       12.45949        -6.29016         2.06377
| 28>    C       11.77266        -9.51907         2.23697
| 29>    C       10.71866        -9.30185         1.37084
| 30>    C       10.01831       -10.32226         0.68884
| 31>    C        8.96525        -9.88810        -0.07206
| 32>    C        8.77849        -8.49898        -0.03029
| 33>    S        9.95767        -7.76250         1.02408
| 34>    C        7.87655        -7.68206        -0.70562
| 35>    C        6.82199        -8.00788        -1.56844
| 36>    C        6.16696        -6.91222        -2.07280
| 37>    C        6.68125        -5.67917        -1.63550
| 38>    S        8.01670        -5.94571        -0.54169
| 39>    C        6.24886        -4.41165        -1.99145
| 40>    C        6.80709        -3.21277        -1.58207
| 41>    S        8.19913        -3.04029        -0.51867
| 42>    C        8.21212        -1.26640        -0.56557
| 43>    C        7.14755        -0.83984        -1.40130
| 44>    C        6.40755        -1.91873        -1.93650
| 45>    O        5.43626        -1.49210        -2.75706
| 46>    C        5.54710        -0.13652        -2.76784
| 47>    N        4.66469         0.59813        -3.58053
| 48>    O        4.82159         1.80736        -3.60058
| 49>    O        3.82266        -0.01401        -4.20886
| 50>    C        6.56862         0.31710        -1.96444
| 51>    C        9.21478        -0.64777         0.14439
| 52>    C        9.45700         0.69941         0.41179
| 53>    C       10.59916         1.18091         1.06742
| 54>    C       10.61672         2.54383         1.24666
| 55>    C        9.47433         3.18546         0.75879
| 56>    S        8.38329         2.02373         0.04683
| 57>    C        9.16079         4.54632         0.79431
| 58>    C        9.96877         5.60842         1.22004
| 59>    C        9.36414         6.83455         1.11696
| 60>    C        8.04606         6.79236         0.62428
| 61>    S        7.60352         5.13521         0.27336
| 62>    C        7.23196         7.89807         0.44440
| 63>    C        5.90054         7.94217         0.04287
| 64>    S        5.13782         9.52820        -0.14170
| 65>    C        3.64905         8.79591        -0.56093
| 66>    C        3.73893         7.39569        -0.55293
| 67>    C        4.98457         6.91078        -0.22679
| 68>    C        2.38787         6.87623        -0.89469
| 69>    O        2.01844         5.72941        -0.95497
| 70>    C        1.55944         8.10755        -1.11898
| 71>    C        2.34110         9.21692        -0.90629
| 72>    C        0.17995         8.00221        -1.48480
| 73>    C       -0.65004         9.02437        -1.70873
| 74>    H       14.54900        -7.86868         5.84244
| 75>    H       14.41382        -5.15929         5.20362
| 76>    H       13.50007        -1.28208         3.68990
| 77>    H       12.09758        -2.20711         3.09793
| 78>    H       13.55264        -2.04346         2.07955
| 79>    H       11.50790        -3.43026        -0.34125
| 80>    H       12.25865        -5.03912        -0.44645
| 81>    H       10.72949        -4.81948         0.45285
| 82>    H       11.99753        -6.60407         1.14768
| 83>    H       11.98216       -10.56911         2.41247
| 84>    H       10.31539       -11.35301         0.77160
| 85>    H        8.33870       -10.53215        -0.66259
| 86>    H        6.56439        -9.02591        -1.79971
| 87>    H        5.33494        -6.96443        -2.75254
| 88>    H        5.40068        -4.33905        -2.65909
| 89>    H        6.82924         1.34563        -1.83530
| 90>    H        9.93862        -1.32286         0.58725
| 91>    H       11.38669         0.52076         1.38704
| 92>    H       11.41627         3.07767         1.72735
| 93>    H       10.97137         5.45891         1.57793
| 94>    H        9.83232         7.76377         1.38984
| 95>    H        7.69618         8.85323         0.65713
| 96>    H        5.23636         5.86830        -0.17178
| 97>    H        2.02979        10.24263        -0.98339
| 98>    H       -0.17524         6.98334        -1.57630
| 99>    H       -0.33007        10.04927        -1.62668
|100>    H       -1.67808         8.86257        -1.98081
|101> *
|102>
|103>                          ****END OF INPUT****

CARTESIAN COORDINATES (ANGSTROEM)
---------------------------------
  C     13.962360   -7.904140    4.946480
  S     13.402350   -9.396310    4.351460
  C     12.550520   -8.648410    3.008270
  C     12.794290   -7.258100    3.020450
  C     13.569700   -6.845850    4.150300
  C     13.855270   -5.479900    4.339350
  C     13.432870   -4.532920    3.440060
  O     13.768130   -3.254660    3.757020
  C     13.188210   -2.146970    3.103790
  C     12.744420   -4.958020    2.253670
  O     12.419840   -3.997630    1.343230
  C     11.688450   -4.360910    0.194470
  C     12.459490   -6.290160    2.063770
  C     11.772660   -9.519070    2.236970
  C     10.718660   -9.301850    1.370840
  C     10.018310  -10.322260    0.688840
  C      8.965250   -9.888100   -0.072060
  C      8.778490   -8.498980   -0.030290
  S      9.957670   -7.762500    1.024080
  C      7.876550   -7.682060   -0.705620
  C      6.821990   -8.007880   -1.568440
  C      6.166960   -6.912220   -2.072800
  C      6.681250   -5.679170   -1.635500
  S      8.016700   -5.945710   -0.541690
  C      6.248860   -4.411650   -1.991450
  C      6.807090   -3.212770   -1.582070
  S      8.199130   -3.040290   -0.518670
  C      8.212120   -1.266400   -0.565570
  C      7.147550   -0.839840   -1.401300
  C      6.407550   -1.918730   -1.936500
  O      5.436260   -1.492100   -2.757060
  C      5.547100   -0.136520   -2.767840
  N      4.664690    0.598130   -3.580530
  O      4.821590    1.807360   -3.600580
  O      3.822660   -0.014010   -4.208860
  C      6.568620    0.317100   -1.964440
  C      9.214780   -0.647770    0.144390
  C      9.457000    0.699410    0.411790
  C     10.599160    1.180910    1.067420
  C     10.616720    2.543830    1.246660
  C      9.474330    3.185460    0.758790
  S      8.383290    2.023730    0.046830
  C      9.160790    4.546320    0.794310
  C      9.968770    5.608420    1.220040
  C      9.364140    6.834550    1.116960
  C      8.046060    6.792360    0.624280
  S      7.603520    5.135210    0.273360
  C      7.231960    7.898070    0.444400
  C      5.900540    7.942170    0.042870
  S      5.137820    9.528200   -0.141700
  C      3.649050    8.795910   -0.560930
  C      3.738930    7.395690   -0.552930
  C      4.984570    6.910780   -0.226790
  C      2.387870    6.876230   -0.894690
  O      2.018440    5.729410   -0.954970
  C      1.559440    8.107550   -1.118980
  C      2.341100    9.216920   -0.906290
  C      0.179950    8.002210   -1.484800
  C     -0.650040    9.024370   -1.708730
  H     14.549000   -7.868680    5.842440
  H     14.413820   -5.159290    5.203620
  H     13.500070   -1.282080    3.689900
  H     12.097580   -2.207110    3.097930
  H     13.552640   -2.043460    2.079550
  H     11.507900   -3.430260   -0.341250
  H     12.258650   -5.039120   -0.446450
  H     10.729490   -4.819480    0.452850
  H     11.997530   -6.604070    1.147680
  H     11.982160  -10.569110    2.412470
  H     10.315390  -11.353010    0.771600
  H      8.338700  -10.532150   -0.662590
  H      6.564390   -9.025910   -1.799710
  H      5.334940   -6.964430   -2.752540
  H      5.400680   -4.339050   -2.659090
  H      6.829240    1.345630   -1.835300
  H      9.938620   -1.322860    0.587250
  H     11.386690    0.520760    1.387040
  H     11.416270    3.077670    1.727350
  H     10.971370    5.458910    1.577930
  H      9.832320    7.763770    1.389840
  H      7.696180    8.853230    0.657130
  H      5.236360    5.868300   -0.171780
  H      2.029790   10.242630   -0.983390
  H     -0.175240    6.983340   -1.576300
  H     -0.330070   10.049270   -1.626680
  H     -1.678080    8.862570   -1.980810

 Total Charge           Charge          ....    0
 Multiplicity           Mult            ....    1
 Number of Electrons    NEL             ....  464
 Basis Dimension        Dim             ....  989

ORBITAL ENERGIES
----------------

  NO   OCC          E(Eh)            E(eV)
   0   2.0000     -88.966850     -2420.9111
   1   2.0000     -88.962381     -2420.7895
   2   2.0000     -88.961249     -2420.7587
   3   2.0000     -88.950525     -2420.4668
   4   2.0000     -88.948217     -2420.4040
   5   2.0000     -88.948134     -2420.4018
   6   2.0000     -88.948103     -2420.4009
   7   2.0000     -19.303453      -525.2737
   8   2.0000     -19.253452      -523.9131
   9   2.0000     -19.238147      -523.4966
  10   2.0000     -19.228106      -523.2234
  11   2.0000     -19.226461      -523.1786
  12   2.0000     -19.217128      -522.9246
  13   2.0000     -14.640602      -398.3910
  14   2.0000     -10.372212      -282.2422
  15   2.0000     -10.357869      -281.8519
  16   2.0000     -10.342100      -281.4229
  17   2.0000     -10.341958      -281.4190
  18   2.0000     -10.334980      -281.2291
  19   2.0000     -10.323007      -280.9033
  20   2.0000     -10.315327      -280.6943
  21   2.0000     -10.312865      -280.6273
  22   2.0000     -10.312549      -280.6187
  23   2.0000     -10.311739      -280.5967
  24   2.0000     -10.309774      -280.5432
  25   2.0000     -10.309423      -280.5337
  26   2.0000     -10.308591      -280.5110
  27   2.0000     -10.306940      -280.4661
  28   2.0000     -10.306787      -280.4619
  29   2.0000     -10.306289      -280.4484
  30   2.0000     -10.306171      -280.4452
  31   2.0000     -10.305173      -280.4180
  32   2.0000     -10.303428      -280.3705
  33   2.0000     -10.302985      -280.3585
  34   2.0000     -10.300466      -280.2899
  35   2.0000     -10.296883      -280.1924
  36   2.0000     -10.295334      -280.1503
  37   2.0000     -10.294748      -280.1343
  38   2.0000     -10.293049      -280.0881
  39   2.0000     -10.290233      -280.0115
  40   2.0000     -10.287601      -279.9398
  41   2.0000     -10.287227      -279.9297
  42   2.0000     -10.284746      -279.8622
  43   2.0000     -10.284146      -279.8458
  44   2.0000     -10.284039      -279.8429
  45   2.0000     -10.283866      -279.8382
  46   2.0000     -10.283643      -279.8321
  47   2.0000     -10.283284      -279.8224
  48   2.0000     -10.283146      -279.8186
  49   2.0000     -10.282518      -279.8015
  50   2.0000     -10.282091      -279.7899
  51   2.0000     -10.279682      -279.7244
  52   2.0000     -10.278933      -279.7040
  53   2.0000     -10.275456      -279.6094
  54   2.0000     -10.269069      -279.4356
  55   2.0000     -10.268796      -279.4282
  56   2.0000     -10.266737      -279.3721
  57   2.0000     -10.265280      -279.3325
  58   2.0000     -10.260802      -279.2106
  59   2.0000      -8.061770      -219.3719
  60   2.0000      -8.057867      -219.2657
  61   2.0000      -8.055611      -219.2043
  62   2.0000      -8.046552      -218.9578
  63   2.0000      -8.044119      -218.8916
  64   2.0000      -8.044088      -218.8908
  65   2.0000      -8.043880      -218.8851
  66   2.0000      -6.030908      -164.1094
  67   2.0000      -6.026997      -164.0029
  68   2.0000      -6.026852      -163.9990
  69   2.0000      -6.025178      -163.9534
  70   2.0000      -6.024125      -163.9248
  71   2.0000      -6.022736      -163.8870
  72   2.0000      -6.021138      -163.8435
  73   2.0000      -6.020679      -163.8310
  74   2.0000      -6.017176      -163.7357
  75   2.0000      -6.016176      -163.7085
  76   2.0000      -6.013819      -163.6443
  77   2.0000      -6.013766      -163.6429
  78   2.0000      -6.013540      -163.6367
  79   2.0000      -6.012044      -163.5960
  80   2.0000      -6.009608      -163.5297
  81   2.0000      -6.009600      -163.5295
  82   2.0000      -6.009458      -163.5257
  83   2.0000      -6.007817      -163.4810
  84   2.0000      -6.005333      -163.4134
  85   2.0000      -6.005241      -163.4109
  86   2.0000      -6.005100      -163.4071
  87   2.0000      -1.310089       -35.6493
  88   2.0000      -1.224040       -33.3078
  89   2.0000      -1.160870       -31.5889
  90   2.0000      -1.135864       -30.9084
  91   2.0000      -1.126792       -30.6616
  92   2.0000      -1.126061       -30.6417
  93   2.0000      -0.999617       -27.2010
  94   2.0000      -0.998539       -27.1716
  95   2.0000      -0.995612       -27.0920
  96   2.0000      -0.991284       -26.9742
  97   2.0000      -0.986254       -26.8373
  98   2.0000      -0.974343       -26.5132
  99   2.0000      -0.970205       -26.4006
 100   2.0000      -0.934402       -25.4264
 101   2.0000      -0.927255       -25.2319
 102   2.0000      -0.925794       -25.1921
 103   2.0000      -0.900743       -24.5105
 104   2.0000      -0.893278       -24.3073
 105   2.0000      -0.885660       -24.1000
 106   2.0000      -0.879354       -23.9284
 107   2.0000      -0.865475       -23.5508
 108   2.0000      -0.857713       -23.3396
 109   2.0000      -0.849328       -23.1114
 110   2.0000      -0.846252       -23.0277
 111   2.0000      -0.844012       -22.9667
 112   2.0000      -0.840824       -22.8800
 113   2.0000      -0.837997       -22.8031
 114   2.0000      -0.828947       -22.5568
 115   2.0000      -0.822709       -22.3870
 116   2.0000      -0.822001       -22.3678
 117   2.0000      -0.813488       -22.1361
 118   2.0000      -0.800700       -21.7881
 119   2.0000      -0.788668       -21.4607
 120   2.0000      -0.776899       -21.1405
 121   2.0000      -0.772783       -21.0285
 122   2.0000      -0.763757       -20.7829
 123   2.0000      -0.749582       -20.3972
 124   2.0000      -0.746015       -20.3001
 125   2.0000      -0.735249       -20.0071
 126   2.0000      -0.722863       -19.6701
 127   2.0000      -0.702940       -19.1280
 128   2.0000      -0.700393       -19.0587
 129   2.0000      -0.691471       -18.8159
 130   2.0000      -0.677814       -18.4443
 131   2.0000      -0.672329       -18.2950
 132   2.0000      -0.668221       -18.1832
 133   2.0000      -0.662099       -18.0166
 134   2.0000      -0.656043       -17.8518
 135   2.0000      -0.650111       -17.6904
 136   2.0000      -0.639818       -17.4103
 137   2.0000      -0.637012       -17.3340
 138   2.0000      -0.630328       -17.1521
 139   2.0000      -0.626295       -17.0423
 140   2.0000      -0.626102       -17.0371
 141   2.0000      -0.624428       -16.9915
 142   2.0000      -0.619189       -16.8490
 143   2.0000      -0.616658       -16.7801
 144   2.0000      -0.615577       -16.7507
 145   2.0000      -0.606090       -16.4925
 146   2.0000      -0.604132       -16.4393
 147   2.0000      -0.598674       -16.2907
 148   2.0000      -0.595796       -16.2124
 149   2.0000      -0.592317       -16.1178
 150   2.0000      -0.585599       -15.9349
 151   2.0000      -0.580666       -15.8007
 152   2.0000      -0.574686       -15.6380
 153   2.0000      -0.566664       -15.4197
 154   2.0000      -0.563827       -15.3425
 155   2.0000      -0.560491       -15.2517
 156   2.0000      -0.558979       -15.2106
 157   2.0000      -0.553746       -15.0682
 158   2.0000      -0.552828       -15.0432
 159   2.0000      -0.548852       -14.9350
 160   2.0000      -0.538415       -14.6510
 161   2.0000      -0.533980       -14.5303
 162   2.0000      -0.530666       -14.4402
 163   2.0000      -0.529098       -14.3975
 164   2.0000      -0.524172       -14.2634
 165   2.0000      -0.522890       -14.2285
 166   2.0000      -0.517228       -14.0745
 167   2.0000      -0.516025       -14.0417
 168   2.0000      -0.515254       -14.0208
 169   2.0000      -0.504840       -13.7374
 170   2.0000      -0.503454       -13.6997
 171   2.0000      -0.500573       -13.6213
 172   2.0000      -0.499112       -13.5815
 173   2.0000      -0.497448       -13.5362
 174   2.0000      -0.495411       -13.4808
 175   2.0000      -0.493044       -13.4164
 176   2.0000      -0.491673       -13.3791
 177   2.0000      -0.490802       -13.3554
 178   2.0000      -0.488541       -13.2939
 179   2.0000      -0.485883       -13.2215
 180   2.0000      -0.478924       -13.0322
 181   2.0000      -0.477250       -12.9866
 182   2.0000      -0.475053       -12.9268
 183   2.0000      -0.472700       -12.8628
 184   2.0000      -0.470247       -12.7961
 185   2.0000      -0.465471       -12.6661
 186   2.0000      -0.462363       -12.5815
 187   2.0000      -0.460588       -12.5332
 188   2.0000      -0.458046       -12.4641
 189   2.0000      -0.456008       -12.4086
 190   2.0000      -0.451309       -12.2807
 191   2.0000      -0.449421       -12.2294
 192   2.0000      -0.447143       -12.1674
 193   2.0000      -0.446302       -12.1445
 194   2.0000      -0.435822       -11.8593
 195   2.0000      -0.434707       -11.8290
 196   2.0000      -0.428852       -11.6696
 197   2.0000      -0.427160       -11.6236
 198   2.0000      -0.426545       -11.6069
 199   2.0000      -0.424428       -11.5493
 200   2.0000      -0.422330       -11.4922
 201   2.0000      -0.421442       -11.4680
 202   2.0000      -0.416482       -11.3331
 203   2.0000      -0.413947       -11.2641
 204   2.0000      -0.412309       -11.2195
 205   2.0000      -0.407725       -11.0948
 206   2.0000      -0.400295       -10.8926
 207   2.0000      -0.390062       -10.6141
 208   2.0000      -0.387992       -10.5578
 209   2.0000      -0.384729       -10.4690
 210   2.0000      -0.382168       -10.3993
 211   2.0000      -0.375179       -10.2091
 212   2.0000      -0.367250        -9.9934
 213   2.0000      -0.365797        -9.9538
 214   2.0000      -0.361442        -9.8353
 215   2.0000      -0.356367        -9.6972
 216   2.0000      -0.354678        -9.6513
 217   2.0000      -0.337856        -9.1935
 218   2.0000      -0.337257        -9.1772
 219   2.0000      -0.334720        -9.1082
 220   2.0000      -0.331133        -9.0106
 221   2.0000      -0.328569        -8.9408
 222   2.0000      -0.326304        -8.8792
 223   2.0000      -0.324235        -8.8229
 224   2.0000      -0.316235        -8.6052
 225   2.0000      -0.308441        -8.3931
 226   2.0000      -0.291547        -7.9334
 227   2.0000      -0.278588        -7.5808
 228   2.0000      -0.268124        -7.2960
 229   2.0000      -0.248265        -6.7556
 230   2.0000      -0.217996        -5.9320
 231   2.0000      -0.178701        -4.8627
 232   0.0000      -0.106170        -2.8890
 233   0.0000      -0.074085        -2.0160
 234   0.0000      -0.061246        -1.6666
 235   0.0000      -0.040060        -1.0901
 236   0.0000      -0.025300        -0.6884

MULLIKEN ATOMIC CHARGES
-----------------------
   0 C :   -0.117886
   1 S :    0.139920
   2 C :   -0.167662
   3 C :    0.168273
   4 C :    0.109579
   5 C :   -0.092339
   6 C :    0.172443
   7 O :   -0.311159
   8 C :    0.199063
   9 C :    0.183581
  10 O :   -0.332979
  11 C :    0.176611
  12 C :   -0.171706
  13 C :    0.022542
  14 C :   -0.038940
  15 C :    0.032361
  16 C :    0.022853
  17 C :   -0.036181
  18 S :    0.058966
  19 C :   -0.029392
  20 C :    0.024669
  21 C :    0.023645
  22 C :   -0.021533
  23 S :    0.034455
  24 C :   -0.008564
  25 C :   -0.136323
  26 S :    0.082735
  27 C :   -0.115117
  28 C :    0.129637
  29 C :    0.158300
  30 O :   -0.171956
  31 C :    0.214097
  32 N :    0.281951
  33 O :   -0.254998
  34 O :   -0.242573
  35 C :   -0.091846
  36 C :    0.017848
  37 C :   -0.034420
  38 C :    0.022531
  39 C :    0.021136
  40 C :   -0.034922
  41 S :    0.077634
  42 C :   -0.036732
  43 C :    0.021643
  44 C :    0.030128
  45 C :   -0.040942
  46 S :    0.070919
  47 C :    0.036306
  48 C :   -0.111980
  49 S :    0.153845
  50 C :   -0.055646
  51 C :   -0.005623
  52 C :   -0.011725
  53 C :    0.160318
  54 O :   -0.108603
  55 C :   -0.053763
  56 C :   -0.026171
  57 C :    0.012086
  58 C :   -0.009935
  59 H :    0.019925
  60 H :   -0.030031
  61 H :    0.024061
  62 H :    0.016101
  63 H :    0.024459
  64 H :    0.034823
  65 H :    0.031487
  66 H :    0.034508
  67 H :   -0.028017
  68 H :   -0.011581
  69 H :   -0.011893
  70 H :   -0.014710
  71 H :   -0.015695
  72 H :   -0.011131
  73 H :    0.003801
  74 H :    0.014986
  75 H :   -0.022278
  76 H :   -0.020765
  77 H :   -0.016097
  78 H :   -0.015999
  79 H :   -0.014905
  80 H :   -0.016508
  81 H :    0.009455
  82 H :   -0.011508
  83 H :    0.003876
  84 H :    0.008514
  85 H :    0.026667
Sum of atomic charges:    0.0000000

LOEWDIN ATOMIC CHARGES
----------------------
   0 C :   -0.187385
   1 S :    0.469890
   2 C :   -0.188358
   3 C :   -0.042323
   4 C :   -0.053525
   5 C :   -0.043223
   6 C :    0.042434
   7 O :   -0.105495
   8 C :    0.073949
   9 C :    0.040572
  10 O :   -0.097649
  11 C :    0.074942
  12 C :   -0.082447
  13 C :   -0.059147
  14 C :   -0.170864
  15 C :   -0.024756
  16 C :   -0.049642
  17 C :   -0.170473
  18 S :    0.406788
  19 C :   -0.193130
  20 C :   -0.036717
  21 C :   -0.042598
  22 C :   -0.153648
  23 S :    0.374315
  24 C :   -0.076230
  25 C :   -0.191522
  26 S :    0.421602
  27 C :   -0.164448
  28 C :   -0.082875
  29 C :    0.023228
  30 O :    0.015178
  31 C :    0.013902
  32 N :    0.272564
  33 O :   -0.215505
  34 O :   -0.204323
  35 C :   -0.014250
  36 C :   -0.082938
  37 C :   -0.160500
  38 C :   -0.040693
  39 C :   -0.042854
  40 C :   -0.181640
  41 S :    0.409501
  42 C :   -0.179501
  43 C :   -0.043205
  44 C :   -0.034070
  45 C :   -0.154453
  46 S :    0.396527
  47 C :   -0.074071
  48 C :   -0.167478
  49 S :    0.451237
  50 C :   -0.179247
  51 C :   -0.095650
  52 C :   -0.026804
  53 C :    0.098358
  54 O :   -0.098115
  55 C :   -0.063794
  56 C :    0.007563
  57 C :   -0.023950
  58 C :   -0.032106
  59 H :    0.024896
  60 H :    0.034496
  61 H :    0.020711
  62 H :    0.011875
  63 H :    0.012660
  64 H :    0.023822
  65 H :    0.019918
  66 H :    0.009577
  67 H :    0.010286
  68 H :    0.034686
  69 H :    0.032901
  70 H :    0.031914
  71 H :    0.031823
  72 H :    0.033794
  73 H :    0.046094
  74 H :    0.028914
  75 H :    0.033595
  76 H :    0.031095
  77 H :    0.031171
  78 H :    0.031135
  79 H :    0.032371
  80 H :    0.033404
  81 H :    0.027049
  82 H :    0.030521
  83 H :    0.035851
  84 H :    0.017991
  85 H :    0.026500

  Mayer bond orders larger than 0.100000
B(  0-C ,  1-S ) :   1.2034 B(  0-C ,  4-C ) :   1.3967 B(  0-C , 59-H ) :   0.9695
B(  1-S ,  2-C ) :   1.1353 B(  2-C ,  3-C ) :   1.2957 B(  2-C , 13-C ) :   1.2202
B(  3-C ,  4-C ) :   1.2160 B(  3-C , 12-C ) :   1.1855 B(  4-C ,  5-C ) :   1.1358
B(  5-C ,  6-C ) :   1.5407 B(  5-C , 60-H ) :   1.0126 B(  6-C ,  7-O ) :   1.1654
B(  6-C ,  9-C ) :   1.1613 B(  7-O ,  8-C ) :   0.9455 B(  8-C , 61-H ) :   0.9769
B(  8-C , 62-H ) :   0.9747 B(  8-C , 63-H ) :   0.9736 B(  9-C , 10-O ) :   1.1338
B(  9-C , 12-C ) :   1.4527 B( 10-O , 11-C ) :   0.9466 B( 11-C , 64-H ) :   0.9722
B( 11-C , 65-H ) :   0.9653 B( 11-C , 66-H ) :   0.9691 B( 12-C , 67-H ) :   0.9649
B( 13-C , 14-C ) :   1.5553 B( 13-C , 68-H ) :   0.9389 B( 14-C , 15-C ) :   1.1820
B( 14-C , 18-S ) :   1.0230 B( 15-C , 16-C ) :   1.5388 B( 15-C , 69-H ) :   0.9976
B( 16-C , 17-C ) :   1.2312 B( 16-C , 70-H ) :   0.9943 B( 17-C , 18-S ) :   1.0597
B( 17-C , 19-C ) :   1.4221 B( 19-C , 20-C ) :   1.2470 B( 19-C , 23-S ) :   1.0425
B( 20-C , 21-C ) :   1.5167 B( 20-C , 71-H ) :   0.9951 B( 21-C , 22-C ) :   1.2073
B( 21-C , 72-H ) :   1.0009 B( 22-C , 23-S ) :   1.0538 B( 22-C , 24-C ) :   1.4398
B( 24-C , 25-C ) :   1.2853 B( 24-C , 73-H ) :   0.9766 B( 25-C , 26-S ) :   1.0549
B( 25-C , 29-C ) :   1.3504 B( 26-S , 27-C ) :   1.0866 B( 27-C , 28-C ) :   1.2072
B( 27-C , 36-C ) :   1.3409 B( 28-C , 29-C ) :   1.2869 B( 28-C , 35-C ) :   1.1309
B( 29-C , 30-O ) :   1.1524 B( 30-O , 31-C ) :   1.1219 B( 31-C , 32-N ) :   0.9349
B( 31-C , 35-C ) :   1.5254 B( 32-N , 33-O ) :   1.5184 B( 32-N , 34-O ) :   1.4952
B( 33-O , 34-O ) :   0.2737 B( 35-C , 74-H ) :   1.0078 B( 36-C , 37-C ) :   1.4528
B( 36-C , 75-H ) :   0.9370 B( 37-C , 38-C ) :   1.2286 B( 37-C , 41-S ) :   1.0535
B( 38-C , 39-C ) :   1.4962 B( 38-C , 76-H ) :   0.9990 B( 39-C , 40-C ) :   1.2611
B( 39-C , 77-H ) :   0.9932 B( 40-C , 41-S ) :   1.0634 B( 40-C , 42-C ) :   1.3995
B( 42-C , 43-C ) :   1.2486 B( 42-C , 46-S ) :   1.0576 B( 43-C , 44-C ) :   1.5250
B( 43-C , 78-H ) :   0.9934 B( 44-C , 45-C ) :   1.1924 B( 44-C , 79-H ) :   0.9996
B( 45-C , 46-S ) :   1.0487 B( 45-C , 47-C ) :   1.5329 B( 47-C , 48-C ) :   1.2248
B( 47-C , 80-H ) :   0.9500 B( 48-C , 49-S ) :   1.0944 B( 48-C , 52-C ) :   1.3614
B( 49-S , 50-C ) :   1.1266 B( 50-C , 51-C ) :   1.4240 B( 50-C , 56-C ) :   1.0812
B( 51-C , 52-C ) :   1.3873 B( 51-C , 53-C ) :   0.9024 B( 52-C , 81-H ) :   0.9821
B( 53-C , 54-O ) :   2.2767 B( 53-C , 55-C ) :   0.9351 B( 55-C , 56-C ) :   1.6242
B( 55-C , 57-C ) :   1.1256 B( 56-C , 82-H ) :   1.0159 B( 57-C , 58-C ) :   1.8955
B( 57-C , 83-H ) :   0.9591 B( 58-C , 84-H ) :   0.9536 B( 58-C , 85-H ) :   0.9509

-----------------------------------------------------------------------------
         ABSORPTION SPECTRUM VIA TRANSITION ELECTRIC DIPOLE MOMENTS
-----------------------------------------------------------------------------
State   Energy  Wavelength   fosc         T2         TX        TY        TZ
        (cm-1)    (nm)                  (au**2)     (au)      (au)      (au)
-----------------------------------------------------------------------------
   0    4501.3   2221.6   0.602168758  44.04048  -2.23489   6.21728  -0.62541
   1   10502.1    952.2   0.010371416   0.32512   0.28119   0.40327  -0.28883
   2   11864.5    842.8   0.040196158   1.11535   0.69670  -0.61566  -0.50092
   3   13126.6    761.8   0.323592431   8.11561   1.93677  -0.01599   2.08908
   4   16517.0    605.4   0.282080688   5.62234   0.20150   2.23930   0.75316
   5   17948.4    557.2   0.368217380   6.75389   2.29122   0.08751   1.22333
   6   20164.8    495.9   0.140096124   2.28722   1.10574   0.77128   0.68535
   7   20880.6    478.9   0.158979452   2.50653  -1.43520  -0.11935  -0.65764
   8   21891.9    456.8   0.410862018   6.17858  -1.83686  -1.28544  -1.07338
   9   22994.8    434.9   0.107139204   1.53389   0.57834   1.01431   0.41301
  10   24407.8    409.7   0.046907473   0.63269  -0.17892   0.68756  -0.35769
  11   24979.6    400.3   0.026517730   0.34948   0.24640  -0.26783   0.46588
  12   25374.3    394.1   0.479964608   6.22716   2.22924   0.27279   1.08777
  13   26089.4    383.3   0.001522513   0.01921  -0.05924  -0.04795  -0.11578
  14   26174.4    382.1   0.000052626   0.00066  -0.00138   0.01113  -0.02315
  15   26660.1    375.1   0.021179101   0.26153   0.00365  -0.50952   0.04363
  16   27557.6    362.9   0.496978022   5.93705  -1.81136   1.34921  -0.91413
  17   27833.6    359.3   0.129752083   1.53469   0.98997  -0.22849   0.70884
  18   28601.4    349.6   0.013931582   0.16036  -0.31716   0.24392   0.01632
  19   29300.8    341.3   0.107840148   1.21165  -0.81033   0.65032  -0.36346
  20   29947.9    333.9   0.025124951   0.27619   0.07525   0.52004  -0.00947
  21   30662.0    326.1   0.011283139   0.12114   0.25332   0.17382   0.16359
  22   31131.8    321.2   0.051179778   0.54121   0.07027   0.70430  -0.20058
  23   31232.9    320.2   0.023738411   0.25022  -0.04749   0.45323  -0.20627
  24   31898.4    313.5   0.034494308   0.35600   0.50369  -0.09441   0.30559
  25   32337.3    309.2   0.019628612   0.19983  -0.13374  -0.41116   0.11354
  26   32432.3    308.3   0.041098096   0.41718   0.14885  -0.59504   0.20236
  27   33056.4    302.5   0.026280510   0.26173   0.08205   0.50322  -0.04203
  28   33249.9    300.8   0.014837736   0.14691   0.20107  -0.31629  -0.08026
  29   33572.6    297.9   0.006473310   0.06348  -0.09335  -0.13671   0.18993
  30   33718.6    296.6   0.009840173   0.09607  -0.16019   0.25259   0.08131
  31   34230.6    292.1   0.011182946   0.10755  -0.25605   0.14129  -0.14841
  32   34597.3    289.0   0.041324885   0.39323   0.30457  -0.54056   0.09087
  33   34821.5    287.2   0.031736350   0.30004  -0.27041   0.35948  -0.31257
  34   35558.0    281.2   0.046109012   0.42690  -0.04467  -0.64355   0.10365
  35   35872.8    278.8   0.022350436   0.20511   0.26253   0.35324   0.10685
  36   36120.3    276.9   0.105823286   0.96451  -0.18222   0.85669  -0.44429
  37   36471.4    274.2   0.010876316   0.09818   0.05370   0.30537   0.04519
  38   36560.7    273.5   0.000242639   0.00218   0.02442  -0.01210   0.03797
  39   36702.7    272.5   0.008933821   0.08013  -0.09382  -0.25959   0.06280
  40   36957.7    270.6   0.182428051   1.62503  -1.13230  -0.15946  -0.56347
  41   37054.6    269.9   0.011804628   0.10488   0.27984   0.06175   0.15084
  42   37451.3    267.0   0.082905492   0.72877  -0.23552   0.66579  -0.47962
  43   37537.3    266.4   0.015030650   0.13182   0.03476  -0.36137  -0.00527
  44   37765.7    264.8   0.007106230   0.06195   0.11654   0.20286   0.08492
  45   37923.4    263.7   0.032456732   0.28176  -0.27414  -0.44983   0.06523
  46   38185.2    261.9   0.010722619   0.09244  -0.16526  -0.25124   0.04486
  47   38287.1    261.2   0.002551824   0.02194   0.04071  -0.14242  -0.00164
  48   38660.3    258.7   0.003167696   0.02697   0.08769  -0.13390  -0.03680
  49   39301.6    254.4   0.015151417   0.12692   0.33541   0.05991   0.10405
  50   39595.7    252.6   0.028886091   0.24017   0.13501   0.46965  -0.03704
  51   39620.2    252.4   0.191239853   1.58905   0.02255  -1.19757   0.39289
  52   40033.9    249.8   0.249525720   2.05193  -1.31192   0.13166  -0.55987
  53   40145.3    249.1   0.061521860   0.50451   0.13298  -0.62396   0.31224

FINAL SINGLE POINT ENERGY     -5020.539793071385

DIPOLE MOMENT
-------------
                                X             Y             Z
Electronic contribution:    -10.82550       0.04185      -6.78703
Nuclear contribution   :     13.23290      -0.68349       8.13438
                        -----------------------------------------
Total Dipole Moment    :      2.40740      -0.64164       1.34735
                        -----------------------------------------
Magnitude (a.u.)       :      2.83242
Magnitude (Debye)      :      7.19944

Rotational constants in cm-1:     0.001997     0.000402     0.000344
Rotational constants in MHz :    59.867284    12.052496    10.327197

                             ****ORCA TERMINATED NORMALLY****
TOTAL RUN TIME: 0 days 0 hours 8 minutes 21 seconds 643 msec
