                         Program Version 4.2.0 -  RELEASE  -
|  1> # ORCA input file
|  2> # SCF done       -174.358487849801          0.000644381175
|  3> ! CAM-B3LYP def2-SVP def2/J RIJCOSX Grid4 TightSCF
|  4> %maxcore 5000
|  5> %tddft
|  6>     Mode sTDDFT
|  7>     Ethresh 5.0
|  8>     maxcore 5000
|  9> end
| 10>
| 11> %pal
| 12>   nprocs 6
| 13>   end
| 14> * xyz 0 1
| 15>    C        6.69225         0.49077         9.45966
| 16>    S        6.66722        -1.11473        10.02618
| 17>    C        6.79679        -1.78549         8.40828
| 18>    C        6.94407        -0.73517         7.47970
| 19>    C        6.84091         0.55603         8.08866
| 20>    C        6.89816         1.71162         7.28459
| 21>    C        7.09168         1.62459         5.92956
| 22>    O        7.11113         2.81598         5.27275
| 23>    C        6.94658         2.88999         3.87353
| 24>    C        7.31545         0.33508         5.33716
| 25>    O        7.60733         0.30597         4.00610
| 26>    C        7.76662        -0.94076         3.36862
| 27>    C        7.25642        -0.79756         6.11345
| 28>    C        6.66207        -3.17775         8.31697
| 29>    C        6.29647        -3.98815         7.26245
| 30>    C        6.15130        -5.39369         7.33001
| 31>    C        5.70468        -5.98196         6.17774
| 32>    C        5.47848        -5.07177         5.13298
| 33>    S        5.81649        -3.44362         5.66755
| 34>    C        5.10168        -5.27047         3.81083
| 35>    C        4.72519        -6.43402         3.12343
| 36>    C        4.44624        -6.22368         1.79785
| 37>    C        4.59874        -4.88835         1.37618
| 38>    S        5.08959        -3.89455         2.72800
| 39>    C        4.41499        -4.37490         0.10598
| 40>    C        4.63257        -3.05817        -0.27959
| 41>    S        5.22033        -1.77616         0.77404
| 42>    C        5.22479        -0.52661        -0.48324
| 43>    C        4.77185        -1.11600        -1.68991
| 44>    C        4.46064        -2.49147        -1.54283
| 45>    O        4.05506        -3.02971        -2.70438
| 46>    C        4.10715        -2.01283        -3.60942
| 47>    N        3.73611        -2.29790        -4.92560
| 48>    O        3.80277        -1.37617        -5.73324
| 49>    O        3.36873        -3.42725        -5.19531
| 50>    C        4.53700        -0.82728        -3.04774
| 51>    C        5.66094         0.71688        -0.07934
| 52>    C        5.73398         1.94647        -0.72555
| 53>    C        6.25285         3.10417        -0.11977
| 54>    C        6.19777         4.22688        -0.90417
| 55>    C        5.62455         4.00905        -2.16443
| 56>    S        5.17436         2.32520        -2.33432
| 57>    C        5.38965         4.93686        -3.17380
| 58>    C        5.70311         6.30860        -3.15593
| 59>    C        5.31069         6.95645        -4.28870
| 60>    C        4.67025         6.13360        -5.25369
| 61>    S        4.57833         4.49448        -4.66230
| 62>    C        4.23018         6.62558        -6.45813
| 63>    C        3.61376         6.02474        -7.58282
| 64>    C        3.35804         6.83359        -8.69636
| 65>    C        2.77256         6.34694        -9.84780
| 66>    C        2.40591         5.01337        -9.99817
| 67>    C        2.66386         4.14583        -8.89715
| 68>    C        3.22480         4.65345        -7.69028
| 69>    N        3.36348         3.83536        -6.64015
| 70>    C        3.04007         2.56441        -6.72557
| 71>    C        3.14583         1.74872        -5.47655
| 72>    C        2.04055         2.12153        -4.48654
| 73>    C        2.60875         2.03512        -7.97202
| 74>    C        2.33714         0.58053        -8.20789
| 75>    C        0.93193         0.19490        -7.74025
| 76>    N        2.41470         2.82928        -8.99510
| 77>    C        1.79793         4.60461       -11.24692
| 78>    C        1.28186         3.41370       -11.54608
| 79>    H        6.59815         1.30492        10.14991
| 80>    H        6.78567         2.68656         7.73033
| 81>    H        6.08767         2.30405         3.53727
| 82>    H        7.84327         2.56102         3.34305
| 83>    H        6.76733         3.94594         3.66740
| 84>    H        6.87304        -1.56357         3.47136
| 85>    H        8.63710        -1.47952         3.75383
| 86>    H        7.92440        -0.71098         2.31591
| 87>    H        7.48628        -1.75094         5.67692
| 88>    H        6.77344        -3.70020         9.26134
| 89>    H        6.38597        -5.93460         8.23020
| 90>    H        5.55064        -7.03944         6.05745
| 91>    H        4.66389        -7.39097         3.61054
| 92>    H        4.14447        -6.99640         1.11293
| 93>    H        4.07904        -5.04971        -0.66981
| 94>    H        4.65723         0.09618        -3.57254
| 95>    H        5.99869         0.75034         0.95111
| 96>    H        6.65314         3.08396         0.87886
| 97>    H        6.54891         5.19447        -0.59447
| 98>    H        6.20271         6.78464        -2.33048
| 99>    H        5.46283         8.00708        -4.46697
|100>    H        4.40985         7.68962        -6.58089
|101>    H        3.63156         7.87842        -8.64993
|102>    H        2.59525         7.02888       -10.66802
|103>    H        4.11230         1.96237        -5.01752
|104>    H        3.09953         0.68799        -5.70882
|105>    H        1.05858         1.92970        -4.91378
|106>    H        2.10433         3.17619        -4.23265
|107>    H        2.14362         1.53668        -3.57594
|108>    H        3.07353        -0.03479        -7.69041
|109>    H        2.41647         0.39889        -9.28088
|110>    H        0.82906         0.33241        -6.66737
|111>    H        0.74398        -0.85058        -7.96982
|112>    H        0.18315         0.80377        -8.24307
|113>    H        1.76440         5.39266       -11.99208
|114>    H        1.28824         2.60537       -10.83883
|115>    H        0.84580         3.22929       -12.51387
|116> *
|117>
|118>                          ****END OF INPUT****

CARTESIAN COORDINATES (ANGSTROEM)
---------------------------------
  C      6.692250    0.490770    9.459660
  S      6.667220   -1.114730   10.026180
  C      6.796790   -1.785490    8.408280
  C      6.944070   -0.735170    7.479700
  C      6.840910    0.556030    8.088660
  C      6.898160    1.711620    7.284590
  C      7.091680    1.624590    5.929560
  O      7.111130    2.815980    5.272750
  C      6.946580    2.889990    3.873530
  C      7.315450    0.335080    5.337160
  O      7.607330    0.305970    4.006100
  C      7.766620   -0.940760    3.368620
  C      7.256420   -0.797560    6.113450
  C      6.662070   -3.177750    8.316970
  C      6.296470   -3.988150    7.262450
  C      6.151300   -5.393690    7.330010
  C      5.704680   -5.981960    6.177740
  C      5.478480   -5.071770    5.132980
  S      5.816490   -3.443620    5.667550
  C      5.101680   -5.270470    3.810830
  C      4.725190   -6.434020    3.123430
  C      4.446240   -6.223680    1.797850
  C      4.598740   -4.888350    1.376180
  S      5.089590   -3.894550    2.728000
  C      4.414990   -4.374900    0.105980
  C      4.632570   -3.058170   -0.279590
  S      5.220330   -1.776160    0.774040
  C      5.224790   -0.526610   -0.483240
  C      4.771850   -1.116000   -1.689910
  C      4.460640   -2.491470   -1.542830
  O      4.055060   -3.029710   -2.704380
  C      4.107150   -2.012830   -3.609420
  N      3.736110   -2.297900   -4.925600
  O      3.802770   -1.376170   -5.733240
  O      3.368730   -3.427250   -5.195310
  C      4.537000   -0.827280   -3.047740
  C      5.660940    0.716880   -0.079340
  C      5.733980    1.946470   -0.725550
  C      6.252850    3.104170   -0.119770
  C      6.197770    4.226880   -0.904170
  C      5.624550    4.009050   -2.164430
  S      5.174360    2.325200   -2.334320
  C      5.389650    4.936860   -3.173800
  C      5.703110    6.308600   -3.155930
  C      5.310690    6.956450   -4.288700
  C      4.670250    6.133600   -5.253690
  S      4.578330    4.494480   -4.662300
  C      4.230180    6.625580   -6.458130
  C      3.613760    6.024740   -7.582820
  C      3.358040    6.833590   -8.696360
  C      2.772560    6.346940   -9.847800
  C      2.405910    5.013370   -9.998170
  C      2.663860    4.145830   -8.897150
  C      3.224800    4.653450   -7.690280
  N      3.363480    3.835360   -6.640150
  C      3.040070    2.564410   -6.725570
  C      3.145830    1.748720   -5.476550
  C      2.040550    2.121530   -4.486540
  C      2.608750    2.035120   -7.972020
  C      2.337140    0.580530   -8.207890
  C      0.931930    0.194900   -7.740250
  N      2.414700    2.829280   -8.995100
  C      1.797930    4.604610  -11.246920
  C      1.281860    3.413700  -11.546080
  H      6.598150    1.304920   10.149910
  H      6.785670    2.686560    7.730330
  H      6.087670    2.304050    3.537270
  H      7.843270    2.561020    3.343050
  H      6.767330    3.945940    3.667400
  H      6.873040   -1.563570    3.471360
  H      8.637100   -1.479520    3.753830
  H      7.924400   -0.710980    2.315910
  H      7.486280   -1.750940    5.676920
  H      6.773440   -3.700200    9.261340
  H      6.385970   -5.934600    8.230200
  H      5.550640   -7.039440    6.057450
  H      4.663890   -7.390970    3.610540
  H      4.144470   -6.996400    1.112930
  H      4.079040   -5.049710   -0.669810
  H      4.657230    0.096180   -3.572540
  H      5.998690    0.750340    0.951110
  H      6.653140    3.083960    0.878860
  H      6.548910    5.194470   -0.594470
  H      6.202710    6.784640   -2.330480
  H      5.462830    8.007080   -4.466970
  H      4.409850    7.689620   -6.580890
  H      3.631560    7.878420   -8.649930
  H      2.595250    7.028880  -10.668020
  H      4.112300    1.962370   -5.017520
  H      3.099530    0.687990   -5.708820
  H      1.058580    1.929700   -4.913780
  H      2.104330    3.176190   -4.232650
  H      2.143620    1.536680   -3.575940
  H      3.073530   -0.034790   -7.690410
  H      2.416470    0.398890   -9.280880
  H      0.829060    0.332410   -6.667370
  H      0.743980   -0.850580   -7.969820
  H      0.183150    0.803770   -8.243070
  H      1.764400    5.392660  -11.992080
  H      1.288240    2.605370  -10.838830
  H      0.845800    3.229290  -12.513870

 Total Charge           Charge          ....    0
 Multiplicity           Mult            ....    1
 Number of Electrons    NEL             ....  494
 Basis Dimension        Dim             .... 1105

ORBITAL ENERGIES
----------------

  NO   OCC          E(Eh)            E(eV)
   0   2.0000     -88.960152     -2420.7288
   1   2.0000     -88.957587     -2420.6590
   2   2.0000     -88.950883     -2420.4766
   3   2.0000     -88.944150     -2420.2934
   4   2.0000     -88.942853     -2420.2581
   5   2.0000     -88.940015     -2420.1809
   6   2.0000     -19.303764      -525.2821
   7   2.0000     -19.250173      -523.8238
   8   2.0000     -19.238052      -523.4940
   9   2.0000     -19.235676      -523.4294
  10   2.0000     -19.235104      -523.4138
  11   2.0000     -14.649149      -398.6236
  12   2.0000     -14.414102      -392.2277
  13   2.0000     -14.403799      -391.9473
  14   2.0000     -10.376144      -282.3492
  15   2.0000     -10.342594      -281.4363
  16   2.0000     -10.337859      -281.3075
  17   2.0000     -10.331079      -281.1229
  18   2.0000     -10.319218      -280.8002
  19   2.0000     -10.316841      -280.7355
  20   2.0000     -10.311589      -280.5926
  21   2.0000     -10.310780      -280.5706
  22   2.0000     -10.310357      -280.5591
  23   2.0000     -10.308835      -280.5177
  24   2.0000     -10.308720      -280.5145
  25   2.0000     -10.307806      -280.4897
  26   2.0000     -10.307331      -280.4767
  27   2.0000     -10.306512      -280.4545
  28   2.0000     -10.304925      -280.4113
  29   2.0000     -10.303598      -280.3751
  30   2.0000     -10.303520      -280.3730
  31   2.0000     -10.302781      -280.3529
  32   2.0000     -10.302604      -280.3481
  33   2.0000     -10.302276      -280.3392
  34   2.0000     -10.298769      -280.2438
  35   2.0000     -10.297267      -280.2029
  36   2.0000     -10.293407      -280.0978
  37   2.0000     -10.291616      -280.0491
  38   2.0000     -10.289503      -279.9916
  39   2.0000     -10.286332      -279.9053
  40   2.0000     -10.284286      -279.8497
  41   2.0000     -10.283444      -279.8267
  42   2.0000     -10.282963      -279.8137
  43   2.0000     -10.282933      -279.8128
  44   2.0000     -10.282526      -279.8018
  45   2.0000     -10.282143      -279.7913
  46   2.0000     -10.281101      -279.7630
  47   2.0000     -10.280921      -279.7581
  48   2.0000     -10.280373      -279.7432
  49   2.0000     -10.280353      -279.7426
  50   2.0000     -10.278811      -279.7007
  51   2.0000     -10.277965      -279.6776
  52   2.0000     -10.276639      -279.6416
  53   2.0000     -10.274727      -279.5895
  54   2.0000     -10.274201      -279.5752
  55   2.0000     -10.270523      -279.4751
  56   2.0000     -10.265045      -279.3261
  57   2.0000     -10.261809      -279.2380
  58   2.0000     -10.259505      -279.1753
  59   2.0000     -10.253786      -279.0197
  60   2.0000     -10.252664      -278.9892
  61   2.0000     -10.248285      -278.8700
  62   2.0000     -10.247095      -278.8376
  63   2.0000     -10.245623      -278.7976
  64   2.0000      -8.054481      -219.1736
  65   2.0000      -8.053222      -219.1393
  66   2.0000      -8.046198      -218.9482
  67   2.0000      -8.040016      -218.7800
  68   2.0000      -8.038669      -218.7433
  69   2.0000      -8.032870      -218.5855
  70   2.0000      -6.024055      -163.9229
  71   2.0000      -6.022221      -163.8730
  72   2.0000      -6.019958      -163.8114
  73   2.0000      -6.018091      -163.7606
  74   2.0000      -6.016080      -163.7059
  75   2.0000      -6.015966      -163.7028
  76   2.0000      -6.015858      -163.6998
  77   2.0000      -6.011696      -163.5866
  78   2.0000      -6.009779      -163.5344
  79   2.0000      -6.008411      -163.4972
  80   2.0000      -6.007612      -163.4754
  81   2.0000      -6.005536      -163.4189
  82   2.0000      -6.004184      -163.3821
  83   2.0000      -6.003000      -163.3499
  84   2.0000      -6.001152      -163.2997
  85   2.0000      -5.999778      -163.2623
  86   2.0000      -5.998271      -163.2212
  87   2.0000      -5.993938      -163.1033
  88   2.0000      -1.316867       -35.8338
  89   2.0000      -1.224235       -33.3131
  90   2.0000      -1.157416       -31.4949
  91   2.0000      -1.132489       -30.8166
  92   2.0000      -1.131877       -30.8000
  93   2.0000      -1.070901       -29.1407
  94   2.0000      -0.996525       -27.1168
  95   2.0000      -0.995205       -27.0809
  96   2.0000      -0.991573       -26.9821
  97   2.0000      -0.987453       -26.8700
  98   2.0000      -0.983553       -26.7638
  99   2.0000      -0.969807       -26.3898
 100   2.0000      -0.966797       -26.3079
 101   2.0000      -0.950116       -25.8540
 102   2.0000      -0.931692       -25.3526
 103   2.0000      -0.921850       -25.0848
 104   2.0000      -0.900941       -24.5158
 105   2.0000      -0.895788       -24.3756
 106   2.0000      -0.887756       -24.1571
 107   2.0000      -0.884899       -24.0793
 108   2.0000      -0.884090       -24.0573
 109   2.0000      -0.866964       -23.5913
 110   2.0000      -0.857000       -23.3202
 111   2.0000      -0.846237       -23.0273
 112   2.0000      -0.843607       -22.9557
 113   2.0000      -0.840960       -22.8837
 114   2.0000      -0.840703       -22.8767
 115   2.0000      -0.836932       -22.7741
 116   2.0000      -0.827548       -22.5187
 117   2.0000      -0.819549       -22.3011
 118   2.0000      -0.818509       -22.2728
 119   2.0000      -0.815205       -22.1829
 120   2.0000      -0.812210       -22.1014
 121   2.0000      -0.802928       -21.8488
 122   2.0000      -0.788863       -21.4661
 123   2.0000      -0.781814       -21.2742
 124   2.0000      -0.772429       -21.0189
 125   2.0000      -0.763084       -20.7646
 126   2.0000      -0.753160       -20.4945
 127   2.0000      -0.745993       -20.2995
 128   2.0000      -0.740170       -20.1411
 129   2.0000      -0.731944       -19.9172
 130   2.0000      -0.721136       -19.6231
 131   2.0000      -0.705701       -19.2031
 132   2.0000      -0.696939       -18.9647
 133   2.0000      -0.688996       -18.7485
 134   2.0000      -0.682100       -18.5609
 135   2.0000      -0.680888       -18.5279
 136   2.0000      -0.677905       -18.4467
 137   2.0000      -0.670981       -18.2583
 138   2.0000      -0.665142       -18.0994
 139   2.0000      -0.660535       -17.9741
 140   2.0000      -0.653084       -17.7713
 141   2.0000      -0.648757       -17.6536
 142   2.0000      -0.644354       -17.5338
 143   2.0000      -0.637566       -17.3491
 144   2.0000      -0.633705       -17.2440
 145   2.0000      -0.628546       -17.1036
 146   2.0000      -0.621852       -16.9215
 147   2.0000      -0.620211       -16.8768
 148   2.0000      -0.619485       -16.8570
 149   2.0000      -0.612303       -16.6616
 150   2.0000      -0.610064       -16.6007
 151   2.0000      -0.606299       -16.4982
 152   2.0000      -0.600685       -16.3455
 153   2.0000      -0.598994       -16.2995
 154   2.0000      -0.596816       -16.2402
 155   2.0000      -0.594854       -16.1868
 156   2.0000      -0.592226       -16.1153
 157   2.0000      -0.583472       -15.8771
 158   2.0000      -0.576947       -15.6995
 159   2.0000      -0.571526       -15.5520
 160   2.0000      -0.561724       -15.2853
 161   2.0000      -0.560425       -15.2499
 162   2.0000      -0.559664       -15.2292
 163   2.0000      -0.549945       -14.9648
 164   2.0000      -0.547940       -14.9102
 165   2.0000      -0.538500       -14.6533
 166   2.0000      -0.536485       -14.5985
 167   2.0000      -0.535319       -14.5668
 168   2.0000      -0.532069       -14.4783
 169   2.0000      -0.529172       -14.3995
 170   2.0000      -0.525581       -14.3018
 171   2.0000      -0.524441       -14.2708
 172   2.0000      -0.520734       -14.1699
 173   2.0000      -0.518639       -14.1129
 174   2.0000      -0.515389       -14.0245
 175   2.0000      -0.511392       -13.9157
 176   2.0000      -0.507962       -13.8223
 177   2.0000      -0.505768       -13.7626
 178   2.0000      -0.502199       -13.6655
 179   2.0000      -0.501051       -13.6343
 180   2.0000      -0.497981       -13.5507
 181   2.0000      -0.495716       -13.4891
 182   2.0000      -0.493530       -13.4296
 183   2.0000      -0.492435       -13.3998
 184   2.0000      -0.491597       -13.3770
 185   2.0000      -0.488229       -13.2854
 186   2.0000      -0.486706       -13.2439
 187   2.0000      -0.486055       -13.2262
 188   2.0000      -0.484238       -13.1768
 189   2.0000      -0.482090       -13.1183
 190   2.0000      -0.474124       -12.9016
 191   2.0000      -0.470786       -12.8107
 192   2.0000      -0.467348       -12.7172
 193   2.0000      -0.463526       -12.6132
 194   2.0000      -0.461712       -12.5638
 195   2.0000      -0.456943       -12.4340
 196   2.0000      -0.455628       -12.3983
 197   2.0000      -0.454276       -12.3615
 198   2.0000      -0.450708       -12.2644
 199   2.0000      -0.449756       -12.2385
 200   2.0000      -0.449336       -12.2270
 201   2.0000      -0.444814       -12.1040
 202   2.0000      -0.442991       -12.0544
 203   2.0000      -0.437813       -11.9135
 204   2.0000      -0.436534       -11.8787
 205   2.0000      -0.434448       -11.8219
 206   2.0000      -0.430832       -11.7235
 207   2.0000      -0.426128       -11.5955
 208   2.0000      -0.424756       -11.5582
 209   2.0000      -0.423373       -11.5206
 210   2.0000      -0.421644       -11.4735
 211   2.0000      -0.419040       -11.4027
 212   2.0000      -0.418249       -11.3811
 213   2.0000      -0.416683       -11.3385
 214   2.0000      -0.415143       -11.2966
 215   2.0000      -0.411356       -11.1936
 216   2.0000      -0.409427       -11.1411
 217   2.0000      -0.408936       -11.1277
 218   2.0000      -0.407430       -11.0867
 219   2.0000      -0.405833       -11.0433
 220   2.0000      -0.402867       -10.9626
 221   2.0000      -0.387083       -10.5331
 222   2.0000      -0.385549       -10.4913
 223   2.0000      -0.382049       -10.3961
 224   2.0000      -0.380961       -10.3665
 225   2.0000      -0.378959       -10.3120
 226   2.0000      -0.374001       -10.1771
 227   2.0000      -0.363500        -9.8913
 228   2.0000      -0.362558        -9.8657
 229   2.0000      -0.360771        -9.8171
 230   2.0000      -0.353626        -9.6227
 231   2.0000      -0.342776        -9.3274
 232   2.0000      -0.337973        -9.1967
 233   2.0000      -0.334931        -9.1139
 234   2.0000      -0.333010        -9.0617
 235   2.0000      -0.323773        -8.8103
 236   2.0000      -0.323233        -8.7956
 237   2.0000      -0.315004        -8.5717
 238   2.0000      -0.307824        -8.3763
 239   2.0000      -0.307274        -8.3614
 240   2.0000      -0.294854        -8.0234
 241   2.0000      -0.293337        -7.9821
 242   2.0000      -0.276316        -7.5189
 243   2.0000      -0.270058        -7.3486
 244   2.0000      -0.249970        -6.8020
 245   2.0000      -0.218730        -5.9519
 246   2.0000      -0.180214        -4.9039
 247   0.0000      -0.100947        -2.7469
 248   0.0000      -0.067856        -1.8465
 249   0.0000      -0.053332        -1.4512
 250   0.0000      -0.030107        -0.8193
 251   0.0000      -0.017678        -0.4810

MULLIKEN ATOMIC CHARGES
-----------------------
   0 C :   -0.121765
   1 S :    0.136025
   2 C :   -0.170847
   3 C :    0.162242
   4 C :    0.109792
   5 C :   -0.092353
   6 C :    0.177030
   7 O :   -0.312263
   8 C :    0.188169
   9 C :    0.176820
  10 O :   -0.333580
  11 C :    0.177179
  12 C :   -0.167675
  13 C :    0.019764
  14 C :   -0.037058
  15 C :    0.033188
  16 C :    0.021268
  17 C :   -0.037214
  18 S :    0.053299
  19 C :   -0.025690
  20 C :    0.024087
  21 C :    0.027625
  22 C :   -0.024235
  23 S :    0.025991
  24 C :   -0.002611
  25 C :   -0.146383
  26 S :    0.083209
  27 C :   -0.107763
  28 C :    0.127187
  29 C :    0.163154
  30 O :   -0.175107
  31 C :    0.207997
  32 N :    0.296054
  33 O :   -0.264127
  34 O :   -0.236638
  35 C :   -0.084321
  36 C :    0.009669
  37 C :   -0.016692
  38 C :    0.026979
  39 C :    0.027008
  40 C :   -0.048033
  41 S :    0.052720
  42 C :   -0.005629
  43 C :    0.019022
  44 C :    0.029699
  45 C :    0.024349
  46 S :    0.094008
  47 C :   -0.079654
  48 C :    0.103843
  49 C :   -0.036164
  50 C :   -0.040722
  51 C :    0.097773
  52 C :   -0.037280
  53 C :    0.023866
  54 N :   -0.066242
  55 C :   -0.090108
  56 C :    0.054595
  57 C :    0.017904
  58 C :   -0.142063
  59 C :    0.079454
  60 C :    0.005898
  61 N :   -0.004691
  62 C :   -0.053617
  63 C :    0.016663
  64 H :    0.018234
  65 H :   -0.031438
  66 H :    0.018596
  67 H :    0.031033
  68 H :    0.025762
  69 H :    0.035459
  70 H :    0.029372
  71 H :    0.034350
  72 H :   -0.023000
  73 H :   -0.013808
  74 H :   -0.013488
  75 H :   -0.015755
  76 H :   -0.016889
  77 H :   -0.013764
  78 H :   -0.000579
  79 H :   -0.004076
  80 H :   -0.024898
  81 H :   -0.036727
  82 H :   -0.016301
  83 H :   -0.020408
  84 H :   -0.014160
  85 H :   -0.026158
  86 H :   -0.025176
  87 H :   -0.024352
  88 H :    0.034431
  89 H :    0.012820
  90 H :    0.006874
  91 H :    0.023132
  92 H :    0.009580
  93 H :    0.034245
  94 H :    0.010033
  95 H :    0.007217
  96 H :    0.025307
  97 H :    0.015515
  98 H :   -0.026078
  99 H :    0.032214
 100 H :    0.009876
Sum of atomic charges:   -0.0000000

LOEWDIN ATOMIC CHARGES
----------------------
   0 C :   -0.191592
   1 S :    0.466265
   2 C :   -0.188754
   3 C :   -0.045326
   4 C :   -0.053401
   5 C :   -0.043574
   6 C :    0.041685
   7 O :   -0.107282
   8 C :    0.070437
   9 C :    0.038974
  10 O :   -0.098613
  11 C :    0.073862
  12 C :   -0.082954
  13 C :   -0.064707
  14 C :   -0.168330
  15 C :   -0.027831
  16 C :   -0.048763
  17 C :   -0.174508
  18 S :    0.403617
  19 C :   -0.190505
  20 C :   -0.039207
  21 C :   -0.041204
  22 C :   -0.157263
  23 S :    0.369513
  24 C :   -0.074214
  25 C :   -0.201041
  26 S :    0.428417
  27 C :   -0.156291
  28 C :   -0.088065
  29 C :    0.025112
  30 O :    0.009972
  31 C :    0.005302
  32 N :    0.279044
  33 O :   -0.227627
  34 O :   -0.198973
  35 C :   -0.004847
  36 C :   -0.096149
  37 C :   -0.150193
  38 C :   -0.048312
  39 C :   -0.033047
  40 C :   -0.188689
  41 S :    0.402821
  42 C :   -0.180723
  43 C :   -0.041095
  44 C :   -0.024057
  45 C :   -0.148091
  46 S :    0.456276
  47 C :   -0.036561
  48 C :   -0.035923
  49 C :   -0.012702
  50 C :   -0.019819
  51 C :   -0.016647
  52 C :   -0.004455
  53 C :   -0.000471
  54 N :   -0.059798
  55 C :    0.018415
  56 C :   -0.052483
  57 C :   -0.049215
  58 C :    0.011232
  59 C :   -0.038591
  60 C :   -0.046839
  61 N :   -0.032858
  62 C :   -0.034964
  63 C :   -0.025201
  64 H :    0.023870
  65 H :    0.033942
  66 H :    0.011804
  67 H :    0.012268
  68 H :    0.020164
  69 H :    0.007530
  70 H :    0.019007
  71 H :    0.023310
  72 H :    0.012789
  73 H :    0.033689
  74 H :    0.032215
  75 H :    0.031409
  76 H :    0.031494
  77 H :    0.032973
  78 H :    0.044763
  79 H :    0.030553
  80 H :    0.033308
  81 H :    0.031197
  82 H :    0.031549
  83 H :    0.027742
  84 H :    0.031553
  85 H :    0.035146
  86 H :    0.028325
  87 H :    0.029439
  88 H :    0.014971
  89 H :    0.022469
  90 H :    0.019578
  91 H :    0.017973
  92 H :    0.021068
  93 H :    0.032071
  94 H :    0.033391
  95 H :    0.020649
  96 H :    0.030177
  97 H :    0.023859
  98 H :    0.025389
  99 H :    0.019424
 100 H :    0.019747

  Mayer bond orders larger than 0.100000
B(  0-C ,  1-S ) :   1.1980 B(  0-C ,  4-C ) :   1.4014 B(  0-C , 64-H ) :   0.9701
B(  1-S ,  2-C ) :   1.1370 B(  2-C ,  3-C ) :   1.3062 B(  2-C , 13-C ) :   1.2064
B(  3-C ,  4-C ) :   1.2156 B(  3-C , 12-C ) :   1.1788 B(  4-C ,  5-C ) :   1.1321
B(  5-C ,  6-C ) :   1.5451 B(  5-C , 65-H ) :   1.0138 B(  6-C ,  7-O ) :   1.1577
B(  6-C ,  9-C ) :   1.1599 B(  7-O ,  8-C ) :   0.9467 B(  8-C , 66-H ) :   0.9747
B(  8-C , 67-H ) :   0.9711 B(  8-C , 68-H ) :   0.9747 B(  9-C , 10-O ) :   1.1342
B(  9-C , 12-C ) :   1.4622 B( 10-O , 11-C ) :   0.9444 B( 11-C , 69-H ) :   0.9679
B( 11-C , 70-H ) :   0.9660 B( 11-C , 71-H ) :   0.9720 B( 12-C , 72-H ) :   0.9655
B( 13-C , 14-C ) :   1.5672 B( 13-C , 73-H ) :   0.9408 B( 14-C , 15-C ) :   1.1735
B( 14-C , 18-S ) :   1.0239 B( 15-C , 16-C ) :   1.5515 B( 15-C , 74-H ) :   0.9968
B( 16-C , 17-C ) :   1.2198 B( 16-C , 75-H ) :   0.9949 B( 17-C , 18-S ) :   1.0520
B( 17-C , 19-C ) :   1.4411 B( 19-C , 20-C ) :   1.2332 B( 19-C , 23-S ) :   1.0407
B( 20-C , 21-C ) :   1.5342 B( 20-C , 76-H ) :   0.9947 B( 21-C , 22-C ) :   1.1931
B( 21-C , 77-H ) :   0.9990 B( 22-C , 23-S ) :   1.0454 B( 22-C , 24-C ) :   1.4692
B( 24-C , 25-C ) :   1.2595 B( 24-C , 78-H ) :   0.9754 B( 25-C , 26-S ) :   1.0446
B( 25-C , 29-C ) :   1.3797 B( 26-S , 27-C ) :   1.1058 B( 27-C , 28-C ) :   1.2121
B( 27-C , 36-C ) :   1.3217 B( 28-C , 29-C ) :   1.2619 B( 28-C , 35-C ) :   1.1448
B( 29-C , 30-O ) :   1.1467 B( 30-O , 31-C ) :   1.1195 B( 31-C , 32-N ) :   0.9569
B( 31-C , 35-C ) :   1.4936 B( 32-N , 33-O ) :   1.4541 B( 32-N , 34-O ) :   1.5007
B( 33-O , 34-O ) :   0.2535 B( 35-C , 79-H ) :   1.0163 B( 36-C , 37-C ) :   1.4731
B( 36-C , 80-H ) :   0.9309 B( 37-C , 38-C ) :   1.2081 B( 37-C , 41-S ) :   1.0585
B( 38-C , 39-C ) :   1.5135 B( 38-C , 81-H ) :   0.9977 B( 39-C , 40-C ) :   1.2421
B( 39-C , 82-H ) :   0.9931 B( 40-C , 41-S ) :   1.0439 B( 40-C , 42-C ) :   1.4375
B( 42-C , 43-C ) :   1.2063 B( 42-C , 46-S ) :   1.0067 B( 43-C , 44-C ) :   1.5673
B( 43-C , 83-H ) :   0.9928 B( 44-C , 45-C ) :   1.1448 B( 44-C , 84-H ) :   1.0001
B( 45-C , 46-S ) :   1.0475 B( 45-C , 47-C ) :   1.5406 B( 47-C , 48-C ) :   1.1504
B( 47-C , 85-H ) :   0.9593 B( 48-C , 49-C ) :   1.3507 B( 48-C , 51-C ) :   0.1064
B( 48-C , 53-C ) :   1.1643 B( 49-C , 50-C ) :   1.2907 B( 49-C , 86-H ) :   1.0003
B( 50-C , 51-C ) :   1.3844 B( 50-C , 87-H ) :   0.9967 B( 51-C , 52-C ) :   1.1884
B( 51-C , 62-C ) :   1.1077 B( 52-C , 53-C ) :   1.2547 B( 52-C , 61-N ) :   1.4447
B( 53-C , 54-N ) :   1.4231 B( 54-N , 55-C ) :   1.5831 B( 55-C , 56-C ) :   1.0550
B( 55-C , 58-C ) :   1.2151 B( 56-C , 57-C ) :   1.1021 B( 56-C , 88-H ) :   0.8991
B( 56-C , 89-H ) :   0.9018 B( 57-C , 90-H ) :   0.9636 B( 57-C , 91-H ) :   0.9633
B( 57-C , 92-H ) :   0.9652 B( 58-C , 59-C ) :   1.0619 B( 58-C , 61-N ) :   1.6613
B( 59-C , 60-C ) :   1.0994 B( 59-C , 93-H ) :   0.9226 B( 59-C , 94-H ) :   0.9143
B( 60-C , 95-H ) :   0.9710 B( 60-C , 96-H ) :   0.9654 B( 60-C , 97-H ) :   0.9663
B( 62-C , 63-C ) :   1.9298 B( 62-C , 98-H ) :   0.9598 B( 63-C , 99-H ) :   0.9258
B( 63-C ,100-H ) :   0.9414

-----------------------------------------------------------------------------
         ABSORPTION SPECTRUM VIA TRANSITION ELECTRIC DIPOLE MOMENTS
-----------------------------------------------------------------------------
State   Energy  Wavelength   fosc         T2         TX        TY        TZ
        (cm-1)    (nm)                  (au**2)     (au)      (au)      (au)
-----------------------------------------------------------------------------
   0    5537.1   1806.0   0.663476782  39.44721   0.88725  -3.42385   5.19011
   1   11803.7    847.2   0.237548501   6.62535  -0.62244  -0.44934  -2.45683
   2   12723.4    786.0   0.213900485   5.53456  -0.44055  -1.64727  -1.62080
   3   14695.5    680.5   0.276777546   6.20042  -0.47150   2.02269  -1.37362
   4   18467.7    541.5   0.059999409   1.06957  -0.35379   0.26608  -0.93467
   5   20484.7    488.2   0.668033151  10.73605  -0.76882  -3.17095  -0.30010
   6   21137.5    473.1   0.054663100   0.85136  -0.37877  -0.52616  -0.65655
   7   21998.2    454.6   0.183824120   2.75101   0.59759   1.37812   0.70332
   8   23652.9    422.8   0.403012636   5.60932   0.93423   1.33062   1.72220
   9   24214.3    413.0   0.102781514   1.39739   0.20954   1.15367   0.15012
  10   24514.8    407.9   0.012151840   0.16319   0.24412   0.25378   0.19797
  11   24994.0    400.1   0.113250878   1.49170  -0.03071   0.18355  -1.20709
  12   25970.7    385.0   0.069040333   0.87517   0.34094   0.64462   0.58600
  13   26351.6    379.5   0.374419211   4.67764   0.90085   1.18578   1.56845
  14   27257.0    366.9   0.118132571   1.42681   0.43025  -0.32748   1.06511
  15   28196.8    354.7   0.133708827   1.56112  -0.35842  -0.03816  -1.19633
  16   28559.7    350.1   0.004903455   0.05652   0.02086   0.20203   0.12358
  17   28757.1    347.7   0.008222644   0.09413   0.15711   0.14716   0.21862
  18   29588.6    338.0   0.001892848   0.02106   0.06764  -0.04435   0.12049
  19   30101.7    332.2   0.082578587   0.90314  -0.26066  -0.88547   0.22615
  20   30280.8    330.2   0.149211518   1.62222   0.36100  -0.08232   1.21866
  21   30388.8    329.1   0.009244555   0.10015  -0.01346  -0.23206  -0.21475
  22   31099.9    321.5   0.073050814   0.77329   0.47327   0.37484   0.63937
  23   31269.8    319.8   0.031028870   0.32668   0.30724   0.38815  -0.28569
  24   31411.2    318.4   0.081163761   0.85066   0.00877   0.10246   0.91656
  25   31570.7    316.7   0.160805605   1.67684  -0.21906   0.65494  -1.09540
  26   32232.7    310.2   0.005743194   0.05866   0.18955   0.15011   0.01408
  27   33072.9    302.4   0.012838706   0.12780   0.15725  -0.26158   0.18613
  28   33457.8    298.9   0.083241437   0.81906   0.09693  -0.32044   0.84082
  29   33749.9    296.3   0.003057815   0.02983   0.00505  -0.15675   0.07234
  30   33854.1    295.4   0.012187251   0.11851   0.10514   0.26472  -0.19335
  31   33896.3    295.0   0.003881163   0.03770   0.04893   0.10753   0.15407
  32   34664.3    288.5   0.051087200   0.48518   0.21342   0.22968   0.62200
  33   34920.7    286.4   0.004064515   0.03832   0.09619  -0.07552   0.15285
  34   35311.2    283.2   0.081486294   0.75971   0.20917  -0.23749   0.81213
  35   35450.4    282.1   0.017601303   0.16346   0.04811  -0.12715   0.38075
  36   35753.6    279.7   0.033548655   0.30891  -0.08240   0.26626  -0.48086
  37   36087.3    277.1   0.097183327   0.88657  -0.05410   0.09299  -0.93541
  38   36420.3    274.6   0.039405981   0.35620   0.03674   0.40481  -0.43701
  39   36775.6    271.9   0.031393091   0.28103  -0.03556  -0.52611  -0.05450
  40   36901.6    271.0   0.011733969   0.10468   0.10911   0.24099   0.18629
  41   37400.6    267.4   0.002103338   0.01851   0.09616  -0.04655   0.08427
  42   37451.9    267.0   0.006073799   0.05339   0.05184   0.20369  -0.09599
  43   37599.4    266.0   0.050854939   0.44527  -0.02579  -0.56819   0.34896
  44   37971.8    263.4   0.045023378   0.39035  -0.10436  -0.22595  -0.57307
  45   38107.2    262.4   0.027085066   0.23399  -0.03219  -0.16346  -0.45413
  46   38173.5    262.0   0.105150214   0.90683  -0.11410   0.15658  -0.93236
  47   38426.9    260.2   0.022173006   0.18996  -0.06686  -0.31249   0.29638
  48   38784.9    257.8   0.042971504   0.36475   0.26952   0.35635   0.40635
  49   38835.7    257.5   0.058429116   0.49531  -0.12190  -0.08257  -0.68821
  50   39014.9    256.3   0.018508469   0.15618  -0.04950   0.04731  -0.38921
  51   39277.3    254.6   0.091170605   0.76417   0.02297  -0.44547   0.75180
  52   39534.3    252.9   0.012841301   0.10693   0.25986   0.19027   0.05661

FINAL SINGLE POINT ENERGY     -4853.043362171481

DIPOLE MOMENT
-------------
                                X             Y             Z
Electronic contribution:     14.74674     -22.24681      40.70648
Nuclear contribution   :    -14.00559      23.09388     -39.10953
                        -----------------------------------------
Total Dipole Moment    :      0.74115       0.84707       1.59694
                        -----------------------------------------
Magnitude (a.u.)       :      1.95373
Magnitude (Debye)      :      4.96599

Rotational constants in cm-1:     0.002012     0.000416     0.000350
Rotational constants in MHz :    60.324567    12.478681    10.500293

                             ****ORCA TERMINATED NORMALLY****
TOTAL RUN TIME: 0 days 0 hours 12 minutes 44 seconds 344 msec
