                         Program Version 4.2.0 -  RELEASE  -
|  1> # ORCA input file
|  2> # SCF done       -164.765308192775          0.000626494960
|  3> ! CAM-B3LYP def2-SVP def2/J RIJCOSX Grid4 TightSCF
|  4> %maxcore 5000
|  5> %tddft
|  6>     Mode sTDDFT
|  7>     Ethresh 5.0
|  8>     maxcore 5000
|  9> end
| 10>
| 11> %pal
| 12>   nprocs 6
| 13>   end
| 14> * xyz 0 1
| 15>    C       -4.78307        -4.39568        -3.91901
| 16>    S       -3.34080        -4.83294        -3.12036
| 17>    C       -3.30467        -3.35714        -2.20204
| 18>    C       -4.39641        -2.55046        -2.54334
| 19>    C       -5.24558        -3.16328        -3.52048
| 20>    C       -6.41530        -2.50073        -3.96887
| 21>    C       -6.73525        -1.27704        -3.46121
| 22>    O       -7.81621        -0.53488        -3.80173
| 23>    C       -8.69988        -1.04965        -4.76655
| 24>    C       -5.89061        -0.66349        -2.46278
| 25>    O       -6.33139         0.54375        -2.03803
| 26>    C       -5.57198         1.23433        -1.07649
| 27>    C       -4.75945        -1.29021        -2.02016
| 28>    C       -2.21820        -3.02528        -1.32868
| 29>    C       -1.41601        -3.91246        -0.64707
| 30>    O       -0.32440        -3.50021         0.10376
| 31>    C       -0.13881        -2.15839         0.19725
| 32>    C       -1.00039        -1.23716        -0.46216
| 33>    C       -0.66345         0.05719        -0.23951
| 34>    S        0.72234         0.17115         0.78022
| 35>    C        0.83973        -1.54549         0.90764
| 36>    O       -2.03921        -1.65685        -1.23896
| 37>    C       -1.63645        -5.31353        -0.57822
| 38>    C       -0.81165        -6.17762         0.07030
| 39>    C       -1.08032        -7.56320         0.14635
| 40>    O       -2.15408        -8.10015        -0.50174
| 41>    C       -0.41844        -8.58548         0.80421
| 42>    C        0.72148        -8.89549         1.66638
| 43>    O        1.58501        -8.19617         2.13233
| 44>    N        0.61292       -10.27148         1.86633
| 45>    C       -0.46774       -10.88554         1.23029
| 46>    O       -0.72376       -12.06196         1.29058
| 47>    C       -1.13043        -9.78064         0.54162
| 48>    C       -2.19909        -9.44662        -0.27751
| 49>    C       -3.20496       -10.24943        -0.84979
| 50>    C       -4.15490        -9.74990        -1.69962
| 51>    C       -5.19519       -10.44784        -2.33018
| 52>    C       -5.56499       -11.77010        -2.20956
| 53>    C       -6.64080       -12.36817        -2.91453
| 54>    C       -6.84425       -13.68452        -2.63098
| 55>    C       -5.94108       -14.20470        -1.67880
| 56>    S       -4.81942       -12.96236        -1.16667
| 57>    C       -5.88102       -15.48545        -1.16439
| 58>    C       -6.70132       -16.59341        -1.47824
| 59>    C       -6.38977       -17.72140        -0.78514
| 60>    C       -5.30479       -17.56983         0.11833
| 61>    S       -4.69217       -15.92778         0.04312
| 62>    C       -4.80018       -18.54248         0.93878
| 63>    C       -3.73280       -18.41912         1.84594
| 64>    S       -2.79159       -16.96030         2.11804
| 65>    C       -1.78439       -17.68257         3.30402
| 66>    C       -2.13354       -18.99834         3.50656
| 67>    C       -3.22787       -19.40061         2.68323
| 68>    O       -3.54939       -20.69206         2.90297
| 69>    C       -2.67457       -21.11911         3.85474
| 70>    N       -2.78156       -22.46068         4.28961
| 71>    O       -1.98107       -22.82248         5.13197
| 72>    O       -3.65119       -23.15028         3.80237
| 73>    C       -1.79459       -20.15279         4.26365
| 74>    H       -5.22000        -5.06677        -4.63107
| 75>    H       -7.02733        -2.99123        -4.70769
| 76>    H       -9.47491        -0.29516        -4.88811
| 77>    H       -9.15526        -1.98786        -4.43314
| 78>    H       -8.19702        -1.21180        -5.72544
| 79>    H       -5.51280         0.67743        -0.13584
| 80>    H       -6.09553         2.17363        -0.90791
| 81>    H       -4.55996         1.44104        -1.43871
| 82>    H       -4.13098        -0.83565        -1.27568
| 83>    H       -1.13694         0.93946        -0.61610
| 84>    H        1.61489        -1.99803         1.48920
| 85>    H       -2.52938        -5.70485        -1.03570
| 86>    H        0.08870        -5.83914         0.55801
| 87>    H        1.27076       -10.78779         2.43218
| 88>    H       -3.15734       -11.29294        -0.58351
| 89>    H       -4.09398        -8.69300        -1.92680
| 90>    H       -5.80840        -9.86926        -3.01039
| 91>    H       -7.23214       -11.80144        -3.61237
| 92>    H       -7.61584       -14.28766        -3.07440
| 93>    H       -7.49328       -16.52680        -2.20233
| 94>    H       -6.90127       -18.66203        -0.88730
| 95>    H       -5.26167       -19.52067         0.90235
| 96>    H       -1.01189       -17.10746         3.77025
| 97>    H       -1.02655       -20.27207         4.99926
| 98> *
| 99>
|100>                          ****END OF INPUT****

CARTESIAN COORDINATES (ANGSTROEM)
---------------------------------
  C     -4.783070   -4.395680   -3.919010
  S     -3.340800   -4.832940   -3.120360
  C     -3.304670   -3.357140   -2.202040
  C     -4.396410   -2.550460   -2.543340
  C     -5.245580   -3.163280   -3.520480
  C     -6.415300   -2.500730   -3.968870
  C     -6.735250   -1.277040   -3.461210
  O     -7.816210   -0.534880   -3.801730
  C     -8.699880   -1.049650   -4.766550
  C     -5.890610   -0.663490   -2.462780
  O     -6.331390    0.543750   -2.038030
  C     -5.571980    1.234330   -1.076490
  C     -4.759450   -1.290210   -2.020160
  C     -2.218200   -3.025280   -1.328680
  C     -1.416010   -3.912460   -0.647070
  O     -0.324400   -3.500210    0.103760
  C     -0.138810   -2.158390    0.197250
  C     -1.000390   -1.237160   -0.462160
  C     -0.663450    0.057190   -0.239510
  S      0.722340    0.171150    0.780220
  C      0.839730   -1.545490    0.907640
  O     -2.039210   -1.656850   -1.238960
  C     -1.636450   -5.313530   -0.578220
  C     -0.811650   -6.177620    0.070300
  C     -1.080320   -7.563200    0.146350
  O     -2.154080   -8.100150   -0.501740
  C     -0.418440   -8.585480    0.804210
  C      0.721480   -8.895490    1.666380
  O      1.585010   -8.196170    2.132330
  N      0.612920  -10.271480    1.866330
  C     -0.467740  -10.885540    1.230290
  O     -0.723760  -12.061960    1.290580
  C     -1.130430   -9.780640    0.541620
  C     -2.199090   -9.446620   -0.277510
  C     -3.204960  -10.249430   -0.849790
  C     -4.154900   -9.749900   -1.699620
  C     -5.195190  -10.447840   -2.330180
  C     -5.564990  -11.770100   -2.209560
  C     -6.640800  -12.368170   -2.914530
  C     -6.844250  -13.684520   -2.630980
  C     -5.941080  -14.204700   -1.678800
  S     -4.819420  -12.962360   -1.166670
  C     -5.881020  -15.485450   -1.164390
  C     -6.701320  -16.593410   -1.478240
  C     -6.389770  -17.721400   -0.785140
  C     -5.304790  -17.569830    0.118330
  S     -4.692170  -15.927780    0.043120
  C     -4.800180  -18.542480    0.938780
  C     -3.732800  -18.419120    1.845940
  S     -2.791590  -16.960300    2.118040
  C     -1.784390  -17.682570    3.304020
  C     -2.133540  -18.998340    3.506560
  C     -3.227870  -19.400610    2.683230
  O     -3.549390  -20.692060    2.902970
  C     -2.674570  -21.119110    3.854740
  N     -2.781560  -22.460680    4.289610
  O     -1.981070  -22.822480    5.131970
  O     -3.651190  -23.150280    3.802370
  C     -1.794590  -20.152790    4.263650
  H     -5.220000   -5.066770   -4.631070
  H     -7.027330   -2.991230   -4.707690
  H     -9.474910   -0.295160   -4.888110
  H     -9.155260   -1.987860   -4.433140
  H     -8.197020   -1.211800   -5.725440
  H     -5.512800    0.677430   -0.135840
  H     -6.095530    2.173630   -0.907910
  H     -4.559960    1.441040   -1.438710
  H     -4.130980   -0.835650   -1.275680
  H     -1.136940    0.939460   -0.616100
  H      1.614890   -1.998030    1.489200
  H     -2.529380   -5.704850   -1.035700
  H      0.088700   -5.839140    0.558010
  H      1.270760  -10.787790    2.432180
  H     -3.157340  -11.292940   -0.583510
  H     -4.093980   -8.693000   -1.926800
  H     -5.808400   -9.869260   -3.010390
  H     -7.232140  -11.801440   -3.612370
  H     -7.615840  -14.287660   -3.074400
  H     -7.493280  -16.526800   -2.202330
  H     -6.901270  -18.662030   -0.887300
  H     -5.261670  -19.520670    0.902350
  H     -1.011890  -17.107460    3.770250
  H     -1.026550  -20.272070    4.999260

 Total Charge           Charge          ....    0
 Multiplicity           Mult            ....    1
 Number of Electrons    NEL             ....  450
 Basis Dimension        Dim             ....  966

ORBITAL ENERGIES
----------------

  NO   OCC          E(Eh)            E(eV)
   0   2.0000     -88.974913     -2421.1305
   1   2.0000     -88.963965     -2420.8326
   2   2.0000     -88.955706     -2420.6078
   3   2.0000     -88.951076     -2420.4818
   4   2.0000     -88.950081     -2420.4548
   5   2.0000     -19.308813      -525.4195
   6   2.0000     -19.293679      -525.0077
   7   2.0000     -19.277214      -524.5597
   8   2.0000     -19.267689      -524.3005
   9   2.0000     -19.244695      -523.6748
  10   2.0000     -19.244333      -523.6649
  11   2.0000     -19.241955      -523.6002
  12   2.0000     -19.239714      -523.5392
  13   2.0000     -19.194917      -522.3202
  14   2.0000     -19.193880      -522.2920
  15   2.0000     -14.653724      -398.7481
  16   2.0000     -14.438684      -392.8966
  17   2.0000     -10.385622      -282.6071
  18   2.0000     -10.384081      -282.5652
  19   2.0000     -10.383490      -282.5491
  20   2.0000     -10.355006      -281.7740
  21   2.0000     -10.346186      -281.5340
  22   2.0000     -10.346122      -281.5323
  23   2.0000     -10.346085      -281.5313
  24   2.0000     -10.339472      -281.3513
  25   2.0000     -10.339210      -281.3442
  26   2.0000     -10.337501      -281.2977
  27   2.0000     -10.334046      -281.2037
  28   2.0000     -10.333499      -281.1888
  29   2.0000     -10.322409      -280.8870
  30   2.0000     -10.320786      -280.8429
  31   2.0000     -10.317280      -280.7475
  32   2.0000     -10.316849      -280.7357
  33   2.0000     -10.312836      -280.6265
  34   2.0000     -10.312498      -280.6173
  35   2.0000     -10.311668      -280.5947
  36   2.0000     -10.311517      -280.5907
  37   2.0000     -10.310956      -280.5754
  38   2.0000     -10.301086      -280.3068
  39   2.0000     -10.296798      -280.1901
  40   2.0000     -10.295610      -280.1578
  41   2.0000     -10.293873      -280.1105
  42   2.0000     -10.292296      -280.0676
  43   2.0000     -10.291380      -280.0427
  44   2.0000     -10.290834      -280.0278
  45   2.0000     -10.290475      -280.0180
  46   2.0000     -10.290054      -280.0066
  47   2.0000     -10.286710      -279.9156
  48   2.0000     -10.283048      -279.8160
  49   2.0000     -10.281885      -279.7843
  50   2.0000     -10.280413      -279.7443
  51   2.0000     -10.278478      -279.6916
  52   2.0000     -10.278397      -279.6894
  53   2.0000     -10.277715      -279.6708
  54   2.0000     -10.276814      -279.6463
  55   2.0000     -10.273509      -279.5564
  56   2.0000     -10.273202      -279.5480
  57   2.0000     -10.268025      -279.4072
  58   2.0000     -10.262554      -279.2583
  59   2.0000      -8.069516      -219.5827
  60   2.0000      -8.058823      -219.2917
  61   2.0000      -8.051420      -219.0903
  62   2.0000      -8.047302      -218.9782
  63   2.0000      -8.045875      -218.9394
  64   2.0000      -6.038825      -164.3248
  65   2.0000      -6.034376      -164.2037
  66   2.0000      -6.031960      -164.1380
  67   2.0000      -6.028029      -164.0310
  68   2.0000      -6.023602      -163.9106
  69   2.0000      -6.021547      -163.8546
  70   2.0000      -6.020939      -163.8381
  71   2.0000      -6.017083      -163.7332
  72   2.0000      -6.016778      -163.7248
  73   2.0000      -6.015543      -163.6913
  74   2.0000      -6.013095      -163.6246
  75   2.0000      -6.012945      -163.6206
  76   2.0000      -6.011490      -163.5810
  77   2.0000      -6.008158      -163.4903
  78   2.0000      -6.006979      -163.4582
  79   2.0000      -1.325080       -36.0572
  80   2.0000      -1.228520       -33.4297
  81   2.0000      -1.208303       -32.8796
  82   2.0000      -1.199268       -32.6337
  83   2.0000      -1.161316       -31.6010
  84   2.0000      -1.160991       -31.5922
  85   2.0000      -1.141229       -31.0544
  86   2.0000      -1.138991       -30.9935
  87   2.0000      -1.138518       -30.9806
  88   2.0000      -1.117724       -30.4148
  89   2.0000      -1.025912       -27.9165
  90   2.0000      -1.002187       -27.2709
  91   2.0000      -0.993952       -27.0468
  92   2.0000      -0.993449       -27.0331
  93   2.0000      -0.981485       -26.7076
  94   2.0000      -0.976154       -26.5625
  95   2.0000      -0.934565       -25.4308
  96   2.0000      -0.928346       -25.2616
  97   2.0000      -0.921216       -25.0676
  98   2.0000      -0.909724       -24.7548
  99   2.0000      -0.905427       -24.6379
 100   2.0000      -0.899976       -24.4896
 101   2.0000      -0.887683       -24.1551
 102   2.0000      -0.878550       -23.9066
 103   2.0000      -0.865976       -23.5644
 104   2.0000      -0.854521       -23.2527
 105   2.0000      -0.846232       -23.0271
 106   2.0000      -0.843694       -22.9581
 107   2.0000      -0.837036       -22.7769
 108   2.0000      -0.830323       -22.5942
 109   2.0000      -0.824559       -22.4374
 110   2.0000      -0.812828       -22.1182
 111   2.0000      -0.806148       -21.9364
 112   2.0000      -0.797607       -21.7040
 113   2.0000      -0.786421       -21.3996
 114   2.0000      -0.781077       -21.2542
 115   2.0000      -0.778945       -21.1962
 116   2.0000      -0.769969       -20.9519
 117   2.0000      -0.756603       -20.5882
 118   2.0000      -0.749768       -20.4022
 119   2.0000      -0.740066       -20.1382
 120   2.0000      -0.725533       -19.7427
 121   2.0000      -0.707019       -19.2390
 122   2.0000      -0.704766       -19.1777
 123   2.0000      -0.693034       -18.8584
 124   2.0000      -0.688420       -18.7329
 125   2.0000      -0.685149       -18.6439
 126   2.0000      -0.681043       -18.5321
 127   2.0000      -0.675863       -18.3912
 128   2.0000      -0.671615       -18.2756
 129   2.0000      -0.660886       -17.9836
 130   2.0000      -0.653322       -17.7778
 131   2.0000      -0.651702       -17.7337
 132   2.0000      -0.644076       -17.5262
 133   2.0000      -0.638888       -17.3850
 134   2.0000      -0.636651       -17.3242
 135   2.0000      -0.626426       -17.0459
 136   2.0000      -0.625717       -17.0266
 137   2.0000      -0.621488       -16.9115
 138   2.0000      -0.612392       -16.6640
 139   2.0000      -0.600286       -16.3346
 140   2.0000      -0.597891       -16.2694
 141   2.0000      -0.594397       -16.1744
 142   2.0000      -0.590239       -16.0612
 143   2.0000      -0.587486       -15.9863
 144   2.0000      -0.583614       -15.8809
 145   2.0000      -0.583256       -15.8712
 146   2.0000      -0.574614       -15.6360
 147   2.0000      -0.568544       -15.4709
 148   2.0000      -0.566110       -15.4046
 149   2.0000      -0.565788       -15.3959
 150   2.0000      -0.565326       -15.3833
 151   2.0000      -0.564000       -15.3472
 152   2.0000      -0.561139       -15.2694
 153   2.0000      -0.555581       -15.1181
 154   2.0000      -0.551266       -15.0007
 155   2.0000      -0.547309       -14.8930
 156   2.0000      -0.544724       -14.8227
 157   2.0000      -0.540586       -14.7101
 158   2.0000      -0.539616       -14.6837
 159   2.0000      -0.534797       -14.5526
 160   2.0000      -0.527251       -14.3472
 161   2.0000      -0.523900       -14.2560
 162   2.0000      -0.522823       -14.2267
 163   2.0000      -0.521174       -14.1819
 164   2.0000      -0.512786       -13.9536
 165   2.0000      -0.506495       -13.7824
 166   2.0000      -0.505419       -13.7532
 167   2.0000      -0.502117       -13.6633
 168   2.0000      -0.500522       -13.6199
 169   2.0000      -0.499545       -13.5933
 170   2.0000      -0.498166       -13.5558
 171   2.0000      -0.495475       -13.4826
 172   2.0000      -0.492763       -13.4088
 173   2.0000      -0.488901       -13.3037
 174   2.0000      -0.487352       -13.2615
 175   2.0000      -0.485965       -13.2238
 176   2.0000      -0.483456       -13.1555
 177   2.0000      -0.479497       -13.0478
 178   2.0000      -0.477717       -12.9993
 179   2.0000      -0.476287       -12.9604
 180   2.0000      -0.469268       -12.7694
 181   2.0000      -0.466587       -12.6965
 182   2.0000      -0.464316       -12.6347
 183   2.0000      -0.459486       -12.5032
 184   2.0000      -0.458173       -12.4675
 185   2.0000      -0.453782       -12.3480
 186   2.0000      -0.453295       -12.3348
 187   2.0000      -0.450251       -12.2520
 188   2.0000      -0.445871       -12.1328
 189   2.0000      -0.444421       -12.0933
 190   2.0000      -0.435626       -11.8540
 191   2.0000      -0.431702       -11.7472
 192   2.0000      -0.429018       -11.6742
 193   2.0000      -0.422146       -11.4872
 194   2.0000      -0.420397       -11.4396
 195   2.0000      -0.417936       -11.3726
 196   2.0000      -0.416757       -11.3405
 197   2.0000      -0.407053       -11.0765
 198   2.0000      -0.403711       -10.9855
 199   2.0000      -0.403521       -10.9804
 200   2.0000      -0.400471       -10.8974
 201   2.0000      -0.395448       -10.7607
 202   2.0000      -0.393189       -10.6992
 203   2.0000      -0.387821       -10.5532
 204   2.0000      -0.379116       -10.3163
 205   2.0000      -0.374894       -10.2014
 206   2.0000      -0.369674       -10.0593
 207   2.0000      -0.369556       -10.0561
 208   2.0000      -0.363512        -9.8917
 209   2.0000      -0.357775        -9.7355
 210   2.0000      -0.353935        -9.6310
 211   2.0000      -0.346488        -9.4284
 212   2.0000      -0.343151        -9.3376
 213   2.0000      -0.341912        -9.3039
 214   2.0000      -0.331393        -9.0177
 215   2.0000      -0.329558        -8.9677
 216   2.0000      -0.324297        -8.8246
 217   2.0000      -0.313764        -8.5380
 218   2.0000      -0.305054        -8.3009
 219   2.0000      -0.292724        -7.9654
 220   2.0000      -0.277862        -7.5610
 221   2.0000      -0.275384        -7.4936
 222   2.0000      -0.264430        -7.1955
 223   2.0000      -0.231985        -6.3126
 224   2.0000      -0.208380        -5.6703
 225   0.0000      -0.090583        -2.4649
 226   0.0000      -0.060698        -1.6517
 227   0.0000      -0.052543        -1.4298
 228   0.0000      -0.027664        -0.7528
 229   0.0000      -0.013053        -0.3552

MULLIKEN ATOMIC CHARGES
-----------------------
   0 C :   -0.133555
   1 S :    0.154487
   2 C :   -0.230150
   3 C :    0.180093
   4 C :    0.101336
   5 C :   -0.162973
   6 C :    0.217922
   7 O :   -0.291692
   8 C :    0.180084
   9 C :    0.226665
  10 O :   -0.292380
  11 C :    0.180872
  12 C :   -0.178789
  13 C :    0.193701
  14 C :    0.152213
  15 O :   -0.261010
  16 C :    0.231296
  17 C :    0.222670
  18 C :   -0.177317
  19 S :    0.107927
  20 C :   -0.176330
  21 O :   -0.266016
  22 C :   -0.067197
  23 C :   -0.026754
  24 C :    0.103197
  25 O :   -0.229402
  26 C :   -0.027733
  27 C :    0.154065
  28 O :   -0.150700
  29 N :   -0.168552
  30 C :    0.156119
  31 O :   -0.154935
  32 C :   -0.036337
  33 C :    0.088533
  34 C :   -0.043114
  35 C :    0.029219
  36 C :   -0.009768
  37 C :   -0.016172
  38 C :    0.033986
  39 C :    0.026667
  40 C :   -0.039289
  41 S :    0.075592
  42 C :   -0.029848
  43 C :    0.022894
  44 C :    0.043692
  45 C :   -0.030213
  46 S :    0.073556
  47 C :   -0.003067
  48 C :   -0.196103
  49 S :    0.157179
  50 C :   -0.126510
  51 C :    0.123919
  52 C :    0.194243
  53 O :   -0.184607
  54 C :    0.234963
  55 N :    0.274418
  56 O :   -0.250677
  57 O :   -0.231606
  58 C :   -0.072700
  59 H :    0.012087
  60 H :   -0.045419
  61 H :    0.039451
  62 H :    0.019989
  63 H :    0.021145
  64 H :    0.024627
  65 H :    0.037607
  66 H :    0.020335
  67 H :   -0.032584
  68 H :    0.019165
  69 H :    0.028603
  70 H :    0.016834
  71 H :    0.018721
  72 H :    0.131214
  73 H :    0.016895
  74 H :   -0.004255
  75 H :   -0.016982
  76 H :   -0.012083
  77 H :   -0.012509
  78 H :   -0.010403
  79 H :   -0.007087
  80 H :    0.006200
  81 H :    0.038267
  82 H :    0.014165
Sum of atomic charges:   -0.0000000

LOEWDIN ATOMIC CHARGES
----------------------
   0 C :   -0.200342
   1 S :    0.490447
   2 C :   -0.212567
   3 C :   -0.028200
   4 C :   -0.049707
   5 C :   -0.085298
   6 C :    0.045917
   7 O :   -0.087855
   8 C :    0.077675
   9 C :    0.049071
  10 O :   -0.085918
  11 C :    0.077817
  12 C :   -0.082889
  13 C :    0.026578
  14 C :    0.006850
  15 O :   -0.056716
  16 C :   -0.006152
  17 C :   -0.009783
  18 C :   -0.213378
  19 S :    0.434783
  20 C :   -0.209496
  21 O :   -0.046370
  22 C :   -0.026620
  23 C :   -0.043337
  24 C :    0.073207
  25 O :    0.003658
  26 C :   -0.102896
  27 C :    0.082607
  28 O :   -0.168598
  29 N :   -0.010348
  30 C :    0.082623
  31 O :   -0.172454
  32 C :   -0.103290
  33 C :    0.071901
  34 C :   -0.057231
  35 C :   -0.016422
  36 C :   -0.070642
  37 C :   -0.135695
  38 C :   -0.032632
  39 C :   -0.033992
  40 C :   -0.181467
  41 S :    0.401828
  42 C :   -0.168217
  43 C :   -0.037462
  44 C :   -0.023476
  45 C :   -0.155424
  46 S :    0.373000
  47 C :   -0.060526
  48 C :   -0.207458
  49 S :    0.486269
  50 C :   -0.183598
  51 C :   -0.085698
  52 C :    0.022392
  53 O :    0.001465
  54 C :    0.024322
  55 N :    0.272225
  56 O :   -0.211388
  57 O :   -0.193193
  58 C :   -0.007413
  59 H :    0.021995
  60 H :    0.028027
  61 H :    0.029659
  62 H :    0.014454
  63 H :    0.014720
  64 H :    0.016517
  65 H :    0.029122
  66 H :    0.014796
  67 H :    0.026581
  68 H :    0.026593
  69 H :    0.030738
  70 H :    0.018341
  71 H :    0.045309
  72 H :    0.090468
  73 H :    0.026038
  74 H :    0.032354
  75 H :    0.033632
  76 H :    0.033362
  77 H :    0.032216
  78 H :    0.033019
  79 H :    0.035836
  80 H :    0.046958
  81 H :    0.031336
  82 H :    0.047445

  Mayer bond orders larger than 0.100000
B(  0-C ,  1-S ) :   1.1856 B(  0-C ,  2-C ) :   0.1172 B(  0-C ,  4-C ) :   1.4370
B(  0-C , 59-H ) :   0.9692 B(  1-S ,  2-C ) :   1.1569 B(  2-C ,  3-C ) :   1.3772
B(  2-C , 13-C ) :   1.1086 B(  3-C ,  4-C ) :   1.1954 B(  3-C , 12-C ) :   1.1483
B(  4-C ,  5-C ) :   1.1050 B(  5-C ,  6-C ) :   1.5002 B(  5-C , 60-H ) :   1.0140
B(  6-C ,  7-O ) :   1.1921 B(  6-C ,  9-C ) :   1.1744 B(  7-O ,  8-C ) :   0.9694
B(  8-C , 61-H ) :   0.9790 B(  8-C , 62-H ) :   0.9683 B(  8-C , 63-H ) :   0.9677
B(  9-C , 10-O ) :   1.1873 B(  9-C , 12-C ) :   1.4768 B( 10-O , 11-C ) :   0.9678
B( 11-C , 64-H ) :   0.9682 B( 11-C , 65-H ) :   0.9775 B( 11-C , 66-H ) :   0.9681
B( 12-C , 67-H ) :   1.0016 B( 13-C , 14-C ) :   1.4776 B( 13-C , 21-O ) :   1.0675
B( 14-C , 15-O ) :   1.0498 B( 14-C , 22-C ) :   1.1542 B( 15-O , 16-C ) :   1.0620
B( 16-C , 17-C ) :   1.2083 B( 16-C , 20-C ) :   1.5703 B( 17-C , 18-C ) :   1.5652
B( 17-C , 21-O ) :   1.0286 B( 18-C , 19-S ) :   1.1423 B( 18-C , 68-H ) :   0.9742
B( 19-S , 20-C ) :   1.1388 B( 20-C , 69-H ) :   0.9725 B( 22-C , 23-C ) :   1.6093
B( 22-C , 70-H ) :   0.9489 B( 23-C , 24-C ) :   1.1692 B( 23-C , 71-H ) :   0.9708
B( 24-C , 25-O ) :   1.1375 B( 24-C , 26-C ) :   1.3822 B( 25-O , 33-C ) :   1.1363
B( 26-C , 27-C ) :   0.8866 B( 26-C , 32-C ) :   1.2689 B( 27-C , 28-O ) :   2.2651
B( 27-C , 29-N ) :   1.0751 B( 29-N , 30-C ) :   1.0753 B( 29-N , 72-H ) :   0.9154
B( 30-C , 31-O ) :   2.2556 B( 30-C , 32-C ) :   0.8890 B( 32-C , 33-C ) :   1.3637
B( 33-C , 34-C ) :   1.2529 B( 34-C , 35-C ) :   1.5489 B( 34-C , 73-H ) :   0.9348
B( 35-C , 36-C ) :   1.2122 B( 35-C , 74-H ) :   0.9710 B( 36-C , 37-C ) :   1.5368
B( 36-C , 75-H ) :   0.9635 B( 37-C , 38-C ) :   1.1583 B( 37-C , 41-S ) :   1.0551
B( 38-C , 39-C ) :   1.5783 B( 38-C , 76-H ) :   0.9995 B( 39-C , 40-C ) :   1.1922
B( 39-C , 77-H ) :   0.9935 B( 40-C , 41-S ) :   1.0401 B( 40-C , 42-C ) :   1.5074
B( 42-C , 43-C ) :   1.1825 B( 42-C , 46-S ) :   1.0496 B( 43-C , 44-C ) :   1.5940
B( 43-C , 78-H ) :   0.9938 B( 44-C , 45-C ) :   1.1384 B( 44-C , 79-H ) :   1.0003
B( 45-C , 46-S ) :   1.0320 B( 45-C , 47-C ) :   1.5711 B( 47-C , 48-C ) :   1.1755
B( 47-C , 80-H ) :   0.9741 B( 48-C , 49-S ) :   1.1054 B( 48-C , 50-C ) :   0.1075
B( 48-C , 52-C ) :   1.4395 B( 49-S , 50-C ) :   1.1988 B( 50-C , 51-C ) :   1.4095
B( 50-C , 81-H ) :   0.9772 B( 51-C , 52-C ) :   1.2304 B( 51-C , 58-C ) :   1.0606
B( 52-C , 53-O ) :   1.1254 B( 53-O , 54-C ) :   1.1207 B( 54-C , 55-N ) :   0.9176
B( 54-C , 58-C ) :   1.5756 B( 55-N , 56-O ) :   1.5319 B( 55-N , 57-O ) :   1.5138
B( 56-O , 57-O ) :   0.2793 B( 58-C , 82-H ) :   1.0270

-----------------------------------------------------------------------------
         ABSORPTION SPECTRUM VIA TRANSITION ELECTRIC DIPOLE MOMENTS
-----------------------------------------------------------------------------
State   Energy  Wavelength   fosc         T2         TX        TY        TZ
        (cm-1)    (nm)                  (au**2)     (au)      (au)      (au)
-----------------------------------------------------------------------------
   0   12420.4    805.1   1.228603496  32.56497   0.53490   5.52535  -1.32265
   1   18485.8    541.0   0.017461623   0.31097   0.09023   0.31902   0.44840
   2   18865.2    530.1   0.115653838   2.01825   0.34701   1.37735   0.02731
   3   20485.3    488.2   0.247596498   3.97904  -1.42820   0.97447  -0.99483
   4   23288.6    429.4   0.063960528   0.90416  -0.60314  -0.69642  -0.23534
   5   24478.8    408.5   0.355759460   4.78455   1.50206  -0.88544   1.32074
   6   26290.3    380.4   0.988819232  12.38217  -2.61421   0.52048  -2.29721
   7   27566.2    362.8   0.183305862   2.18915  -1.11123  -0.35883  -0.90861
   8   28277.6    353.6   0.019467402   0.22664  -0.27190  -0.37010  -0.12546
   9   28907.3    345.9   0.070270926   0.80028  -0.59657  -0.51842  -0.41908
  10   29606.7    337.8   0.032848785   0.36526  -0.53626  -0.26938  -0.07154
  11   29918.1    334.2   0.060372852   0.66433  -0.21642   0.76913   0.16103
  12   31277.4    319.7   0.018967801   0.19965  -0.04582   0.40461  -0.18395
  13   31500.7    317.5   0.082247759   0.85957  -0.50541  -0.61823  -0.47109
  14   31874.7    313.7   0.002965379   0.03063   0.08524   0.06971   0.13602
  15   32201.1    310.5   0.255812157   2.61532  -0.28469   1.51014  -0.50375
  16   32684.6    306.0   0.096334829   0.97032  -0.54906   0.57679  -0.57980
  17   32824.3    304.7   0.052516969   0.52672  -0.47060  -0.43185  -0.34462
  18   33411.4    299.3   0.104350966   1.02820  -0.25600   0.92934  -0.31463
  19   33581.1    297.8   0.036675347   0.35955  -0.39720  -0.42905   0.13303
  20   33806.1    295.8   0.155769070   1.51692   0.36305  -1.15246  -0.23863
  21   34783.7    287.5   0.070786707   0.66996  -0.50306   0.49517  -0.41436
  22   35239.1    283.8   0.000519581   0.00485   0.05359  -0.03853  -0.02231
  23   36103.1    277.0   0.144083738   1.31385   0.31392  -0.87488   0.67074
  24   36304.6    275.4   0.126025184   1.14280  -0.15235  -1.04401   0.17213
  25   36738.5    272.2   0.050250322   0.45029  -0.02065   0.58097  -0.33517
  26   37345.4    267.8   0.068511559   0.60395  -0.55276  -0.53289  -0.12016
  27   38365.1    260.7   0.086763622   0.74452  -0.02375  -0.85584   0.10719
  28   38587.0    259.2   0.031084838   0.26521  -0.05561  -0.49437   0.13307
  29   39317.4    254.3   0.121745379   1.01940  -0.13153   0.94430  -0.33224
  30   39711.8    251.8   0.014112514   0.11699   0.11612  -0.27175   0.17222
  31   40095.8    249.4   0.022200886   0.18228  -0.26657   0.33254  -0.02530

FINAL SINGLE POINT ENERGY     -4463.761609539032

DIPOLE MOMENT
-------------
                                X             Y             Z
Electronic contribution:     27.68531     -45.92568      22.62277
Nuclear contribution   :    -29.76411      48.35463     -24.58883
                        -----------------------------------------
Total Dipole Moment    :     -2.07880       2.42895      -1.96606
                        -----------------------------------------
Magnitude (a.u.)       :      3.75321
Magnitude (Debye)      :      9.53991

Rotational constants in cm-1:     0.002113     0.000343     0.000301
Rotational constants in MHz :    63.350743    10.280057     9.021916

                             ****ORCA TERMINATED NORMALLY****
TOTAL RUN TIME: 0 days 0 hours 6 minutes 38 seconds 445 msec
