                         Program Version 4.2.0 -  RELEASE  -
|  1> # ORCA input file
|  2> # SCF done       -175.052134526570          0.000535209050
|  3> ! CAM-B3LYP def2-SVP def2/J RIJCOSX Grid4 TightSCF
|  4> %maxcore 5000
|  5> %tddft
|  6>     Mode sTDDFT
|  7>     Ethresh 5.0
|  8>     maxcore 5000
|  9> end
| 10>
| 11> %pal
| 12>   nprocs 6
| 13>   end
| 14> * xyz 0 1
| 15>    C        4.54633         5.57069        -7.91177
| 16>    C        4.78056         4.33464        -7.39039
| 17>    C        4.52465         3.28792        -8.33684
| 18>    C        4.09930         3.73941        -9.54073
| 19>    S        4.01178         5.46445        -9.54574
| 20>    C        4.80323         1.97922        -7.72505
| 21>    O        4.72081         0.89753        -8.26497
| 22>    C        5.26647         2.30321        -6.35444
| 23>    C        5.14337         3.71982        -6.12567
| 24>    C        5.21147         4.33471        -4.89132
| 25>    N        5.32252         5.74003        -4.71455
| 26>    O        5.82006         6.38626        -5.62104
| 27>    O        4.90676         6.21714        -3.67824
| 28>    N        5.08393         3.59535        -3.65783
| 29>    O        5.82443         3.89131        -2.74766
| 30>    O        4.23732         2.72506        -3.61823
| 31>    C        5.91922         1.45794        -5.47148
| 32>    C        6.00279         0.07164        -5.43222
| 33>    S        7.05070        -0.62012        -4.17277
| 34>    C        6.60187        -2.19724        -4.62538
| 35>    C        5.68468        -2.19664        -5.70538
| 36>    C        5.34899        -0.94167        -6.15213
| 37>    C        5.35641        -3.60166        -6.00391
| 38>    O        4.61341        -4.03266        -6.85245
| 39>    C        6.16168        -4.39559        -4.99536
| 40>    C        6.88177        -3.50616        -4.20666
| 41>    C        6.16345        -5.78809        -4.86303
| 42>    C        5.45708        -6.64781        -5.67038
| 43>    C        5.42601        -8.03737        -5.51772
| 44>    S        4.50702        -9.01370        -6.66955
| 45>    C        4.92498       -10.44673        -5.83490
| 46>    C        5.73781       -10.17835        -4.71174
| 47>    C        6.02080        -8.84260        -4.53633
| 48>    C        6.02614       -11.46413        -4.05497
| 49>    O        6.68627       -11.65545        -3.05861
| 50>    C        5.31030       -12.48712        -4.90650
| 51>    C        4.67657       -11.82246        -5.95193
| 52>    C        5.28788       -13.86486        -4.66898
| 53>    C        5.90125       -14.46193        -3.59226
| 54>    C        5.87260       -15.84293        -3.34345
| 55>    C        6.46193       -16.44042        -2.22415
| 56>    O        6.40439       -17.79578        -2.00783
| 57>    C        5.74578       -18.53088        -2.94529
| 58>    C        5.14546       -17.92571        -4.08562
| 59>    C        4.53918       -18.82620        -4.89953
| 60>    S        4.69438       -20.42791        -4.28212
| 61>    C        5.58417       -19.87815        -2.91457
| 62>    O        5.19929       -16.58418        -4.29549
| 63>    C        7.15097       -15.72770        -1.22088
| 64>    C        7.69009       -16.32582        -0.11337
| 65>    C        8.37545       -15.64710         0.90092
| 66>    S        8.64971       -13.92325         0.85015
| 67>    C        9.47619       -13.93447         2.33796
| 68>    C        9.56069       -15.19722         2.88976
| 69>    C        8.93320       -16.18834         2.07495
| 70>    C        8.93638       -17.51648         2.51050
| 71>    C        9.52963       -17.88081         3.70174
| 72>    O        9.43776       -19.20233         3.97619
| 73>    C        9.99162       -19.79119         5.13266
| 74>    C       10.16323       -16.87907         4.51805
| 75>    O       10.73413       -17.30088         5.68374
| 76>    C       11.36672       -16.35373         6.51024
| 77>    C       10.16950       -15.57284         4.10669
| 78>    H        4.68759         6.53543        -7.46784
| 79>    H        3.82724         3.18183       -10.41425
| 80>    H        6.48867         1.94513        -4.68619
| 81>    H        4.67524        -0.72714        -6.96135
| 82>    H        7.54169        -3.77793        -3.40310
| 83>    H        6.76972        -6.19100        -4.06100
| 84>    H        4.87904        -6.22885        -6.48197
| 85>    H        6.62026        -8.44762        -3.73696
| 86>    H        4.08770       -12.28936        -6.71991
| 87>    H        4.74429       -14.48080        -5.37386
| 88>    H        6.42750       -13.83020        -2.89900
| 89>    H        4.01731       -18.64243        -5.81492
| 90>    H        5.93353       -20.56811        -2.17549
| 91>    H        7.25178       -14.66111        -1.33260
| 92>    H        7.58525       -17.39466         0.00608
| 93>    H        9.86113       -13.01795         2.73979
| 94>    H        8.47231       -18.29508         1.92763
| 95>    H        9.75638       -20.85177         5.04402
| 96>    H        9.54234       -19.39415         6.04481
| 97>    H       11.07450       -19.66111         5.17517
| 98>    H       11.74164       -16.91830         7.36230
| 99>    H       10.66280       -15.59283         6.86067
|100>    H       12.20443       -15.87033         5.99851
|101>    H       10.63476       -14.80199         4.69816
|102> *
|103>
|104>                          ****END OF INPUT****

CARTESIAN COORDINATES (ANGSTROEM)
---------------------------------
  C      4.546330    5.570690   -7.911770
  C      4.780560    4.334640   -7.390390
  C      4.524650    3.287920   -8.336840
  C      4.099300    3.739410   -9.540730
  S      4.011780    5.464450   -9.545740
  C      4.803230    1.979220   -7.725050
  O      4.720810    0.897530   -8.264970
  C      5.266470    2.303210   -6.354440
  C      5.143370    3.719820   -6.125670
  C      5.211470    4.334710   -4.891320
  N      5.322520    5.740030   -4.714550
  O      5.820060    6.386260   -5.621040
  O      4.906760    6.217140   -3.678240
  N      5.083930    3.595350   -3.657830
  O      5.824430    3.891310   -2.747660
  O      4.237320    2.725060   -3.618230
  C      5.919220    1.457940   -5.471480
  C      6.002790    0.071640   -5.432220
  S      7.050700   -0.620120   -4.172770
  C      6.601870   -2.197240   -4.625380
  C      5.684680   -2.196640   -5.705380
  C      5.348990   -0.941670   -6.152130
  C      5.356410   -3.601660   -6.003910
  O      4.613410   -4.032660   -6.852450
  C      6.161680   -4.395590   -4.995360
  C      6.881770   -3.506160   -4.206660
  C      6.163450   -5.788090   -4.863030
  C      5.457080   -6.647810   -5.670380
  C      5.426010   -8.037370   -5.517720
  S      4.507020   -9.013700   -6.669550
  C      4.924980  -10.446730   -5.834900
  C      5.737810  -10.178350   -4.711740
  C      6.020800   -8.842600   -4.536330
  C      6.026140  -11.464130   -4.054970
  O      6.686270  -11.655450   -3.058610
  C      5.310300  -12.487120   -4.906500
  C      4.676570  -11.822460   -5.951930
  C      5.287880  -13.864860   -4.668980
  C      5.901250  -14.461930   -3.592260
  C      5.872600  -15.842930   -3.343450
  C      6.461930  -16.440420   -2.224150
  O      6.404390  -17.795780   -2.007830
  C      5.745780  -18.530880   -2.945290
  C      5.145460  -17.925710   -4.085620
  C      4.539180  -18.826200   -4.899530
  S      4.694380  -20.427910   -4.282120
  C      5.584170  -19.878150   -2.914570
  O      5.199290  -16.584180   -4.295490
  C      7.150970  -15.727700   -1.220880
  C      7.690090  -16.325820   -0.113370
  C      8.375450  -15.647100    0.900920
  S      8.649710  -13.923250    0.850150
  C      9.476190  -13.934470    2.337960
  C      9.560690  -15.197220    2.889760
  C      8.933200  -16.188340    2.074950
  C      8.936380  -17.516480    2.510500
  C      9.529630  -17.880810    3.701740
  O      9.437760  -19.202330    3.976190
  C      9.991620  -19.791190    5.132660
  C     10.163230  -16.879070    4.518050
  O     10.734130  -17.300880    5.683740
  C     11.366720  -16.353730    6.510240
  C     10.169500  -15.572840    4.106690
  H      4.687590    6.535430   -7.467840
  H      3.827240    3.181830  -10.414250
  H      6.488670    1.945130   -4.686190
  H      4.675240   -0.727140   -6.961350
  H      7.541690   -3.777930   -3.403100
  H      6.769720   -6.191000   -4.061000
  H      4.879040   -6.228850   -6.481970
  H      6.620260   -8.447620   -3.736960
  H      4.087700  -12.289360   -6.719910
  H      4.744290  -14.480800   -5.373860
  H      6.427500  -13.830200   -2.899000
  H      4.017310  -18.642430   -5.814920
  H      5.933530  -20.568110   -2.175490
  H      7.251780  -14.661110   -1.332600
  H      7.585250  -17.394660    0.006080
  H      9.861130  -13.017950    2.739790
  H      8.472310  -18.295080    1.927630
  H      9.756380  -20.851770    5.044020
  H      9.542340  -19.394150    6.044810
  H     11.074500  -19.661110    5.175170
  H     11.741640  -16.918300    7.362300
  H     10.662800  -15.592830    6.860670
  H     12.204430  -15.870330    5.998510
  H     10.634760  -14.801990    4.698160

 Total Charge           Charge          ....    0
 Multiplicity           Mult            ....    1
 Number of Electrons    NEL             ....  476
 Basis Dimension        Dim             .... 1022

ORBITAL ENERGIES
----------------

  NO   OCC          E(Eh)            E(eV)
   0   2.0000     -88.978667     -2421.2326
   1   2.0000     -88.977031     -2421.1881
   2   2.0000     -88.966128     -2420.8914
   3   2.0000     -88.964266     -2420.8408
   4   2.0000     -88.960855     -2420.7479
   5   2.0000     -19.284921      -524.7694
   6   2.0000     -19.274734      -524.4922
   7   2.0000     -19.260324      -524.1001
   8   2.0000     -19.247184      -523.7425
   9   2.0000     -19.233455      -523.3689
  10   2.0000     -19.233021      -523.3571
  11   2.0000     -19.230533      -523.2894
  12   2.0000     -19.229715      -523.2671
  13   2.0000     -19.224874      -523.1354
  14   2.0000     -19.224519      -523.1258
  15   2.0000     -19.199189      -522.4365
  16   2.0000     -14.640341      -398.3839
  17   2.0000     -14.636954      -398.2918
  18   2.0000     -10.376702      -282.3644
  19   2.0000     -10.374976      -282.3174
  20   2.0000     -10.360844      -281.9329
  21   2.0000     -10.355158      -281.7782
  22   2.0000     -10.348287      -281.5912
  23   2.0000     -10.345226      -281.5079
  24   2.0000     -10.345153      -281.5059
  25   2.0000     -10.344724      -281.4942
  26   2.0000     -10.343635      -281.4646
  27   2.0000     -10.341242      -281.3995
  28   2.0000     -10.336132      -281.2605
  29   2.0000     -10.330440      -281.1056
  30   2.0000     -10.328796      -281.0608
  31   2.0000     -10.323048      -280.9044
  32   2.0000     -10.317433      -280.7516
  33   2.0000     -10.314574      -280.6738
  34   2.0000     -10.311602      -280.5930
  35   2.0000     -10.309640      -280.5396
  36   2.0000     -10.304005      -280.3862
  37   2.0000     -10.303110      -280.3619
  38   2.0000     -10.302462      -280.3442
  39   2.0000     -10.302455      -280.3441
  40   2.0000     -10.300614      -280.2940
  41   2.0000     -10.299361      -280.2599
  42   2.0000     -10.298826      -280.2453
  43   2.0000     -10.298440      -280.2348
  44   2.0000     -10.296555      -280.1835
  45   2.0000     -10.296213      -280.1742
  46   2.0000     -10.294895      -280.1383
  47   2.0000     -10.294400      -280.1249
  48   2.0000     -10.293850      -280.1099
  49   2.0000     -10.292704      -280.0787
  50   2.0000     -10.286874      -279.9201
  51   2.0000     -10.286439      -279.9082
  52   2.0000     -10.285383      -279.8795
  53   2.0000     -10.284405      -279.8529
  54   2.0000     -10.284397      -279.8527
  55   2.0000     -10.280490      -279.7464
  56   2.0000     -10.280302      -279.7412
  57   2.0000     -10.280179      -279.7379
  58   2.0000     -10.279140      -279.7096
  59   2.0000     -10.278539      -279.6933
  60   2.0000     -10.277704      -279.6705
  61   2.0000     -10.273492      -279.5559
  62   2.0000     -10.269864      -279.4572
  63   2.0000      -8.073592      -219.6936
  64   2.0000      -8.072172      -219.6550
  65   2.0000      -8.061250      -219.3578
  66   2.0000      -8.060297      -219.3318
  67   2.0000      -8.056720      -219.2345
  68   2.0000      -6.042692      -164.4300
  69   2.0000      -6.041191      -164.3892
  70   2.0000      -6.038688      -164.3211
  71   2.0000      -6.037302      -164.2833
  72   2.0000      -6.036058      -164.2495
  73   2.0000      -6.034637      -164.2108
  74   2.0000      -6.030203      -164.0902
  75   2.0000      -6.029540      -164.0721
  76   2.0000      -6.026229      -163.9820
  77   2.0000      -6.026062      -163.9775
  78   2.0000      -6.024859      -163.9448
  79   2.0000      -6.024180      -163.9263
  80   2.0000      -6.022972      -163.8934
  81   2.0000      -6.022034      -163.8679
  82   2.0000      -6.018392      -163.7688
  83   2.0000      -1.319375       -35.9020
  84   2.0000      -1.301033       -35.4029
  85   2.0000      -1.207479       -32.8572
  86   2.0000      -1.169613       -31.8268
  87   2.0000      -1.169018       -31.8106
  88   2.0000      -1.145252       -31.1639
  89   2.0000      -1.142974       -31.1019
  90   2.0000      -1.141144       -31.0521
  91   2.0000      -1.133223       -30.8366
  92   2.0000      -1.122876       -30.5550
  93   2.0000      -1.115918       -30.3657
  94   2.0000      -1.011333       -27.5198
  95   2.0000      -1.010478       -27.4965
  96   2.0000      -1.001648       -27.2562
  97   2.0000      -0.996056       -27.1041
  98   2.0000      -0.990211       -26.9450
  99   2.0000      -0.962616       -26.1941
 100   2.0000      -0.951722       -25.8977
 101   2.0000      -0.944372       -25.6977
 102   2.0000      -0.934280       -25.4231
 103   2.0000      -0.923566       -25.1315
 104   2.0000      -0.917259       -24.9599
 105   2.0000      -0.901904       -24.5420
 106   2.0000      -0.890883       -24.2422
 107   2.0000      -0.871914       -23.7260
 108   2.0000      -0.865083       -23.5401
 109   2.0000      -0.855995       -23.2928
 110   2.0000      -0.853955       -23.2373
 111   2.0000      -0.848991       -23.1022
 112   2.0000      -0.844477       -22.9794
 113   2.0000      -0.837290       -22.7838
 114   2.0000      -0.829452       -22.5705
 115   2.0000      -0.820352       -22.3229
 116   2.0000      -0.816210       -22.2102
 117   2.0000      -0.810423       -22.0527
 118   2.0000      -0.794658       -21.6237
 119   2.0000      -0.786363       -21.3980
 120   2.0000      -0.781487       -21.2654
 121   2.0000      -0.771088       -20.9824
 122   2.0000      -0.761081       -20.7101
 123   2.0000      -0.756627       -20.5889
 124   2.0000      -0.755771       -20.5656
 125   2.0000      -0.753605       -20.5066
 126   2.0000      -0.730761       -19.8850
 127   2.0000      -0.717233       -19.5169
 128   2.0000      -0.706522       -19.2254
 129   2.0000      -0.703347       -19.1391
 130   2.0000      -0.689343       -18.7580
 131   2.0000      -0.686356       -18.6767
 132   2.0000      -0.674362       -18.3503
 133   2.0000      -0.668029       -18.1780
 134   2.0000      -0.665435       -18.1074
 135   2.0000      -0.662639       -18.0313
 136   2.0000      -0.652559       -17.7570
 137   2.0000      -0.649759       -17.6808
 138   2.0000      -0.645105       -17.5542
 139   2.0000      -0.637626       -17.3507
 140   2.0000      -0.634875       -17.2758
 141   2.0000      -0.629314       -17.1245
 142   2.0000      -0.622615       -16.9422
 143   2.0000      -0.617797       -16.8111
 144   2.0000      -0.613747       -16.7009
 145   2.0000      -0.610163       -16.6034
 146   2.0000      -0.608684       -16.5631
 147   2.0000      -0.606721       -16.5097
 148   2.0000      -0.601937       -16.3795
 149   2.0000      -0.600284       -16.3346
 150   2.0000      -0.599387       -16.3101
 151   2.0000      -0.589129       -16.0310
 152   2.0000      -0.582623       -15.8540
 153   2.0000      -0.580184       -15.7876
 154   2.0000      -0.573013       -15.5925
 155   2.0000      -0.572878       -15.5888
 156   2.0000      -0.572326       -15.5738
 157   2.0000      -0.571176       -15.5425
 158   2.0000      -0.569313       -15.4918
 159   2.0000      -0.562871       -15.3165
 160   2.0000      -0.560821       -15.2607
 161   2.0000      -0.555577       -15.1180
 162   2.0000      -0.554092       -15.0776
 163   2.0000      -0.545367       -14.8402
 164   2.0000      -0.540344       -14.7035
 165   2.0000      -0.536558       -14.6005
 166   2.0000      -0.535540       -14.5728
 167   2.0000      -0.532367       -14.4864
 168   2.0000      -0.531456       -14.4617
 169   2.0000      -0.529674       -14.4132
 170   2.0000      -0.526650       -14.3309
 171   2.0000      -0.521632       -14.1943
 172   2.0000      -0.518267       -14.1028
 173   2.0000      -0.515815       -14.0360
 174   2.0000      -0.512275       -13.9397
 175   2.0000      -0.510198       -13.8832
 176   2.0000      -0.506690       -13.7877
 177   2.0000      -0.505774       -13.7628
 178   2.0000      -0.502749       -13.6805
 179   2.0000      -0.499799       -13.6002
 180   2.0000      -0.498459       -13.5637
 181   2.0000      -0.497753       -13.5446
 182   2.0000      -0.487813       -13.2741
 183   2.0000      -0.487373       -13.2621
 184   2.0000      -0.485831       -13.2201
 185   2.0000      -0.484858       -13.1937
 186   2.0000      -0.480694       -13.0804
 187   2.0000      -0.479238       -13.0407
 188   2.0000      -0.477893       -13.0041
 189   2.0000      -0.473626       -12.8880
 190   2.0000      -0.472914       -12.8686
 191   2.0000      -0.471251       -12.8234
 192   2.0000      -0.469916       -12.7871
 193   2.0000      -0.464818       -12.6483
 194   2.0000      -0.462926       -12.5969
 195   2.0000      -0.457679       -12.4541
 196   2.0000      -0.455679       -12.3997
 197   2.0000      -0.455138       -12.3849
 198   2.0000      -0.451024       -12.2730
 199   2.0000      -0.440377       -11.9833
 200   2.0000      -0.436248       -11.8709
 201   2.0000      -0.435070       -11.8389
 202   2.0000      -0.434361       -11.8196
 203   2.0000      -0.433587       -11.7985
 204   2.0000      -0.431572       -11.7437
 205   2.0000      -0.426607       -11.6086
 206   2.0000      -0.424837       -11.5604
 207   2.0000      -0.422855       -11.5065
 208   2.0000      -0.421586       -11.4719
 209   2.0000      -0.415057       -11.2943
 210   2.0000      -0.414897       -11.2899
 211   2.0000      -0.404616       -11.0102
 212   2.0000      -0.393808       -10.7161
 213   2.0000      -0.393769       -10.7150
 214   2.0000      -0.390965       -10.6387
 215   2.0000      -0.377503       -10.2724
 216   2.0000      -0.372913       -10.1475
 217   2.0000      -0.370800       -10.0900
 218   2.0000      -0.367572       -10.0021
 219   2.0000      -0.360634        -9.8134
 220   2.0000      -0.356413        -9.6985
 221   2.0000      -0.352794        -9.6000
 222   2.0000      -0.345968        -9.4143
 223   2.0000      -0.344467        -9.3734
 224   2.0000      -0.342203        -9.3118
 225   2.0000      -0.341820        -9.3014
 226   2.0000      -0.338744        -9.2177
 227   2.0000      -0.330229        -8.9860
 228   2.0000      -0.322502        -8.7757
 229   2.0000      -0.319133        -8.6840
 230   2.0000      -0.310677        -8.4539
 231   2.0000      -0.307248        -8.3606
 232   2.0000      -0.299800        -8.1580
 233   2.0000      -0.284145        -7.7320
 234   2.0000      -0.281693        -7.6653
 235   2.0000      -0.266642        -7.2557
 236   2.0000      -0.240547        -6.5456
 237   2.0000      -0.211943        -5.7673
 238   0.0000      -0.109978        -2.9927
 239   0.0000      -0.086227        -2.3463
 240   0.0000      -0.069717        -1.8971
 241   0.0000      -0.051028        -1.3885
 242   0.0000      -0.036577        -0.9953

MULLIKEN ATOMIC CHARGES
-----------------------
   0 C :   -0.133906
   1 C :    0.069901
   2 C :    0.013331
   3 C :   -0.136776
   4 S :    0.135127
   5 C :    0.174407
   6 O :   -0.166864
   7 C :   -0.115361
   8 C :    0.195844
   9 C :    0.034884
  10 N :    0.258080
  11 O :   -0.263946
  12 O :   -0.237470
  13 N :    0.202143
  14 O :   -0.218986
  15 O :   -0.225203
  16 C :    0.046917
  17 C :   -0.143267
  18 S :    0.179702
  19 C :    0.017652
  20 C :   -0.037269
  21 C :    0.052284
  22 C :    0.180775
  23 O :   -0.119741
  24 C :    0.026139
  25 C :   -0.076017
  26 C :   -0.067055
  27 C :    0.071997
  28 C :   -0.107524
  29 S :    0.184194
  30 C :   -0.003589
  31 C :   -0.015332
  32 C :    0.010128
  33 C :    0.175326
  34 O :   -0.131833
  35 C :    0.016803
  36 C :   -0.068611
  37 C :   -0.037203
  38 C :   -0.063021
  39 C :    0.179063
  40 C :    0.198387
  41 O :   -0.247507
  42 C :    0.213083
  43 C :    0.225561
  44 C :   -0.175133
  45 S :    0.112738
  46 C :   -0.170235
  47 O :   -0.256478
  48 C :   -0.100370
  49 C :    0.027918
  50 C :   -0.130388
  51 S :    0.144509
  52 C :   -0.109687
  53 C :    0.098551
  54 C :    0.185772
  55 C :   -0.122545
  56 C :    0.179562
  57 O :   -0.302344
  58 C :    0.204884
  59 C :    0.186617
  60 O :   -0.329335
  61 C :    0.180832
  62 C :   -0.144703
  63 H :    0.050416
  64 H :    0.033773
  65 H :    0.013124
  66 H :    0.029091
  67 H :   -0.010652
  68 H :   -0.024021
  69 H :    0.018265
  70 H :   -0.002543
  71 H :   -0.009811
  72 H :   -0.011778
  73 H :    0.021217
  74 H :    0.024484
  75 H :    0.025809
  76 H :    0.006999
  77 H :    0.005641
  78 H :    0.016052
  79 H :   -0.029808
  80 H :    0.028011
  81 H :    0.019295
  82 H :    0.020106
  83 H :    0.038107
  84 H :    0.027527
  85 H :    0.026913
  86 H :   -0.041630
Sum of atomic charges:   -0.0000000

LOEWDIN ATOMIC CHARGES
----------------------
   0 C :   -0.147703
   1 C :   -0.063611
   2 C :   -0.087045
   3 C :   -0.147017
   4 S :    0.468311
   5 C :    0.083253
   6 O :   -0.153307
   7 C :   -0.119947
   8 C :    0.063515
   9 C :   -0.096268
  10 N :    0.279455
  11 O :   -0.219602
  12 O :   -0.203356
  13 N :    0.269939
  14 O :   -0.190022
  15 O :   -0.201974
  16 C :    0.046536
  17 C :   -0.184132
  18 S :    0.475024
  19 C :   -0.124674
  20 C :   -0.119837
  21 C :    0.046711
  22 C :    0.102839
  23 O :   -0.103545
  24 C :   -0.015526
  25 C :   -0.052785
  26 C :   -0.048914
  27 C :    0.006194
  28 C :   -0.187534
  29 S :    0.470928
  30 C :   -0.144359
  31 C :   -0.113814
  32 C :    0.006961
  33 C :    0.105509
  34 O :   -0.113584
  35 C :   -0.032050
  36 C :   -0.040474
  37 C :   -0.037362
  38 C :   -0.005326
  39 C :    0.005617
  40 C :    0.059801
  41 O :   -0.041832
  42 C :   -0.010734
  43 C :   -0.006714
  44 C :   -0.212501
  45 S :    0.440003
  46 C :   -0.209265
  47 O :   -0.055312
  48 C :   -0.071933
  49 C :   -0.001870
  50 C :   -0.197147
  51 S :    0.479908
  52 C :   -0.183534
  53 C :   -0.056554
  54 C :   -0.032833
  55 C :   -0.051296
  56 C :    0.053245
  57 O :   -0.096588
  58 C :    0.077140
  59 C :    0.031581
  60 O :   -0.099550
  61 C :    0.078673
  62 C :   -0.070791
  63 H :    0.028568
  64 H :    0.033004
  65 H :    0.034237
  66 H :    0.045837
  67 H :    0.030659
  68 H :    0.028204
  69 H :    0.036749
  70 H :    0.038924
  71 H :    0.031278
  72 H :    0.031668
  73 H :    0.035017
  74 H :    0.029087
  75 H :    0.029689
  76 H :    0.029616
  77 H :    0.037466
  78 H :    0.023800
  79 H :    0.032591
  80 H :    0.022634
  81 H :    0.013808
  82 H :    0.013967
  83 H :    0.029611
  84 H :    0.017421
  85 H :    0.017174
  86 H :    0.030074

  Mayer bond orders larger than 0.100000
B(  0-C ,  1-C ) :   1.5534 B(  0-C ,  4-S ) :   1.1770 B(  0-C , 63-H ) :   0.9494
B(  1-C ,  2-C ) :   1.2242 B(  1-C ,  8-C ) :   1.0132 B(  2-C ,  3-C ) :   1.5621
B(  2-C ,  5-C ) :   0.9594 B(  3-C ,  4-S ) :   1.1689 B(  3-C , 64-H ) :   0.9709
B(  5-C ,  6-O ) :   2.1616 B(  5-C ,  7-C ) :   0.9706 B(  7-C ,  8-C ) :   1.1651
B(  7-C , 16-C ) :   1.4552 B(  8-C ,  9-C ) :   1.5083 B(  9-C , 10-N ) :   0.9635
B(  9-C , 13-N ) :   0.9017 B( 10-N , 11-O ) :   1.4835 B( 10-N , 12-O ) :   1.5228
B( 11-O , 12-O ) :   0.2526 B( 13-N , 14-O ) :   1.5131 B( 13-N , 15-O ) :   1.5241
B( 14-O , 15-O ) :   0.2738 B( 16-C , 17-C ) :   1.3431 B( 16-C , 65-H ) :   0.9300
B( 17-C , 18-S ) :   1.0427 B( 17-C , 21-C ) :   1.3125 B( 18-S , 19-C ) :   1.1898
B( 19-C , 20-C ) :   1.3180 B( 19-C , 25-C ) :   1.1326 B( 20-C , 21-C ) :   1.3967
B( 20-C , 22-C ) :   0.9424 B( 21-C , 66-H ) :   0.9822 B( 22-C , 23-O ) :   2.2193
B( 22-C , 24-C ) :   0.9052 B( 24-C , 25-C ) :   1.4675 B( 24-C , 26-C ) :   1.2578
B( 25-C , 67-H ) :   1.0280 B( 26-C , 27-C ) :   1.5236 B( 26-C , 68-H ) :   0.9773
B( 27-C , 28-C ) :   1.1997 B( 27-C , 69-H ) :   0.9533 B( 28-C , 29-S ) :   1.0769
B( 28-C , 32-C ) :   1.3623 B( 29-S , 30-C ) :   1.1575 B( 30-C , 31-C ) :   1.3650
B( 30-C , 36-C ) :   1.1137 B( 31-C , 32-C ) :   1.3787 B( 31-C , 33-C ) :   0.9483
B( 32-C , 70-H ) :   0.9990 B( 33-C , 34-O ) :   2.2008 B( 33-C , 35-C ) :   0.9101
B( 35-C , 36-C ) :   1.4949 B( 35-C , 37-C ) :   1.2022 B( 36-C , 71-H ) :   1.0269
B( 37-C , 38-C ) :   1.5065 B( 37-C , 72-H ) :   0.9929 B( 38-C , 39-C ) :   1.2396
B( 38-C , 73-H ) :   0.9442 B( 39-C , 40-C ) :   1.3460 B( 39-C , 47-O ) :   1.0549
B( 40-C , 41-O ) :   1.0866 B( 40-C , 48-C ) :   1.2442 B( 41-O , 42-C ) :   1.0407
B( 42-C , 43-C ) :   1.2070 B( 42-C , 46-C ) :   1.5665 B( 43-C , 44-C ) :   1.5667
B( 43-C , 47-O ) :   1.0595 B( 44-C , 45-S ) :   1.1416 B( 44-C , 74-H ) :   0.9728
B( 45-S , 46-C ) :   1.1480 B( 46-C , 75-H ) :   0.9727 B( 48-C , 49-C ) :   1.5664
B( 48-C , 76-H ) :   0.9571 B( 49-C , 50-C ) :   1.2102 B( 49-C , 77-H ) :   0.9729
B( 50-C , 51-S ) :   1.1268 B( 50-C , 54-C ) :   1.2928 B( 51-S , 52-C ) :   1.2080
B( 52-C , 53-C ) :   1.4215 B( 52-C , 78-H ) :   0.9683 B( 53-C , 54-C ) :   1.2088
B( 53-C , 62-C ) :   1.1176 B( 54-C , 55-C ) :   1.1855 B( 55-C , 56-C ) :   1.5141
B( 55-C , 79-H ) :   1.0031 B( 56-C , 57-O ) :   1.1911 B( 56-C , 59-C ) :   1.1527
B( 57-O , 58-C ) :   0.9378 B( 58-C , 80-H ) :   0.9773 B( 58-C , 81-H ) :   0.9751
B( 58-C , 82-H ) :   0.9748 B( 59-C , 60-O ) :   1.1283 B( 59-C , 62-C ) :   1.4647
B( 60-O , 61-C ) :   0.9615 B( 61-C , 83-H ) :   0.9778 B( 61-C , 84-H ) :   0.9684
B( 61-C , 85-H ) :   0.9683 B( 62-C , 86-H ) :   1.0064

-----------------------------------------------------------------------------
         ABSORPTION SPECTRUM VIA TRANSITION ELECTRIC DIPOLE MOMENTS
-----------------------------------------------------------------------------
State   Energy  Wavelength   fosc         T2         TX        TY        TZ
        (cm-1)    (nm)                  (au**2)     (au)      (au)      (au)
-----------------------------------------------------------------------------
   0    8357.3   1196.6   1.390908535  54.79108  -1.02265   6.85771  -2.59175
   1   13248.0    754.8   0.368292319   9.15204   0.41136   2.88986   0.79469
   2   15861.7    630.4   0.118243030   2.45415  -0.65651  -0.64020  -1.27015
   3   18605.6    537.5   0.343204509   6.07275   0.22349  -2.44954  -0.15013
   4   19994.9    500.1   0.035657531   0.58710  -0.61375   0.17257  -0.42500
   5   20798.5    480.8   0.599538757   9.48990  -1.55784   0.16275  -2.65265
   6   21828.3    458.1   0.062161971   0.93752   0.43590   0.69083   0.51988
   7   23762.3    420.8   0.019545723   0.27079  -0.06597   0.12819  -0.50001
   8   24569.4    407.0   0.060442960   0.80989   0.09048  -0.80831  -0.38515
   9   25345.0    394.6   0.166869568   2.16751   0.06700   1.41506  -0.40078
  10   25399.3    393.7   0.000728262   0.00944   0.01868   0.06987  -0.06487
  11   25814.0    387.4   0.000180732   0.00230   0.00102  -0.03998  -0.02656
  12   26362.4    379.3   0.076760983   0.95859   0.33096   0.91918  -0.06448
  13   26825.3    372.8   0.060793941   0.74609   0.07984   0.82253  -0.25132
  14   27970.1    357.5   0.151582045   1.78414  -0.56749  -0.57535  -1.06352
  15   28257.5    353.9   0.200234677   2.33282  -0.07505   1.26850  -0.84741
  16   28379.7    352.4   0.054475591   0.63193   0.09751   0.69663   0.37031
  17   28479.2    351.1   0.138228061   1.59788  -0.50694  -0.89960  -0.72911
  18   29460.0    339.4   0.037408809   0.41804   0.01133   0.61150  -0.20970
  19   29573.1    338.1   0.028391071   0.31605  -0.21426  -0.34410  -0.38954
  20   30384.3    329.1   0.016417207   0.17788  -0.17399   0.22818  -0.30909
  21   30730.7    325.4   0.005393565   0.05778  -0.08771   0.21641   0.05703
  22   31023.6    322.3   0.054112393   0.57422  -0.38384  -0.04857  -0.65156
  23   31264.7    319.8   0.014784585   0.15568   0.08114   0.31283   0.22634
  24   31985.8    312.6   0.157910658   1.62529  -0.34187   0.83885  -0.89708
  25   32295.4    309.6   0.008681723   0.08850   0.08550  -0.08031   0.27339
  26   32419.6    308.5   0.008674701   0.08809  -0.08094   0.27228  -0.08603
  27   32910.0    303.9   0.005925703   0.05928  -0.14606   0.00294  -0.19477
  28   33018.4    302.9   0.060502605   0.60324   0.40447  -0.20789   0.62963
  29   33325.9    300.1   0.124845094   1.23329   0.67839   0.34827   0.80734
  30   33481.2    298.7   0.232877294   2.28982   0.24581  -1.24910   0.81802
  31   34144.6    292.9   0.251035828   2.42041   0.46152   0.67286   1.32464
  32   34234.3    292.1   0.235504350   2.26471  -0.15962   1.22489  -0.85957
  33   35022.2    285.5   0.030959579   0.29102  -0.08233  -0.35812  -0.39496
  34   35120.9    284.7   0.012912988   0.12104   0.21858  -0.09357   0.25399
  35   35224.3    283.9   0.059218543   0.55347  -0.03568   0.71060  -0.21734
  36   35314.3    283.2   0.001811924   0.01689   0.04767  -0.04592   0.11185
  37   35517.5    281.6   0.008038897   0.07451   0.02197   0.26731  -0.05072
  38   35857.9    278.9   0.084003031   0.77123   0.31761   0.76876   0.28172
  39   36172.8    276.5   0.025817421   0.23497   0.16751  -0.28227   0.35670
  40   36411.1    274.6   0.034871556   0.31529  -0.14913  -0.49417  -0.22102
  41   36820.8    271.6   0.000103474   0.00093   0.01244   0.02170  -0.01731
  42   36923.8    270.8   0.000658259   0.00587  -0.05799  -0.04860   0.01201
  43   37185.6    268.9   0.003482955   0.03084   0.07239  -0.05533   0.15011
  44   37320.2    268.0   0.071132635   0.62748  -0.16047   0.68660  -0.36098
  45   37383.6    267.5   0.002139816   0.01884  -0.04332   0.00801   0.13001
  46   37894.3    263.9   0.066070740   0.57400  -0.02372  -0.61508  -0.44172
  47   38183.9    261.9   0.011442640   0.09866  -0.00626  -0.04042  -0.31142
  48   38386.5    260.5   0.046757777   0.40101  -0.28646   0.02353  -0.56426
  49   38478.2    259.9   0.022991251   0.19671  -0.04221  -0.43386  -0.08183
  50   38660.6    258.7   0.022625625   0.19267  -0.19182  -0.18770  -0.34733
  51   38978.3    256.6   0.076943229   0.64987  -0.22977   0.62925  -0.44846
  52   39474.0    253.3   0.009406690   0.07845   0.12564   0.18521   0.16842
  53   39659.9    252.1   0.001114400   0.00925   0.01440   0.04705   0.08264
  54   39716.2    251.8   0.006041009   0.05007   0.05826  -0.09855   0.19227
  55   40141.9    249.1   0.055544128   0.45553   0.03067  -0.66540   0.10876

FINAL SINGLE POINT ENERGY     -4652.899136905290

DIPOLE MOMENT
-------------
                                X             Y             Z
Electronic contribution:    -24.60940      78.23745     -49.63203
Nuclear contribution   :     26.46892     -85.11954      51.41345
                        -----------------------------------------
Total Dipole Moment    :      1.85951      -6.88209       1.78142
                        -----------------------------------------
Magnitude (a.u.)       :      7.34809
Magnitude (Debye)      :     18.67736

Rotational constants in cm-1:     0.001714     0.000202     0.000182
Rotational constants in MHz :    51.374761     6.068999     5.459231

                             ****ORCA TERMINATED NORMALLY****
TOTAL RUN TIME: 0 days 0 hours 7 minutes 42 seconds 943 msec
