                         Program Version 4.2.0 -  RELEASE  -
|  1> # ORCA input file
|  2> # SCF done       -191.552017978232          0.000623044492
|  3> ! CAM-B3LYP def2-SVP def2/J RIJCOSX Grid4 TightSCF
|  4> %maxcore 5000
|  5> %tddft
|  6>     Mode sTDDFT
|  7>     Ethresh 5.0
|  8>     maxcore 5000
|  9> end
| 10>
| 11> %pal
| 12>   nprocs 6
| 13>   end
| 14> * xyz 0 1
| 15>    C        2.59987        -4.26882         3.10241
| 16>    C        3.34367        -4.09521         1.97519
| 17>    C        2.53664        -4.10777         0.78828
| 18>    C        1.21743        -4.27591         1.03024
| 19>    S        0.92569        -4.43413         2.72820
| 20>    C        3.40191        -3.92690        -0.39066
| 21>    O        3.05801        -3.73299        -1.53360
| 22>    C        4.77914        -3.89279         0.16915
| 23>    C        4.73747        -3.96842         1.58142
| 24>    C        5.85561        -4.02070         2.42969
| 25>    N        5.81298        -3.73716         3.79501
| 26>    O        6.78581        -4.03558         4.48666
| 27>    O        4.81344        -3.21786         4.27481
| 28>    N        7.14864        -4.31195         1.93537
| 29>    O        8.09235        -3.65714         2.34907
| 30>    O        7.27742        -5.22238         1.12515
| 31>    C        5.93228        -3.71473        -0.61290
| 32>    C        6.10808        -4.25227        -1.87647
| 33>    C        7.33220        -4.12557        -2.58253
| 34>    O        7.64772        -4.94831        -3.62268
| 35>    C        6.65661        -5.76910        -4.07486
| 36>    C        5.38747        -5.82008        -3.43167
| 37>    C        4.52559        -6.67039        -4.04428
| 38>    S        5.25928        -7.42180        -5.41079
| 39>    C        6.73925        -6.58323        -5.15901
| 40>    O        5.12763        -5.10645        -2.31040
| 41>    C        8.39135        -3.28846        -2.21353
| 42>    C        8.31049        -2.09642        -1.52855
| 43>    C        9.39431        -1.42607        -0.92248
| 44>    C       10.42616        -2.06117        -0.22712
| 45>    O       11.40590        -1.37583         0.40196
| 46>    C       11.24380        -0.02569         0.48064
| 47>    C       10.14967         0.62849        -0.15731
| 48>    C       10.14175         1.96629         0.06052
| 49>    S       11.47222         2.44225         1.04955
| 50>    C       12.04460         0.82475         1.17085
| 51>    O        9.25247        -0.06006        -0.91301
| 52>    C       10.38600        -3.45439         0.08060
| 53>    C       10.85335        -3.94447         1.25632
| 54>    C       10.46908        -5.26183         1.66700
| 55>    C       10.08216        -5.55071         2.95569
| 56>    O        9.40660        -6.70119         3.27276
| 57>    C        9.03836        -7.48795         2.22101
| 58>    C        9.46252        -7.19877         0.89335
| 59>    C        8.99436        -8.08763        -0.01559
| 60>    S        8.02492        -9.29338         0.74165
| 61>    C        8.25409        -8.59088         2.29688
| 62>    O       10.25249        -6.12247         0.61978
| 63>    C       10.10362        -4.63529         4.06565
| 64>    C       11.11609        -3.83489         4.46586
| 65>    C       11.02034        -3.01046         5.62549
| 66>    C        9.93185        -2.31967         6.05196
| 67>    C        8.69063        -1.93452         5.40860
| 68>    C        8.46921        -1.50417         4.12415
| 69>    N        7.17689        -0.93383         3.76247
| 70>    O        6.77790        -0.02266         4.45088
| 71>    O        6.60290        -1.39193         2.80599
| 72>    N        9.41936        -1.40843         3.09622
| 73>    O       10.58298        -1.68458         3.33979
| 74>    O        9.05755        -0.97147         2.01311
| 75>    C        7.71200        -1.81944         6.47896
| 76>    C        6.35935        -1.74294         6.62282
| 77>    S        5.92324        -1.62652         8.28043
| 78>    C        7.56506        -1.67821         8.80366
| 79>    C        8.39936        -1.79516         7.73951
| 80>    C        9.83522        -1.97720         7.51478
| 81>    O       10.74849        -1.93413         8.29986
| 82>    H        2.90282        -4.27389         4.12920
| 83>    H        0.40215        -4.32898         0.33727
| 84>    H        6.77241        -3.18683        -0.18616
| 85>    H        3.51546        -6.89054        -3.77109
| 86>    H        7.57365        -6.73021        -5.81232
| 87>    H        9.35644        -3.61129        -2.58294
| 88>    H        7.37871        -1.54547        -1.52838
| 89>    H        9.43788         2.68976        -0.29341
| 90>    H       12.91521         0.58863         1.74592
| 91>    H        9.79027        -4.09810        -0.54202
| 92>    H       11.34753        -3.29665         1.95917
| 93>    H        9.15971        -8.10319        -1.07226
| 94>    H        7.80363        -9.02263         3.16583
| 95>    H        9.20828        -4.68825         4.67532
| 96>    H       12.09010        -3.90349         4.00225
| 97>    H       11.88263        -2.97983         6.28374
| 98>    H        5.57527        -1.79560         5.89175
| 99>    H        7.80563        -1.62565         9.84643
|100> *
|101>
|102>                          ****END OF INPUT****

CARTESIAN COORDINATES (ANGSTROEM)
---------------------------------
  C      2.599870   -4.268820    3.102410
  C      3.343670   -4.095210    1.975190
  C      2.536640   -4.107770    0.788280
  C      1.217430   -4.275910    1.030240
  S      0.925690   -4.434130    2.728200
  C      3.401910   -3.926900   -0.390660
  O      3.058010   -3.732990   -1.533600
  C      4.779140   -3.892790    0.169150
  C      4.737470   -3.968420    1.581420
  C      5.855610   -4.020700    2.429690
  N      5.812980   -3.737160    3.795010
  O      6.785810   -4.035580    4.486660
  O      4.813440   -3.217860    4.274810
  N      7.148640   -4.311950    1.935370
  O      8.092350   -3.657140    2.349070
  O      7.277420   -5.222380    1.125150
  C      5.932280   -3.714730   -0.612900
  C      6.108080   -4.252270   -1.876470
  C      7.332200   -4.125570   -2.582530
  O      7.647720   -4.948310   -3.622680
  C      6.656610   -5.769100   -4.074860
  C      5.387470   -5.820080   -3.431670
  C      4.525590   -6.670390   -4.044280
  S      5.259280   -7.421800   -5.410790
  C      6.739250   -6.583230   -5.159010
  O      5.127630   -5.106450   -2.310400
  C      8.391350   -3.288460   -2.213530
  C      8.310490   -2.096420   -1.528550
  C      9.394310   -1.426070   -0.922480
  C     10.426160   -2.061170   -0.227120
  O     11.405900   -1.375830    0.401960
  C     11.243800   -0.025690    0.480640
  C     10.149670    0.628490   -0.157310
  C     10.141750    1.966290    0.060520
  S     11.472220    2.442250    1.049550
  C     12.044600    0.824750    1.170850
  O      9.252470   -0.060060   -0.913010
  C     10.386000   -3.454390    0.080600
  C     10.853350   -3.944470    1.256320
  C     10.469080   -5.261830    1.667000
  C     10.082160   -5.550710    2.955690
  O      9.406600   -6.701190    3.272760
  C      9.038360   -7.487950    2.221010
  C      9.462520   -7.198770    0.893350
  C      8.994360   -8.087630   -0.015590
  S      8.024920   -9.293380    0.741650
  C      8.254090   -8.590880    2.296880
  O     10.252490   -6.122470    0.619780
  C     10.103620   -4.635290    4.065650
  C     11.116090   -3.834890    4.465860
  C     11.020340   -3.010460    5.625490
  C      9.931850   -2.319670    6.051960
  C      8.690630   -1.934520    5.408600
  C      8.469210   -1.504170    4.124150
  N      7.176890   -0.933830    3.762470
  O      6.777900   -0.022660    4.450880
  O      6.602900   -1.391930    2.805990
  N      9.419360   -1.408430    3.096220
  O     10.582980   -1.684580    3.339790
  O      9.057550   -0.971470    2.013110
  C      7.712000   -1.819440    6.478960
  C      6.359350   -1.742940    6.622820
  S      5.923240   -1.626520    8.280430
  C      7.565060   -1.678210    8.803660
  C      8.399360   -1.795160    7.739510
  C      9.835220   -1.977200    7.514780
  O     10.748490   -1.934130    8.299860
  H      2.902820   -4.273890    4.129200
  H      0.402150   -4.328980    0.337270
  H      6.772410   -3.186830   -0.186160
  H      3.515460   -6.890540   -3.771090
  H      7.573650   -6.730210   -5.812320
  H      9.356440   -3.611290   -2.582940
  H      7.378710   -1.545470   -1.528380
  H      9.437880    2.689760   -0.293410
  H     12.915210    0.588630    1.745920
  H      9.790270   -4.098100   -0.542020
  H     11.347530   -3.296650    1.959170
  H      9.159710   -8.103190   -1.072260
  H      7.803630   -9.022630    3.165830
  H      9.208280   -4.688250    4.675320
  H     12.090100   -3.903490    4.002250
  H     11.882630   -2.979830    6.283740
  H      5.575270   -1.795600    5.891750
  H      7.805630   -1.625650    9.846430

 Total Charge           Charge          ....    0
 Multiplicity           Mult            ....    1
 Number of Electrons    NEL             ....  506
 Basis Dimension        Dim             .... 1048

ORBITAL ENERGIES
----------------

  NO   OCC          E(Eh)            E(eV)
   0   2.0000     -88.971945     -2421.0497
   1   2.0000     -88.966144     -2420.8919
   2   2.0000     -88.963628     -2420.8234
   3   2.0000     -88.954488     -2420.5747
   4   2.0000     -88.951312     -2420.4883
   5   2.0000     -19.306478      -525.3560
   6   2.0000     -19.290455      -524.9200
   7   2.0000     -19.276866      -524.5502
   8   2.0000     -19.274071      -524.4741
   9   2.0000     -19.272677      -524.4362
  10   2.0000     -19.272079      -524.4199
  11   2.0000     -19.250753      -523.8396
  12   2.0000     -19.249616      -523.8087
  13   2.0000     -19.245479      -523.6961
  14   2.0000     -19.244720      -523.6754
  15   2.0000     -19.243233      -523.6350
  16   2.0000     -19.240719      -523.5666
  17   2.0000     -19.231600      -523.3184
  18   2.0000     -19.229239      -523.2542
  19   2.0000     -19.208952      -522.7022
  20   2.0000     -19.192028      -522.2416
  21   2.0000     -14.656196      -398.8154
  22   2.0000     -14.653875      -398.7522
  23   2.0000     -14.649666      -398.6377
  24   2.0000     -14.643262      -398.4634
  25   2.0000     -10.391929      -282.7788
  26   2.0000     -10.375227      -282.3243
  27   2.0000     -10.364075      -282.0208
  28   2.0000     -10.363171      -281.9962
  29   2.0000     -10.363023      -281.9922
  30   2.0000     -10.351794      -281.6866
  31   2.0000     -10.351494      -281.6785
  32   2.0000     -10.348552      -281.5984
  33   2.0000     -10.347697      -281.5751
  34   2.0000     -10.347318      -281.5648
  35   2.0000     -10.346342      -281.5383
  36   2.0000     -10.345792      -281.5233
  37   2.0000     -10.343006      -281.4475
  38   2.0000     -10.338985      -281.3381
  39   2.0000     -10.337801      -281.3059
  40   2.0000     -10.334283      -281.2101
  41   2.0000     -10.334048      -281.2037
  42   2.0000     -10.333614      -281.1919
  43   2.0000     -10.319277      -280.8018
  44   2.0000     -10.313594      -280.6472
  45   2.0000     -10.310398      -280.5602
  46   2.0000     -10.308292      -280.5029
  47   2.0000     -10.307229      -280.4740
  48   2.0000     -10.306308      -280.4489
  49   2.0000     -10.304429      -280.3978
  50   2.0000     -10.303706      -280.3781
  51   2.0000     -10.300054      -280.2787
  52   2.0000     -10.298793      -280.2444
  53   2.0000     -10.294764      -280.1348
  54   2.0000     -10.293356      -280.0965
  55   2.0000     -10.293152      -280.0909
  56   2.0000     -10.292660      -280.0775
  57   2.0000     -10.292266      -280.0668
  58   2.0000     -10.290952      -280.0310
  59   2.0000     -10.289772      -279.9989
  60   2.0000     -10.288407      -279.9618
  61   2.0000     -10.287918      -279.9485
  62   2.0000     -10.286627      -279.9134
  63   2.0000     -10.285463      -279.8817
  64   2.0000     -10.282111      -279.7905
  65   2.0000     -10.278586      -279.6946
  66   2.0000     -10.271994      -279.5152
  67   2.0000      -8.067960      -219.5403
  68   2.0000      -8.061994      -219.3780
  69   2.0000      -8.059741      -219.3167
  70   2.0000      -8.050422      -219.0631
  71   2.0000      -8.047197      -218.9754
  72   2.0000      -6.037129      -164.2786
  73   2.0000      -6.032462      -164.1516
  74   2.0000      -6.031457      -164.1243
  75   2.0000      -6.030730      -164.1045
  76   2.0000      -6.029032      -164.0583
  77   2.0000      -6.027255      -164.0099
  78   2.0000      -6.024371      -163.9315
  79   2.0000      -6.023742      -163.9144
  80   2.0000      -6.022278      -163.8745
  81   2.0000      -6.019935      -163.8108
  82   2.0000      -6.016733      -163.7236
  83   2.0000      -6.015738      -163.6966
  84   2.0000      -6.012521      -163.6090
  85   2.0000      -6.012061      -163.5965
  86   2.0000      -6.008849      -163.5091
  87   2.0000      -1.338580       -36.4246
  88   2.0000      -1.325872       -36.0788
  89   2.0000      -1.318725       -35.8843
  90   2.0000      -1.304136       -35.4874
  91   2.0000      -1.225338       -33.3431
  92   2.0000      -1.214119       -33.0379
  93   2.0000      -1.200362       -32.6635
  94   2.0000      -1.182245       -32.1705
  95   2.0000      -1.173064       -31.9207
  96   2.0000      -1.162971       -31.6460
  97   2.0000      -1.153280       -31.3823
  98   2.0000      -1.137500       -30.9529
  99   2.0000      -1.136990       -30.9391
 100   2.0000      -1.126253       -30.6469
 101   2.0000      -1.120830       -30.4993
 102   2.0000      -1.108243       -30.1568
 103   2.0000      -1.011429       -27.5224
 104   2.0000      -1.002455       -27.2782
 105   2.0000      -0.997605       -27.1462
 106   2.0000      -0.986498       -26.8440
 107   2.0000      -0.981600       -26.7107
 108   2.0000      -0.974898       -26.5283
 109   2.0000      -0.968972       -26.3671
 110   2.0000      -0.951490       -25.8913
 111   2.0000      -0.940036       -25.5797
 112   2.0000      -0.930579       -25.3223
 113   2.0000      -0.924846       -25.1663
 114   2.0000      -0.913720       -24.8636
 115   2.0000      -0.898561       -24.4511
 116   2.0000      -0.881949       -23.9991
 117   2.0000      -0.869614       -23.6634
 118   2.0000      -0.850882       -23.1537
 119   2.0000      -0.841109       -22.8878
 120   2.0000      -0.835336       -22.7306
 121   2.0000      -0.833272       -22.6745
 122   2.0000      -0.829810       -22.5803
 123   2.0000      -0.824929       -22.4475
 124   2.0000      -0.820262       -22.3205
 125   2.0000      -0.817899       -22.2562
 126   2.0000      -0.808501       -22.0004
 127   2.0000      -0.807964       -21.9858
 128   2.0000      -0.803887       -21.8749
 129   2.0000      -0.796994       -21.6873
 130   2.0000      -0.786128       -21.3916
 131   2.0000      -0.780178       -21.2297
 132   2.0000      -0.766028       -20.8447
 133   2.0000      -0.758698       -20.6452
 134   2.0000      -0.748276       -20.3616
 135   2.0000      -0.736263       -20.0347
 136   2.0000      -0.725757       -19.7488
 137   2.0000      -0.708344       -19.2750
 138   2.0000      -0.701183       -19.0802
 139   2.0000      -0.695607       -18.9284
 140   2.0000      -0.692384       -18.8407
 141   2.0000      -0.686661       -18.6850
 142   2.0000      -0.678122       -18.4526
 143   2.0000      -0.676086       -18.3972
 144   2.0000      -0.671525       -18.2731
 145   2.0000      -0.665571       -18.1111
 146   2.0000      -0.663386       -18.0516
 147   2.0000      -0.660424       -17.9711
 148   2.0000      -0.656689       -17.8694
 149   2.0000      -0.652299       -17.7500
 150   2.0000      -0.648524       -17.6472
 151   2.0000      -0.647335       -17.6149
 152   2.0000      -0.643741       -17.5171
 153   2.0000      -0.636605       -17.3229
 154   2.0000      -0.630887       -17.1673
 155   2.0000      -0.625813       -17.0292
 156   2.0000      -0.617046       -16.7907
 157   2.0000      -0.616412       -16.7734
 158   2.0000      -0.610603       -16.6154
 159   2.0000      -0.608149       -16.5486
 160   2.0000      -0.606266       -16.4973
 161   2.0000      -0.602167       -16.3858
 162   2.0000      -0.600161       -16.3312
 163   2.0000      -0.596682       -16.2365
 164   2.0000      -0.592452       -16.1214
 165   2.0000      -0.589911       -16.0523
 166   2.0000      -0.589236       -16.0339
 167   2.0000      -0.585897       -15.9431
 168   2.0000      -0.581652       -15.8276
 169   2.0000      -0.581179       -15.8147
 170   2.0000      -0.577980       -15.7276
 171   2.0000      -0.575138       -15.6503
 172   2.0000      -0.567491       -15.4422
 173   2.0000      -0.563905       -15.3446
 174   2.0000      -0.562727       -15.3126
 175   2.0000      -0.553958       -15.0740
 176   2.0000      -0.552563       -15.0360
 177   2.0000      -0.545968       -14.8565
 178   2.0000      -0.540584       -14.7100
 179   2.0000      -0.536580       -14.6011
 180   2.0000      -0.535226       -14.5642
 181   2.0000      -0.531845       -14.4722
 182   2.0000      -0.526356       -14.3229
 183   2.0000      -0.522660       -14.2223
 184   2.0000      -0.521786       -14.1985
 185   2.0000      -0.519378       -14.1330
 186   2.0000      -0.518398       -14.1063
 187   2.0000      -0.516147       -14.0451
 188   2.0000      -0.514259       -13.9937
 189   2.0000      -0.509783       -13.8719
 190   2.0000      -0.507672       -13.8144
 191   2.0000      -0.506494       -13.7824
 192   2.0000      -0.501174       -13.6376
 193   2.0000      -0.494499       -13.4560
 194   2.0000      -0.491130       -13.3643
 195   2.0000      -0.488179       -13.2840
 196   2.0000      -0.486238       -13.2312
 197   2.0000      -0.485256       -13.2045
 198   2.0000      -0.480571       -13.0770
 199   2.0000      -0.479493       -13.0477
 200   2.0000      -0.478353       -13.0166
 201   2.0000      -0.476552       -12.9677
 202   2.0000      -0.474820       -12.9205
 203   2.0000      -0.471006       -12.8167
 204   2.0000      -0.469753       -12.7826
 205   2.0000      -0.462916       -12.5966
 206   2.0000      -0.462715       -12.5911
 207   2.0000      -0.460892       -12.5415
 208   2.0000      -0.457759       -12.4563
 209   2.0000      -0.451445       -12.2845
 210   2.0000      -0.450420       -12.2565
 211   2.0000      -0.440564       -11.9883
 212   2.0000      -0.438088       -11.9210
 213   2.0000      -0.433023       -11.7832
 214   2.0000      -0.431629       -11.7452
 215   2.0000      -0.430019       -11.7014
 216   2.0000      -0.426530       -11.6065
 217   2.0000      -0.425096       -11.5674
 218   2.0000      -0.420989       -11.4557
 219   2.0000      -0.418342       -11.3837
 220   2.0000      -0.416807       -11.3419
 221   2.0000      -0.412671       -11.2294
 222   2.0000      -0.409336       -11.1386
 223   2.0000      -0.407028       -11.0758
 224   2.0000      -0.400183       -10.8895
 225   2.0000      -0.396167       -10.7802
 226   2.0000      -0.389109       -10.5882
 227   2.0000      -0.387242       -10.5374
 228   2.0000      -0.385654       -10.4942
 229   2.0000      -0.380607       -10.3568
 230   2.0000      -0.376726       -10.2512
 231   2.0000      -0.374108       -10.1800
 232   2.0000      -0.373240       -10.1564
 233   2.0000      -0.365985        -9.9590
 234   2.0000      -0.357153        -9.7186
 235   2.0000      -0.352874        -9.6022
 236   2.0000      -0.349138        -9.5005
 237   2.0000      -0.339543        -9.2394
 238   2.0000      -0.330468        -8.9925
 239   2.0000      -0.324972        -8.8429
 240   2.0000      -0.321883        -8.7589
 241   2.0000      -0.320252        -8.7145
 242   2.0000      -0.316952        -8.6247
 243   2.0000      -0.311420        -8.4742
 244   2.0000      -0.308492        -8.3945
 245   2.0000      -0.306904        -8.3513
 246   2.0000      -0.302828        -8.2404
 247   2.0000      -0.298172        -8.1137
 248   2.0000      -0.297837        -8.1045
 249   2.0000      -0.294317        -8.0088
 250   2.0000      -0.270445        -7.3592
 251   2.0000      -0.258739        -7.0406
 252   2.0000      -0.234001        -6.3675
 253   0.0000      -0.110439        -3.0052
 254   0.0000      -0.086499        -2.3538
 255   0.0000      -0.058280        -1.5859
 256   0.0000      -0.044779        -1.2185
 257   0.0000      -0.038692        -1.0529

MULLIKEN ATOMIC CHARGES
-----------------------
   0 C :   -0.128546
   1 C :    0.066029
   2 C :    0.016346
   3 C :   -0.140082
   4 S :    0.124831
   5 C :    0.158920
   6 O :   -0.141555
   7 C :   -0.116623
   8 C :    0.215409
   9 C :    0.044374
  10 N :    0.264509
  11 O :   -0.283328
  12 O :   -0.276065
  13 N :    0.223796
  14 O :   -0.233413
  15 O :   -0.239840
  16 C :   -0.089077
  17 C :    0.160568
  18 C :    0.215169
  19 O :   -0.217663
  20 C :    0.192702
  21 C :    0.223986
  22 C :   -0.162313
  23 S :    0.122130
  24 C :   -0.161095
  25 O :   -0.223158
  26 C :   -0.074342
  27 C :   -0.015538
  28 C :    0.159213
  29 C :    0.178732
  30 O :   -0.214696
  31 C :    0.206447
  32 C :    0.247394
  33 C :   -0.177863
  34 S :    0.110065
  35 C :   -0.161565
  36 O :   -0.245975
  37 C :   -0.039805
  38 C :    0.016022
  39 C :    0.138895
  40 C :    0.147977
  41 O :   -0.245022
  42 C :    0.213004
  43 C :    0.245001
  44 C :   -0.175621
  45 S :    0.105804
  46 C :   -0.168490
  47 O :   -0.256970
  48 C :    0.009232
  49 C :    0.012479
  50 C :    0.069536
  51 C :   -0.147361
  52 C :    0.200981
  53 C :    0.087354
  54 N :    0.208959
  55 O :   -0.207643
  56 O :   -0.200457
  57 N :    0.292225
  58 O :   -0.255263
  59 O :   -0.266060
  60 C :    0.048640
  61 C :   -0.105717
  62 S :    0.146105
  63 C :   -0.140964
  64 C :    0.028252
  65 C :    0.144949
  66 O :   -0.136839
  67 H :    0.040982
  68 H :    0.031525
  69 H :    0.053081
  70 H :    0.034995
  71 H :    0.030627
  72 H :    0.041328
  73 H :    0.050228
  74 H :    0.026169
  75 H :    0.025864
  76 H :    0.017153
  77 H :    0.028823
  78 H :    0.019320
  79 H :    0.023793
  80 H :    0.047353
  81 H :    0.017867
  82 H :    0.031261
  83 H :    0.044986
  84 H :    0.037553
Sum of atomic charges:   -0.0000000

LOEWDIN ATOMIC CHARGES
----------------------
   0 C :   -0.145797
   1 C :   -0.063391
   2 C :   -0.085278
   3 C :   -0.148536
   4 S :    0.457377
   5 C :    0.071519
   6 O :   -0.146497
   7 C :   -0.118639
   8 C :    0.073974
   9 C :   -0.121135
  10 N :    0.287534
  11 O :   -0.245772
  12 O :   -0.228801
  13 N :    0.285529
  14 O :   -0.188955
  15 O :   -0.209251
  16 C :    0.048733
  17 C :    0.020035
  18 C :    0.102769
  19 O :   -0.019511
  20 C :   -0.018119
  21 C :   -0.004550
  22 C :   -0.202387
  23 S :    0.450782
  24 C :   -0.203888
  25 O :   -0.026451
  26 C :   -0.068093
  27 C :    0.033074
  28 C :   -0.001286
  29 C :    0.084654
  30 O :   -0.007361
  31 C :   -0.013400
  32 C :   -0.001753
  33 C :   -0.209640
  34 S :    0.439534
  35 C :   -0.202108
  36 O :   -0.047996
  37 C :   -0.037835
  38 C :    0.019968
  39 C :    0.026510
  40 C :    0.028200
  41 O :   -0.044650
  42 C :   -0.007519
  43 C :   -0.003283
  44 C :   -0.211857
  45 S :    0.436065
  46 C :   -0.207432
  47 O :   -0.044724
  48 C :    0.010068
  49 C :   -0.024392
  50 C :    0.076344
  51 C :   -0.080458
  52 C :    0.067753
  53 C :   -0.064831
  54 N :    0.273496
  55 O :   -0.175133
  56 O :   -0.171189
  57 N :    0.292965
  58 O :   -0.190261
  59 O :   -0.215041
  60 C :   -0.065051
  61 C :   -0.136376
  62 S :    0.489714
  63 C :   -0.149441
  64 C :   -0.091477
  65 C :    0.085519
  66 O :   -0.137252
  67 H :    0.025302
  68 H :    0.031783
  69 H :    0.040591
  70 H :    0.034285
  71 H :    0.031669
  72 H :    0.046925
  73 H :    0.048259
  74 H :    0.030071
  75 H :    0.030644
  76 H :    0.034221
  77 H :    0.032704
  78 H :    0.027021
  79 H :    0.029213
  80 H :    0.042973
  81 H :    0.036891
  82 H :    0.046163
  83 H :    0.021915
  84 H :    0.034047

  Mayer bond orders larger than 0.100000
B(  0-C ,  1-C ) :   1.5537 B(  0-C ,  4-S ) :   1.1749 B(  0-C , 67-H ) :   0.9490
B(  1-C ,  2-C ) :   1.2186 B(  1-C ,  8-C ) :   1.0206 B(  2-C ,  3-C ) :   1.5840
B(  2-C ,  5-C ) :   0.9286 B(  3-C ,  4-S ) :   1.1540 B(  3-C , 68-H ) :   0.9706
B(  5-C ,  6-O ) :   2.2634 B(  5-C ,  7-C ) :   0.9574 B(  7-C ,  8-C ) :   1.3357
B(  7-C , 16-C ) :   1.2602 B(  8-C ,  9-C ) :   1.3159 B(  9-C , 10-N ) :   1.0239
B(  9-C , 13-N ) :   0.9386 B( 10-N , 11-O ) :   1.4335 B( 10-N , 12-O ) :   1.4542
B( 11-O , 12-O ) :   0.2053 B( 13-N , 14-O ) :   1.4831 B( 13-N , 15-O ) :   1.4685
B( 14-O , 15-O ) :   0.2377 B( 16-C , 17-C ) :   1.4591 B( 16-C , 69-H ) :   0.9261
B( 17-C , 18-C ) :   1.2185 B( 17-C , 25-O ) :   1.0848 B( 18-C , 19-O ) :   1.1288
B( 18-C , 26-C ) :   1.3030 B( 19-O , 20-C ) :   1.0224 B( 20-C , 21-C ) :   1.2049
B( 20-C , 24-C ) :   1.5633 B( 21-C , 22-C ) :   1.5719 B( 21-C , 25-O ) :   1.0692
B( 22-C , 23-S ) :   1.1421 B( 22-C , 70-H ) :   0.9705 B( 23-S , 24-C ) :   1.1589
B( 24-C , 71-H ) :   0.9726 B( 26-C , 27-C ) :   1.4662 B( 26-C , 72-H ) :   0.9433
B( 27-C , 28-C ) :   1.2440 B( 27-C , 73-H ) :   0.9510 B( 28-C , 29-C ) :   1.3811
B( 28-C , 36-O ) :   1.0476 B( 29-C , 30-O ) :   1.1405 B( 29-C , 37-C ) :   1.1614
B( 30-O , 31-C ) :   1.0174 B( 31-C , 32-C ) :   1.2021 B( 31-C , 35-C ) :   1.5793
B( 32-C , 33-C ) :   1.5814 B( 32-C , 36-O ) :   1.0546 B( 33-C , 34-S ) :   1.1352
B( 33-C , 74-H ) :   0.9715 B( 34-S , 35-C ) :   1.1485 B( 35-C , 75-H ) :   0.9724
B( 37-C , 38-C ) :   1.6880 B( 37-C , 76-H ) :   0.9454 B( 38-C , 39-C ) :   1.1280
B( 38-C , 77-H ) :   0.9526 B( 39-C , 40-C ) :   1.5425 B( 39-C , 47-O ) :   1.0587
B( 40-C , 41-O ) :   1.0541 B( 40-C , 48-C ) :   1.0939 B( 41-O , 42-C ) :   1.0495
B( 42-C , 43-C ) :   1.2039 B( 42-C , 46-C ) :   1.5803 B( 43-C , 44-C ) :   1.5785
B( 43-C , 47-O ) :   1.0344 B( 44-C , 45-S ) :   1.1384 B( 44-C , 78-H ) :   0.9737
B( 45-S , 46-C ) :   1.1421 B( 46-C , 79-H ) :   0.9719 B( 48-C , 49-C ) :   1.7372
B( 48-C , 80-H ) :   0.9379 B( 49-C , 50-C ) :   1.0994 B( 49-C , 81-H ) :   0.9492
B( 50-C , 51-C ) :   1.7326 B( 50-C , 82-H ) :   0.9264 B( 51-C , 52-C ) :   1.0540
B( 51-C , 65-C ) :   0.9270 B( 52-C , 53-C ) :   1.5807 B( 52-C , 60-C ) :   1.0165
B( 53-C , 54-N ) :   0.8578 B( 53-C , 57-N ) :   0.9947 B( 54-N , 55-O ) :   1.5376
B( 54-N , 56-O ) :   1.5448 B( 55-O , 56-O ) :   0.2836 B( 57-N , 58-O ) :   1.4703
B( 57-N , 59-O ) :   1.4615 B( 58-O , 59-O ) :   0.2239 B( 60-C , 61-C ) :   1.5404
B( 60-C , 64-C ) :   1.2347 B( 61-C , 62-S ) :   1.1979 B( 61-C , 83-H ) :   0.9446
B( 62-S , 63-C ) :   1.1858 B( 63-C , 64-C ) :   1.5446 B( 63-C , 84-H ) :   0.9724
B( 64-C , 65-C ) :   0.9293 B( 65-C , 66-O ) :   2.2677

-----------------------------------------------------------------------------
         ABSORPTION SPECTRUM VIA TRANSITION ELECTRIC DIPOLE MOMENTS
-----------------------------------------------------------------------------
State   Energy  Wavelength   fosc         T2         TX        TY        TZ
        (cm-1)    (nm)                  (au**2)     (au)      (au)      (au)
-----------------------------------------------------------------------------
   0    8231.6   1214.8   0.100029283   4.00053  -1.92641  -0.40508  -0.35412
   1   14414.2    693.8   0.054903175   1.25395  -0.40148   0.57347   0.87401
   2   14915.9    670.4   0.259582411   5.72928  -1.56743  -0.48533   1.74267
   3   17675.3    565.8   0.195996047   3.65052  -0.39194  -0.51051  -1.79897
   4   19670.1    508.4   0.105567420   1.76684   0.81212   0.47887   0.93701
   5   20464.7    488.6   0.126866557   2.04088   0.88758  -1.08560   0.27304
   6   21125.2    473.4   0.008539029   0.13307  -0.34069   0.04183   0.12349
   7   21761.1    459.5   0.246844161   3.73437   0.18249  -0.24742   1.90784
   8   23476.5    426.0   0.037314733   0.52327  -0.25861   0.20525  -0.64363
   9   23741.9    421.2   0.005188195   0.07194   0.16299   0.15455   0.14660
  10   24040.0    416.0   0.066648719   0.91271  -0.35997  -0.88464  -0.02343
  11   24767.6    403.8   0.015617952   0.20759  -0.03734   0.25707   0.37432
  12   24868.1    402.1   0.048343482   0.63999   0.76494  -0.22440  -0.06704
  13   25469.5    392.6   0.122204039   1.57958  -0.69052  -0.65352  -0.82200
  14   25495.8    392.2   0.074008019   0.95562   0.50717   0.83529  -0.02634
  15   25878.4    386.4   0.017742412   0.22571   0.32156  -0.30443  -0.17213
  16   26158.8    382.3   0.105860295   1.33227   0.98453   0.34882  -0.49122
  17   26667.1    375.0   0.018365134   0.22672   0.27231  -0.29126  -0.26026
  18   26973.3    370.7   0.088562514   1.08091  -0.57080   0.20433  -0.84460
  19   27433.1    364.5   0.108085915   1.29709   1.12900  -0.14618   0.03284
  20   27660.6    361.5   0.086647039   1.03126  -0.27760  -0.72703   0.65240
  21   27779.6    360.0   0.006241427   0.07397   0.14825   0.05401  -0.22152
  22   27938.2    357.9   0.081182477   0.95662   0.45424   0.33448  -0.79901
  23   28590.5    349.8   0.023524920   0.27088   0.35391  -0.36363   0.11580
  24   28659.4    348.9   0.057509531   0.66061   0.46245  -0.15629  -0.64987
  25   28969.9    345.2   0.003376475   0.03837  -0.15844  -0.11197   0.02697
  26   29293.6    341.4   0.004575599   0.05142   0.17989  -0.12542  -0.05772
  27   29356.7    340.6   0.023416744   0.26260  -0.30804   0.40466  -0.06296
  28   29613.8    337.7   0.036601662   0.40690   0.38895   0.11849   0.49150
  29   29844.2    335.1   0.018290140   0.20176  -0.20855  -0.32173   0.23400
  30   29932.2    334.1   0.094923787   1.04403  -1.01573  -0.07974   0.07719
  31   30306.6    330.0   0.002557867   0.02779   0.13371  -0.09211  -0.03771
  32   30356.6    329.4   0.185583149   2.01262  -0.77681  -1.04440  -0.56429
  33   30860.4    324.0   0.025613956   0.27324  -0.51430  -0.08589   0.03684
  34   31089.2    321.7   0.002307637   0.02444   0.03694  -0.06800  -0.13582
  35   31425.0    318.2   0.115527702   1.21028  -0.49281   0.12225   0.97595
  36   31744.4    315.0   0.004258562   0.04416  -0.14809   0.05032   0.14036
  37   32099.3    311.5   0.033898397   0.34766  -0.06531  -0.06188   0.58273
  38   32201.5    310.5   0.028862578   0.29508  -0.30221  -0.33527   0.30222
  39   32344.5    309.2   0.058557018   0.59601   0.30937   0.46157   0.53596
  40   32854.2    304.4   0.047394942   0.47492  -0.37241  -0.39417   0.42527
  41   33069.1    302.4   0.022317034   0.22217  -0.08622  -0.18002   0.42700
  42   33128.7    301.9   0.022056352   0.21918  -0.24427  -0.37889  -0.12631
  43   33330.7    300.0   0.048691044   0.48093   0.46895  -0.44968  -0.24247
  44   33499.7    298.5   0.035464956   0.34853   0.37477   0.08403   0.44834
  45   33766.1    296.2   0.184238317   1.79628   0.78655  -0.56860  -0.92429
  46   33877.6    295.2   0.012921481   0.12557   0.06175   0.16770   0.30599
  47   34123.6    293.1   0.059502328   0.57406  -0.00846  -0.59882  -0.46411
  48   34184.2    292.5   0.024619429   0.23710   0.44461   0.05133   0.19180
  49   34360.2    291.0   0.051491613   0.49335   0.23463   0.50933  -0.42295
  50   34447.8    290.3   0.026534698   0.25359   0.49066  -0.08423   0.07582
  51   34608.1    288.9   0.008676236   0.08253  -0.11263  -0.15212   0.21612
  52   34848.9    287.0   0.055593349   0.52518   0.20746   0.68019   0.13957
  53   35050.2    285.3   0.022762439   0.21380   0.06507  -0.09328   0.44818
  54   35124.8    284.7   0.003256858   0.03053  -0.01726   0.00162   0.17385
  55   35357.9    282.8   0.073704480   0.68625  -0.24836  -0.17555   0.77055
  56   35612.4    280.8   0.157722475   1.45803  -0.03059  -0.29241   1.17115
  57   35761.2    279.6   0.023310770   0.21459   0.06619   0.01143   0.45835
  58   35780.7    279.5   0.026180857   0.24089  -0.17421  -0.29146  -0.35438
  59   35914.6    278.4   0.026203820   0.24020  -0.21325  -0.40021   0.18588
  60   36105.5    277.0   0.020955670   0.19107  -0.12727   0.25396   0.33224
  61   36428.8    274.5   0.003791306   0.03426   0.13048  -0.02674   0.12854
  62   36777.0    271.9   0.005421501   0.04853  -0.10729  -0.18913   0.03537
  63   36873.7    271.2   0.056215515   0.50190  -0.09322  -0.64040   0.28827
  64   36988.6    270.4   0.027509710   0.24485  -0.20155   0.33150   0.30714
  65   37022.1    270.1   0.027085171   0.24085  -0.13168   0.46162   0.10207
  66   37342.5    267.8   0.026062798   0.22977  -0.17149  -0.25546  -0.36757
  67   37424.1    267.2   0.004146918   0.03648   0.13567  -0.00338  -0.13439
  68   37565.1    266.2   0.003608920   0.03163  -0.09365   0.03917   0.14603
  69   37585.5    266.1   0.065973574   0.57786   0.24937  -0.46000  -0.55143
  70   37731.8    265.0   0.020560362   0.17939   0.11877   0.11697  -0.38936
  71   37963.9    263.4   0.031833612   0.27605   0.24540   0.25831  -0.38614
  72   38133.5    262.2   0.009102179   0.07858  -0.04291  -0.15340  -0.23067
  73   38326.3    260.9   0.053299295   0.45783   0.48801   0.45609  -0.10795
  74   38507.8    259.7   0.040579451   0.34692  -0.25819  -0.02361  -0.52887
  75   38592.5    259.1   0.032612613   0.27820  -0.07111  -0.04230  -0.52092
  76   38799.3    257.7   0.045452695   0.38567  -0.24763  -0.42943   0.37407
  77   38960.5    256.7   0.022923696   0.19370  -0.41097  -0.15528   0.02637
  78   38974.8    256.6   0.008220254   0.06943  -0.14129   0.12549   0.18364
  79   39147.0    255.4   0.021684614   0.18236   0.10002   0.22676   0.34776
  80   39308.6    254.4   0.141334274   1.18368  -0.32149   0.46359   0.93028
  81   39442.8    253.5   0.141926832   1.18460   0.21991  -0.97752  -0.42509
  82   39491.9    253.2   0.044863821   0.37399  -0.08381  -0.26582  -0.54434
  83   39602.0    252.5   0.018547362   0.15418   0.13313   0.27852   0.24267
  84   39713.4    251.8   0.007438940   0.06167   0.19178   0.10273   0.11973
  85   39888.6    250.7   0.035364405   0.29187  -0.21426   0.07010  -0.49097
  86   40115.3    249.3   0.048172953   0.39534  -0.42944  -0.43248  -0.15453
  87   40258.0    248.4   0.019445280   0.15901   0.29381   0.11044   0.24595
  88   40309.4    248.1   0.048938764   0.39969   0.39368   0.49457  -0.01013

FINAL SINGLE POINT ENERGY     -5019.928800504571

DIPOLE MOMENT
-------------
                                X             Y             Z
Electronic contribution:     -8.13011       2.42997       2.65976
Nuclear contribution   :      8.18773      -3.43522      -3.64671
                        -----------------------------------------
Total Dipole Moment    :      0.05762      -1.00525      -0.98694
                        -----------------------------------------
Magnitude (a.u.)       :      1.40993
Magnitude (Debye)      :      3.58375

Rotational constants in cm-1:     0.001390     0.000917     0.000786
Rotational constants in MHz :    41.672948    27.478919    23.550824

                             ****ORCA TERMINATED NORMALLY****
TOTAL RUN TIME: 0 days 0 hours 11 minutes 21 seconds 871 msec
