                         Program Version 4.2.0 -  RELEASE  -
|  1> # ORCA input file
|  2> # SCF done       -161.875155506584          0.000837215591
|  3> ! CAM-B3LYP def2-SVP def2/J RIJCOSX Grid4 TightSCF
|  4> %maxcore 5000
|  5> %tddft
|  6>     Mode sTDDFT
|  7>     Ethresh 5.0
|  8>     maxcore 5000
|  9> end
| 10>
| 11> %pal
| 12>   nprocs 6
| 13>   end
| 14> * xyz 0 1
| 15>    C        8.64123         0.35486         5.21921
| 16>    C        8.17368        -0.62797         4.40048
| 17>    C        7.75549        -0.11819         3.12514
| 18>    C        7.90107         1.22373         3.00479
| 19>    S        8.56441         1.89382         4.45037
| 20>    C        7.28211        -1.22369         2.28465
| 21>    O        6.86959        -1.15572         1.14247
| 22>    C        7.47485        -2.43101         3.10439
| 23>    C        7.89436        -2.05424         4.43411
| 24>    C        7.87766        -2.88012         5.53355
| 25>    N        8.46965        -2.56227         6.78791
| 26>    O        8.01608        -3.10051         7.77592
| 27>    O        9.38864        -1.76313         6.79303
| 28>    N        7.15921        -4.13897         5.52956
| 29>    O        6.04481        -4.13280         5.05171
| 30>    O        7.72096        -5.10216         5.99442
| 31>    C        7.46866        -3.72461         2.61707
| 32>    C        7.04142        -4.21745         1.38818
| 33>    S        6.19968        -3.30530         0.13288
| 34>    C        6.05637        -4.71425        -0.81300
| 35>    C        6.65362        -5.84490        -0.20771
| 36>    C        7.19244        -5.57189         1.02219
| 37>    C        6.49863        -6.98702        -1.12739
| 38>    O        6.86829        -8.12486        -0.97591
| 39>    C        5.76404        -6.40302        -2.31650
| 40>    C        5.52932        -5.06077        -2.07513
| 41>    C        5.39971        -7.11435        -3.47072
| 42>    C        5.68285        -8.43443        -3.69220
| 43>    C        5.32860        -9.12706        -4.85603
| 44>    S        4.43819        -8.40370        -6.19840
| 45>    C        4.43923        -9.86184        -7.16249
| 46>    C        5.10994       -10.87334        -6.46127
| 47>    C        5.58969       -10.44825        -5.19518
| 48>    O        6.22742       -11.44797        -4.56501
| 49>    C        6.16151       -12.51040        -5.41307
| 50>    N        6.76256       -13.72689        -5.01573
| 51>    O        6.67627       -14.64969        -5.80668
| 52>    O        7.31348       -13.76836        -3.93794
| 53>    C        5.49666       -12.22786        -6.58033
| 54>    C        3.83992        -9.91154        -8.42401
| 55>    S        3.86357       -11.39733        -9.37763
| 56>    C        2.99491       -10.62804       -10.63289
| 57>    C        2.70246        -9.28617       -10.32635
| 58>    C        3.17424        -8.88250        -9.09361
| 59>    C        1.96052        -8.73461       -11.47301
| 60>    O        1.54111        -7.61671       -11.64562
| 61>    C        1.84861        -9.89247       -12.44345
| 62>    C        2.48935       -10.98946       -11.90033
| 63>    C        1.17686        -9.71199       -13.66255
| 64>    C        0.98544       -10.68112       -14.60907
| 65>    C        0.28984       -10.52465       -15.82311
| 66>    S       -0.32236       -11.97662       -16.59995
| 67>    C       -1.23713       -11.05275       -17.71227
| 68>    C       -1.06023        -9.71678       -17.55286
| 69>    C       -0.15850        -9.38473       -16.50805
| 70>    N        0.19467        -8.09171       -16.24165
| 71>    C        1.56675        -7.66763       -16.03081
| 72>    C        2.19401        -7.15671       -17.32637
| 73>    H        9.05752         0.27860         6.20356
| 74>    H        7.65984         1.85688         2.17474
| 75>    H        7.90100        -4.49020         3.25233
| 76>    H        7.67805        -6.28898         1.65983
| 77>    H        5.02439        -4.38605        -2.74232
| 78>    H        4.86608        -6.56266        -4.23783
| 79>    H        6.21807        -9.00385        -2.94452
| 80>    H        5.32725       -12.91173        -7.38593
| 81>    H        3.05783        -7.90162        -8.66912
| 82>    H        2.59187       -11.96015       -12.34800
| 83>    H        0.75762        -8.72715       -13.81084
| 84>    H        1.31530       -11.68869       -14.39113
| 85>    H       -1.84393       -11.55253       -18.44133
| 86>    H       -1.53886        -8.97604       -18.16954
| 87>    H       -0.32788        -7.42102       -16.79193
| 88>    H        2.14351        -8.51086       -15.65295
| 89>    H        1.57227        -6.87239       -15.27899
| 90>    H        2.18914        -7.93710       -18.08488
| 91>    H        3.22204        -6.85667       -17.14495
| 92>    H        1.64764        -6.29603       -17.70729
| 93> *
| 94>
| 95>                          ****END OF INPUT****

CARTESIAN COORDINATES (ANGSTROEM)
---------------------------------
  C      8.641230    0.354860    5.219210
  C      8.173680   -0.627970    4.400480
  C      7.755490   -0.118190    3.125140
  C      7.901070    1.223730    3.004790
  S      8.564410    1.893820    4.450370
  C      7.282110   -1.223690    2.284650
  O      6.869590   -1.155720    1.142470
  C      7.474850   -2.431010    3.104390
  C      7.894360   -2.054240    4.434110
  C      7.877660   -2.880120    5.533550
  N      8.469650   -2.562270    6.787910
  O      8.016080   -3.100510    7.775920
  O      9.388640   -1.763130    6.793030
  N      7.159210   -4.138970    5.529560
  O      6.044810   -4.132800    5.051710
  O      7.720960   -5.102160    5.994420
  C      7.468660   -3.724610    2.617070
  C      7.041420   -4.217450    1.388180
  S      6.199680   -3.305300    0.132880
  C      6.056370   -4.714250   -0.813000
  C      6.653620   -5.844900   -0.207710
  C      7.192440   -5.571890    1.022190
  C      6.498630   -6.987020   -1.127390
  O      6.868290   -8.124860   -0.975910
  C      5.764040   -6.403020   -2.316500
  C      5.529320   -5.060770   -2.075130
  C      5.399710   -7.114350   -3.470720
  C      5.682850   -8.434430   -3.692200
  C      5.328600   -9.127060   -4.856030
  S      4.438190   -8.403700   -6.198400
  C      4.439230   -9.861840   -7.162490
  C      5.109940  -10.873340   -6.461270
  C      5.589690  -10.448250   -5.195180
  O      6.227420  -11.447970   -4.565010
  C      6.161510  -12.510400   -5.413070
  N      6.762560  -13.726890   -5.015730
  O      6.676270  -14.649690   -5.806680
  O      7.313480  -13.768360   -3.937940
  C      5.496660  -12.227860   -6.580330
  C      3.839920   -9.911540   -8.424010
  S      3.863570  -11.397330   -9.377630
  C      2.994910  -10.628040  -10.632890
  C      2.702460   -9.286170  -10.326350
  C      3.174240   -8.882500   -9.093610
  C      1.960520   -8.734610  -11.473010
  O      1.541110   -7.616710  -11.645620
  C      1.848610   -9.892470  -12.443450
  C      2.489350  -10.989460  -11.900330
  C      1.176860   -9.711990  -13.662550
  C      0.985440  -10.681120  -14.609070
  C      0.289840  -10.524650  -15.823110
  S     -0.322360  -11.976620  -16.599950
  C     -1.237130  -11.052750  -17.712270
  C     -1.060230   -9.716780  -17.552860
  C     -0.158500   -9.384730  -16.508050
  N      0.194670   -8.091710  -16.241650
  C      1.566750   -7.667630  -16.030810
  C      2.194010   -7.156710  -17.326370
  H      9.057520    0.278600    6.203560
  H      7.659840    1.856880    2.174740
  H      7.901000   -4.490200    3.252330
  H      7.678050   -6.288980    1.659830
  H      5.024390   -4.386050   -2.742320
  H      4.866080   -6.562660   -4.237830
  H      6.218070   -9.003850   -2.944520
  H      5.327250  -12.911730   -7.385930
  H      3.057830   -7.901620   -8.669120
  H      2.591870  -11.960150  -12.348000
  H      0.757620   -8.727150  -13.810840
  H      1.315300  -11.688690  -14.391130
  H     -1.843930  -11.552530  -18.441330
  H     -1.538860   -8.976040  -18.169540
  H     -0.327880   -7.421020  -16.791930
  H      2.143510   -8.510860  -15.652950
  H      1.572270   -6.872390  -15.278990
  H      2.189140   -7.937100  -18.084880
  H      3.222040   -6.856670  -17.144950
  H      1.647640   -6.296030  -17.707290

 Total Charge           Charge          ....    0
 Multiplicity           Mult            ....    1
 Number of Electrons    NEL             ....  442
 Basis Dimension        Dim             ....  932

ORBITAL ENERGIES
----------------

  NO   OCC          E(Eh)            E(eV)
   0   2.0000     -88.990567     -2421.5564
   1   2.0000     -88.981625     -2421.3131
   2   2.0000     -88.976386     -2421.1706
   3   2.0000     -88.971563     -2421.0393
   4   2.0000     -88.962126     -2420.7825
   5   2.0000     -19.318346      -525.6789
   6   2.0000     -19.244682      -523.6744
   7   2.0000     -19.241843      -523.5972
   8   2.0000     -19.241711      -523.5936
   9   2.0000     -19.238989      -523.5195
  10   2.0000     -19.236376      -523.4484
  11   2.0000     -19.233246      -523.3632
  12   2.0000     -19.233088      -523.3589
  13   2.0000     -19.231585      -523.3180
  14   2.0000     -19.210492      -522.7441
  15   2.0000     -14.656730      -398.8299
  16   2.0000     -14.648109      -398.5953
  17   2.0000     -14.645450      -398.5230
  18   2.0000     -14.436771      -392.8445
  19   2.0000     -10.390925      -282.7514
  20   2.0000     -10.377613      -282.3892
  21   2.0000     -10.376707      -282.3646
  22   2.0000     -10.363832      -282.0142
  23   2.0000     -10.361551      -281.9521
  24   2.0000     -10.350479      -281.6509
  25   2.0000     -10.345845      -281.5247
  26   2.0000     -10.338311      -281.3197
  27   2.0000     -10.332713      -281.1674
  28   2.0000     -10.331198      -281.1262
  29   2.0000     -10.327181      -281.0169
  30   2.0000     -10.320683      -280.8401
  31   2.0000     -10.320381      -280.8318
  32   2.0000     -10.320243      -280.8281
  33   2.0000     -10.319851      -280.8174
  34   2.0000     -10.313426      -280.6426
  35   2.0000     -10.313172      -280.6357
  36   2.0000     -10.312030      -280.6046
  37   2.0000     -10.310824      -280.5718
  38   2.0000     -10.309386      -280.5327
  39   2.0000     -10.308719      -280.5145
  40   2.0000     -10.306376      -280.4508
  41   2.0000     -10.305441      -280.4253
  42   2.0000     -10.304135      -280.3898
  43   2.0000     -10.303476      -280.3718
  44   2.0000     -10.302632      -280.3489
  45   2.0000     -10.300438      -280.2892
  46   2.0000     -10.300189      -280.2824
  47   2.0000     -10.299727      -280.2698
  48   2.0000     -10.298296      -280.2309
  49   2.0000     -10.294544      -280.1288
  50   2.0000     -10.287511      -279.9374
  51   2.0000     -10.286436      -279.9081
  52   2.0000     -10.285887      -279.8932
  53   2.0000     -10.285526      -279.8834
  54   2.0000     -10.281800      -279.7820
  55   2.0000     -10.279399      -279.7167
  56   2.0000     -10.278722      -279.6982
  57   2.0000     -10.273016      -279.5430
  58   2.0000      -8.085152      -220.0082
  59   2.0000      -8.076122      -219.7624
  60   2.0000      -8.069378      -219.5790
  61   2.0000      -8.067602      -219.5306
  62   2.0000      -8.058154      -219.2735
  63   2.0000      -6.054404      -164.7487
  64   2.0000      -6.050338      -164.6381
  65   2.0000      -6.047435      -164.5591
  66   2.0000      -6.045616      -164.5096
  67   2.0000      -6.041571      -164.3995
  68   2.0000      -6.038673      -164.3207
  69   2.0000      -6.037851      -164.2983
  70   2.0000      -6.036845      -164.2709
  71   2.0000      -6.034082      -164.1957
  72   2.0000      -6.032140      -164.1429
  73   2.0000      -6.031941      -164.1375
  74   2.0000      -6.030283      -164.0923
  75   2.0000      -6.027541      -164.0177
  76   2.0000      -6.023430      -163.9059
  77   2.0000      -6.020034      -163.8135
  78   2.0000      -1.328246       -36.1434
  79   2.0000      -1.327584       -36.1254
  80   2.0000      -1.310094       -35.6495
  81   2.0000      -1.239495       -33.7284
  82   2.0000      -1.146529       -31.1986
  83   2.0000      -1.144038       -31.1309
  84   2.0000      -1.143777       -31.1237
  85   2.0000      -1.142674       -31.0937
  86   2.0000      -1.132519       -30.8174
  87   2.0000      -1.127765       -30.6880
  88   2.0000      -1.046334       -28.4722
  89   2.0000      -1.023912       -27.8621
  90   2.0000      -1.011530       -27.5251
  91   2.0000      -1.009298       -27.4644
  92   2.0000      -1.003439       -27.3050
  93   2.0000      -0.979071       -26.6419
  94   2.0000      -0.969749       -26.3882
  95   2.0000      -0.954432       -25.9714
  96   2.0000      -0.949200       -25.8290
  97   2.0000      -0.941116       -25.6091
  98   2.0000      -0.925187       -25.1756
  99   2.0000      -0.910145       -24.7663
 100   2.0000      -0.902424       -24.5562
 101   2.0000      -0.890777       -24.2393
 102   2.0000      -0.876006       -23.8373
 103   2.0000      -0.863462       -23.4960
 104   2.0000      -0.862948       -23.4820
 105   2.0000      -0.857725       -23.3399
 106   2.0000      -0.852526       -23.1984
 107   2.0000      -0.837330       -22.7849
 108   2.0000      -0.831912       -22.6375
 109   2.0000      -0.812962       -22.1218
 110   2.0000      -0.807561       -21.9748
 111   2.0000      -0.798845       -21.7377
 112   2.0000      -0.794200       -21.6113
 113   2.0000      -0.784281       -21.3414
 114   2.0000      -0.770358       -20.9625
 115   2.0000      -0.765152       -20.8209
 116   2.0000      -0.758792       -20.6478
 117   2.0000      -0.755135       -20.5483
 118   2.0000      -0.733566       -19.9613
 119   2.0000      -0.724493       -19.7145
 120   2.0000      -0.718139       -19.5416
 121   2.0000      -0.700414       -19.0592
 122   2.0000      -0.685680       -18.6583
 123   2.0000      -0.677605       -18.4386
 124   2.0000      -0.672186       -18.2911
 125   2.0000      -0.671304       -18.2671
 126   2.0000      -0.661237       -17.9932
 127   2.0000      -0.655133       -17.8271
 128   2.0000      -0.652633       -17.7591
 129   2.0000      -0.647515       -17.6198
 130   2.0000      -0.642394       -17.4804
 131   2.0000      -0.641590       -17.4586
 132   2.0000      -0.637435       -17.3455
 133   2.0000      -0.636758       -17.3271
 134   2.0000      -0.632627       -17.2147
 135   2.0000      -0.629933       -17.1414
 136   2.0000      -0.625547       -17.0220
 137   2.0000      -0.617772       -16.8104
 138   2.0000      -0.614274       -16.7152
 139   2.0000      -0.610771       -16.6199
 140   2.0000      -0.606986       -16.5169
 141   2.0000      -0.600750       -16.3472
 142   2.0000      -0.593481       -16.1494
 143   2.0000      -0.590458       -16.0672
 144   2.0000      -0.584774       -15.9125
 145   2.0000      -0.579113       -15.7585
 146   2.0000      -0.577840       -15.7238
 147   2.0000      -0.575597       -15.6628
 148   2.0000      -0.575259       -15.6536
 149   2.0000      -0.573701       -15.6112
 150   2.0000      -0.570704       -15.5297
 151   2.0000      -0.562981       -15.3195
 152   2.0000      -0.553976       -15.0744
 153   2.0000      -0.548797       -14.9335
 154   2.0000      -0.543711       -14.7951
 155   2.0000      -0.538393       -14.6504
 156   2.0000      -0.536992       -14.6123
 157   2.0000      -0.534112       -14.5339
 158   2.0000      -0.533085       -14.5060
 159   2.0000      -0.528291       -14.3755
 160   2.0000      -0.527761       -14.3611
 161   2.0000      -0.525350       -14.2955
 162   2.0000      -0.523754       -14.2521
 163   2.0000      -0.520249       -14.1567
 164   2.0000      -0.515461       -14.0264
 165   2.0000      -0.509779       -13.8718
 166   2.0000      -0.501381       -13.6433
 167   2.0000      -0.499726       -13.5982
 168   2.0000      -0.498141       -13.5551
 169   2.0000      -0.495516       -13.4837
 170   2.0000      -0.491462       -13.3734
 171   2.0000      -0.489183       -13.3114
 172   2.0000      -0.487234       -13.2583
 173   2.0000      -0.485402       -13.2085
 174   2.0000      -0.484191       -13.1755
 175   2.0000      -0.479500       -13.0479
 176   2.0000      -0.476835       -12.9754
 177   2.0000      -0.473167       -12.8755
 178   2.0000      -0.471660       -12.8345
 179   2.0000      -0.467272       -12.7151
 180   2.0000      -0.466786       -12.7019
 181   2.0000      -0.464532       -12.6405
 182   2.0000      -0.460825       -12.5397
 183   2.0000      -0.459941       -12.5156
 184   2.0000      -0.447813       -12.1856
 185   2.0000      -0.444120       -12.0851
 186   2.0000      -0.442868       -12.0511
 187   2.0000      -0.438423       -11.9301
 188   2.0000      -0.435734       -11.8569
 189   2.0000      -0.434983       -11.8365
 190   2.0000      -0.433163       -11.7870
 191   2.0000      -0.431498       -11.7417
 192   2.0000      -0.419056       -11.4031
 193   2.0000      -0.417442       -11.3592
 194   2.0000      -0.409413       -11.1407
 195   2.0000      -0.398104       -10.8330
 196   2.0000      -0.390830       -10.6350
 197   2.0000      -0.387263       -10.5380
 198   2.0000      -0.385190       -10.4816
 199   2.0000      -0.382668       -10.4129
 200   2.0000      -0.379195       -10.3184
 201   2.0000      -0.378221       -10.2919
 202   2.0000      -0.377734       -10.2787
 203   2.0000      -0.372355       -10.1323
 204   2.0000      -0.368668       -10.0320
 205   2.0000      -0.364285        -9.9127
 206   2.0000      -0.357881        -9.7384
 207   2.0000      -0.353808        -9.6276
 208   2.0000      -0.348848        -9.4926
 209   2.0000      -0.347877        -9.4662
 210   2.0000      -0.344478        -9.3737
 211   2.0000      -0.341232        -9.2854
 212   2.0000      -0.330008        -8.9800
 213   2.0000      -0.327547        -8.9130
 214   2.0000      -0.326575        -8.8866
 215   2.0000      -0.322627        -8.7791
 216   2.0000      -0.309072        -8.4103
 217   2.0000      -0.300146        -8.1674
 218   2.0000      -0.280635        -7.6365
 219   2.0000      -0.253459        -6.8970
 220   2.0000      -0.224132        -6.0989
 221   0.0000      -0.110524        -3.0075
 222   0.0000      -0.092593        -2.5196
 223   0.0000      -0.074128        -2.0171
 224   0.0000      -0.067521        -1.8373
 225   0.0000      -0.044304        -1.2056

MULLIKEN ATOMIC CHARGES
-----------------------
   0 C :   -0.131231
   1 C :    0.064022
   2 C :    0.011619
   3 C :   -0.135151
   4 S :    0.141285
   5 C :    0.181090
   6 O :   -0.184874
   7 C :   -0.115711
   8 C :    0.206970
   9 C :    0.041537
  10 N :    0.258119
  11 O :   -0.233540
  12 O :   -0.259316
  13 N :    0.198963
  14 O :   -0.219862
  15 O :   -0.211660
  16 C :   -0.003921
  17 C :   -0.085394
  18 S :    0.240255
  19 C :    0.007553
  20 C :    0.008495
  21 C :   -0.008820
  22 C :    0.173682
  23 O :   -0.115051
  24 C :    0.027707
  25 C :   -0.065033
  26 C :   -0.066975
  27 C :    0.026458
  28 C :   -0.167453
  29 S :    0.139015
  30 C :   -0.063119
  31 C :    0.070303
  32 C :    0.216989
  33 O :   -0.168194
  34 C :    0.229405
  35 N :    0.274370
  36 O :   -0.253546
  37 O :   -0.227023
  38 C :   -0.089976
  39 C :   -0.102124
  40 S :    0.157926
  41 C :   -0.016385
  42 C :    0.005601
  43 C :   -0.032683
  44 C :    0.154507
  45 O :   -0.113470
  46 C :   -0.022845
  47 C :   -0.052296
  48 C :   -0.035789
  49 C :    0.055206
  50 C :   -0.194721
  51 S :    0.111577
  52 C :   -0.043550
  53 C :    0.003925
  54 C :    0.091803
  55 N :   -0.128286
  56 C :    0.055488
  57 C :   -0.003614
  58 H :    0.053418
  59 H :    0.034655
  60 H :    0.017681
  61 H :    0.011430
  62 H :   -0.008902
  63 H :   -0.017809
  64 H :    0.038093
  65 H :    0.017453
  66 H :    0.004909
  67 H :   -0.012186
  68 H :    0.013316
  69 H :   -0.018749
  70 H :    0.037376
  71 H :   -0.024155
  72 H :    0.108183
  73 H :    0.049322
  74 H :    0.032502
  75 H :    0.024792
  76 H :    0.022989
  77 H :    0.013426
Sum of atomic charges:   -0.0000000

LOEWDIN ATOMIC CHARGES
----------------------
   0 C :   -0.146390
   1 C :   -0.062536
   2 C :   -0.087731
   3 C :   -0.145430
   4 S :    0.473650
   5 C :    0.081716
   6 O :   -0.176016
   7 C :   -0.125311
   8 C :    0.061859
   9 C :   -0.086134
  10 N :    0.279359
  11 O :   -0.198918
  12 O :   -0.214511
  13 N :    0.269126
  14 O :   -0.194852
  15 O :   -0.183803
  16 C :    0.055350
  17 C :   -0.190355
  18 S :    0.542193
  19 C :   -0.139486
  20 C :   -0.119097
  21 C :    0.030756
  22 C :    0.101490
  23 O :   -0.101253
  24 C :   -0.022312
  25 C :   -0.036086
  26 C :   -0.054738
  27 C :    0.006597
  28 C :   -0.208773
  29 S :    0.450926
  30 C :   -0.151645
  31 C :   -0.099632
  32 C :    0.042823
  33 O :    0.016160
  34 C :    0.023842
  35 N :    0.271225
  36 O :   -0.215197
  37 O :   -0.188679
  38 C :   -0.014064
  39 C :   -0.205316
  40 S :    0.466224
  41 C :   -0.139391
  42 C :   -0.119139
  43 C :   -0.003969
  44 C :    0.099423
  45 O :   -0.104561
  46 C :   -0.030819
  47 C :   -0.046281
  48 C :   -0.056930
  49 C :    0.000259
  50 C :   -0.226043
  51 S :    0.424624
  52 C :   -0.156891
  53 C :   -0.089997
  54 C :    0.010007
  55 N :   -0.021372
  56 C :    0.029421
  57 C :   -0.065179
  58 H :    0.029642
  59 H :    0.033657
  60 H :    0.044135
  61 H :    0.045533
  62 H :    0.031567
  63 H :    0.023017
  64 H :    0.048114
  65 H :    0.040501
  66 H :    0.037514
  67 H :    0.028110
  68 H :    0.034842
  69 H :    0.027100
  70 H :    0.028584
  71 H :    0.028566
  72 H :    0.073188
  73 H :    0.032214
  74 H :    0.025716
  75 H :    0.027224
  76 H :    0.031338
  77 H :    0.021244

  Mayer bond orders larger than 0.100000
B(  0-C ,  1-C ) :   1.5600 B(  0-C ,  4-S ) :   1.1765 B(  0-C , 58-H ) :   0.9476
B(  1-C ,  2-C ) :   1.2208 B(  1-C ,  8-C ) :   1.0127 B(  2-C ,  3-C ) :   1.5580
B(  2-C ,  5-C ) :   0.9685 B(  3-C ,  4-S ) :   1.1750 B(  3-C , 59-H ) :   0.9715
B(  5-C ,  6-O ) :   2.1250 B(  5-C ,  7-C ) :   1.0015 B(  7-C ,  8-C ) :   1.1322
B(  7-C , 16-C ) :   1.4158 B(  8-C ,  9-C ) :   1.5450 B(  9-C , 10-N ) :   0.9589
B(  9-C , 13-N ) :   0.8888 B( 10-N , 11-O ) :   1.5265 B( 10-N , 12-O ) :   1.4875
B( 11-O , 12-O ) :   0.2552 B( 13-N , 14-O ) :   1.5305 B( 13-N , 15-O ) :   1.5192
B( 14-O , 15-O ) :   0.2800 B( 16-C , 17-C ) :   1.3638 B( 16-C , 60-H ) :   0.9554
B( 17-C , 18-S ) :   1.0605 B( 17-C , 21-C ) :   1.2763 B( 18-S , 19-C ) :   1.1661
B( 19-C , 20-C ) :   1.3150 B( 19-C , 25-C ) :   1.1028 B( 20-C , 21-C ) :   1.4037
B( 20-C , 22-C ) :   0.9328 B( 21-C , 61-H ) :   1.0122 B( 22-C , 23-O ) :   2.2297
B( 22-C , 24-C ) :   0.9075 B( 24-C , 25-C ) :   1.5163 B( 24-C , 26-C ) :   1.2147
B( 25-C , 62-H ) :   1.0275 B( 26-C , 27-C ) :   1.5141 B( 26-C , 63-H ) :   0.9793
B( 27-C , 28-C ) :   1.2059 B( 27-C , 64-H ) :   0.9744 B( 28-C , 29-S ) :   1.0456
B( 28-C , 32-C ) :   1.4063 B( 29-S , 30-C ) :   1.1567 B( 30-C , 31-C ) :   1.3188
B( 30-C , 39-C ) :   1.2706 B( 31-C , 32-C ) :   1.2334 B( 31-C , 38-C ) :   1.0982
B( 32-C , 33-O ) :   1.1520 B( 33-O , 34-C ) :   1.1184 B( 34-C , 35-N ) :   0.9232
B( 34-C , 38-C ) :   1.5654 B( 35-N , 36-O ) :   1.5237 B( 35-N , 37-O ) :   1.5115
B( 36-O , 37-O ) :   0.2779 B( 38-C , 65-H ) :   1.0134 B( 39-C , 40-S ) :   1.0768
B( 39-C , 43-C ) :   1.3820 B( 40-S , 41-C ) :   1.1507 B( 41-C , 42-C ) :   1.3954
B( 41-C , 47-C ) :   1.1025 B( 42-C , 43-C ) :   1.3488 B( 42-C , 44-C ) :   0.9210
B( 43-C , 66-H ) :   0.9995 B( 44-C , 45-O ) :   2.2694 B( 44-C , 46-C ) :   0.9090
B( 46-C , 47-C ) :   1.5480 B( 46-C , 48-C ) :   1.2070 B( 47-C , 67-H ) :   1.0151
B( 48-C , 49-C ) :   1.5530 B( 48-C , 68-H ) :   0.9630 B( 49-C , 50-C ) :   1.2000
B( 49-C , 69-H ) :   0.9505 B( 50-C , 51-S ) :   1.0767 B( 50-C , 54-C ) :   1.3974
B( 51-S , 52-C ) :   1.1883 B( 52-C , 53-C ) :   1.5501 B( 52-C , 70-H ) :   0.9672
B( 53-C , 54-C ) :   1.2405 B( 53-C , 71-H ) :   0.9961 B( 54-C , 55-N ) :   1.2269
B( 55-N , 56-C ) :   0.9773 B( 55-N , 72-H ) :   0.9296 B( 56-C , 57-C ) :   1.1048
B( 56-C , 73-H ) :   0.9498 B( 56-C , 74-H ) :   0.9546 B( 57-C , 75-H ) :   0.9714
B( 57-C , 76-H ) :   0.9621 B( 57-C , 77-H ) :   0.9674

-----------------------------------------------------------------------------
         ABSORPTION SPECTRUM VIA TRANSITION ELECTRIC DIPOLE MOMENTS
-----------------------------------------------------------------------------
State   Energy  Wavelength   fosc         T2         TX        TY        TZ
        (cm-1)    (nm)                  (au**2)     (au)      (au)      (au)
-----------------------------------------------------------------------------
   0   10400.0    961.5   1.741548895  55.12887   2.53617   2.39249   6.55536
   1   13801.2    724.6   0.271700632   6.48111  -0.04251   2.22305   1.23991
   2   18217.4    548.9   0.171849688   3.10555  -0.87040   1.13365  -1.03092
   3   18712.0    534.4   0.006619963   0.11647   0.11952  -0.31024  -0.07704
   4   19598.7    510.2   0.289873308   4.86918   0.45635   1.07013   1.87503
   5   21766.3    459.4   0.040450519   0.61181  -0.22432   0.50748  -0.55131
   6   24885.5    401.8   0.034285780   0.45357  -0.04396  -0.52218  -0.42304
   7   25322.4    394.9   0.120782003   1.57026  -0.11560  -1.20968  -0.30588
   8   25527.4    391.7   0.024173669   0.31175  -0.03523   0.52823  -0.17744
   9   26054.2    383.8   0.072095358   0.91097   0.32333   0.22000   0.87065
  10   26532.7    376.9   0.002788098   0.03459   0.00586   0.01707   0.18512
  11   26687.1    374.7   0.052618237   0.64910   0.04137   0.11016   0.79703
  12   27451.6    364.3   0.026208040   0.31430   0.40498  -0.22435   0.31615
  13   27938.2    357.9   0.340246322   4.00932  -0.54891  -1.46828  -1.24586
  14   28849.7    346.6   0.009686527   0.11054  -0.22762   0.03650  -0.23957
  15   29002.9    344.8   0.201902620   2.29180   0.04708   1.34381  -0.69552
  16   29597.0    337.9   0.041306690   0.45946  -0.30481  -0.13078  -0.59114
  17   30031.9    333.0   0.002191898   0.02403   0.09447  -0.06012   0.10719
  18   31577.4    316.7   0.025755379   0.26851  -0.16508   0.11685  -0.47708
  19   31642.6    316.0   0.170630859   1.77526  -0.73826   0.05699  -1.10769
  20   31936.5    313.1   0.031700541   0.32678  -0.13447   0.44186   0.33683
  21   32491.5    307.8   0.057457137   0.58217   0.15082  -0.62925   0.40431
  22   32747.5    305.4   0.106577639   1.07143  -0.54228   0.77646  -0.41771
  23   33208.8    301.1   0.084274599   0.83545  -0.59037   0.31002  -0.62514
  24   33800.6    295.9   0.025862213   0.25189   0.14410   0.26744   0.39951
  25   34022.3    293.9   0.295630032   2.86062  -0.07873   1.60064   0.54070
  26   34354.8    291.1   0.075035218   0.71904   0.29961   0.51169   0.60618
  27   34579.4    289.2   0.074166777   0.70610   0.00498  -0.82475   0.16080
  28   34819.0    287.2   0.039786841   0.37618  -0.36556  -0.48064  -0.10738
  29   35260.2    283.6   0.068926863   0.64355   0.08319   0.74219  -0.29289
  30   35766.1    279.6   0.052312259   0.48151   0.01235  -0.54911   0.42408
  31   35936.7    278.3   0.147396380   1.35028   0.37194  -0.55858   0.94865
  32   36270.8    275.7   0.011062586   0.10041  -0.10934  -0.28858  -0.07195
  33   36947.6    270.7   0.134524050   1.19864  -0.42273   0.91829  -0.42035
  34   37159.3    269.1   0.007699730   0.06822   0.09192  -0.22466   0.09640
  35   37355.7    267.7   0.001992181   0.01756  -0.01287  -0.06111  -0.11686
  36   37650.2    265.6   0.003049302   0.02666  -0.09608   0.11572  -0.06356
  37   37686.1    265.3   0.047821303   0.41775   0.39075  -0.44668   0.25600
  38   37804.4    264.5   0.027030075   0.23539   0.08668   0.46005   0.12739
  39   38222.9    261.6   0.008905378   0.07670  -0.13992   0.19113  -0.14350
  40   38523.9    259.6   0.084056333   0.71832   0.14753  -0.69590  -0.46073
  41   38640.0    258.8   0.001679914   0.01431  -0.03933   0.07624   0.08339
  42   39057.5    256.0   0.088194129   0.74338   0.10352  -0.81597  -0.25856
  43   39278.3    254.6   0.118208835   0.99077  -0.47156   0.53107  -0.69740
  44   39481.8    253.3   0.024870994   0.20738   0.32881  -0.30432   0.08156
  45   39611.4    252.5   0.073231841   0.60863  -0.30903   0.66535  -0.26540
  46   39700.9    251.9   0.010690422   0.08865  -0.15925  -0.18146  -0.17424
  47   40033.9    249.8   0.096531814   0.79381   0.16703  -0.85578   0.18317
  48   40068.9    249.6   0.067589905   0.55533  -0.10268   0.73278  -0.08841
  49   40257.0    248.4   0.060478321   0.49458  -0.13465  -0.59106  -0.35650

FINAL SINGLE POINT ENERGY     -4456.326753932005

DIPOLE MOMENT
-------------
                                X             Y             Z
Electronic contribution:     27.43199       7.05292      87.03348
Nuclear contribution   :    -29.92158      -6.01223     -95.26093
                        -----------------------------------------
Total Dipole Moment    :     -2.48959       1.04069      -8.22746
                        -----------------------------------------
Magnitude (a.u.)       :      8.65865
Magnitude (Debye)      :     22.00853

Rotational constants in cm-1:     0.002376     0.000252     0.000231
Rotational constants in MHz :    71.221494     7.553251     6.919825

                             ****ORCA TERMINATED NORMALLY****
TOTAL RUN TIME: 0 days 0 hours 6 minutes 52 seconds 835 msec
