                         Program Version 4.2.0 -  RELEASE  -
|  1> # ORCA input file
|  2> # SCF done       -206.715774320114          0.000995304403
|  3> ! CAM-B3LYP def2-SVP def2/J RIJCOSX Grid4 TightSCF
|  4> %maxcore 5000
|  5> %tddft
|  6>     Mode sTDDFT
|  7>     Ethresh 5.0
|  8>     maxcore 5000
|  9> end
| 10>
| 11> %pal
| 12>   nprocs 6
| 13>   end
| 14> * xyz 0 1
| 15>    C       -2.28988       -10.40740       -13.93871
| 16>    C       -2.42491       -10.17647       -15.28083
| 17>    C       -1.70002        -9.14647       -15.89855
| 18>    C       -0.85085        -8.36186       -15.16663
| 19>    C       -0.68925        -8.57042       -13.78195
| 20>    C        0.17755        -7.75446       -13.01855
| 21>    C        0.30596        -7.98225       -11.67501
| 22>    C       -0.41703        -9.04561       -11.05871
| 23>    C       -1.26598        -9.84345       -11.76991
| 24>    C       -1.42417        -9.61855       -13.15594
| 25>    C       -0.07477        -9.10174        -9.62772
| 26>    O       -0.52490        -9.83395        -8.77711
| 27>    C        1.00634        -8.08793        -9.44302
| 28>    C        1.07479        -7.28747       -10.64659
| 29>    C        1.53990        -6.00132       -10.74156
| 30>    C        2.02414        -5.26465        -9.64243
| 31>    N        2.38307        -4.61687        -8.76579
| 32>    C        1.49188        -5.23717       -11.92524
| 33>    N        1.48964        -4.58200       -12.86778
| 34>    C        1.74948        -8.12996        -8.30467
| 35>    C        3.01507        -7.56365        -8.02426
| 36>    C        4.02220        -7.14723        -8.87497
| 37>    C        5.15585        -6.69613        -8.20363
| 38>   Cl        6.55625        -6.12456        -9.00993
| 39>    C        5.04751        -6.74217        -6.81235
| 40>    S        3.50880        -7.40439        -6.36390
| 41>    C        5.99745        -6.31481        -5.85755
| 42>    C        5.88920        -6.35805        -4.46688
| 43>   Cl        4.52484        -6.99336        -3.65076
| 44>    C        6.98818        -5.83826        -3.79376
| 45>    C        7.96900        -5.38647        -4.65856
| 46>    S        7.52387        -5.61474        -6.32446
| 47>    C        9.20410        -4.79001        -4.35739
| 48>    C       10.13765        -4.37711        -5.31495
| 49>    C       11.31429        -3.77500        -4.75192
| 50>    N       12.29145        -3.32825        -5.54569
| 51>    C       12.12093        -3.47209        -6.84250
| 52>    C       13.21176        -2.97151        -7.71788
| 53>    O       14.21664        -2.45485        -7.27769
| 54>    C       12.98234        -3.14610        -9.16263
| 55>    C       11.88909        -3.71821        -9.67783
| 56>    C       10.78079        -4.24387        -8.86233
| 57>    O        9.80543        -4.77242        -9.35402
| 58>    C       10.94910        -4.07931        -7.39808
| 59>    N        9.97695        -4.51938        -6.62810
| 60>    C       11.27606        -3.73200        -3.35156
| 61>    S        9.79463        -4.43695        -2.76797
| 62>    C       12.24886        -3.20409        -2.48159
| 63>    C       13.44649        -2.60459        -2.82897
| 64>    C       14.17127        -2.18328        -1.71753
| 65>   Cl       15.68956        -1.40543        -1.84393
| 66>    C       13.55905        -2.44616        -0.49100
| 67>    S       12.03386        -3.24282        -0.75497
| 68>    C       14.02809        -2.14775         0.80769
| 69>    C       13.40583        -2.42904         2.02757
| 70>   Cl       11.89330        -3.22526         2.13701
| 71>    C       14.11091        -2.01379         3.14893
| 72>    C       15.30590        -1.39052         2.83521
| 73>    S       15.53393        -1.34137         1.09788
| 74>    C       16.33164        -0.82011         3.61813
| 75>    C       16.46411        -0.66591         4.97091
| 76>    C       17.62086        -0.03953         5.59976
| 77>    C       18.78529         0.35755         4.99434
| 78>    C       19.86725         0.95068         5.68054
| 79>    N       20.78521         1.43860         6.16761
| 80>    C       19.11615         0.22993         3.62840
| 81>    N       19.48586         0.16284         2.54269
| 82>    C       17.35334         0.06671         7.02985
| 83>    C       16.09131        -0.53192         7.29685
| 84>    C       15.56930        -0.59781         8.55652
| 85>    C       16.30096        -0.05054         9.63314
| 86>    C       15.81641        -0.08856        10.95526
| 87>    C       16.54298         0.45139        11.98158
| 88>    C       17.78520         1.05289        11.72985
| 89>    C       18.28416         1.10586        10.45677
| 90>    C       17.56296         0.55876         9.37589
| 91>    C       18.07725         0.60866         8.05971
| 92>    C       15.50135        -1.02600         6.04366
| 93>    O       14.43801        -1.60424         5.94883
| 94>    H       -2.84527       -11.19884       -13.45710
| 95>    H       -3.09053       -10.78591       -15.87344
| 96>    H       -1.81857        -8.97705       -16.95825
| 97>    H       -0.29372        -7.56530       -15.63749
| 98>    H        0.72712        -6.97261       -13.51925
| 99>    H       -1.81157       -10.63676       -11.28099
|100>    H        1.32791        -8.74487        -7.51439
|101>    H        3.96534        -7.20301        -9.94633
|102>    H        7.07091        -5.78955        -2.72348
|103>    H       13.77532        -2.77559        -9.79829
|104>    H       11.76332        -3.82894       -10.74652
|105>    H       13.76383        -2.48522        -3.84889
|106>    H       13.76890        -2.15600         4.15788
|107>    H       17.14444        -0.43455         3.01372
|108>    H       14.60902        -1.06154         8.72702
|109>    H       14.85918        -0.55302        11.14206
|110>    H       16.16481         0.41806        12.99239
|111>    H       18.34559         1.47430        12.55090
|112>    H       19.24054         1.56718        10.25884
|113>    H       19.03444         1.07911         7.90314
|114> *
|115>
|116>                          ****END OF INPUT****

CARTESIAN COORDINATES (ANGSTROEM)
---------------------------------
  C     -2.289880  -10.407400  -13.938710
  C     -2.424910  -10.176470  -15.280830
  C     -1.700020   -9.146470  -15.898550
  C     -0.850850   -8.361860  -15.166630
  C     -0.689250   -8.570420  -13.781950
  C      0.177550   -7.754460  -13.018550
  C      0.305960   -7.982250  -11.675010
  C     -0.417030   -9.045610  -11.058710
  C     -1.265980   -9.843450  -11.769910
  C     -1.424170   -9.618550  -13.155940
  C     -0.074770   -9.101740   -9.627720
  O     -0.524900   -9.833950   -8.777110
  C      1.006340   -8.087930   -9.443020
  C      1.074790   -7.287470  -10.646590
  C      1.539900   -6.001320  -10.741560
  C      2.024140   -5.264650   -9.642430
  N      2.383070   -4.616870   -8.765790
  C      1.491880   -5.237170  -11.925240
  N      1.489640   -4.582000  -12.867780
  C      1.749480   -8.129960   -8.304670
  C      3.015070   -7.563650   -8.024260
  C      4.022200   -7.147230   -8.874970
  C      5.155850   -6.696130   -8.203630
  Cl     6.556250   -6.124560   -9.009930
  C      5.047510   -6.742170   -6.812350
  S      3.508800   -7.404390   -6.363900
  C      5.997450   -6.314810   -5.857550
  C      5.889200   -6.358050   -4.466880
  Cl     4.524840   -6.993360   -3.650760
  C      6.988180   -5.838260   -3.793760
  C      7.969000   -5.386470   -4.658560
  S      7.523870   -5.614740   -6.324460
  C      9.204100   -4.790010   -4.357390
  C     10.137650   -4.377110   -5.314950
  C     11.314290   -3.775000   -4.751920
  N     12.291450   -3.328250   -5.545690
  C     12.120930   -3.472090   -6.842500
  C     13.211760   -2.971510   -7.717880
  O     14.216640   -2.454850   -7.277690
  C     12.982340   -3.146100   -9.162630
  C     11.889090   -3.718210   -9.677830
  C     10.780790   -4.243870   -8.862330
  O      9.805430   -4.772420   -9.354020
  C     10.949100   -4.079310   -7.398080
  N      9.976950   -4.519380   -6.628100
  C     11.276060   -3.732000   -3.351560
  S      9.794630   -4.436950   -2.767970
  C     12.248860   -3.204090   -2.481590
  C     13.446490   -2.604590   -2.828970
  C     14.171270   -2.183280   -1.717530
  Cl    15.689560   -1.405430   -1.843930
  C     13.559050   -2.446160   -0.491000
  S     12.033860   -3.242820   -0.754970
  C     14.028090   -2.147750    0.807690
  C     13.405830   -2.429040    2.027570
  Cl    11.893300   -3.225260    2.137010
  C     14.110910   -2.013790    3.148930
  C     15.305900   -1.390520    2.835210
  S     15.533930   -1.341370    1.097880
  C     16.331640   -0.820110    3.618130
  C     16.464110   -0.665910    4.970910
  C     17.620860   -0.039530    5.599760
  C     18.785290    0.357550    4.994340
  C     19.867250    0.950680    5.680540
  N     20.785210    1.438600    6.167610
  C     19.116150    0.229930    3.628400
  N     19.485860    0.162840    2.542690
  C     17.353340    0.066710    7.029850
  C     16.091310   -0.531920    7.296850
  C     15.569300   -0.597810    8.556520
  C     16.300960   -0.050540    9.633140
  C     15.816410   -0.088560   10.955260
  C     16.542980    0.451390   11.981580
  C     17.785200    1.052890   11.729850
  C     18.284160    1.105860   10.456770
  C     17.562960    0.558760    9.375890
  C     18.077250    0.608660    8.059710
  C     15.501350   -1.026000    6.043660
  O     14.438010   -1.604240    5.948830
  H     -2.845270  -11.198840  -13.457100
  H     -3.090530  -10.785910  -15.873440
  H     -1.818570   -8.977050  -16.958250
  H     -0.293720   -7.565300  -15.637490
  H      0.727120   -6.972610  -13.519250
  H     -1.811570  -10.636760  -11.280990
  H      1.327910   -8.744870   -7.514390
  H      3.965340   -7.203010   -9.946330
  H      7.070910   -5.789550   -2.723480
  H     13.775320   -2.775590   -9.798290
  H     11.763320   -3.828940  -10.746520
  H     13.763830   -2.485220   -3.848890
  H     13.768900   -2.156000    4.157880
  H     17.144440   -0.434550    3.013720
  H     14.609020   -1.061540    8.727020
  H     14.859180   -0.553020   11.142060
  H     16.164810    0.418060   12.992390
  H     18.345590    1.474300   12.550900
  H     19.240540    1.567180   10.258840
  H     19.034440    1.079110    7.903140

 Total Charge           Charge          ....    0
 Multiplicity           Mult            ....    1
 Number of Electrons    NEL             ....  602
 Basis Dimension        Dim             .... 1242

ORBITAL ENERGIES
----------------

  NO   OCC          E(Eh)            E(eV)
   0   2.0000    -101.606152     -2764.8440
   1   2.0000    -101.605397     -2764.8234
   2   2.0000    -101.604741     -2764.8056
   3   2.0000    -101.597707     -2764.6142
   4   2.0000     -89.005185     -2421.9542
   5   2.0000     -88.978832     -2421.2371
   6   2.0000     -88.976144     -2421.1640
   7   2.0000     -88.972886     -2421.0753
   8   2.0000     -88.970066     -2420.9986
   9   2.0000     -19.232379      -523.3396
  10   2.0000     -19.232282      -523.3370
  11   2.0000     -19.217795      -522.9428
  12   2.0000     -19.212122      -522.7884
  13   2.0000     -14.457066      -393.3968
  14   2.0000     -14.455303      -393.3488
  15   2.0000     -14.414899      -392.2493
  16   2.0000     -14.413863      -392.2212
  17   2.0000     -14.412616      -392.1872
  18   2.0000     -14.411325      -392.1521
  19   2.0000     -10.381795      -282.5030
  20   2.0000     -10.381188      -282.4865
  21   2.0000     -10.368691      -282.1464
  22   2.0000     -10.363340      -282.0008
  23   2.0000     -10.348048      -281.5847
  24   2.0000     -10.347746      -281.5765
  25   2.0000     -10.345301      -281.5099
  26   2.0000     -10.341362      -281.4028
  27   2.0000     -10.341357      -281.4026
  28   2.0000     -10.341309      -281.4013
  29   2.0000     -10.341014      -281.3933
  30   2.0000     -10.340895      -281.3901
  31   2.0000     -10.340546      -281.3806
  32   2.0000     -10.340310      -281.3741
  33   2.0000     -10.340045      -281.3669
  34   2.0000     -10.339482      -281.3516
  35   2.0000     -10.338853      -281.3345
  36   2.0000     -10.338030      -281.3121
  37   2.0000     -10.337884      -281.3081
  38   2.0000     -10.333455      -281.1876
  39   2.0000     -10.332288      -281.1558
  40   2.0000     -10.328886      -281.0633
  41   2.0000     -10.325283      -280.9652
  42   2.0000     -10.324378      -280.9406
  43   2.0000     -10.324121      -280.9336
  44   2.0000     -10.320530      -280.8359
  45   2.0000     -10.318255      -280.7740
  46   2.0000     -10.317735      -280.7598
  47   2.0000     -10.316505      -280.7264
  48   2.0000     -10.316362      -280.7225
  49   2.0000     -10.314704      -280.6774
  50   2.0000     -10.313889      -280.6552
  51   2.0000     -10.313668      -280.6492
  52   2.0000     -10.313186      -280.6361
  53   2.0000     -10.302165      -280.3362
  54   2.0000     -10.300752      -280.2977
  55   2.0000     -10.300524      -280.2915
  56   2.0000     -10.299171      -280.2547
  57   2.0000     -10.298903      -280.2474
  58   2.0000     -10.296673      -280.1867
  59   2.0000     -10.296608      -280.1849
  60   2.0000     -10.296192      -280.1736
  61   2.0000     -10.296176      -280.1732
  62   2.0000     -10.295903      -280.1658
  63   2.0000     -10.295569      -280.1567
  64   2.0000     -10.295303      -280.1494
  65   2.0000     -10.294858      -280.1373
  66   2.0000     -10.294672      -280.1323
  67   2.0000     -10.292620      -280.0764
  68   2.0000     -10.292477      -280.0725
  69   2.0000     -10.287743      -279.9437
  70   2.0000     -10.286276      -279.9038
  71   2.0000     -10.285463      -279.8817
  72   2.0000     -10.285436      -279.8809
  73   2.0000     -10.284995      -279.8689
  74   2.0000     -10.284903      -279.8665
  75   2.0000     -10.284772      -279.8629
  76   2.0000     -10.284565      -279.8572
  77   2.0000     -10.284249      -279.8486
  78   2.0000     -10.284053      -279.8433
  79   2.0000      -9.560962      -260.1670
  80   2.0000      -9.560118      -260.1440
  81   2.0000      -9.559609      -260.1302
  82   2.0000      -9.552277      -259.9307
  83   2.0000      -8.099549      -220.3999
  84   2.0000      -8.073758      -219.6981
  85   2.0000      -8.070959      -219.6220
  86   2.0000      -8.067789      -219.5357
  87   2.0000      -8.063538      -219.4200
  88   2.0000      -7.331047      -199.4879
  89   2.0000      -7.330264      -199.4666
  90   2.0000      -7.329660      -199.4502
  91   2.0000      -7.322435      -199.2536
  92   2.0000      -7.321011      -199.2148
  93   2.0000      -7.320990      -199.2143
  94   2.0000      -7.320224      -199.1934
  95   2.0000      -7.320036      -199.1883
  96   2.0000      -7.319690      -199.1789
  97   2.0000      -7.319630      -199.1772
  98   2.0000      -7.312332      -198.9787
  99   2.0000      -7.312219      -198.9756
 100   2.0000      -6.068602      -165.1351
 101   2.0000      -6.064476      -165.0228
 102   2.0000      -6.062302      -164.9636
 103   2.0000      -6.043366      -164.4483
 104   2.0000      -6.040366      -164.3667
 105   2.0000      -6.038966      -164.3286
 106   2.0000      -6.037227      -164.2813
 107   2.0000      -6.036057      -164.2495
 108   2.0000      -6.035374      -164.2309
 109   2.0000      -6.033201      -164.1717
 110   2.0000      -6.032882      -164.1631
 111   2.0000      -6.032867      -164.1627
 112   2.0000      -6.029699      -164.0764
 113   2.0000      -6.028597      -164.0465
 114   2.0000      -6.025165      -163.9531
 115   2.0000      -1.149415       -31.2772
 116   2.0000      -1.144740       -31.1500
 117   2.0000      -1.132735       -30.8233
 118   2.0000      -1.127669       -30.6854
 119   2.0000      -1.107602       -30.1394
 120   2.0000      -1.037525       -28.2325
 121   2.0000      -1.035221       -28.1698
 122   2.0000      -1.029941       -28.0261
 123   2.0000      -1.018591       -27.7173
 124   2.0000      -1.016692       -27.6656
 125   2.0000      -1.015419       -27.6310
 126   2.0000      -1.008118       -27.4323
 127   2.0000      -1.001638       -27.2559
 128   2.0000      -0.997166       -27.1343
 129   2.0000      -0.996442       -27.1146
 130   2.0000      -0.991415       -26.9778
 131   2.0000      -0.991350       -26.9760
 132   2.0000      -0.972063       -26.4512
 133   2.0000      -0.970805       -26.4169
 134   2.0000      -0.967745       -26.3337
 135   2.0000      -0.963097       -26.2072
 136   2.0000      -0.957781       -26.0625
 137   2.0000      -0.952873       -25.9290
 138   2.0000      -0.944154       -25.6917
 139   2.0000      -0.923600       -25.1324
 140   2.0000      -0.923093       -25.1186
 141   2.0000      -0.909356       -24.7448
 142   2.0000      -0.904821       -24.6214
 143   2.0000      -0.896219       -24.3874
 144   2.0000      -0.886638       -24.1266
 145   2.0000      -0.880658       -23.9639
 146   2.0000      -0.880308       -23.9544
 147   2.0000      -0.879298       -23.9269
 148   2.0000      -0.875787       -23.8314
 149   2.0000      -0.863362       -23.4933
 150   2.0000      -0.853676       -23.2297
 151   2.0000      -0.833955       -22.6931
 152   2.0000      -0.832844       -22.6628
 153   2.0000      -0.830521       -22.5996
 154   2.0000      -0.827085       -22.5061
 155   2.0000      -0.826711       -22.4960
 156   2.0000      -0.826123       -22.4800
 157   2.0000      -0.817482       -22.2448
 158   2.0000      -0.809574       -22.0296
 159   2.0000      -0.796718       -21.6798
 160   2.0000      -0.792783       -21.5727
 161   2.0000      -0.782201       -21.2848
 162   2.0000      -0.770182       -20.9577
 163   2.0000      -0.760955       -20.7067
 164   2.0000      -0.758527       -20.6406
 165   2.0000      -0.746721       -20.3193
 166   2.0000      -0.736423       -20.0391
 167   2.0000      -0.721031       -19.6203
 168   2.0000      -0.719640       -19.5824
 169   2.0000      -0.704959       -19.1829
 170   2.0000      -0.703124       -19.1330
 171   2.0000      -0.699568       -19.0362
 172   2.0000      -0.696522       -18.9533
 173   2.0000      -0.689540       -18.7633
 174   2.0000      -0.684256       -18.6196
 175   2.0000      -0.681895       -18.5553
 176   2.0000      -0.675695       -18.3866
 177   2.0000      -0.674297       -18.3486
 178   2.0000      -0.670467       -18.2443
 179   2.0000      -0.666026       -18.1235
 180   2.0000      -0.656541       -17.8654
 181   2.0000      -0.650183       -17.6924
 182   2.0000      -0.643330       -17.5059
 183   2.0000      -0.635966       -17.3055
 184   2.0000      -0.630669       -17.1614
 185   2.0000      -0.629542       -17.1307
 186   2.0000      -0.624810       -17.0019
 187   2.0000      -0.622956       -16.9515
 188   2.0000      -0.609294       -16.5797
 189   2.0000      -0.606439       -16.5020
 190   2.0000      -0.605486       -16.4761
 191   2.0000      -0.604872       -16.4594
 192   2.0000      -0.601708       -16.3733
 193   2.0000      -0.597276       -16.2527
 194   2.0000      -0.593582       -16.1522
 195   2.0000      -0.582365       -15.8470
 196   2.0000      -0.577400       -15.7119
 197   2.0000      -0.574643       -15.6368
 198   2.0000      -0.571482       -15.5508
 199   2.0000      -0.568830       -15.4787
 200   2.0000      -0.565136       -15.3781
 201   2.0000      -0.556738       -15.1496
 202   2.0000      -0.548511       -14.9257
 203   2.0000      -0.548109       -14.9148
 204   2.0000      -0.546445       -14.8695
 205   2.0000      -0.545919       -14.8552
 206   2.0000      -0.544110       -14.8060
 207   2.0000      -0.539726       -14.6867
 208   2.0000      -0.538952       -14.6656
 209   2.0000      -0.537754       -14.6330
 210   2.0000      -0.534169       -14.5355
 211   2.0000      -0.532808       -14.4985
 212   2.0000      -0.532027       -14.4772
 213   2.0000      -0.529976       -14.4214
 214   2.0000      -0.528388       -14.3782
 215   2.0000      -0.527258       -14.3474
 216   2.0000      -0.523676       -14.2499
 217   2.0000      -0.522092       -14.2068
 218   2.0000      -0.519742       -14.1429
 219   2.0000      -0.516768       -14.0620
 220   2.0000      -0.516107       -14.0440
 221   2.0000      -0.514170       -13.9913
 222   2.0000      -0.511841       -13.9279
 223   2.0000      -0.511343       -13.9144
 224   2.0000      -0.510056       -13.8793
 225   2.0000      -0.508204       -13.8289
 226   2.0000      -0.505655       -13.7596
 227   2.0000      -0.504589       -13.7306
 228   2.0000      -0.502641       -13.6776
 229   2.0000      -0.499629       -13.5956
 230   2.0000      -0.498531       -13.5657
 231   2.0000      -0.496056       -13.4984
 232   2.0000      -0.495201       -13.4751
 233   2.0000      -0.493393       -13.4259
 234   2.0000      -0.490943       -13.3592
 235   2.0000      -0.488764       -13.2999
 236   2.0000      -0.484568       -13.1858
 237   2.0000      -0.483613       -13.1598
 238   2.0000      -0.478304       -13.0153
 239   2.0000      -0.473528       -12.8853
 240   2.0000      -0.465913       -12.6781
 241   2.0000      -0.464829       -12.6486
 242   2.0000      -0.463959       -12.6250
 243   2.0000      -0.463466       -12.6116
 244   2.0000      -0.462377       -12.5819
 245   2.0000      -0.459802       -12.5119
 246   2.0000      -0.456956       -12.4344
 247   2.0000      -0.456285       -12.4162
 248   2.0000      -0.448112       -12.1937
 249   2.0000      -0.447310       -12.1719
 250   2.0000      -0.446600       -12.1526
 251   2.0000      -0.443649       -12.0723
 252   2.0000      -0.442589       -12.0435
 253   2.0000      -0.442162       -12.0318
 254   2.0000      -0.441162       -12.0046
 255   2.0000      -0.438606       -11.9351
 256   2.0000      -0.438452       -11.9309
 257   2.0000      -0.438240       -11.9251
 258   2.0000      -0.431833       -11.7508
 259   2.0000      -0.431781       -11.7494
 260   2.0000      -0.430520       -11.7150
 261   2.0000      -0.428866       -11.6700
 262   2.0000      -0.425469       -11.5776
 263   2.0000      -0.424724       -11.5573
 264   2.0000      -0.423699       -11.5294
 265   2.0000      -0.419113       -11.4046
 266   2.0000      -0.417229       -11.3534
 267   2.0000      -0.415827       -11.3152
 268   2.0000      -0.411440       -11.1959
 269   2.0000      -0.408587       -11.1182
 270   2.0000      -0.407755       -11.0956
 271   2.0000      -0.403007       -10.9664
 272   2.0000      -0.400690       -10.9033
 273   2.0000      -0.390118       -10.6157
 274   2.0000      -0.387994       -10.5579
 275   2.0000      -0.386018       -10.5041
 276   2.0000      -0.380151       -10.3444
 277   2.0000      -0.377885       -10.2828
 278   2.0000      -0.377258       -10.2657
 279   2.0000      -0.374553       -10.1921
 280   2.0000      -0.374339       -10.1863
 281   2.0000      -0.369228       -10.0472
 282   2.0000      -0.363544        -9.8925
 283   2.0000      -0.356144        -9.6912
 284   2.0000      -0.352436        -9.5903
 285   2.0000      -0.352269        -9.5857
 286   2.0000      -0.339999        -9.2518
 287   2.0000      -0.338279        -9.2050
 288   2.0000      -0.337608        -9.1868
 289   2.0000      -0.334002        -9.0887
 290   2.0000      -0.331671        -9.0252
 291   2.0000      -0.328055        -8.9268
 292   2.0000      -0.324528        -8.8309
 293   2.0000      -0.319838        -8.7032
 294   2.0000      -0.316298        -8.6069
 295   2.0000      -0.314613        -8.5610
 296   2.0000      -0.302912        -8.2426
 297   2.0000      -0.293855        -7.9962
 298   2.0000      -0.291072        -7.9205
 299   2.0000      -0.271040        -7.3754
 300   2.0000      -0.239204        -6.5091
 301   0.0000      -0.116111        -3.1595
 302   0.0000      -0.098513        -2.6807
 303   0.0000      -0.089140        -2.4256
 304   0.0000      -0.087800        -2.3891
 305   0.0000      -0.057976        -1.5776

MULLIKEN ATOMIC CHARGES
-----------------------
   0 C :   -0.015419
   1 C :    0.034857
   2 C :    0.034593
   3 C :   -0.017758
   4 C :    0.095083
   5 C :   -0.082785
   6 C :    0.036288
   7 C :    0.014979
   8 C :   -0.081251
   9 C :    0.093074
  10 C :    0.135587
  11 O :   -0.144402
  12 C :   -0.134755
  13 C :    0.264094
  14 C :   -0.336936
  15 C :   -0.202592
  16 N :    0.175627
  17 C :   -0.172971
  18 N :    0.151613
  19 C :    0.094082
  20 C :   -0.103266
  21 C :    0.049443
  22 C :    0.047399
  23 Cl:   -0.030983
  24 C :   -0.078283
  25 S :    0.176340
  26 C :   -0.078035
  27 C :    0.080846
  28 Cl:   -0.058775
  29 C :   -0.032803
  30 C :   -0.058472
  31 S :    0.205123
  32 C :   -0.091653
  33 C :    0.001958
  34 C :    0.044831
  35 N :    0.064334
  36 C :   -0.119678
  37 C :    0.142407
  38 O :   -0.104198
  39 C :   -0.013691
  40 C :   -0.022661
  41 C :    0.145696
  42 O :   -0.108597
  43 C :   -0.113877
  44 N :    0.042476
  45 C :   -0.107361
  46 S :    0.221646
  47 C :   -0.066920
  48 C :   -0.021832
  49 C :    0.082488
  50 Cl:   -0.041563
  51 C :   -0.088807
  52 S :    0.142576
  53 C :   -0.073830
  54 C :    0.054463
  55 Cl:   -0.056538
  56 C :    0.022670
  57 C :   -0.100163
  58 S :    0.175307
  59 C :    0.057709
  60 C :   -0.090779
  61 C :    0.328273
  62 C :   -0.367902
  63 C :   -0.184134
  64 N :    0.148177
  65 C :   -0.185059
  66 N :    0.149169
  67 C :    0.048325
  68 C :   -0.004921
  69 C :   -0.080436
  70 C :    0.098117
  71 C :   -0.013887
  72 C :    0.034211
  73 C :    0.037600
  74 C :   -0.018183
  75 C :    0.094162
  76 C :   -0.079585
  77 C :    0.161513
  78 O :   -0.159822
  79 H :   -0.017359
  80 H :   -0.005115
  81 H :   -0.004091
  82 H :   -0.010708
  83 H :   -0.005545
  84 H :   -0.011981
  85 H :    0.023943
  86 H :   -0.003245
  87 H :   -0.012901
  88 H :    0.020545
  89 H :    0.021279
  90 H :    0.010900
  91 H :    0.014168
  92 H :    0.002917
  93 H :   -0.015279
  94 H :   -0.018597
  95 H :   -0.005666
  96 H :   -0.005264
  97 H :   -0.009893
  98 H :   -0.009679
Sum of atomic charges:   -0.0000000

LOEWDIN ATOMIC CHARGES
----------------------
   0 C :   -0.009373
   1 C :   -0.013509
   2 C :   -0.013524
   3 C :   -0.006517
   4 C :   -0.005598
   5 C :    0.015038
   6 C :   -0.022851
   7 C :   -0.057056
   8 C :    0.032429
   9 C :   -0.009415
  10 C :    0.082974
  11 O :   -0.144168
  12 C :   -0.091588
  13 C :    0.065740
  14 C :   -0.140122
  15 C :   -0.019647
  16 N :   -0.041200
  17 C :   -0.019328
  18 N :   -0.052839
  19 C :    0.047620
  20 C :   -0.187272
  21 C :   -0.031801
  22 C :   -0.165466
  23 Cl:    0.183838
  24 C :   -0.189445
  25 S :    0.474360
  26 C :   -0.209882
  27 C :   -0.165566
  28 Cl:    0.164005
  29 C :   -0.067580
  30 C :   -0.187330
  31 S :    0.507805
  32 C :   -0.185705
  33 C :   -0.052988
  34 C :   -0.040469
  35 N :    0.008220
  36 C :   -0.038840
  37 C :    0.056367
  38 O :   -0.099613
  39 C :   -0.011527
  40 C :   -0.011413
  41 C :    0.056823
  42 O :   -0.104090
  43 C :   -0.039665
  44 N :   -0.003727
  45 C :   -0.190194
  46 S :    0.510369
  47 C :   -0.184912
  48 C :   -0.050053
  49 C :   -0.157510
  50 Cl:    0.177762
  51 C :   -0.211490
  52 S :    0.439720
  53 C :   -0.186901
  54 C :   -0.177583
  55 Cl:    0.165029
  56 C :   -0.023746
  57 C :   -0.184746
  58 S :    0.473558
  59 C :    0.047275
  60 C :   -0.094775
  61 C :    0.077205
  62 C :   -0.142700
  63 C :   -0.016429
  64 N :   -0.056083
  65 C :   -0.024507
  66 N :   -0.051908
  67 C :   -0.026209
  68 C :   -0.055371
  69 C :    0.031460
  70 C :   -0.008534
  71 C :   -0.009918
  72 C :   -0.012713
  73 C :   -0.013756
  74 C :   -0.005096
  75 C :   -0.006372
  76 C :    0.019660
  77 C :    0.088901
  78 O :   -0.144475
  79 H :    0.031789
  80 H :    0.032616
  81 H :    0.033166
  82 H :    0.034260
  83 H :    0.038525
  84 H :    0.039287
  85 H :    0.046303
  86 H :    0.036722
  87 H :    0.031700
  88 H :    0.046911
  89 H :    0.046939
  90 H :    0.041509
  91 H :    0.037586
  92 H :    0.042904
  93 H :    0.038134
  94 H :    0.031500
  95 H :    0.032564
  96 H :    0.033049
  97 H :    0.034667
  98 H :    0.038807

  Mayer bond orders larger than 0.100000
B(  0-C ,  1-C ) :   1.4891 B(  0-C ,  9-C ) :   1.2449 B(  0-C , 79-H ) :   0.9979
B(  1-C ,  2-C ) :   1.2608 B(  1-C , 80-H ) :   0.9890 B(  2-C ,  3-C ) :   1.4897
B(  2-C , 81-H ) :   0.9882 B(  3-C ,  4-C ) :   1.2407 B(  3-C , 82-H ) :   0.9977
B(  4-C ,  5-C ) :   1.2031 B(  4-C ,  9-C ) :   1.2582 B(  5-C ,  6-C ) :   1.4588
B(  5-C , 83-H ) :   0.9940 B(  6-C ,  7-C ) :   1.2146 B(  6-C , 13-C ) :   0.9983
B(  7-C ,  8-C ) :   1.4753 B(  7-C , 10-C ) :   0.9210 B(  8-C ,  9-C ) :   1.1830
B(  8-C , 84-H ) :   1.0164 B( 10-C , 11-O ) :   2.2660 B( 10-C , 12-C ) :   0.9383
B( 12-C , 13-C ) :   1.0388 B( 12-C , 19-C ) :   1.6722 B( 13-C , 14-C ) :   1.6487
B( 14-C , 15-C ) :   1.1650 B( 14-C , 17-C ) :   1.1305 B( 15-C , 16-N ) :   3.0056
B( 17-C , 18-N ) :   2.9869 B( 19-C , 20-C ) :   1.1230 B( 19-C , 85-H ) :   0.9265
B( 20-C , 21-C ) :   1.4189 B( 20-C , 25-S ) :   1.0936 B( 21-C , 22-C ) :   1.3294
B( 21-C , 86-H ) :   0.9986 B( 22-C , 23-Cl) :   1.0566 B( 22-C , 24-C ) :   1.4243
B( 24-C , 25-S ) :   1.1534 B( 24-C , 26-C ) :   1.2014 B( 26-C , 27-C ) :   1.4280
B( 26-C , 31-S ) :   1.0985 B( 27-C , 28-Cl) :   1.0309 B( 27-C , 29-C ) :   1.3084
B( 29-C , 30-C ) :   1.3921 B( 29-C , 87-H ) :   1.0090 B( 30-C , 31-S ) :   1.1256
B( 30-C , 32-C ) :   1.2331 B( 32-C , 33-C ) :   1.3170 B( 32-C , 45-C ) :   0.1337
B( 32-C , 46-S ) :   1.1588 B( 33-C , 34-C ) :   1.1857 B( 33-C , 44-N ) :   1.4222
B( 34-C , 35-N ) :   1.4343 B( 34-C , 45-C ) :   1.3660 B( 35-N , 36-C ) :   1.7181
B( 36-C , 37-C ) :   0.8948 B( 36-C , 43-C ) :   1.0969 B( 37-C , 38-O ) :   2.2343
B( 37-C , 39-C ) :   1.0259 B( 39-C , 40-C ) :   1.6777 B( 39-C , 88-H ) :   0.9986
B( 40-C , 41-C ) :   1.0218 B( 40-C , 89-H ) :   0.9992 B( 41-C , 42-O ) :   2.2419
B( 41-C , 43-C ) :   0.8963 B( 43-C , 44-N ) :   1.6996 B( 45-C , 46-S ) :   1.1565
B( 45-C , 47-C ) :   1.1871 B( 47-C , 48-C ) :   1.4581 B( 47-C , 51-C ) :   0.1016
B( 47-C , 52-S ) :   1.0896 B( 48-C , 49-C ) :   1.2606 B( 48-C , 90-H ) :   1.0023
B( 49-C , 50-Cl) :   1.0508 B( 49-C , 51-C ) :   1.4385 B( 51-C , 52-S ) :   1.1190
B( 51-C , 53-C ) :   1.1992 B( 53-C , 54-C ) :   1.4009 B( 53-C , 58-S ) :   1.1652
B( 54-C , 55-Cl) :   1.0411 B( 54-C , 56-C ) :   1.2938 B( 56-C , 57-C ) :   1.4082
B( 56-C , 91-H ) :   0.9849 B( 57-C , 58-S ) :   1.0801 B( 57-C , 59-C ) :   1.2232
B( 59-C , 60-C ) :   1.5876 B( 59-C , 92-H ) :   0.9061 B( 60-C , 61-C ) :   1.0829
B( 60-C , 77-C ) :   0.9355 B( 61-C , 62-C ) :   1.6133 B( 61-C , 67-C ) :   0.9801
B( 62-C , 63-C ) :   1.1543 B( 62-C , 65-C ) :   1.1399 B( 63-C , 64-N ) :   2.9612
B( 65-C , 66-N ) :   2.9609 B( 67-C , 68-C ) :   1.2156 B( 67-C , 76-C ) :   1.4484
B( 68-C , 69-C ) :   1.4710 B( 68-C , 77-C ) :   0.9571 B( 69-C , 70-C ) :   1.1770
B( 69-C , 93-H ) :   1.0156 B( 70-C , 71-C ) :   1.2446 B( 70-C , 75-C ) :   1.2553
B( 71-C , 72-C ) :   1.4880 B( 71-C , 94-H ) :   0.9972 B( 72-C , 73-C ) :   1.2590
B( 72-C , 95-H ) :   0.9891 B( 73-C , 74-C ) :   1.4903 B( 73-C , 96-H ) :   0.9886
B( 74-C , 75-C ) :   1.2404 B( 74-C , 97-H ) :   0.9964 B( 75-C , 76-C ) :   1.2077
B( 76-C , 98-H ) :   0.9882 B( 77-C , 78-O ) :   2.1607

-----------------------------------------------------------------------------
         ABSORPTION SPECTRUM VIA TRANSITION ELECTRIC DIPOLE MOMENTS
-----------------------------------------------------------------------------
State   Energy  Wavelength   fosc         T2         TX        TY        TZ
        (cm-1)    (nm)                  (au**2)     (au)      (au)      (au)
-----------------------------------------------------------------------------
   0   11549.8    865.8   1.321014323  37.65391  -4.31035  -2.01017  -3.87737
   1   16246.6    615.5   0.193574005   3.92247  -0.58214   0.10418   1.89017
   2   18712.6    534.4   1.023742081  18.01073   2.63607   0.75874   3.23823
   3   19451.3    514.1   0.222477626   3.76542  -0.67751  -0.89054  -1.58535
   4   20439.8    489.2   0.024195524   0.38970   0.42443   0.15669  -0.43012
   5   24491.5    408.3   0.002009572   0.02701  -0.03199   0.15302   0.05074
   6   24849.1    402.4   0.115138291   1.52540   0.57451   0.00788   1.09329
   7   25739.4    388.5   0.000051362   0.00066   0.01624   0.01865   0.00675
   8   25892.3    386.2   0.028326952   0.36017  -0.46359  -0.17042   0.34090
   9   26132.2    382.7   0.078029421   0.98301   0.57159   0.25773   0.76803
  10   26550.0    376.6   0.000571167   0.00708  -0.05456   0.02967  -0.05679
  11   26615.4    375.7   0.252420763   3.12225   0.81430   0.99689   1.21053
  12   27077.1    369.3   0.102248285   1.24317  -0.33694  -0.03724  -1.06219
  13   27230.2    367.2   0.136283875   1.64767  -0.87333  -0.69759   0.63114
  14   27982.1    357.4   0.036979584   0.43507  -0.18892   0.17175   0.60818
  15   28065.4    356.3   0.011626363   0.13638   0.15138   0.24829  -0.22763
  16   28217.0    354.4   0.101019364   1.17861  -0.53670   0.01076  -0.94364
  17   28602.7    349.6   0.012132706   0.13965   0.02054   0.05863   0.36849
  18   28795.9    347.3   0.201969345   2.30903  -1.14362  -0.66920  -0.74387
  19   29214.3    342.3   0.044125138   0.49724   0.28811   0.11899  -0.63251
  20   29614.6    337.7   0.073795993   0.82036  -0.24329  -0.24445  -0.83750
  21   29661.9    337.1   0.124085917   1.37721   1.07828   0.44777   0.11838
  22   30000.5    333.3   0.016454384   0.18056  -0.33035   0.08521   0.25331
  23   30365.5    329.3   0.000239990   0.00260  -0.01320   0.04774   0.01217
  24   30647.0    326.3   0.003695601   0.03970   0.17703  -0.02768  -0.08713
  25   31467.2    317.8   0.003543211   0.03707  -0.09759  -0.15846   0.04936
  26   31692.7    315.5   0.052402278   0.54433   0.48278   0.28027   0.48239
  27   32133.3    311.2   0.022042184   0.22583   0.31105   0.24520   0.26258
  28   32416.2    308.5   0.137176566   1.39314  -0.17925  -0.52546  -1.04158
  29   32578.9    306.9   0.301645999   3.04816  -0.56509   0.03083   1.65163
  30   33002.3    303.0   0.198702719   1.98215   0.98427   0.72280  -0.70066
  31   33526.0    298.3   0.433573840   4.25752   0.47787   1.10717   1.67431
  32   33542.6    298.1   0.063683739   0.62504   0.46876   0.31232  -0.55476
  33   33652.3    297.2   0.001558551   0.01525   0.00484   0.00738  -0.12316
  34   34126.1    293.0   0.015481506   0.14935   0.10854   0.11654   0.35212
  35   34158.4    292.8   0.019214433   0.18518  -0.34290  -0.21193  -0.15064
  36   34227.0    292.2   0.006610028   0.06358   0.07798   0.03678  -0.23695
  37   34397.3    290.7   0.004998813   0.04784  -0.07218   0.13568  -0.15564
  38   34555.0    289.4   0.343502947   3.27262  -0.66165  -0.50081  -1.60749
  39   34682.9    288.3   0.006374535   0.06051   0.18246  -0.02901  -0.16240
  40   34830.7    287.1   0.000759721   0.00718  -0.04302   0.04807   0.05495
  41   35237.7    283.8   0.082786365   0.77344   0.21774  -0.01526  -0.85194
  42   35388.7    282.6   0.014873670   0.13837   0.29998   0.21264  -0.05627
  43   35523.8    281.5   0.137677227   1.27590  -0.66769  -0.30617   0.85811
  44   35777.9    279.5   0.152947918   1.40736   0.73517   0.63281   0.68296
  45   36056.7    277.3   0.014635406   0.13363   0.30779   0.14170   0.13716
  46   36227.6    276.0   0.194190514   1.76467   0.30150   0.45504   1.21108
  47   36273.5    275.7   0.003711280   0.03368  -0.04955  -0.06232  -0.16536
  48   36357.6    275.0   0.067432657   0.61059   0.23216   0.06507  -0.74328
  49   36613.6    273.1   0.059899818   0.53859   0.41340   0.24786  -0.55341
  50   36772.2    271.9   0.017724496   0.15868   0.09983  -0.07517  -0.37824
  51   36812.0    271.7   0.030597098   0.27363  -0.20534  -0.39996   0.26739
  52   37052.2    269.9   0.095511568   0.84863  -0.06856  -0.59653  -0.69863
  53   37271.9    268.3   0.023858122   0.21073   0.41387   0.05627   0.19047
  54   37288.3    268.2   0.031059900   0.27422  -0.12701  -0.01581   0.50778
  55   37579.9    266.1   0.136488105   1.19568   0.88479   0.49459  -0.41013
  56   37816.9    264.4   0.179291807   1.56081   0.67135   0.43533  -0.95947
  57   37987.8    263.2   0.093483913   0.81016   0.38649   0.22461  -0.78124
  58   38130.9    262.3   0.019485858   0.16824   0.11829   0.17602  -0.35108
  59   38526.5    259.6   0.004708314   0.04023  -0.12573  -0.15552  -0.01544
  60   38971.3    256.6   0.076433255   0.64567  -0.55367  -0.58201   0.01964
  61   39177.0    255.3   0.028051650   0.23572   0.47764   0.02603  -0.08312
  62   39345.2    254.2   0.002129209   0.01782  -0.12381   0.02842  -0.04098
  63   39379.2    253.9   0.023831745   0.19923  -0.39665  -0.13792  -0.15126
  64   39556.5    252.8   0.033972422   0.28274   0.38139   0.34749  -0.12859
  65   39870.5    250.8   0.006282087   0.05187   0.10244  -0.07552   0.18887
  66   39891.1    250.7   0.007334782   0.06053   0.12490   0.06152   0.20285
  67   39957.3    250.3   0.002633010   0.02169  -0.06346   0.11404  -0.06827
  68   40054.7    249.7   0.001005101   0.00826   0.06135   0.05019  -0.04448

FINAL SINGLE POINT ENERGY     -6754.660710306904

DIPOLE MOMENT
-------------
                                X             Y             Z
Electronic contribution:     13.13391       0.29408      -3.90614
Nuclear contribution   :    -14.76149      -2.19664       4.12129
                        -----------------------------------------
Total Dipole Moment    :     -1.62758      -1.90256       0.21515
                        -----------------------------------------
Magnitude (a.u.)       :      2.51297
Magnitude (Debye)      :      6.38747

Rotational constants in cm-1:     0.001881     0.000149     0.000140
Rotational constants in MHz :    56.399149     4.477005     4.189760

                             ****ORCA TERMINATED NORMALLY****
TOTAL RUN TIME: 0 days 0 hours 12 minutes 4 seconds 145 msec
