                         Program Version 4.2.0 -  RELEASE  -
|  1> # ORCA input file
|  2> # SCF done       -210.622682363086          0.000907931347
|  3> ! CAM-B3LYP def2-SVP def2/J RIJCOSX Grid4 TightSCF
|  4> %maxcore 5000
|  5> %tddft
|  6>     Mode sTDDFT
|  7>     Ethresh 5.0
|  8>     maxcore 5000
|  9> end
| 10>
| 11> %pal
| 12>   nprocs 6
| 13>   end
| 14> * xyz 0 1
| 15>    C        0.90429         5.84428        -0.88104
| 16>    C       -0.26290         5.48095        -0.26574
| 17>    C       -0.46222         4.15568         0.14863
| 18>    C        0.50730         3.21223        -0.05778
| 19>    C        1.72045         3.55123        -0.69021
| 20>    C        2.72169         2.57773        -0.91418
| 21>    C        3.88627         2.94319        -1.53264
| 22>    C        4.09255         4.29719        -1.92823
| 23>    C        3.13991         5.25498        -1.73250
| 24>    C        1.92314         4.89833        -1.10845
| 25>    C        5.43735         4.43183        -2.51162
| 26>    O        5.94739         5.41144        -3.00597
| 27>    C        6.08694         3.10257        -2.31124
| 28>    C        5.06140         2.16381        -1.91174
| 29>    C        5.07308         0.80447        -2.09536
| 30>    C        6.14374         0.10262        -2.68013
| 31>    N        6.98776        -0.49533        -3.17905
| 32>    C        3.97490        -0.03393        -1.81129
| 33>    N        3.10986        -0.75857        -1.60297
| 34>    C        7.44165         3.02360        -2.43776
| 35>    C        8.33202         2.04552        -1.95007
| 36>    C        8.13116         1.07697        -0.97427
| 37>    C        9.27148         0.32401        -0.73889
| 38>    C       10.37073         0.72146        -1.53251
| 39>    S        9.98764         2.02765        -2.55308
| 40>    C       11.47603        -0.10285        -1.22396
| 41>    C       11.07217        -1.03389        -0.24196
| 42>    C        9.67633        -0.79816         0.08936
| 43>    C        8.89864        -1.48222         0.97702
| 44>    C        9.39183        -2.56245         1.73854
| 45>    N        9.78676        -3.43500         2.36868
| 46>    C        7.54856        -1.13229         1.19044
| 47>    N        6.45651        -0.82856         1.36461
| 48>    C       12.09593        -1.88750         0.14181
| 49>    C       13.28297        -1.60758        -0.52653
| 50>    S       13.12467        -0.27537        -1.65650
| 51>    C       14.53460        -2.24861        -0.34806
| 52>    C       15.68350        -1.78933        -1.03513
| 53>    C       16.98011        -2.35163        -0.81835
| 54>    N       18.03801        -1.85366        -1.48057
| 55>    C       17.86148        -0.86907        -2.31780
| 56>    C       16.58267        -0.31920        -2.53637
| 57>    N       15.53661        -0.77505        -1.90420
| 58>    C       17.19971        -3.42176         0.08178
| 59>    C       16.04841        -3.92167         0.73032
| 60>    C       14.73954        -3.33990         0.52516
| 61>    N       13.81044        -3.96127         1.25467
| 62>    S       14.49235        -5.13992         2.09765
| 63>    N       15.99994        -4.93430         1.59859
| 64>    C       18.50890        -3.91303         0.31668
| 65>    C       18.86889        -4.97930         1.13336
| 66>    C       20.24432        -5.15539         1.17735
| 67>    C       20.94305        -4.20953         0.39487
| 68>    S       19.89455        -3.12811        -0.42008
| 69>    C       22.32909        -4.44559         0.53203
| 70>    C       22.50843        -5.55177         1.40137
| 71>    C       21.20320        -6.03278         1.82726
| 72>    C       20.93293        -7.07424         2.66523
| 73>    C       21.95325        -7.85251         3.25205
| 74>    N       22.77618        -8.48707         3.73624
| 75>    C       19.61420        -7.44072         3.00870
| 76>    N       18.54681        -7.74475         3.29690
| 77>    C       23.84146        -5.84205         1.60936
| 78>    C       24.69565        -4.95963         0.93345
| 79>    S       23.79658        -3.75595         0.01005
| 80>    C       26.09169        -5.07165         1.02203
| 81>    C       27.07900        -4.26041         0.52392
| 82>    C       28.50770        -4.45350         0.69425
| 83>    C       29.14066        -5.56027         1.19807
| 84>    C       30.54097        -5.67931         1.32154
| 85>    N       31.67051        -5.83889         1.45008
| 86>    C       28.50664        -6.74197         1.63551
| 87>    N       28.06815        -7.74007         1.99714
| 88>    C       29.17569        -3.25985         0.18376
| 89>    C       28.18904        -2.38266        -0.35154
| 90>    C       28.51339        -1.17780        -0.90484
| 91>    C       29.86932        -0.78266        -0.94445
| 92>    C       30.26614         0.45056        -1.49723
| 93>    C       31.58547         0.81437        -1.52027
| 94>    C       32.56477        -0.03981        -0.99244
| 95>    C       32.21213        -1.24526        -0.44855
| 96>    C       30.86306        -1.65110        -0.40792
| 97>    C       30.49526        -2.89559         0.15518
| 98>    C       26.86350        -2.99251        -0.18467
| 99>    O       25.79818        -2.52540        -0.55397
|100>    H        1.06387         6.86339        -1.20180
|101>    H       -1.03821         6.21272        -0.09460
|102>    H       -1.38895         3.88556         0.63233
|103>    H        0.35724         2.18997         0.25672
|104>    H        2.54817         1.56768        -0.57721
|105>    H        3.31237         6.27344        -2.04740
|106>    H        7.89837         3.88129        -2.92336
|107>    H        7.20739         0.97074        -0.43566
|108>    H       12.02444        -2.67634         0.86798
|109>    H       18.73756        -0.50122        -2.83205
|110>    H       16.42000         0.49299        -3.23006
|111>    H       18.13722        -5.56729         1.65621
|112>    H       24.21607        -6.64305         2.22214
|113>    H       26.40924        -5.92782         1.60549
|114>    H       27.74505        -0.53263        -1.30453
|115>    H       29.50733         1.10426        -1.90203
|116>    H       31.88112         1.76206        -1.94491
|117>    H       33.60108         0.26192        -1.01855
|118>    H       32.96289        -1.90651        -0.04145
|119>    H       31.27226        -3.52669         0.55588
|120> *
|121>
|122>                          ****END OF INPUT****

CARTESIAN COORDINATES (ANGSTROEM)
---------------------------------
  C      0.904290    5.844280   -0.881040
  C     -0.262900    5.480950   -0.265740
  C     -0.462220    4.155680    0.148630
  C      0.507300    3.212230   -0.057780
  C      1.720450    3.551230   -0.690210
  C      2.721690    2.577730   -0.914180
  C      3.886270    2.943190   -1.532640
  C      4.092550    4.297190   -1.928230
  C      3.139910    5.254980   -1.732500
  C      1.923140    4.898330   -1.108450
  C      5.437350    4.431830   -2.511620
  O      5.947390    5.411440   -3.005970
  C      6.086940    3.102570   -2.311240
  C      5.061400    2.163810   -1.911740
  C      5.073080    0.804470   -2.095360
  C      6.143740    0.102620   -2.680130
  N      6.987760   -0.495330   -3.179050
  C      3.974900   -0.033930   -1.811290
  N      3.109860   -0.758570   -1.602970
  C      7.441650    3.023600   -2.437760
  C      8.332020    2.045520   -1.950070
  C      8.131160    1.076970   -0.974270
  C      9.271480    0.324010   -0.738890
  C     10.370730    0.721460   -1.532510
  S      9.987640    2.027650   -2.553080
  C     11.476030   -0.102850   -1.223960
  C     11.072170   -1.033890   -0.241960
  C      9.676330   -0.798160    0.089360
  C      8.898640   -1.482220    0.977020
  C      9.391830   -2.562450    1.738540
  N      9.786760   -3.435000    2.368680
  C      7.548560   -1.132290    1.190440
  N      6.456510   -0.828560    1.364610
  C     12.095930   -1.887500    0.141810
  C     13.282970   -1.607580   -0.526530
  S     13.124670   -0.275370   -1.656500
  C     14.534600   -2.248610   -0.348060
  C     15.683500   -1.789330   -1.035130
  C     16.980110   -2.351630   -0.818350
  N     18.038010   -1.853660   -1.480570
  C     17.861480   -0.869070   -2.317800
  C     16.582670   -0.319200   -2.536370
  N     15.536610   -0.775050   -1.904200
  C     17.199710   -3.421760    0.081780
  C     16.048410   -3.921670    0.730320
  C     14.739540   -3.339900    0.525160
  N     13.810440   -3.961270    1.254670
  S     14.492350   -5.139920    2.097650
  N     15.999940   -4.934300    1.598590
  C     18.508900   -3.913030    0.316680
  C     18.868890   -4.979300    1.133360
  C     20.244320   -5.155390    1.177350
  C     20.943050   -4.209530    0.394870
  S     19.894550   -3.128110   -0.420080
  C     22.329090   -4.445590    0.532030
  C     22.508430   -5.551770    1.401370
  C     21.203200   -6.032780    1.827260
  C     20.932930   -7.074240    2.665230
  C     21.953250   -7.852510    3.252050
  N     22.776180   -8.487070    3.736240
  C     19.614200   -7.440720    3.008700
  N     18.546810   -7.744750    3.296900
  C     23.841460   -5.842050    1.609360
  C     24.695650   -4.959630    0.933450
  S     23.796580   -3.755950    0.010050
  C     26.091690   -5.071650    1.022030
  C     27.079000   -4.260410    0.523920
  C     28.507700   -4.453500    0.694250
  C     29.140660   -5.560270    1.198070
  C     30.540970   -5.679310    1.321540
  N     31.670510   -5.838890    1.450080
  C     28.506640   -6.741970    1.635510
  N     28.068150   -7.740070    1.997140
  C     29.175690   -3.259850    0.183760
  C     28.189040   -2.382660   -0.351540
  C     28.513390   -1.177800   -0.904840
  C     29.869320   -0.782660   -0.944450
  C     30.266140    0.450560   -1.497230
  C     31.585470    0.814370   -1.520270
  C     32.564770   -0.039810   -0.992440
  C     32.212130   -1.245260   -0.448550
  C     30.863060   -1.651100   -0.407920
  C     30.495260   -2.895590    0.155180
  C     26.863500   -2.992510   -0.184670
  O     25.798180   -2.525400   -0.553970
  H      1.063870    6.863390   -1.201800
  H     -1.038210    6.212720   -0.094600
  H     -1.388950    3.885560    0.632330
  H      0.357240    2.189970    0.256720
  H      2.548170    1.567680   -0.577210
  H      3.312370    6.273440   -2.047400
  H      7.898370    3.881290   -2.923360
  H      7.207390    0.970740   -0.435660
  H     12.024440   -2.676340    0.867980
  H     18.737560   -0.501220   -2.832050
  H     16.420000    0.492990   -3.230060
  H     18.137220   -5.567290    1.656210
  H     24.216070   -6.643050    2.222140
  H     26.409240   -5.927820    1.605490
  H     27.745050   -0.532630   -1.304530
  H     29.507330    1.104260   -1.902030
  H     31.881120    1.762060   -1.944910
  H     33.601080    0.261920   -1.018550
  H     32.962890   -1.906510   -0.041450
  H     31.272260   -3.526690    0.555880

 Total Charge           Charge          ....    0
 Multiplicity           Mult            ....    1
 Number of Electrons    NEL             ....  596
 Basis Dimension        Dim             .... 1310

ORBITAL ENERGIES
----------------

  NO   OCC          E(Eh)            E(eV)
   0   2.0000     -89.051228     -2423.2071
   1   2.0000     -88.994657     -2421.6677
   2   2.0000     -88.988548     -2421.5015
   3   2.0000     -88.987276     -2421.4669
   4   2.0000     -88.986029     -2421.4330
   5   2.0000     -19.224166      -523.1162
   6   2.0000     -19.213081      -522.8145
   7   2.0000     -14.461493      -393.5172
   8   2.0000     -14.460889      -393.5008
   9   2.0000     -14.458933      -393.4476
  10   2.0000     -14.458538      -393.4368
  11   2.0000     -14.430704      -392.6794
  12   2.0000     -14.429235      -392.6394
  13   2.0000     -14.427675      -392.5970
  14   2.0000     -14.427351      -392.5882
  15   2.0000     -14.416019      -392.2798
  16   2.0000     -14.415119      -392.2553
  17   2.0000     -14.412664      -392.1885
  18   2.0000     -14.410972      -392.1425
  19   2.0000     -10.372031      -282.2373
  20   2.0000     -10.364419      -282.0302
  21   2.0000     -10.364351      -282.0283
  22   2.0000     -10.362239      -281.9708
  23   2.0000     -10.354947      -281.7724
  24   2.0000     -10.354632      -281.7639
  25   2.0000     -10.351934      -281.6904
  26   2.0000     -10.350774      -281.6589
  27   2.0000     -10.349993      -281.6376
  28   2.0000     -10.349741      -281.6308
  29   2.0000     -10.349201      -281.6161
  30   2.0000     -10.348850      -281.6065
  31   2.0000     -10.341550      -281.4079
  32   2.0000     -10.341365      -281.4028
  33   2.0000     -10.340685      -281.3843
  34   2.0000     -10.340327      -281.3746
  35   2.0000     -10.340013      -281.3661
  36   2.0000     -10.332261      -281.1551
  37   2.0000     -10.331085      -281.1231
  38   2.0000     -10.329421      -281.0778
  39   2.0000     -10.328609      -281.0557
  40   2.0000     -10.328265      -281.0464
  41   2.0000     -10.327981      -281.0387
  42   2.0000     -10.327604      -281.0284
  43   2.0000     -10.327368      -281.0220
  44   2.0000     -10.326942      -281.0104
  45   2.0000     -10.326392      -280.9954
  46   2.0000     -10.326336      -280.9939
  47   2.0000     -10.325238      -280.9640
  48   2.0000     -10.325138      -280.9613
  49   2.0000     -10.323684      -280.9217
  50   2.0000     -10.322928      -280.9011
  51   2.0000     -10.317705      -280.7590
  52   2.0000     -10.317128      -280.7433
  53   2.0000     -10.315846      -280.7084
  54   2.0000     -10.313497      -280.6445
  55   2.0000     -10.312232      -280.6101
  56   2.0000     -10.312108      -280.6067
  57   2.0000     -10.307219      -280.4737
  58   2.0000     -10.304553      -280.4011
  59   2.0000     -10.303867      -280.3825
  60   2.0000     -10.303849      -280.3820
  61   2.0000     -10.303614      -280.3756
  62   2.0000     -10.301127      -280.3079
  63   2.0000     -10.299290      -280.2579
  64   2.0000     -10.299260      -280.2571
  65   2.0000     -10.299117      -280.2532
  66   2.0000     -10.298990      -280.2498
  67   2.0000     -10.298741      -280.2430
  68   2.0000     -10.298659      -280.2408
  69   2.0000     -10.297894      -280.2199
  70   2.0000     -10.297287      -280.2034
  71   2.0000     -10.295669      -280.1594
  72   2.0000     -10.295498      -280.1548
  73   2.0000     -10.295228      -280.1474
  74   2.0000     -10.294209      -280.1197
  75   2.0000     -10.290547      -280.0200
  76   2.0000     -10.288367      -279.9607
  77   2.0000     -10.287868      -279.9471
  78   2.0000     -10.287449      -279.9357
  79   2.0000     -10.287244      -279.9301
  80   2.0000     -10.286672      -279.9146
  81   2.0000     -10.284641      -279.8593
  82   2.0000     -10.284157      -279.8461
  83   2.0000     -10.283759      -279.8353
  84   2.0000     -10.283122      -279.8180
  85   2.0000      -8.142219      -221.5610
  86   2.0000      -8.089457      -220.1253
  87   2.0000      -8.080836      -219.8907
  88   2.0000      -8.079485      -219.8540
  89   2.0000      -8.078331      -219.8226
  90   2.0000      -6.113259      -166.3502
  91   2.0000      -6.105339      -166.1347
  92   2.0000      -6.105217      -166.1314
  93   2.0000      -6.058560      -164.8618
  94   2.0000      -6.054460      -164.7502
  95   2.0000      -6.051981      -164.6828
  96   2.0000      -6.050243      -164.6355
  97   2.0000      -6.049109      -164.6046
  98   2.0000      -6.047888      -164.5714
  99   2.0000      -6.045478      -164.5058
 100   2.0000      -6.044198      -164.4710
 101   2.0000      -6.043450      -164.4506
 102   2.0000      -6.043060      -164.4400
 103   2.0000      -6.041978      -164.4106
 104   2.0000      -6.040870      -164.3804
 105   2.0000      -1.148243       -31.2453
 106   2.0000      -1.139416       -31.0051
 107   2.0000      -1.128378       -30.7047
 108   2.0000      -1.118371       -30.4324
 109   2.0000      -1.049004       -28.5448
 110   2.0000      -1.044929       -28.4340
 111   2.0000      -1.040982       -28.3266
 112   2.0000      -1.021919       -27.8078
 113   2.0000      -1.019381       -27.7388
 114   2.0000      -1.017780       -27.6952
 115   2.0000      -1.016960       -27.6729
 116   2.0000      -1.007634       -27.4191
 117   2.0000      -1.005606       -27.3639
 118   2.0000      -1.004829       -27.3428
 119   2.0000      -1.002347       -27.2753
 120   2.0000      -0.999359       -27.1939
 121   2.0000      -0.997014       -27.1301
 122   2.0000      -0.993627       -27.0380
 123   2.0000      -0.992308       -27.0021
 124   2.0000      -0.990384       -26.9497
 125   2.0000      -0.979761       -26.6607
 126   2.0000      -0.972408       -26.4606
 127   2.0000      -0.969483       -26.3810
 128   2.0000      -0.959114       -26.0988
 129   2.0000      -0.954107       -25.9626
 130   2.0000      -0.927586       -25.2409
 131   2.0000      -0.925992       -25.1975
 132   2.0000      -0.919404       -25.0183
 133   2.0000      -0.915197       -24.9038
 134   2.0000      -0.902406       -24.5557
 135   2.0000      -0.897249       -24.4154
 136   2.0000      -0.895794       -24.3758
 137   2.0000      -0.886473       -24.1221
 138   2.0000      -0.882203       -24.0060
 139   2.0000      -0.879434       -23.9306
 140   2.0000      -0.875238       -23.8164
 141   2.0000      -0.874935       -23.8082
 142   2.0000      -0.865212       -23.5436
 143   2.0000      -0.857776       -23.3413
 144   2.0000      -0.855246       -23.2724
 145   2.0000      -0.853353       -23.2209
 146   2.0000      -0.829746       -22.5785
 147   2.0000      -0.827469       -22.5166
 148   2.0000      -0.826377       -22.4869
 149   2.0000      -0.814001       -22.1501
 150   2.0000      -0.811993       -22.0955
 151   2.0000      -0.795236       -21.6395
 152   2.0000      -0.782784       -21.3006
 153   2.0000      -0.777058       -21.1448
 154   2.0000      -0.776293       -21.1240
 155   2.0000      -0.764076       -20.7916
 156   2.0000      -0.763320       -20.7710
 157   2.0000      -0.758024       -20.6269
 158   2.0000      -0.747843       -20.3498
 159   2.0000      -0.727361       -19.7925
 160   2.0000      -0.726264       -19.7626
 161   2.0000      -0.714441       -19.4409
 162   2.0000      -0.707056       -19.2400
 163   2.0000      -0.705106       -19.1869
 164   2.0000      -0.704120       -19.1601
 165   2.0000      -0.699820       -19.0431
 166   2.0000      -0.699470       -19.0335
 167   2.0000      -0.691292       -18.8110
 168   2.0000      -0.688054       -18.7229
 169   2.0000      -0.685195       -18.6451
 170   2.0000      -0.680034       -18.5047
 171   2.0000      -0.677678       -18.4405
 172   2.0000      -0.673230       -18.3195
 173   2.0000      -0.665009       -18.0958
 174   2.0000      -0.664067       -18.0702
 175   2.0000      -0.655903       -17.8480
 176   2.0000      -0.649033       -17.6611
 177   2.0000      -0.644213       -17.5299
 178   2.0000      -0.636364       -17.3164
 179   2.0000      -0.633856       -17.2481
 180   2.0000      -0.628838       -17.1115
 181   2.0000      -0.628093       -17.0913
 182   2.0000      -0.622669       -16.9437
 183   2.0000      -0.618706       -16.8358
 184   2.0000      -0.616603       -16.7786
 185   2.0000      -0.609090       -16.5742
 186   2.0000      -0.607401       -16.5282
 187   2.0000      -0.605445       -16.4750
 188   2.0000      -0.598968       -16.2988
 189   2.0000      -0.596432       -16.2297
 190   2.0000      -0.590559       -16.0699
 191   2.0000      -0.582213       -15.8428
 192   2.0000      -0.581179       -15.8147
 193   2.0000      -0.578859       -15.7516
 194   2.0000      -0.571884       -15.5618
 195   2.0000      -0.561117       -15.2688
 196   2.0000      -0.557670       -15.1750
 197   2.0000      -0.554212       -15.0809
 198   2.0000      -0.552234       -15.0270
 199   2.0000      -0.549273       -14.9465
 200   2.0000      -0.548931       -14.9372
 201   2.0000      -0.547956       -14.9106
 202   2.0000      -0.547051       -14.8860
 203   2.0000      -0.544135       -14.8067
 204   2.0000      -0.541640       -14.7388
 205   2.0000      -0.540233       -14.7005
 206   2.0000      -0.538024       -14.6404
 207   2.0000      -0.535810       -14.5801
 208   2.0000      -0.531121       -14.4525
 209   2.0000      -0.528724       -14.3873
 210   2.0000      -0.525800       -14.3077
 211   2.0000      -0.521567       -14.1926
 212   2.0000      -0.517770       -14.0892
 213   2.0000      -0.516008       -14.0413
 214   2.0000      -0.515535       -14.0284
 215   2.0000      -0.510427       -13.8894
 216   2.0000      -0.510040       -13.8789
 217   2.0000      -0.507422       -13.8077
 218   2.0000      -0.506591       -13.7850
 219   2.0000      -0.505065       -13.7435
 220   2.0000      -0.503915       -13.7122
 221   2.0000      -0.503240       -13.6939
 222   2.0000      -0.500604       -13.6221
 223   2.0000      -0.500029       -13.6065
 224   2.0000      -0.497039       -13.5251
 225   2.0000      -0.494279       -13.4500
 226   2.0000      -0.493001       -13.4152
 227   2.0000      -0.489770       -13.3273
 228   2.0000      -0.489461       -13.3189
 229   2.0000      -0.486866       -13.2483
 230   2.0000      -0.485004       -13.1976
 231   2.0000      -0.483081       -13.1453
 232   2.0000      -0.478430       -13.0187
 233   2.0000      -0.477129       -12.9833
 234   2.0000      -0.474117       -12.9014
 235   2.0000      -0.467318       -12.7164
 236   2.0000      -0.464592       -12.6422
 237   2.0000      -0.463564       -12.6142
 238   2.0000      -0.461981       -12.5711
 239   2.0000      -0.461031       -12.5453
 240   2.0000      -0.458716       -12.4823
 241   2.0000      -0.458521       -12.4770
 242   2.0000      -0.457247       -12.4423
 243   2.0000      -0.453174       -12.3315
 244   2.0000      -0.452552       -12.3146
 245   2.0000      -0.448812       -12.2128
 246   2.0000      -0.448652       -12.2085
 247   2.0000      -0.447820       -12.1858
 248   2.0000      -0.445224       -12.1152
 249   2.0000      -0.442182       -12.0324
 250   2.0000      -0.441497       -12.0138
 251   2.0000      -0.439981       -11.9725
 252   2.0000      -0.438580       -11.9344
 253   2.0000      -0.437771       -11.9124
 254   2.0000      -0.436858       -11.8875
 255   2.0000      -0.436814       -11.8863
 256   2.0000      -0.436146       -11.8681
 257   2.0000      -0.435156       -11.8412
 258   2.0000      -0.434228       -11.8159
 259   2.0000      -0.431064       -11.7298
 260   2.0000      -0.429713       -11.6931
 261   2.0000      -0.429665       -11.6918
 262   2.0000      -0.427301       -11.6275
 263   2.0000      -0.425908       -11.5895
 264   2.0000      -0.424673       -11.5560
 265   2.0000      -0.423873       -11.5342
 266   2.0000      -0.421244       -11.4626
 267   2.0000      -0.417849       -11.3702
 268   2.0000      -0.415537       -11.3073
 269   2.0000      -0.414929       -11.2908
 270   2.0000      -0.414770       -11.2865
 271   2.0000      -0.407308       -11.0834
 272   2.0000      -0.405331       -11.0296
 273   2.0000      -0.402260       -10.9461
 274   2.0000      -0.400476       -10.8975
 275   2.0000      -0.387085       -10.5331
 276   2.0000      -0.385977       -10.5030
 277   2.0000      -0.384569       -10.4647
 278   2.0000      -0.380349       -10.3498
 279   2.0000      -0.374864       -10.2006
 280   2.0000      -0.369294       -10.0490
 281   2.0000      -0.359719        -9.7885
 282   2.0000      -0.354759        -9.6535
 283   2.0000      -0.348045        -9.4708
 284   2.0000      -0.347597        -9.4586
 285   2.0000      -0.343876        -9.3573
 286   2.0000      -0.340917        -9.2768
 287   2.0000      -0.338949        -9.2233
 288   2.0000      -0.333670        -9.0796
 289   2.0000      -0.322306        -8.7704
 290   2.0000      -0.321043        -8.7360
 291   2.0000      -0.317650        -8.6437
 292   2.0000      -0.315092        -8.5741
 293   2.0000      -0.306182        -8.3316
 294   2.0000      -0.295192        -8.0326
 295   2.0000      -0.292315        -7.9543
 296   2.0000      -0.274727        -7.4757
 297   2.0000      -0.242312        -6.5936
 298   0.0000      -0.134102        -3.6491
 299   0.0000      -0.105974        -2.8837
 300   0.0000      -0.097907        -2.6642
 301   0.0000      -0.087091        -2.3699
 302   0.0000      -0.086884        -2.3642

MULLIKEN ATOMIC CHARGES
-----------------------
   0 C :   -0.016616
   1 C :    0.034856
   2 C :    0.037789
   3 C :   -0.016756
   4 C :    0.092494
   5 C :   -0.079113
   6 C :    0.031175
   7 C :    0.019640
   8 C :   -0.085067
   9 C :    0.096013
  10 C :    0.133882
  11 O :   -0.146525
  12 C :   -0.137712
  13 C :    0.266606
  14 C :   -0.326475
  15 C :   -0.205443
  16 N :    0.166663
  17 C :   -0.170055
  18 N :    0.157156
  19 C :    0.079472
  20 C :   -0.106823
  21 C :    0.001661
  22 C :   -0.005459
  23 C :   -0.079199
  24 S :    0.207996
  25 C :   -0.070506
  26 C :    0.043040
  27 C :    0.309972
  28 C :   -0.289622
  29 C :   -0.188446
  30 N :    0.174606
  31 C :   -0.187263
  32 N :    0.169038
  33 C :   -0.067806
  34 C :   -0.172479
  35 S :    0.202514
  36 C :    0.184799
  37 C :   -0.052698
  38 C :   -0.054539
  39 N :   -0.075526
  40 C :    0.048164
  41 C :    0.046007
  42 N :   -0.076922
  43 C :    0.177218
  44 C :   -0.011980
  45 C :   -0.012778
  46 N :   -0.284197
  47 S :    0.583304
  48 N :   -0.282893
  49 C :   -0.170739
  50 C :   -0.063121
  51 C :    0.040875
  52 C :   -0.072521
  53 S :    0.204018
  54 C :   -0.075346
  55 C :    0.047083
  56 C :    0.308509
  57 C :   -0.303675
  58 C :   -0.199314
  59 N :    0.184342
  60 C :   -0.185304
  61 N :    0.172912
  62 C :   -0.061874
  63 C :   -0.052798
  64 S :    0.241293
  65 C :   -0.029661
  66 C :   -0.096100
  67 C :    0.325741
  68 C :   -0.352817
  69 C :   -0.182369
  70 N :    0.145147
  71 C :   -0.200237
  72 N :    0.159159
  73 C :    0.041902
  74 C :    0.001522
  75 C :   -0.081659
  76 C :    0.097214
  77 C :   -0.016676
  78 C :    0.037830
  79 C :    0.034326
  80 C :   -0.016988
  81 C :    0.093960
  82 C :   -0.080463
  83 C :    0.168907
  84 O :   -0.193055
  85 H :   -0.018761
  86 H :   -0.005199
  87 H :   -0.005491
  88 H :   -0.009365
  89 H :   -0.000769
  90 H :   -0.013410
  91 H :    0.019032
  92 H :    0.025231
  93 H :    0.021522
  94 H :    0.025168
  95 H :    0.025093
  96 H :    0.021140
  97 H :    0.026928
  98 H :    0.020602
  99 H :   -0.016272
 100 H :   -0.019381
 101 H :   -0.006207
 102 H :   -0.004251
 103 H :   -0.008325
 104 H :   -0.008476
Sum of atomic charges:    0.0000000

LOEWDIN ATOMIC CHARGES
----------------------
   0 C :   -0.009776
   1 C :   -0.013655
   2 C :   -0.013014
   3 C :   -0.005274
   4 C :   -0.005217
   5 C :    0.018379
   6 C :   -0.022565
   7 C :   -0.057618
   8 C :    0.032011
   9 C :   -0.009515
  10 C :    0.083066
  11 O :   -0.147151
  12 C :   -0.091193
  13 C :    0.065648
  14 C :   -0.138040
  15 C :   -0.016105
  16 N :   -0.047661
  17 C :   -0.018325
  18 N :   -0.047661
  19 C :    0.040167
  20 C :   -0.178924
  21 C :    0.010521
  22 C :   -0.063301
  23 C :   -0.158352
  24 S :    0.495142
  25 C :   -0.188228
  26 C :   -0.063831
  27 C :    0.081943
  28 C :   -0.099553
  29 C :   -0.016837
  30 N :   -0.030466
  31 C :   -0.013497
  32 N :   -0.034079
  33 C :   -0.010770
  34 C :   -0.158348
  35 S :    0.510143
  36 C :   -0.039639
  37 C :   -0.017024
  38 C :   -0.015447
  39 N :   -0.045378
  40 C :    0.023468
  41 C :    0.022480
  42 N :   -0.045658
  43 C :   -0.043650
  44 C :   -0.038124
  45 C :   -0.039131
  46 N :   -0.274852
  47 S :    0.703963
  48 N :   -0.275053
  49 C :   -0.154887
  50 C :   -0.014621
  51 C :   -0.061306
  52 C :   -0.191471
  53 S :    0.510921
  54 C :   -0.165206
  55 C :   -0.075368
  56 C :    0.078065
  57 C :   -0.103203
  58 C :   -0.020332
  59 N :   -0.027658
  60 C :   -0.016518
  61 N :   -0.033155
  62 C :    0.011667
  63 C :   -0.183008
  64 S :    0.545865
  65 C :    0.055755
  66 C :   -0.111059
  67 C :    0.076120
  68 C :   -0.142475
  69 C :   -0.016969
  70 N :   -0.055750
  71 C :   -0.024531
  72 N :   -0.049111
  73 C :   -0.024363
  74 C :   -0.055319
  75 C :    0.030878
  76 C :   -0.009466
  77 C :   -0.010375
  78 C :   -0.012748
  79 C :   -0.013270
  80 C :   -0.004773
  81 C :   -0.006186
  82 C :    0.019849
  83 C :    0.085470
  84 O :   -0.178323
  85 H :    0.031385
  86 H :    0.032567
  87 H :    0.032991
  88 H :    0.034979
  89 H :    0.040346
  90 H :    0.038813
  91 H :    0.044928
  92 H :    0.042890
  93 H :    0.038903
  94 H :    0.032840
  95 H :    0.032598
  96 H :    0.038491
  97 H :    0.047814
  98 H :    0.053937
  99 H :    0.037827
 100 H :    0.031119
 101 H :    0.032483
 102 H :    0.033385
 103 H :    0.035191
 104 H :    0.039354

  Mayer bond orders larger than 0.100000
B(  0-C ,  1-C ) :   1.4894 B(  0-C ,  9-C ) :   1.2438 B(  0-C , 85-H ) :   0.9975
B(  1-C ,  2-C ) :   1.2604 B(  1-C , 86-H ) :   0.9888 B(  2-C ,  3-C ) :   1.4897
B(  2-C , 87-H ) :   0.9881 B(  3-C ,  4-C ) :   1.2432 B(  3-C , 88-H ) :   0.9973
B(  4-C ,  5-C ) :   1.2025 B(  4-C ,  9-C ) :   1.2580 B(  5-C ,  6-C ) :   1.4605
B(  5-C , 89-H ) :   0.9942 B(  6-C ,  7-C ) :   1.2140 B(  6-C , 13-C ) :   0.9956
B(  7-C ,  8-C ) :   1.4724 B(  7-C , 10-C ) :   0.9232 B(  8-C ,  9-C ) :   1.1837
B(  8-C , 90-H ) :   1.0163 B( 10-C , 11-O ) :   2.2625 B( 10-C , 12-C ) :   0.9421
B( 12-C , 13-C ) :   1.0406 B( 12-C , 19-C ) :   1.6587 B( 13-C , 14-C ) :   1.6455
B( 14-C , 15-C ) :   1.1716 B( 14-C , 17-C ) :   1.1284 B( 15-C , 16-N ) :   2.9944
B( 17-C , 18-N ) :   2.9914 B( 19-C , 20-C ) :   1.1498 B( 19-C , 91-H ) :   0.9255
B( 20-C , 21-C ) :   1.3824 B( 20-C , 24-S ) :   1.0868 B( 21-C , 22-C ) :   1.3688
B( 21-C , 92-H ) :   0.9771 B( 22-C , 23-C ) :   1.3958 B( 22-C , 27-C ) :   0.9953
B( 23-C , 24-S ) :   1.1509 B( 23-C , 25-C ) :   1.2116 B( 25-C , 26-C ) :   1.4007
B( 25-C , 35-S ) :   1.0685 B( 26-C , 27-C ) :   0.9866 B( 26-C , 33-C ) :   1.2802
B( 27-C , 28-C ) :   1.7160 B( 28-C , 29-C ) :   1.1372 B( 28-C , 31-C ) :   1.1327
B( 29-C , 30-N ) :   2.9881 B( 31-C , 32-N ) :   2.9834 B( 33-C , 34-C ) :   1.4114
B( 33-C , 93-H ) :   0.9847 B( 34-C , 35-S ) :   1.0974 B( 34-C , 36-C ) :   1.1968
B( 36-C , 37-C ) :   1.2699 B( 36-C , 43-C ) :   0.1335 B( 36-C , 45-C ) :   1.2059
B( 37-C , 38-C ) :   1.1358 B( 37-C , 42-N ) :   1.4002 B( 38-C , 39-N ) :   1.4019
B( 38-C , 43-C ) :   1.2729 B( 39-N , 40-C ) :   1.6547 B( 40-C , 41-C ) :   1.2029
B( 40-C , 94-H ) :   0.9744 B( 41-C , 42-N ) :   1.6516 B( 41-C , 95-H ) :   0.9745
B( 43-C , 44-C ) :   1.2070 B( 43-C , 49-C ) :   1.1946 B( 44-C , 45-C ) :   1.0975
B( 44-C , 48-N ) :   1.5088 B( 45-C , 46-N ) :   1.5075 B( 46-N , 47-S ) :   1.2889
B( 46-N , 48-N ) :   0.1510 B( 47-S , 48-N ) :   1.2880 B( 49-C , 50-C ) :   1.4127
B( 49-C , 53-S ) :   1.1010 B( 50-C , 51-C ) :   1.2779 B( 50-C , 96-H ) :   0.9836
B( 51-C , 52-C ) :   1.3962 B( 51-C , 56-C ) :   0.9938 B( 52-C , 53-S ) :   1.0694
B( 52-C , 54-C ) :   1.2179 B( 54-C , 55-C ) :   1.3426 B( 54-C , 64-S ) :   1.1245
B( 55-C , 56-C ) :   0.9840 B( 55-C , 62-C ) :   1.3409 B( 56-C , 57-C ) :   1.7131
B( 57-C , 58-C ) :   1.1349 B( 57-C , 60-C ) :   1.1393 B( 58-C , 59-N ) :   2.9965
B( 60-C , 61-N ) :   2.9861 B( 62-C , 63-C ) :   1.3165 B( 62-C , 97-H ) :   1.0088
B( 63-C , 64-S ) :   1.0691 B( 63-C , 65-C ) :   1.2762 B( 65-C , 66-C ) :   1.4831
B( 65-C , 98-H ) :   0.9426 B( 66-C , 67-C ) :   1.0774 B( 66-C , 83-C ) :   0.9829
B( 67-C , 68-C ) :   1.6257 B( 67-C , 73-C ) :   0.9818 B( 68-C , 69-C ) :   1.1486
B( 68-C , 71-C ) :   1.1440 B( 69-C , 70-N ) :   2.9626 B( 71-C , 72-N ) :   2.9728
B( 73-C , 74-C ) :   1.2147 B( 73-C , 82-C ) :   1.4580 B( 74-C , 75-C ) :   1.4664
B( 74-C , 83-C ) :   0.9643 B( 75-C , 76-C ) :   1.1766 B( 75-C , 99-H ) :   1.0165
B( 76-C , 77-C ) :   1.2435 B( 76-C , 81-C ) :   1.2591 B( 77-C , 78-C ) :   1.4875
B( 77-C ,100-H ) :   0.9974 B( 78-C , 79-C ) :   1.2620 B( 78-C ,101-H ) :   0.9882
B( 79-C , 80-C ) :   1.4855 B( 79-C ,102-H ) :   0.9891 B( 80-C , 81-C ) :   1.2434
B( 80-C ,103-H ) :   0.9972 B( 81-C , 82-C ) :   1.1995 B( 82-C ,104-H ) :   0.9895
B( 83-C , 84-O ) :   2.1102

-----------------------------------------------------------------------------
         ABSORPTION SPECTRUM VIA TRANSITION ELECTRIC DIPOLE MOMENTS
-----------------------------------------------------------------------------
State   Energy  Wavelength   fosc         T2         TX        TY        TZ
        (cm-1)    (nm)                  (au**2)     (au)      (au)      (au)
-----------------------------------------------------------------------------
   0    8960.5   1116.0   1.169605637  42.97152  -6.17871   2.06060  -0.74090
   1   13506.8    740.4   0.016208641   0.39507   0.51314   0.34427  -0.11504
   2   14682.9    681.1   0.004401963   0.09870  -0.14665  -0.26765   0.07455
   3   17421.5    574.0   0.015474949   0.29243   0.18194   0.49654  -0.11304
   4   19673.3    508.3   0.766707254  12.83004   3.39997  -0.98052   0.55569
   5   20422.8    489.6   0.611579350   9.85855   3.11211   0.34516  -0.23275
   6   22408.9    446.3   0.089597822   1.31629  -1.13571  -0.13898  -0.08453
   7   23545.6    424.7   0.003798551   0.05311  -0.05321   0.22336   0.01977
   8   24268.6    412.1   0.007441139   0.10094   0.13083  -0.15792  -0.24266
   9   24397.1    409.9   0.030957822   0.41774   0.53660  -0.34101  -0.11628
  10   24781.6    403.5   0.021384765   0.28409  -0.01519  -0.47615   0.23903
  11   25288.1    395.4   0.085527808   1.11344  -1.03940  -0.06190   0.17106
  12   25766.4    388.1   0.026020113   0.33245  -0.12864  -0.37120   0.42204
  13   25939.2    385.5   0.005177791   0.06571   0.06869  -0.19035   0.15736
  14   26647.1    375.3   0.049808230   0.61536  -0.55591  -0.49388   0.24981
  15   27106.9    368.9   0.038709613   0.47013   0.02597  -0.65911   0.18715
  16   27296.6    366.3   0.004462236   0.05382   0.14317  -0.13869   0.11868
  17   27759.5    360.2   0.003346946   0.03969  -0.09774  -0.17190  -0.02431
  18   28180.5    354.9   0.181594516   2.12143   0.98661  -1.06829   0.08238
  19   28305.3    353.3   0.014818709   0.17235  -0.05440  -0.18715  -0.36656
  20   28457.9    351.4   0.003984126   0.04609   0.08043  -0.18477   0.07402
  21   28811.4    347.1   0.081292407   0.92888   0.82542   0.39890  -0.29740
  22   29069.5    344.0   0.010643575   0.12054   0.07201  -0.06289   0.33376
  23   29687.0    336.8   0.053469285   0.59294  -0.31123   0.50093  -0.49513
  24   29930.9    334.1   0.353787810   3.89133   1.08793  -1.62130   0.28127
  25   30128.8    331.9   0.100899211   1.10251   0.80880  -0.66605  -0.06875
  26   30256.2    330.5   0.259728714   2.82605  -1.42611  -0.38297   0.80350
  27   30435.3    328.6   0.005509005   0.05959  -0.11484   0.07334  -0.20254
  28   30509.9    327.8   0.044223966   0.47719  -0.68192  -0.10195  -0.04227
  29   30946.8    323.1   0.278196366   2.95946   0.84441   1.29435  -0.75571
  30   31293.6    319.6   0.160186058   1.68517   1.22454  -0.21409   0.37395
  31   31570.0    316.8   0.000066005   0.00069  -0.01752   0.01027  -0.01661
  32   31643.4    316.0   0.302010561   3.14206   1.41651  -1.05948   0.11423
  33   31845.8    314.0   0.203444329   2.10314   1.40025   0.27894  -0.25425
  34   32032.3    312.2   0.473141219   4.86271  -1.61846  -1.02162   1.09525
  35   32161.8    310.9   0.240536674   2.46216  -0.50062   1.29173  -0.73687
  36   32645.8    306.3   0.025699470   0.25916  -0.05554   0.14615   0.48448
  37   32764.9    305.2   0.088521833   0.88944   0.86760  -0.32235   0.18109
  38   33042.9    302.6   0.017305925   0.17242  -0.25182   0.33015   0.00313
  39   33152.7    301.6   0.012822655   0.12733   0.29554   0.17579  -0.09530
  40   33680.3    296.9   0.026566374   0.25968  -0.07522  -0.47351   0.17265
  41   33827.4    295.6   0.124325136   1.20995  -0.35958   1.02186   0.19094
  42   33948.9    294.6   0.089686004   0.86971  -0.67929   0.09766   0.63145
  43   34334.2    291.3   0.441281860   4.23122   0.52346   1.61791  -1.15741
  44   34394.1    290.7   0.046427440   0.44439   0.41008  -0.03301  -0.52454
  45   34646.1    288.6   0.040420897   0.38409  -0.09056  -0.58595   0.18041
  46   34662.9    288.5   0.020644668   0.19607  -0.29862  -0.32618  -0.02250
  47   34877.7    286.7   0.275006598   2.59580  -1.05575   1.17070   0.33262
  48   35043.5    285.4   0.083248527   0.78207   0.69852  -0.24004  -0.48634
  49   35142.5    284.6   0.491266815   4.60215  -0.89461  -1.70279   0.94990
  50   35411.2    282.4   0.378559199   3.51940  -1.13922   1.38788  -0.54348
  51   35634.0    280.6   0.139565550   1.28940  -0.35152  -0.85799   0.65551
  52   35733.1    279.9   0.422635790   3.89377  -0.75120  -1.47468   1.07462
  53   35889.4    278.6   0.038528882   0.35342  -0.07145  -0.58879   0.04059
  54   35950.9    278.2   0.058143244   0.53243  -0.13540   0.69348   0.18219
  55   36002.3    277.8   0.004332536   0.03962   0.06833  -0.18597   0.01911
  56   36314.2    275.4   0.081689531   0.74057   0.33358   0.43910  -0.66067
  57   36405.7    274.7   0.031270728   0.28278   0.04055  -0.30656   0.43261
  58   36517.3    273.8   0.126994405   1.14488  -0.85595  -0.09116   0.63555
  59   36693.9    272.5   0.028557543   0.25621   0.03342  -0.42974   0.26537
  60   36972.8    270.5   0.041779648   0.37201  -0.57286  -0.05869   0.20101
  61   37279.3    268.2   0.060663793   0.53572  -0.72211   0.11946  -0.00249
  62   37413.2    267.3   0.053427571   0.47013   0.44411  -0.51486   0.08841
  63   37549.2    266.3   0.011114292   0.09744   0.11575  -0.11272  -0.26710
  64   37641.3    265.7   0.024389156   0.21331   0.18174   0.28093  -0.31836
  65   37874.0    264.0   0.081763756   0.71072  -0.20983  -0.56351   0.59088
  66   37931.9    263.6   0.068990301   0.59877   0.61910   0.21686  -0.41043
  67   38012.0    263.1   0.005101549   0.04418  -0.15497   0.11063   0.08905
  68   38229.7    261.6   0.034724548   0.29903  -0.40760  -0.25670   0.25883
  69   38634.2    258.8   0.006090665   0.05190  -0.04218   0.21724   0.05409
  70   38666.0    258.6   0.044582675   0.37959   0.61609  -0.00029  -0.00430
  71   39122.2    255.6   0.019529307   0.16434  -0.04879  -0.35888   0.18211
  72   39166.9    255.3   0.138196241   1.16159  -1.01360   0.21848  -0.29407
  73   39540.2    252.9   0.062932760   0.52398   0.47663   0.50706  -0.19923
  74   39716.2    251.8   0.147451234   1.22224  -0.57812   0.82953  -0.44710
  75   40286.6    248.2   0.055820134   0.45615  -0.34885   0.57817  -0.01314

FINAL SINGLE POINT ENERGY     -5320.466394049537

DIPOLE MOMENT
-------------
                                X             Y             Z
Electronic contribution:     -0.67301     -33.01022       5.54731
Nuclear contribution   :      0.99695      38.56722      -7.54320
                        -----------------------------------------
Total Dipole Moment    :      0.32393       5.55700      -1.99589
                        -----------------------------------------
Magnitude (a.u.)       :      5.91344
Magnitude (Debye)      :     15.03076

Rotational constants in cm-1:     0.001713     0.000151     0.000140
Rotational constants in MHz :    51.364399     4.518969     4.210163

                             ****ORCA TERMINATED NORMALLY****
TOTAL RUN TIME: 0 days 0 hours 13 minutes 3 seconds 35 msec
