                         Program Version 4.2.0 -  RELEASE  -
|  1> # ORCA input file
|  2> # SCF done       -200.605085611807          0.000705686924
|  3> ! CAM-B3LYP def2-SVP def2/J RIJCOSX Grid4 TightSCF
|  4> %maxcore 5000
|  5> %tddft
|  6>     Mode sTDDFT
|  7>     Ethresh 5.0
|  8>     maxcore 5000
|  9> end
| 10>
| 11> %pal
| 12>   nprocs 6
| 13>   end
| 14> * xyz 0 1
| 15>    C       -0.94873         0.39230         0.38461
| 16>    C       -0.03021         1.16692        -0.27522
| 17>    C        0.72471         0.71861        -1.37962
| 18>    N        1.36974         0.40504        -2.27532
| 19>    C        0.34092         2.46530         0.12335
| 20>    N        0.69502         3.51539         0.42476
| 21>    C       -1.17663        -1.02609         0.12918
| 22>    C       -1.77867        -1.60567         1.28429
| 23>    C       -2.07395        -2.93714         1.34640
| 24>    C       -1.78744        -3.75895         0.23289
| 25>    C       -1.20679        -3.18018        -0.93287
| 26>    C       -0.90468        -1.79940        -0.96670
| 27>    C       -0.93677        -4.00900        -2.04058
| 28>    C       -1.22133        -5.34679        -1.99957
| 29>    C       -1.79075        -5.91638        -0.85091
| 30>    C       -2.06767        -5.13962         0.24132
| 31>    C       -2.01376        -0.55436         2.28820
| 32>    O       -2.45439        -0.67006         3.40853
| 33>    C       -1.64973         0.72499         1.60818
| 34>    C       -2.07706         1.89773         2.14972
| 35>    C       -2.19503         3.16112         1.52624
| 36>    C       -2.26923         3.45320         0.17268
| 37>    C       -2.40050         4.81561        -0.06242
| 38>    C       -2.43353         5.57894         1.12104
| 39>    S       -2.32731         4.61096         2.51479
| 40>    C       -2.52595         6.95330         0.77139
| 41>    C       -2.55563         7.04531        -0.63317
| 42>    C       -2.46583         5.71199        -1.20298
| 43>    C       -2.41000         5.36575        -2.52126
| 44>    C       -2.46846         6.32716        -3.55142
| 45>    N       -2.52449         7.11219        -4.38528
| 46>    C       -2.28892         4.01921        -2.92423
| 47>    N       -2.19259         2.91988        -3.23654
| 48>    C       -2.63553         8.35978        -1.07517
| 49>    C       -2.68078         9.26543        -0.02400
| 50>    S       -2.61061         8.47392         1.54070
| 51>    C       -2.71179        10.67796        -0.20568
| 52>    C       -3.01141        11.71756         0.66258
| 53>    C       -3.50161        11.49386         2.03097
| 54>    O       -3.15567        10.57003         2.72463
| 55>    O       -4.41820        12.36497         2.48393
| 56>    C       -2.90565        13.00351         0.03852
| 57>    C       -2.57189        12.90397        -1.28501
| 58>    S       -2.36581        11.29006        -1.80276
| 59>    C       -3.00112        14.29342         0.69198
| 60>    C       -3.46398        15.45836         0.12428
| 61>    C       -3.29194        16.55785         0.97272
| 62>    C       -2.68158        16.21418         2.18766
| 63>    S       -2.32350        14.54868         2.29405
| 64>    C       -2.52566        17.39232         2.96647
| 65>    C       -3.03313        18.48122         2.23014
| 66>    C       -3.55072        17.98873         0.96342
| 67>    C       -4.15594        18.70879        -0.02336
| 68>    C       -4.40106        20.09564         0.07913
| 69>    N       -4.63294        21.21577         0.14873
| 70>    C       -4.60195        18.09972        -1.21569
| 71>    N       -4.95888        17.59644        -2.18223
| 72>    C       -2.87339        19.70077         2.87783
| 73>    C       -2.24692        19.55901         4.10689
| 74>    S       -1.89344        17.86676         4.47055
| 75>    C       -1.89958        20.51668         5.08631
| 76>    C       -1.69088        21.85527         4.91866
| 77>    C       -1.43040        22.79538         5.99560
| 78>    C       -1.70400        22.60047         7.32436
| 79>    C       -1.45319        23.55847         8.32902
| 80>    N       -1.26826        24.29297         9.19154
| 81>    C       -2.30416        21.44377         7.86468
| 82>    N       -2.80375        20.54073         8.36880
| 83>    C       -0.91379        24.02208         5.40383
| 84>    C       -0.92879        23.87983         3.98730
| 85>    C       -1.44236        22.54916         3.62553
| 86>    O       -1.55802        22.10438         2.50371
| 87>    C       -0.50548        24.87622         3.15565
| 88>    C       -0.03598        26.08530         3.71504
| 89>    C       -0.00939        26.23346         5.13226
| 90>    C       -0.45593        25.18373         5.96762
| 91>    C        0.46868        27.44178         5.67889
| 92>    C        0.89841        28.45595         4.86681
| 93>    C        0.87012        28.30937         3.47186
| 94>    C        0.41203        27.14946         2.90811
| 95>    H       -2.52221        -3.35942         2.23347
| 96>    H       -0.47785        -1.38301        -1.86571
| 97>    H       -0.49551        -3.56592        -2.92115
| 98>    H       -1.00866        -5.97393        -2.85231
| 99>    H       -2.00945        -6.97364        -0.83591
|100>    H       -2.50660        -5.57289         1.12815
|101>    H       -2.43198         1.82899         3.17349
|102>    H       -2.26867         2.69751        -0.59153
|103>    H       -2.66708         8.66047        -2.10751
|104>    H       -4.66265        13.03186         1.82657
|105>    H       -2.40563        13.70977        -1.97155
|106>    H       -3.91660        15.49689        -0.84955
|107>    H       -3.19555        20.64789         2.48921
|108>    H       -1.74379        20.10553         6.07719
|109>    H       -0.53074        24.74271         2.08435
|110>    H       -0.41697        25.32375         7.03627
|111>    H        0.48706        27.55106         6.75329
|112>    H        1.26255        29.37759         5.29531
|113>    H        1.21331        29.11970         2.84631
|114>    H        0.38753        27.03027         1.83483
|115> *
|116>
|117>                          ****END OF INPUT****

CARTESIAN COORDINATES (ANGSTROEM)
---------------------------------
  C     -0.948730    0.392300    0.384610
  C     -0.030210    1.166920   -0.275220
  C      0.724710    0.718610   -1.379620
  N      1.369740    0.405040   -2.275320
  C      0.340920    2.465300    0.123350
  N      0.695020    3.515390    0.424760
  C     -1.176630   -1.026090    0.129180
  C     -1.778670   -1.605670    1.284290
  C     -2.073950   -2.937140    1.346400
  C     -1.787440   -3.758950    0.232890
  C     -1.206790   -3.180180   -0.932870
  C     -0.904680   -1.799400   -0.966700
  C     -0.936770   -4.009000   -2.040580
  C     -1.221330   -5.346790   -1.999570
  C     -1.790750   -5.916380   -0.850910
  C     -2.067670   -5.139620    0.241320
  C     -2.013760   -0.554360    2.288200
  O     -2.454390   -0.670060    3.408530
  C     -1.649730    0.724990    1.608180
  C     -2.077060    1.897730    2.149720
  C     -2.195030    3.161120    1.526240
  C     -2.269230    3.453200    0.172680
  C     -2.400500    4.815610   -0.062420
  C     -2.433530    5.578940    1.121040
  S     -2.327310    4.610960    2.514790
  C     -2.525950    6.953300    0.771390
  C     -2.555630    7.045310   -0.633170
  C     -2.465830    5.711990   -1.202980
  C     -2.410000    5.365750   -2.521260
  C     -2.468460    6.327160   -3.551420
  N     -2.524490    7.112190   -4.385280
  C     -2.288920    4.019210   -2.924230
  N     -2.192590    2.919880   -3.236540
  C     -2.635530    8.359780   -1.075170
  C     -2.680780    9.265430   -0.024000
  S     -2.610610    8.473920    1.540700
  C     -2.711790   10.677960   -0.205680
  C     -3.011410   11.717560    0.662580
  C     -3.501610   11.493860    2.030970
  O     -3.155670   10.570030    2.724630
  O     -4.418200   12.364970    2.483930
  C     -2.905650   13.003510    0.038520
  C     -2.571890   12.903970   -1.285010
  S     -2.365810   11.290060   -1.802760
  C     -3.001120   14.293420    0.691980
  C     -3.463980   15.458360    0.124280
  C     -3.291940   16.557850    0.972720
  C     -2.681580   16.214180    2.187660
  S     -2.323500   14.548680    2.294050
  C     -2.525660   17.392320    2.966470
  C     -3.033130   18.481220    2.230140
  C     -3.550720   17.988730    0.963420
  C     -4.155940   18.708790   -0.023360
  C     -4.401060   20.095640    0.079130
  N     -4.632940   21.215770    0.148730
  C     -4.601950   18.099720   -1.215690
  N     -4.958880   17.596440   -2.182230
  C     -2.873390   19.700770    2.877830
  C     -2.246920   19.559010    4.106890
  S     -1.893440   17.866760    4.470550
  C     -1.899580   20.516680    5.086310
  C     -1.690880   21.855270    4.918660
  C     -1.430400   22.795380    5.995600
  C     -1.704000   22.600470    7.324360
  C     -1.453190   23.558470    8.329020
  N     -1.268260   24.292970    9.191540
  C     -2.304160   21.443770    7.864680
  N     -2.803750   20.540730    8.368800
  C     -0.913790   24.022080    5.403830
  C     -0.928790   23.879830    3.987300
  C     -1.442360   22.549160    3.625530
  O     -1.558020   22.104380    2.503710
  C     -0.505480   24.876220    3.155650
  C     -0.035980   26.085300    3.715040
  C     -0.009390   26.233460    5.132260
  C     -0.455930   25.183730    5.967620
  C      0.468680   27.441780    5.678890
  C      0.898410   28.455950    4.866810
  C      0.870120   28.309370    3.471860
  C      0.412030   27.149460    2.908110
  H     -2.522210   -3.359420    2.233470
  H     -0.477850   -1.383010   -1.865710
  H     -0.495510   -3.565920   -2.921150
  H     -1.008660   -5.973930   -2.852310
  H     -2.009450   -6.973640   -0.835910
  H     -2.506600   -5.572890    1.128150
  H     -2.431980    1.828990    3.173490
  H     -2.268670    2.697510   -0.591530
  H     -2.667080    8.660470   -2.107510
  H     -4.662650   13.031860    1.826570
  H     -2.405630   13.709770   -1.971550
  H     -3.916600   15.496890   -0.849550
  H     -3.195550   20.647890    2.489210
  H     -1.743790   20.105530    6.077190
  H     -0.530740   24.742710    2.084350
  H     -0.416970   25.323750    7.036270
  H      0.487060   27.551060    6.753290
  H      1.262550   29.377590    5.295310
  H      1.213310   29.119700    2.846310
  H      0.387530   27.030270    1.834830

 Total Charge           Charge          ....    0
 Multiplicity           Mult            ....    1
 Number of Electrons    NEL             ....  566
 Basis Dimension        Dim             .... 1240

ORBITAL ENERGIES
----------------

  NO   OCC          E(Eh)            E(eV)
   0   2.0000     -89.007007     -2422.0038
   1   2.0000     -89.003436     -2421.9066
   2   2.0000     -88.995669     -2421.6953
   3   2.0000     -88.993164     -2421.6271
   4   2.0000     -88.991969     -2421.5946
   5   2.0000     -19.279917      -524.6332
   6   2.0000     -19.224791      -523.1332
   7   2.0000     -19.221428      -523.0416
   8   2.0000     -19.213804      -522.8342
   9   2.0000     -14.441355      -392.9693
  10   2.0000     -14.436979      -392.8502
  11   2.0000     -14.432690      -392.7335
  12   2.0000     -14.432608      -392.7312
  13   2.0000     -14.419296      -392.3690
  14   2.0000     -14.417352      -392.3161
  15   2.0000     -14.416784      -392.3006
  16   2.0000     -14.412084      -392.1727
  17   2.0000     -10.429074      -283.7895
  18   2.0000     -10.376268      -282.3526
  19   2.0000     -10.373514      -282.2777
  20   2.0000     -10.366489      -282.0865
  21   2.0000     -10.365373      -282.0561
  22   2.0000     -10.363086      -281.9939
  23   2.0000     -10.354784      -281.7680
  24   2.0000     -10.352247      -281.6990
  25   2.0000     -10.351700      -281.6841
  26   2.0000     -10.348263      -281.5906
  27   2.0000     -10.345620      -281.5186
  28   2.0000     -10.345489      -281.5151
  29   2.0000     -10.344142      -281.4784
  30   2.0000     -10.342383      -281.4306
  31   2.0000     -10.342133      -281.4237
  32   2.0000     -10.341448      -281.4051
  33   2.0000     -10.341333      -281.4020
  34   2.0000     -10.336254      -281.2638
  35   2.0000     -10.335985      -281.2564
  36   2.0000     -10.334316      -281.2110
  37   2.0000     -10.333140      -281.1790
  38   2.0000     -10.333047      -281.1765
  39   2.0000     -10.332856      -281.1713
  40   2.0000     -10.330077      -281.0957
  41   2.0000     -10.328297      -281.0473
  42   2.0000     -10.327783      -281.0333
  43   2.0000     -10.326831      -281.0073
  44   2.0000     -10.324571      -280.9459
  45   2.0000     -10.322142      -280.8798
  46   2.0000     -10.320625      -280.8385
  47   2.0000     -10.320105      -280.8243
  48   2.0000     -10.318515      -280.7811
  49   2.0000     -10.318171      -280.7717
  50   2.0000     -10.317934      -280.7652
  51   2.0000     -10.315695      -280.7043
  52   2.0000     -10.315123      -280.6888
  53   2.0000     -10.314566      -280.6736
  54   2.0000     -10.311707      -280.5958
  55   2.0000     -10.309678      -280.5406
  56   2.0000     -10.307688      -280.4865
  57   2.0000     -10.307393      -280.4784
  58   2.0000     -10.306916      -280.4654
  59   2.0000     -10.305744      -280.4336
  60   2.0000     -10.301897      -280.3289
  61   2.0000     -10.300405      -280.2883
  62   2.0000     -10.300167      -280.2818
  63   2.0000     -10.300115      -280.2804
  64   2.0000     -10.299756      -280.2706
  65   2.0000     -10.299447      -280.2622
  66   2.0000     -10.296320      -280.1771
  67   2.0000     -10.296136      -280.1721
  68   2.0000     -10.295882      -280.1652
  69   2.0000     -10.294984      -280.1408
  70   2.0000     -10.291708      -280.0516
  71   2.0000     -10.288856      -279.9740
  72   2.0000     -10.288422      -279.9622
  73   2.0000     -10.288306      -279.9590
  74   2.0000     -10.288218      -279.9566
  75   2.0000     -10.287795      -279.9451
  76   2.0000     -10.285118      -279.8723
  77   2.0000     -10.284639      -279.8592
  78   2.0000     -10.284269      -279.8492
  79   2.0000     -10.283631      -279.8318
  80   2.0000      -8.101495      -220.4529
  81   2.0000      -8.098113      -220.3608
  82   2.0000      -8.090320      -220.1488
  83   2.0000      -8.087734      -220.0784
  84   2.0000      -8.085810      -220.0261
  85   2.0000      -6.070697      -165.1921
  86   2.0000      -6.067232      -165.0978
  87   2.0000      -6.066453      -165.0766
  88   2.0000      -6.063953      -165.0086
  89   2.0000      -6.063086      -164.9850
  90   2.0000      -6.060685      -164.9196
  91   2.0000      -6.059447      -164.8859
  92   2.0000      -6.057053      -164.8208
  93   2.0000      -6.055272      -164.7723
  94   2.0000      -6.055246      -164.7716
  95   2.0000      -6.052894      -164.7076
  96   2.0000      -6.052588      -164.6993
  97   2.0000      -6.050544      -164.6437
  98   2.0000      -6.049986      -164.6285
  99   2.0000      -6.048249      -164.5812
 100   2.0000      -1.206345       -32.8263
 101   2.0000      -1.137211       -30.9451
 102   2.0000      -1.129272       -30.7291
 103   2.0000      -1.122022       -30.5318
 104   2.0000      -1.059614       -28.8336
 105   2.0000      -1.049532       -28.5592
 106   2.0000      -1.032461       -28.0947
 107   2.0000      -1.028305       -27.9816
 108   2.0000      -1.024161       -27.8688
 109   2.0000      -1.021766       -27.8037
 110   2.0000      -1.018057       -27.7027
 111   2.0000      -1.016110       -27.6498
 112   2.0000      -1.011224       -27.5168
 113   2.0000      -1.010137       -27.4872
 114   2.0000      -1.001700       -27.2576
 115   2.0000      -0.999162       -27.1886
 116   2.0000      -0.997828       -27.1523
 117   2.0000      -0.996668       -27.1207
 118   2.0000      -0.991403       -26.9774
 119   2.0000      -0.976190       -26.5635
 120   2.0000      -0.971357       -26.4320
 121   2.0000      -0.970093       -26.3976
 122   2.0000      -0.961790       -26.1716
 123   2.0000      -0.935071       -25.4446
 124   2.0000      -0.928087       -25.2545
 125   2.0000      -0.925003       -25.1706
 126   2.0000      -0.918677       -24.9985
 127   2.0000      -0.906065       -24.6553
 128   2.0000      -0.899989       -24.4899
 129   2.0000      -0.891425       -24.2569
 130   2.0000      -0.885862       -24.1055
 131   2.0000      -0.883307       -24.0360
 132   2.0000      -0.880642       -23.9635
 133   2.0000      -0.879366       -23.9288
 134   2.0000      -0.877017       -23.8648
 135   2.0000      -0.870397       -23.6847
 136   2.0000      -0.868636       -23.6368
 137   2.0000      -0.860081       -23.4040
 138   2.0000      -0.855099       -23.2684
 139   2.0000      -0.831035       -22.6136
 140   2.0000      -0.826981       -22.5033
 141   2.0000      -0.824179       -22.4270
 142   2.0000      -0.813397       -22.1336
 143   2.0000      -0.796031       -21.6611
 144   2.0000      -0.789606       -21.4863
 145   2.0000      -0.781028       -21.2529
 146   2.0000      -0.772832       -21.0298
 147   2.0000      -0.765073       -20.8187
 148   2.0000      -0.760345       -20.6900
 149   2.0000      -0.747364       -20.3368
 150   2.0000      -0.736413       -20.0388
 151   2.0000      -0.731306       -19.8999
 152   2.0000      -0.720461       -19.6048
 153   2.0000      -0.715272       -19.4635
 154   2.0000      -0.707871       -19.2622
 155   2.0000      -0.706868       -19.2348
 156   2.0000      -0.704299       -19.1650
 157   2.0000      -0.702268       -19.1097
 158   2.0000      -0.700043       -19.0491
 159   2.0000      -0.697376       -18.9766
 160   2.0000      -0.692495       -18.8437
 161   2.0000      -0.687734       -18.7142
 162   2.0000      -0.685229       -18.6460
 163   2.0000      -0.679903       -18.5011
 164   2.0000      -0.673834       -18.3360
 165   2.0000      -0.665300       -18.1037
 166   2.0000      -0.656698       -17.8697
 167   2.0000      -0.645039       -17.5524
 168   2.0000      -0.642318       -17.4784
 169   2.0000      -0.636400       -17.3173
 170   2.0000      -0.634215       -17.2579
 171   2.0000      -0.630394       -17.1539
 172   2.0000      -0.628567       -17.1042
 173   2.0000      -0.624198       -16.9853
 174   2.0000      -0.615997       -16.7621
 175   2.0000      -0.612268       -16.6607
 176   2.0000      -0.608749       -16.5649
 177   2.0000      -0.606121       -16.4934
 178   2.0000      -0.600743       -16.3471
 179   2.0000      -0.598477       -16.2854
 180   2.0000      -0.589697       -16.0465
 181   2.0000      -0.575231       -15.6528
 182   2.0000      -0.572360       -15.5747
 183   2.0000      -0.568710       -15.4754
 184   2.0000      -0.563133       -15.3236
 185   2.0000      -0.559857       -15.2345
 186   2.0000      -0.558839       -15.2068
 187   2.0000      -0.555737       -15.1224
 188   2.0000      -0.552373       -15.0308
 189   2.0000      -0.550835       -14.9890
 190   2.0000      -0.549616       -14.9558
 191   2.0000      -0.544855       -14.8263
 192   2.0000      -0.542927       -14.7738
 193   2.0000      -0.541751       -14.7418
 194   2.0000      -0.539753       -14.6874
 195   2.0000      -0.536869       -14.6089
 196   2.0000      -0.535192       -14.5633
 197   2.0000      -0.532561       -14.4917
 198   2.0000      -0.528446       -14.3798
 199   2.0000      -0.526248       -14.3199
 200   2.0000      -0.524205       -14.2643
 201   2.0000      -0.518998       -14.1226
 202   2.0000      -0.517289       -14.0761
 203   2.0000      -0.515769       -14.0348
 204   2.0000      -0.513421       -13.9709
 205   2.0000      -0.512249       -13.9390
 206   2.0000      -0.511172       -13.9097
 207   2.0000      -0.510699       -13.8968
 208   2.0000      -0.509238       -13.8571
 209   2.0000      -0.508788       -13.8448
 210   2.0000      -0.506088       -13.7713
 211   2.0000      -0.503405       -13.6983
 212   2.0000      -0.499425       -13.5901
 213   2.0000      -0.498847       -13.5743
 214   2.0000      -0.495794       -13.4912
 215   2.0000      -0.494754       -13.4629
 216   2.0000      -0.491087       -13.3631
 217   2.0000      -0.488781       -13.3004
 218   2.0000      -0.488252       -13.2860
 219   2.0000      -0.485206       -13.2031
 220   2.0000      -0.483304       -13.1514
 221   2.0000      -0.481977       -13.1153
 222   2.0000      -0.478696       -13.0260
 223   2.0000      -0.474511       -12.9121
 224   2.0000      -0.470783       -12.8107
 225   2.0000      -0.468371       -12.7450
 226   2.0000      -0.466324       -12.6893
 227   2.0000      -0.463954       -12.6248
 228   2.0000      -0.463754       -12.6194
 229   2.0000      -0.463210       -12.6046
 230   2.0000      -0.460281       -12.5249
 231   2.0000      -0.457632       -12.4528
 232   2.0000      -0.454426       -12.3656
 233   2.0000      -0.451911       -12.2971
 234   2.0000      -0.450027       -12.2459
 235   2.0000      -0.449668       -12.2361
 236   2.0000      -0.448773       -12.2117
 237   2.0000      -0.448235       -12.1971
 238   2.0000      -0.447053       -12.1649
 239   2.0000      -0.443746       -12.0749
 240   2.0000      -0.443162       -12.0591
 241   2.0000      -0.442706       -12.0467
 242   2.0000      -0.441343       -12.0095
 243   2.0000      -0.437867       -11.9150
 244   2.0000      -0.437032       -11.8922
 245   2.0000      -0.436690       -11.8829
 246   2.0000      -0.436230       -11.8704
 247   2.0000      -0.435818       -11.8592
 248   2.0000      -0.434348       -11.8192
 249   2.0000      -0.432384       -11.7658
 250   2.0000      -0.430866       -11.7245
 251   2.0000      -0.429104       -11.6765
 252   2.0000      -0.428676       -11.6649
 253   2.0000      -0.425906       -11.5895
 254   2.0000      -0.424776       -11.5588
 255   2.0000      -0.422977       -11.5098
 256   2.0000      -0.417924       -11.3723
 257   2.0000      -0.413917       -11.2632
 258   2.0000      -0.411141       -11.1877
 259   2.0000      -0.408628       -11.1193
 260   2.0000      -0.407264       -11.0822
 261   2.0000      -0.401340       -10.9210
 262   2.0000      -0.395426       -10.7601
 263   2.0000      -0.385053       -10.4778
 264   2.0000      -0.379055       -10.3146
 265   2.0000      -0.375180       -10.2092
 266   2.0000      -0.372755       -10.1432
 267   2.0000      -0.364219        -9.9109
 268   2.0000      -0.362072        -9.8525
 269   2.0000      -0.359336        -9.7780
 270   2.0000      -0.349325        -9.5056
 271   2.0000      -0.347190        -9.4475
 272   2.0000      -0.337292        -9.1782
 273   2.0000      -0.333927        -9.0866
 274   2.0000      -0.331506        -9.0208
 275   2.0000      -0.325399        -8.8546
 276   2.0000      -0.320514        -8.7216
 277   2.0000      -0.317773        -8.6470
 278   2.0000      -0.312999        -8.5171
 279   2.0000      -0.297822        -8.1041
 280   2.0000      -0.293523        -7.9872
 281   2.0000      -0.278729        -7.5846
 282   2.0000      -0.263038        -7.1576
 283   0.0000      -0.120059        -3.2670
 284   0.0000      -0.110711        -3.0126
 285   0.0000      -0.094395        -2.5686
 286   0.0000      -0.089673        -2.4401
 287   0.0000      -0.062280        -1.6947

MULLIKEN ATOMIC CHARGES
-----------------------
   0 C :    0.271301
   1 C :   -0.332498
   2 C :   -0.171907
   3 N :    0.156152
   4 C :   -0.201132
   5 N :    0.170204
   6 C :    0.025239
   7 C :    0.019337
   8 C :   -0.085297
   9 C :    0.097048
  10 C :    0.094080
  11 C :   -0.077929
  12 C :   -0.016566
  13 C :    0.035865
  14 C :    0.035223
  15 C :   -0.015966
  16 C :    0.135109
  17 O :   -0.143096
  18 C :   -0.138891
  19 C :    0.085607
  20 C :   -0.114324
  21 C :   -0.004014
  22 C :   -0.005743
  23 C :   -0.071966
  24 S :    0.222266
  25 C :   -0.091731
  26 C :    0.030633
  27 C :    0.306496
  28 C :   -0.288057
  29 C :   -0.191162
  30 N :    0.175343
  31 C :   -0.186177
  32 N :    0.169034
  33 C :   -0.074712
  34 C :   -0.061430
  35 S :    0.254271
  36 C :   -0.121985
  37 C :   -0.015501
  38 C :    0.152812
  39 O :   -0.195484
  40 O :   -0.151490
  41 C :    0.080208
  42 C :   -0.095701
  43 S :    0.170707
  44 C :   -0.201249
  45 C :   -0.009231
  46 C :    0.014109
  47 C :   -0.108298
  48 S :    0.231411
  49 C :   -0.083899
  50 C :   -0.026355
  51 C :    0.304764
  52 C :   -0.289353
  53 C :   -0.184936
  54 N :    0.187999
  55 C :   -0.190912
  56 N :    0.172725
  57 C :    0.046925
  58 C :   -0.114825
  59 S :    0.215684
  60 C :    0.027840
  61 C :   -0.095145
  62 C :    0.301246
  63 C :   -0.344314
  64 C :   -0.180048
  65 N :    0.148172
  66 C :   -0.206483
  67 N :    0.161735
  68 C :    0.055037
  69 C :   -0.008024
  70 C :    0.153455
  71 O :   -0.152883
  72 C :   -0.081005
  73 C :    0.101117
  74 C :    0.100399
  75 C :   -0.087736
  76 C :   -0.023579
  77 C :    0.039248
  78 C :    0.037743
  79 C :   -0.019039
  80 H :   -0.011986
  81 H :    0.000038
  82 H :   -0.009030
  83 H :   -0.004317
  84 H :   -0.004839
  85 H :   -0.018019
  86 H :    0.021264
  87 H :    0.027746
  88 H :    0.020063
  89 H :    0.192702
  90 H :    0.041061
  91 H :    0.009941
  92 H :    0.030159
  93 H :    0.026176
  94 H :   -0.009925
  95 H :   -0.006677
  96 H :   -0.007510
  97 H :   -0.004524
  98 H :   -0.003779
  99 H :   -0.015011
Sum of atomic charges:   -0.0000000

LOEWDIN ATOMIC CHARGES
----------------------
   0 C :    0.066109
   1 C :   -0.136744
   2 C :   -0.018251
   3 N :   -0.047467
   4 C :   -0.016086
   5 N :   -0.048103
   6 C :   -0.023069
   7 C :   -0.057645
   8 C :    0.032455
   9 C :   -0.008985
  10 C :   -0.004981
  11 C :    0.019219
  12 C :   -0.005138
  13 C :   -0.012810
  14 C :   -0.013004
  15 C :   -0.009571
  16 C :    0.083261
  17 O :   -0.144283
  18 C :   -0.088673
  19 C :    0.043199
  20 C :   -0.180750
  21 C :    0.006931
  22 C :   -0.065426
  23 C :   -0.158528
  24 S :    0.505586
  25 C :   -0.187751
  26 C :   -0.064698
  27 C :    0.083570
  28 C :   -0.102016
  29 C :   -0.016409
  30 N :   -0.033487
  31 C :   -0.013661
  32 N :   -0.033599
  33 C :   -0.029483
  34 C :   -0.194999
  35 S :    0.554285
  36 C :   -0.136714
  37 C :   -0.133484
  38 C :    0.076195
  39 O :   -0.171989
  40 O :   -0.021057
  41 C :   -0.086798
  42 C :   -0.166370
  43 S :    0.493930
  44 C :   -0.183620
  45 C :   -0.028110
  46 C :   -0.062256
  47 C :   -0.183441
  48 S :    0.501503
  49 C :   -0.164293
  50 C :   -0.072994
  51 C :    0.076895
  52 C :   -0.093822
  53 C :   -0.019948
  54 N :   -0.016956
  55 C :   -0.015177
  56 N :   -0.031447
  57 C :    0.025236
  58 C :   -0.176474
  59 S :    0.499776
  60 C :    0.043398
  61 C :   -0.090085
  62 C :    0.075138
  63 C :   -0.139638
  64 C :   -0.017466
  65 N :   -0.051719
  66 C :   -0.025356
  67 N :   -0.051850
  68 C :   -0.026474
  69 C :   -0.055877
  70 C :    0.084955
  71 O :   -0.139036
  72 C :    0.034304
  73 C :   -0.007939
  74 C :   -0.005735
  75 C :    0.019965
  76 C :   -0.005433
  77 C :   -0.012134
  78 C :   -0.011309
  79 C :   -0.008935
  80 H :    0.039222
  81 H :    0.040547
  82 H :    0.035065
  83 H :    0.033283
  84 H :    0.032779
  85 H :    0.031603
  86 H :    0.046097
  87 H :    0.042793
  88 H :    0.033347
  89 H :    0.089159
  90 H :    0.032757
  91 H :    0.042472
  92 H :    0.045634
  93 H :    0.044751
  94 H :    0.040131
  95 H :    0.039315
  96 H :    0.035154
  97 H :    0.033503
  98 H :    0.033393
  99 H :    0.032639

  Mayer bond orders larger than 0.100000
B(  0-C ,  1-C ) :   1.6534 B(  0-C ,  6-C ) :   0.9974 B(  0-C , 18-C ) :   1.0326
B(  1-C ,  2-C ) :   1.1287 B(  1-C ,  4-C ) :   1.1696 B(  2-C ,  3-N ) :   2.9920
B(  4-C ,  5-N ) :   2.9997 B(  6-C ,  7-C ) :   1.2157 B(  6-C , 11-C ) :   1.4598
B(  7-C ,  8-C ) :   1.4720 B(  7-C , 16-C ) :   0.9219 B(  8-C ,  9-C ) :   1.1851
B(  8-C , 80-H ) :   1.0158 B(  9-C , 10-C ) :   1.2568 B(  9-C , 15-C ) :   1.2450
B( 10-C , 11-C ) :   1.2048 B( 10-C , 12-C ) :   1.2426 B( 11-C , 81-H ) :   0.9938
B( 12-C , 13-C ) :   1.4887 B( 12-C , 82-H ) :   0.9972 B( 13-C , 14-C ) :   1.2616
B( 13-C , 83-H ) :   0.9884 B( 14-C , 15-C ) :   1.4887 B( 14-C , 84-H ) :   0.9887
B( 15-C , 85-H ) :   0.9972 B( 16-C , 17-O ) :   2.2691 B( 16-C , 18-C ) :   0.9383
B( 18-C , 19-C ) :   1.6786 B( 19-C , 20-C ) :   1.1263 B( 19-C , 86-H ) :   0.9293
B( 20-C , 21-C ) :   1.4042 B( 20-C , 24-S ) :   1.0923 B( 21-C , 22-C ) :   1.3529
B( 21-C , 87-H ) :   0.9804 B( 22-C , 23-C ) :   1.4141 B( 22-C , 27-C ) :   0.9989
B( 23-C , 24-S ) :   1.1578 B( 23-C , 25-C ) :   1.1854 B( 25-C , 26-C ) :   1.4126
B( 25-C , 35-S ) :   1.1045 B( 26-C , 27-C ) :   0.9926 B( 26-C , 33-C ) :   1.3348
B( 27-C , 28-C ) :   1.7152 B( 28-C , 29-C ) :   1.1335 B( 28-C , 31-C ) :   1.1347
B( 29-C , 30-N ) :   2.9914 B( 31-C , 32-N ) :   2.9822 B( 33-C , 34-C ) :   1.4132
B( 33-C , 88-H ) :   0.9829 B( 34-C , 35-S ) :   1.1274 B( 34-C , 36-C ) :   1.1558
B( 36-C , 37-C ) :   1.5016 B( 36-C , 43-S ) :   1.1883 B( 37-C , 38-C ) :   0.9365
B( 37-C , 41-C ) :   1.1882 B( 38-C , 39-O ) :   2.0651 B( 38-C , 40-O ) :   1.2518
B( 40-O , 89-H ) :   0.9454 B( 41-C , 42-C ) :   1.5921 B( 41-C , 44-C ) :   0.9901
B( 42-C , 43-S ) :   1.1506 B( 42-C , 90-H ) :   0.9684 B( 44-C , 45-C ) :   1.4872
B( 44-C , 48-S ) :   1.1310 B( 45-C , 46-C ) :   1.2675 B( 45-C , 91-H ) :   1.0008
B( 46-C , 47-C ) :   1.4455 B( 46-C , 51-C ) :   0.9942 B( 47-C , 48-S ) :   1.1321
B( 47-C , 49-C ) :   1.1888 B( 49-C , 50-C ) :   1.3983 B( 49-C , 59-S ) :   1.1661
B( 50-C , 51-C ) :   0.9941 B( 50-C , 57-C ) :   1.3342 B( 51-C , 52-C ) :   1.7207
B( 52-C , 53-C ) :   1.1320 B( 52-C , 55-C ) :   1.1342 B( 53-C , 54-N ) :   2.9946
B( 55-C , 56-N ) :   2.9892 B( 57-C , 58-C ) :   1.4221 B( 57-C , 92-H ) :   0.9760
B( 58-C , 59-S ) :   1.0808 B( 58-C , 60-C ) :   1.1748 B( 60-C , 61-C ) :   1.6160
B( 60-C , 93-H ) :   0.9297 B( 61-C , 62-C ) :   1.0653 B( 61-C , 70-C ) :   0.9394
B( 62-C , 63-C ) :   1.6382 B( 62-C , 68-C ) :   0.9926 B( 63-C , 64-C ) :   1.1448
B( 63-C , 66-C ) :   1.1404 B( 64-C , 65-N ) :   2.9673 B( 66-C , 67-N ) :   2.9952
B( 68-C , 69-C ) :   1.2112 B( 68-C , 75-C ) :   1.4461 B( 69-C , 70-C ) :   0.9479
B( 69-C , 72-C ) :   1.4709 B( 70-C , 71-O ) :   2.1993 B( 72-C , 73-C ) :   1.1766
B( 72-C , 94-H ) :   1.0175 B( 73-C , 74-C ) :   1.2554 B( 73-C , 79-C ) :   1.2436
B( 74-C , 75-C ) :   1.2048 B( 74-C , 76-C ) :   1.2381 B( 75-C , 95-H ) :   0.9922
B( 76-C , 77-C ) :   1.4902 B( 76-C , 96-H ) :   0.9982 B( 77-C , 78-C ) :   1.2599
B( 77-C , 97-H ) :   0.9877 B( 78-C , 79-C ) :   1.4876 B( 78-C , 98-H ) :   0.9886
B( 79-C , 99-H ) :   0.9988

-----------------------------------------------------------------------------
         ABSORPTION SPECTRUM VIA TRANSITION ELECTRIC DIPOLE MOMENTS
-----------------------------------------------------------------------------
State   Energy  Wavelength   fosc         T2         TX        TY        TZ
        (cm-1)    (nm)                  (au**2)     (au)      (au)      (au)
-----------------------------------------------------------------------------
   0   14545.3    687.5   0.329261023   7.45233  -0.23204   2.71193   0.20958
   1   15205.1    657.7   0.152114049   3.29348  -0.34890  -1.41458  -1.08199
   2   20356.5    491.2   1.047091201  16.93393   0.84081  -4.01934  -0.26812
   3   21226.0    471.1   0.006679149   0.10359   0.18598  -0.11802   0.23468
   4   22379.0    446.8   0.898584327  13.21886   0.90272   2.77240   2.17205
   5   25133.6    397.9   0.068653847   0.89926  -0.48377  -0.81560  -0.00572
   6   25178.0    397.2   0.034540617   0.45163  -0.12665  -0.64753  -0.12764
   7   26106.1    383.1   0.007546885   0.09517  -0.01820   0.11791   0.28449
   8   26700.1    374.5   0.038000110   0.46854  -0.08549   0.66718   0.12689
   9   27518.0    363.4   0.197790407   2.36627   0.04675  -1.53634  -0.06112
  10   28266.7    353.8   0.268583507   3.12810   0.20928   1.74452   0.20238
  11   28377.5    352.4   0.342800512   3.97688  -0.03672  -1.88417   0.65225
  12   28531.0    350.5   0.095063060   1.09691  -0.21596  -0.98162   0.29445
  13   28563.6    350.1   0.064158254   0.73946   0.15920   0.84499   0.01029
  14   29265.6    341.7   0.030706981   0.34543  -0.01691  -0.05090  -0.58528
  15   29295.7    341.3   0.001029517   0.01157   0.10055   0.00874   0.03717
  16   29886.5    334.6   0.142891428   1.57401   0.47080   1.13646  -0.24659
  17   30015.0    333.2   0.206835558   2.26863  -0.11602  -1.15336  -0.96173
  18   30513.9    327.7   0.270893818   2.92265   1.21111   0.99280   0.68572
  19   30794.4    324.7   0.128710537   1.37600   0.56868  -0.34455  -0.96638
  20   31000.4    322.6   0.648098559   6.88254   0.63135  -1.75888   1.84128
  21   31428.5    318.2   0.040997353   0.42944   0.06505  -0.42479  -0.49474
  22   31737.3    315.1   0.279680641   2.90113  -0.00717   1.67703   0.29775
  23   31901.1    313.5   0.384759045   3.97062  -0.10282   1.98996   0.01029
  24   32167.2    310.9   0.249418002   2.55264   0.29604   1.51393  -0.41594
  25   32373.3    308.9   0.059016232   0.60015   0.08691   0.56431   0.52359
  26   32597.9    306.8   0.014087268   0.14227  -0.32153  -0.05331  -0.18987
  27   32750.5    305.3   0.023625007   0.23748   0.11891   0.08321   0.46521
  28   33461.2    298.9   0.021553435   0.21206   0.16753   0.35421   0.24192
  29   33881.6    295.1   0.432484474   4.20225  -0.59978  -1.73623  -0.90995
  30   34099.9    293.3   0.075888310   0.73265   0.05646   0.38855  -0.76059
  31   34427.3    290.5   0.029655927   0.28359   0.16098   0.49661   0.10512
  32   34455.7    290.2   0.775188924   7.40665   0.76247   1.78149  -1.91091
  33   34575.8    289.2   0.015440456   0.14702   0.08779  -0.31544  -0.19952
  34   34926.1    286.3   0.142818663   1.34620   0.27110   1.12597  -0.07003
  35   35075.3    285.1   0.038262644   0.35913   0.08943   0.58745  -0.07766
  36   35218.6    283.9   0.090645960   0.84733  -0.86340   0.28863  -0.13626
  37   35435.7    282.2   0.010744926   0.09982   0.07192  -0.12971   0.27897
  38   35841.7    279.0   0.099516778   0.91408  -0.05729  -0.38876  -0.87159
  39   35961.9    278.1   0.073167477   0.66981   0.00894  -0.24108  -0.78206
  40   36587.5    273.3   0.162539092   1.46251  -0.06618  -0.96332  -0.72811
  41   36747.3    272.1   0.047957228   0.42964   0.27185   0.04648  -0.59462
  42   37106.5    269.5   0.007906251   0.07014  -0.01148  -0.14762  -0.21959
  43   37154.9    269.1   0.001211093   0.01073   0.05785   0.08261  -0.02367
  44   37244.6    268.5   0.019621085   0.17343  -0.02173  -0.22829  -0.34763
  45   37886.7    263.9   0.042496303   0.36927  -0.01445   0.53279   0.29187
  46   38012.3    263.1   0.129270948   1.11957  -0.08660  -0.52372  -0.91531
  47   38234.9    261.5   0.087241380   0.75117   0.08160   0.41241  -0.75791
  48   38424.6    260.2   0.045899733   0.39326  -0.09798   0.57477  -0.23087
  49   38726.6    258.2   0.124036182   1.05442  -0.00015   0.48819   0.90338
  50   38783.6    257.8   0.016939757   0.14379   0.04839   0.30162  -0.22467
  51   38962.0    256.7   0.007023654   0.05935  -0.01269   0.04366  -0.23933
  52   39355.6    254.1   0.009872595   0.08258  -0.01996  -0.25626   0.12853
  53   39426.5    253.6   0.071950634   0.60079  -0.60447   0.03471   0.48394
  54   39472.7    253.3   0.042943148   0.35816   0.18712   0.50803   0.25504
  55   39549.9    252.8   0.035826575   0.29822   0.04975  -0.54379  -0.00621
  56   40065.2    249.6   0.004823372   0.03963  -0.04129   0.16624   0.10145
  57   40284.5    248.2   0.156303082   1.27734  -0.08013  -0.14332  -1.11820

FINAL SINGLE POINT ENERGY     -5137.854664810475

DIPOLE MOMENT
-------------
                                X             Y             Z
Electronic contribution:     -9.08883       0.00826       1.98503
Nuclear contribution   :      9.24185       0.42406      -2.53816
                        -----------------------------------------
Total Dipole Moment    :      0.15302       0.43232      -0.55313
                        -----------------------------------------
Magnitude (a.u.)       :      0.71852
Magnitude (Debye)      :      1.82633

Rotational constants in cm-1:     0.002299     0.000154     0.000149
Rotational constants in MHz :    68.930905     4.622867     4.466265

                             ****ORCA TERMINATED NORMALLY****
TOTAL RUN TIME: 0 days 0 hours 12 minutes 14 seconds 24 msec
