                         Program Version 4.2.0 -  RELEASE  -
|  1> # ORCA input file
|  2> # SCF done       -180.141201060944          0.000679023735
|  3> ! CAM-B3LYP def2-SVP def2/J RIJCOSX Grid4 TightSCF
|  4> %maxcore 5000
|  5> %tddft
|  6>     Mode sTDDFT
|  7>     Ethresh 5.0
|  8>     maxcore 5000
|  9> end
| 10>
| 11> %pal
| 12>   nprocs 6
| 13>   end
| 14> * xyz 0 1
| 15>    C       -2.64995        -0.71596         0.29436
| 16>    C       -2.87029        -1.82657        -0.48177
| 17>    C       -2.08797        -2.99760        -0.42349
| 18>    N       -1.49190        -3.97939        -0.41718
| 19>    C       -3.87860        -1.95316        -1.45910
| 20>    N       -4.65630        -2.13559        -2.28498
| 21>    C       -1.55637        -0.55074         1.24044
| 22>    C       -1.59994         0.76643         1.75722
| 23>    C       -0.69351         1.23444         2.67682
| 24>    C        0.30965         0.36007         3.10694
| 25>    C        0.34469        -0.95623         2.58797
| 26>    C       -0.57339        -1.42982         1.65986
| 27>    S        1.66220        -1.87138         3.25819
| 28>    C        2.14199        -0.49054         4.20946
| 29>    C        1.35771         0.59949         4.03737
| 30>   Br        3.63266        -0.61884         5.34127
| 31>    C       -2.73550         1.49831         1.16061
| 32>    O       -3.05938         2.63542         1.42765
| 33>    C       -3.41184         0.52237         0.26721
| 34>    C       -4.64158         0.67297        -0.29928
| 35>    C       -5.41191         1.87701        -0.43049
| 36>    C       -4.81631         3.13225        -0.63674
| 37>    C       -5.61072         4.24771        -0.72425
| 38>    C       -7.00666         4.14409        -0.57030
| 39>    C       -7.61030         2.90043        -0.42283
| 40>    C       -6.81304         1.77825        -0.38213
| 41>    C       -7.57107         5.47334        -0.56600
| 42>    C       -6.52535         6.40180        -0.71538
| 43>    C       -5.20631         5.68920        -0.92707
| 44>    C       -4.12967         6.14309         0.06832
| 45>    C       -4.54292         5.91387         1.51730
| 46>    C       -4.78068         5.96100        -2.39048
| 47>    C       -3.60229         5.14121        -2.89899
| 48>    C       -6.77537         7.75082        -0.68974
| 49>    C       -8.08885         8.21096        -0.50623
| 50>    C       -9.12255         7.27009        -0.38104
| 51>    C       -8.87850         5.91317        -0.40691
| 52>    C       -8.41820         9.61274        -0.42537
| 53>    C       -7.54746        10.64019        -0.42360
| 54>    C       -7.91082        12.01025        -0.29750
| 55>    S       -9.54947        12.56539        -0.14841
| 56>    C       -9.06753        14.21951         0.00036
| 57>    C       -7.67184        14.33627        -0.07553
| 58>    C       -7.02994        13.07714        -0.24901
| 59>    O       -5.70606        12.86370        -0.35318
| 60>    C       -6.97241        15.61022         0.02213
| 61>    O       -7.46356        16.69874         0.20802
| 62>    O       -5.62029        15.50143        -0.11365
| 63>    C       -9.98511        15.29075         0.19428
| 64>    C      -11.33126        15.25574         0.21046
| 65>    C      -12.16059        14.02960         0.02386
| 66>    C      -12.09346        16.52994         0.47762
| 67>    N      -12.90524        16.39961         1.66303
| 68>    C      -14.24948        16.28639         1.65116
| 69>    C      -14.98869        15.87688         2.71627
| 70>    C      -16.39770        15.83538         2.79557
| 71>    C      -17.34477        16.29164         1.91836
| 72>    C      -18.74787        16.21281         2.12722
| 73>    C      -19.50714        16.78283         1.15652
| 74>    C      -18.75770        17.35547         0.09875
| 75>    S      -17.04477        17.11627         0.38759
| 76>    C      -19.22134        18.02060        -1.00889
| 77>    C      -20.57272        18.28378        -1.36099
| 78>    C      -20.72748        18.98203        -2.50814
| 79>    C      -19.49978        19.33005        -3.16339
| 80>    S      -18.14138        18.70076        -2.21842
| 81>    C      -19.34204        20.01904        -4.30204
| 82>    H       -0.75533         2.24467         3.05019
| 83>    H       -0.50710        -2.44270         1.29972
| 84>    H        1.50934         1.53450         4.54514
| 85>    H       -5.13672        -0.22203        -0.65834
| 86>    H       -3.74667         3.20431        -0.73391
| 87>    H       -8.68311         2.81550        -0.33602
| 88>    H       -7.26199         0.80281        -0.26072
| 89>    H       -3.92982         7.20459        -0.09501
| 90>    H       -3.20803         5.59271        -0.12071
| 91>    H       -5.49899         6.38896         1.72809
| 92>    H       -3.79481         6.33086         2.18739
| 93>    H       -4.62597         4.84974         1.72176
| 94>    H       -4.54119         7.02354        -2.47330
| 95>    H       -5.64352         5.76716        -3.03343
| 96>    H       -2.72312         5.27983        -2.27579
| 97>    H       -3.35229         5.45872        -3.90921
| 98>    H       -3.85009         4.08370        -2.92958
| 99>    H       -5.96721         8.45611        -0.80381
|100>    H      -10.13440         7.62677        -0.25002
|101>    H       -9.68886         5.20763        -0.29899
|102>    H       -9.47388         9.84222        -0.33485
|103>    H       -6.48174        10.48108        -0.50045
|104>    H       -5.24516        13.71540        -0.30365
|105>    H       -5.22864        16.38514        -0.03860
|106>    H       -9.50001        16.24718         0.33103
|107>    H      -11.92598        13.55110        -0.92687
|108>    H      -13.22020        14.27251         0.04274
|109>    H      -11.95780        13.29793         0.80679
|110>    H      -12.75569        16.75770        -0.36260
|111>    H      -11.39568        17.36419         0.60547
|112>    H      -12.42038        16.10032         2.49720
|113>    H      -14.71953        16.58035         0.72526
|114>    H      -14.45720        15.54924         3.60114
|115>    H      -16.79801        15.39438         3.70062
|116>    H      -19.14852        15.73802         3.00638
|117>    H      -20.58171        16.81861         1.17098
|118>    H      -21.38639        17.94435        -0.74417
|119>    H      -21.67379        19.27427        -2.92790
|120>    H      -20.19602        20.38563        -4.84349
|121>    H      -18.36910        20.22817        -4.70698
|122> *
|123>
|124>                          ****END OF INPUT****

CARTESIAN COORDINATES (ANGSTROEM)
---------------------------------
  C     -2.649950   -0.715960    0.294360
  C     -2.870290   -1.826570   -0.481770
  C     -2.087970   -2.997600   -0.423490
  N     -1.491900   -3.979390   -0.417180
  C     -3.878600   -1.953160   -1.459100
  N     -4.656300   -2.135590   -2.284980
  C     -1.556370   -0.550740    1.240440
  C     -1.599940    0.766430    1.757220
  C     -0.693510    1.234440    2.676820
  C      0.309650    0.360070    3.106940
  C      0.344690   -0.956230    2.587970
  C     -0.573390   -1.429820    1.659860
  S      1.662200   -1.871380    3.258190
  C      2.141990   -0.490540    4.209460
  C      1.357710    0.599490    4.037370
  Br     3.632660   -0.618840    5.341270
  C     -2.735500    1.498310    1.160610
  O     -3.059380    2.635420    1.427650
  C     -3.411840    0.522370    0.267210
  C     -4.641580    0.672970   -0.299280
  C     -5.411910    1.877010   -0.430490
  C     -4.816310    3.132250   -0.636740
  C     -5.610720    4.247710   -0.724250
  C     -7.006660    4.144090   -0.570300
  C     -7.610300    2.900430   -0.422830
  C     -6.813040    1.778250   -0.382130
  C     -7.571070    5.473340   -0.566000
  C     -6.525350    6.401800   -0.715380
  C     -5.206310    5.689200   -0.927070
  C     -4.129670    6.143090    0.068320
  C     -4.542920    5.913870    1.517300
  C     -4.780680    5.961000   -2.390480
  C     -3.602290    5.141210   -2.898990
  C     -6.775370    7.750820   -0.689740
  C     -8.088850    8.210960   -0.506230
  C     -9.122550    7.270090   -0.381040
  C     -8.878500    5.913170   -0.406910
  C     -8.418200    9.612740   -0.425370
  C     -7.547460   10.640190   -0.423600
  C     -7.910820   12.010250   -0.297500
  S     -9.549470   12.565390   -0.148410
  C     -9.067530   14.219510    0.000360
  C     -7.671840   14.336270   -0.075530
  C     -7.029940   13.077140   -0.249010
  O     -5.706060   12.863700   -0.353180
  C     -6.972410   15.610220    0.022130
  O     -7.463560   16.698740    0.208020
  O     -5.620290   15.501430   -0.113650
  C     -9.985110   15.290750    0.194280
  C    -11.331260   15.255740    0.210460
  C    -12.160590   14.029600    0.023860
  C    -12.093460   16.529940    0.477620
  N    -12.905240   16.399610    1.663030
  C    -14.249480   16.286390    1.651160
  C    -14.988690   15.876880    2.716270
  C    -16.397700   15.835380    2.795570
  C    -17.344770   16.291640    1.918360
  C    -18.747870   16.212810    2.127220
  C    -19.507140   16.782830    1.156520
  C    -18.757700   17.355470    0.098750
  S    -17.044770   17.116270    0.387590
  C    -19.221340   18.020600   -1.008890
  C    -20.572720   18.283780   -1.360990
  C    -20.727480   18.982030   -2.508140
  C    -19.499780   19.330050   -3.163390
  S    -18.141380   18.700760   -2.218420
  C    -19.342040   20.019040   -4.302040
  H     -0.755330    2.244670    3.050190
  H     -0.507100   -2.442700    1.299720
  H      1.509340    1.534500    4.545140
  H     -5.136720   -0.222030   -0.658340
  H     -3.746670    3.204310   -0.733910
  H     -8.683110    2.815500   -0.336020
  H     -7.261990    0.802810   -0.260720
  H     -3.929820    7.204590   -0.095010
  H     -3.208030    5.592710   -0.120710
  H     -5.498990    6.388960    1.728090
  H     -3.794810    6.330860    2.187390
  H     -4.625970    4.849740    1.721760
  H     -4.541190    7.023540   -2.473300
  H     -5.643520    5.767160   -3.033430
  H     -2.723120    5.279830   -2.275790
  H     -3.352290    5.458720   -3.909210
  H     -3.850090    4.083700   -2.929580
  H     -5.967210    8.456110   -0.803810
  H    -10.134400    7.626770   -0.250020
  H     -9.688860    5.207630   -0.298990
  H     -9.473880    9.842220   -0.334850
  H     -6.481740   10.481080   -0.500450
  H     -5.245160   13.715400   -0.303650
  H     -5.228640   16.385140   -0.038600
  H     -9.500010   16.247180    0.331030
  H    -11.925980   13.551100   -0.926870
  H    -13.220200   14.272510    0.042740
  H    -11.957800   13.297930    0.806790
  H    -12.755690   16.757700   -0.362600
  H    -11.395680   17.364190    0.605470
  H    -12.420380   16.100320    2.497200
  H    -14.719530   16.580350    0.725260
  H    -14.457200   15.549240    3.601140
  H    -16.798010   15.394380    3.700620
  H    -19.148520   15.738020    3.006380
  H    -20.581710   16.818610    1.170980
  H    -21.386390   17.944350   -0.744170
  H    -21.673790   19.274270   -2.927900
  H    -20.196020   20.385630   -4.843490
  H    -18.369100   20.228170   -4.706980

 Total Charge           Charge          ....    0
 Multiplicity           Mult            ....    1
 Number of Electrons    NEL             ....  522
 Basis Dimension        Dim             .... 1172

ORBITAL ENERGIES
----------------

  NO   OCC          E(Eh)            E(eV)
   0   2.0000    -482.886006    -13139.9962
   1   2.0000     -88.975401     -2421.1438
   2   2.0000     -88.967529     -2420.9295
   3   2.0000     -88.927678     -2419.8451
   4   2.0000     -88.919359     -2419.6188
   5   2.0000     -62.563713     -1702.4452
   6   2.0000     -56.397664     -1534.6585
   7   2.0000     -56.394946     -1534.5845
   8   2.0000     -56.394915     -1534.5837
   9   2.0000     -19.286201      -524.8042
  10   2.0000     -19.247663      -523.7555
  11   2.0000     -19.217449      -522.9334
  12   2.0000     -19.216032      -522.8948
  13   2.0000     -14.436081      -392.8257
  14   2.0000     -14.413288      -392.2055
  15   2.0000     -14.412723      -392.1901
  16   2.0000     -10.422641      -283.6145
  17   2.0000     -10.368043      -282.1288
  18   2.0000     -10.359300      -281.8909
  19   2.0000     -10.346107      -281.5319
  20   2.0000     -10.339905      -281.3631
  21   2.0000     -10.339261      -281.3456
  22   2.0000     -10.326840      -281.0076
  23   2.0000     -10.325675      -280.9759
  24   2.0000     -10.316255      -280.7196
  25   2.0000     -10.315625      -280.7024
  26   2.0000     -10.314582      -280.6740
  27   2.0000     -10.314250      -280.6650
  28   2.0000     -10.310615      -280.5661
  29   2.0000     -10.307835      -280.4904
  30   2.0000     -10.307422      -280.4792
  31   2.0000     -10.305271      -280.4207
  32   2.0000     -10.300802      -280.2991
  33   2.0000     -10.296941      -280.1940
  34   2.0000     -10.295071      -280.1431
  35   2.0000     -10.294212      -280.1197
  36   2.0000     -10.292943      -280.0852
  37   2.0000     -10.292371      -280.0697
  38   2.0000     -10.292182      -280.0645
  39   2.0000     -10.291734      -280.0523
  40   2.0000     -10.289041      -279.9790
  41   2.0000     -10.286675      -279.9147
  42   2.0000     -10.283781      -279.8359
  43   2.0000     -10.280771      -279.7540
  44   2.0000     -10.280583      -279.7489
  45   2.0000     -10.279817      -279.7280
  46   2.0000     -10.277657      -279.6693
  47   2.0000     -10.277395      -279.6621
  48   2.0000     -10.276425      -279.6357
  49   2.0000     -10.275473      -279.6098
  50   2.0000     -10.275163      -279.6014
  51   2.0000     -10.273442      -279.5546
  52   2.0000     -10.272497      -279.5289
  53   2.0000     -10.272428      -279.5270
  54   2.0000     -10.271333      -279.4972
  55   2.0000     -10.268785      -279.4278
  56   2.0000     -10.268782      -279.4278
  57   2.0000     -10.268484      -279.4197
  58   2.0000     -10.268465      -279.4191
  59   2.0000     -10.268222      -279.4125
  60   2.0000     -10.267779      -279.4005
  61   2.0000     -10.266529      -279.3665
  62   2.0000     -10.265450      -279.3371
  63   2.0000     -10.264847      -279.3207
  64   2.0000     -10.264089      -279.3001
  65   2.0000     -10.261838      -279.2388
  66   2.0000     -10.256968      -279.1063
  67   2.0000     -10.250007      -278.9169
  68   2.0000     -10.249846      -278.9125
  69   2.0000     -10.249611      -278.9061
  70   2.0000     -10.237174      -278.5677
  71   2.0000      -8.793136      -239.2734
  72   2.0000      -8.071455      -219.6355
  73   2.0000      -8.062302      -219.3864
  74   2.0000      -8.023413      -218.3282
  75   2.0000      -8.016087      -218.1288
  76   2.0000      -6.629429      -180.3959
  77   2.0000      -6.614877      -180.0000
  78   2.0000      -6.614669      -179.9943
  79   2.0000      -6.041157      -164.3882
  80   2.0000      -6.036877      -164.2718
  81   2.0000      -6.032628      -164.1561
  82   2.0000      -6.031437      -164.1237
  83   2.0000      -6.027411      -164.0142
  84   2.0000      -6.024674      -163.9397
  85   2.0000      -5.993188      -163.0829
  86   2.0000      -5.989258      -162.9760
  87   2.0000      -5.985958      -162.8862
  88   2.0000      -5.984310      -162.8413
  89   2.0000      -5.982072      -162.7804
  90   2.0000      -5.976527      -162.6296
  91   2.0000      -2.745320       -74.7040
  92   2.0000      -2.741205       -74.5920
  93   2.0000      -2.741066       -74.5882
  94   2.0000      -2.729493       -74.2733
  95   2.0000      -2.729476       -74.2728
  96   2.0000      -1.207510       -32.8580
  97   2.0000      -1.147928       -31.2367
  98   2.0000      -1.131398       -30.7869
  99   2.0000      -1.107283       -30.1307
 100   2.0000      -1.037954       -28.2442
 101   2.0000      -1.022181       -27.8150
 102   2.0000      -1.011837       -27.5335
 103   2.0000      -0.991979       -26.9931
 104   2.0000      -0.991421       -26.9779
 105   2.0000      -0.989250       -26.9189
 106   2.0000      -0.987217       -26.8635
 107   2.0000      -0.972606       -26.4660
 108   2.0000      -0.951070       -25.8799
 109   2.0000      -0.949675       -25.8420
 110   2.0000      -0.940186       -25.5838
 111   2.0000      -0.923300       -25.1243
 112   2.0000      -0.916956       -24.9516
 113   2.0000      -0.907601       -24.6971
 114   2.0000      -0.896404       -24.3924
 115   2.0000      -0.893515       -24.3138
 116   2.0000      -0.885540       -24.0968
 117   2.0000      -0.881043       -23.9744
 118   2.0000      -0.874873       -23.8065
 119   2.0000      -0.857696       -23.3391
 120   2.0000      -0.853371       -23.2214
 121   2.0000      -0.843212       -22.9450
 122   2.0000      -0.835706       -22.7407
 123   2.0000      -0.833742       -22.6873
 124   2.0000      -0.830713       -22.6048
 125   2.0000      -0.828974       -22.5575
 126   2.0000      -0.826559       -22.4918
 127   2.0000      -0.824256       -22.4291
 128   2.0000      -0.813255       -22.1298
 129   2.0000      -0.803556       -21.8659
 130   2.0000      -0.801544       -21.8111
 131   2.0000      -0.788733       -21.4625
 132   2.0000      -0.778236       -21.1769
 133   2.0000      -0.766585       -20.8598
 134   2.0000      -0.762298       -20.7432
 135   2.0000      -0.757544       -20.6138
 136   2.0000      -0.749636       -20.3986
 137   2.0000      -0.740320       -20.1451
 138   2.0000      -0.728787       -19.8313
 139   2.0000      -0.712199       -19.3799
 140   2.0000      -0.706664       -19.2293
 141   2.0000      -0.701396       -19.0860
 142   2.0000      -0.690931       -18.8012
 143   2.0000      -0.686370       -18.6771
 144   2.0000      -0.685743       -18.6600
 145   2.0000      -0.681267       -18.5382
 146   2.0000      -0.674420       -18.3519
 147   2.0000      -0.673401       -18.3242
 148   2.0000      -0.663162       -18.0456
 149   2.0000      -0.656338       -17.8599
 150   2.0000      -0.655702       -17.8426
 151   2.0000      -0.652663       -17.7599
 152   2.0000      -0.638481       -17.3740
 153   2.0000      -0.630500       -17.1568
 154   2.0000      -0.628780       -17.1100
 155   2.0000      -0.622630       -16.9426
 156   2.0000      -0.620844       -16.8940
 157   2.0000      -0.612385       -16.6638
 158   2.0000      -0.606443       -16.5022
 159   2.0000      -0.603312       -16.4170
 160   2.0000      -0.601169       -16.3586
 161   2.0000      -0.595528       -16.2051
 162   2.0000      -0.592326       -16.1180
 163   2.0000      -0.582878       -15.8609
 164   2.0000      -0.581186       -15.8149
 165   2.0000      -0.578744       -15.7484
 166   2.0000      -0.577549       -15.7159
 167   2.0000      -0.568964       -15.4823
 168   2.0000      -0.564964       -15.3735
 169   2.0000      -0.561753       -15.2861
 170   2.0000      -0.558757       -15.2045
 171   2.0000      -0.551742       -15.0137
 172   2.0000      -0.548300       -14.9200
 173   2.0000      -0.543548       -14.7907
 174   2.0000      -0.541043       -14.7225
 175   2.0000      -0.539411       -14.6781
 176   2.0000      -0.537260       -14.6196
 177   2.0000      -0.532088       -14.4788
 178   2.0000      -0.529866       -14.4184
 179   2.0000      -0.527932       -14.3658
 180   2.0000      -0.525901       -14.3105
 181   2.0000      -0.522255       -14.2113
 182   2.0000      -0.519075       -14.1247
 183   2.0000      -0.517910       -14.0930
 184   2.0000      -0.517021       -14.0689
 185   2.0000      -0.511481       -13.9181
 186   2.0000      -0.509844       -13.8735
 187   2.0000      -0.508902       -13.8479
 188   2.0000      -0.508519       -13.8375
 189   2.0000      -0.505381       -13.7521
 190   2.0000      -0.502382       -13.6705
 191   2.0000      -0.498884       -13.5753
 192   2.0000      -0.497886       -13.5482
 193   2.0000      -0.492685       -13.4066
 194   2.0000      -0.491111       -13.3638
 195   2.0000      -0.490113       -13.3367
 196   2.0000      -0.486748       -13.2451
 197   2.0000      -0.485415       -13.2088
 198   2.0000      -0.480117       -13.0646
 199   2.0000      -0.477165       -12.9843
 200   2.0000      -0.475835       -12.9481
 201   2.0000      -0.473673       -12.8893
 202   2.0000      -0.472919       -12.8688
 203   2.0000      -0.468979       -12.7616
 204   2.0000      -0.467712       -12.7271
 205   2.0000      -0.463303       -12.6071
 206   2.0000      -0.460975       -12.5438
 207   2.0000      -0.458646       -12.4804
 208   2.0000      -0.453346       -12.3362
 209   2.0000      -0.450296       -12.2532
 210   2.0000      -0.447782       -12.1848
 211   2.0000      -0.447111       -12.1665
 212   2.0000      -0.446717       -12.1558
 213   2.0000      -0.445753       -12.1296
 214   2.0000      -0.445458       -12.1215
 215   2.0000      -0.443924       -12.0798
 216   2.0000      -0.441954       -12.0262
 217   2.0000      -0.441472       -12.0131
 218   2.0000      -0.439538       -11.9604
 219   2.0000      -0.438035       -11.9195
 220   2.0000      -0.432626       -11.7723
 221   2.0000      -0.429267       -11.6809
 222   2.0000      -0.427842       -11.6422
 223   2.0000      -0.424562       -11.5529
 224   2.0000      -0.422157       -11.4875
 225   2.0000      -0.421863       -11.4795
 226   2.0000      -0.420511       -11.4427
 227   2.0000      -0.418134       -11.3780
 228   2.0000      -0.417261       -11.3543
 229   2.0000      -0.414584       -11.2814
 230   2.0000      -0.410660       -11.1746
 231   2.0000      -0.408125       -11.1056
 232   2.0000      -0.406744       -11.0681
 233   2.0000      -0.405869       -11.0442
 234   2.0000      -0.402428       -10.9506
 235   2.0000      -0.401457       -10.9242
 236   2.0000      -0.390328       -10.6214
 237   2.0000      -0.388045       -10.5592
 238   2.0000      -0.385063       -10.4781
 239   2.0000      -0.378904       -10.3105
 240   2.0000      -0.378615       -10.3026
 241   2.0000      -0.375939       -10.2298
 242   2.0000      -0.375313       -10.2128
 243   2.0000      -0.373666       -10.1680
 244   2.0000      -0.365844        -9.9551
 245   2.0000      -0.363517        -9.8918
 246   2.0000      -0.343733        -9.3534
 247   2.0000      -0.341130        -9.2826
 248   2.0000      -0.328166        -8.9298
 249   2.0000      -0.320460        -8.7201
 250   2.0000      -0.320282        -8.7153
 251   2.0000      -0.317189        -8.6312
 252   2.0000      -0.315477        -8.5846
 253   2.0000      -0.314061        -8.5460
 254   2.0000      -0.311668        -8.4809
 255   2.0000      -0.304783        -8.2936
 256   2.0000      -0.293530        -7.9874
 257   2.0000      -0.280096        -7.6218
 258   2.0000      -0.263699        -7.1756
 259   2.0000      -0.237625        -6.4661
 260   2.0000      -0.195014        -5.3066
 261   0.0000      -0.087029        -2.3682
 262   0.0000      -0.060243        -1.6393
 263   0.0000      -0.050658        -1.3785
 264   0.0000      -0.039893        -1.0856
 265   0.0000      -0.017887        -0.4867

MULLIKEN ATOMIC CHARGES
-----------------------
   0 C :    0.299505
   1 C :   -0.343431
   2 C :   -0.185822
   3 N :    0.149075
   4 C :   -0.203543
   5 N :    0.159515
   6 C :    0.015127
   7 C :   -0.017764
   8 C :   -0.070252
   9 C :    0.116758
  10 C :   -0.090615
  11 C :   -0.018535
  12 S :    0.186883
  13 C :   -0.123304
  14 C :    0.039103
  15 Br:    0.023706
  16 C :    0.141827
  17 O :   -0.142872
  18 C :   -0.083263
  19 C :   -0.032221
  20 C :    0.071329
  21 C :    0.005592
  22 C :   -0.019462
  23 C :    0.117629
  24 C :   -0.058423
  25 C :    0.008533
  26 C :    0.086614
  27 C :    0.025755
  28 C :   -0.138871
  29 C :    0.054777
  30 C :    0.027678
  31 C :    0.078563
  32 C :    0.032195
  33 C :   -0.091510
  34 C :    0.134157
  35 C :   -0.025878
  36 C :   -0.037909
  37 C :   -0.035461
  38 C :    0.040519
  39 C :   -0.132707
  40 S :    0.102063
  41 C :   -0.099157
  42 C :   -0.013883
  43 C :    0.141816
  44 O :   -0.178340
  45 C :    0.152992
  46 O :   -0.194170
  47 O :   -0.225456
  48 C :    0.004083
  49 C :   -0.240668
  50 C :    0.096488
  51 C :    0.225956
  52 N :   -0.157218
  53 C :    0.049027
  54 C :   -0.041361
  55 C :    0.006886
  56 C :   -0.041916
  57 C :    0.040038
  58 C :    0.010103
  59 C :   -0.028955
  60 S :    0.017891
  61 C :   -0.074046
  62 C :    0.032011
  63 C :    0.041703
  64 C :   -0.056560
  65 S :    0.055957
  66 C :   -0.042699
  67 H :   -0.011266
  68 H :   -0.006637
  69 H :   -0.003268
  70 H :    0.030793
  71 H :   -0.028136
  72 H :   -0.029432
  73 H :   -0.018243
  74 H :   -0.005898
  75 H :    0.008841
  76 H :    0.013161
  77 H :    0.003765
  78 H :    0.032037
  79 H :   -0.003293
  80 H :    0.005256
  81 H :    0.003159
  82 H :    0.011965
  83 H :    0.021781
  84 H :   -0.041900
  85 H :   -0.031531
  86 H :   -0.034946
  87 H :   -0.026841
  88 H :   -0.000223
  89 H :    0.183771
  90 H :    0.202565
  91 H :    0.006242
  92 H :    0.039205
  93 H :    0.026127
  94 H :    0.039447
  95 H :    0.030337
  96 H :    0.016460
  97 H :    0.117342
  98 H :    0.020699
  99 H :   -0.035912
 100 H :   -0.021376
 101 H :   -0.021384
 102 H :   -0.022670
 103 H :   -0.017792
 104 H :   -0.020604
 105 H :    0.010678
 106 H :    0.012141
Sum of atomic charges:   -0.0000000

LOEWDIN ATOMIC CHARGES
----------------------
   0 C :    0.076979
   1 C :   -0.141705
   2 C :   -0.017844
   3 N :   -0.055168
   4 C :   -0.025319
   5 N :   -0.050875
   6 C :   -0.021597
   7 C :   -0.050356
   8 C :    0.021356
   9 C :   -0.032530
  10 C :   -0.143358
  11 C :   -0.009317
  12 S :    0.432049
  13 C :   -0.270950
  14 C :   -0.070699
  15 Br:    0.136619
  16 C :    0.084950
  17 O :   -0.138160
  18 C :   -0.102244
  19 C :    0.088659
  20 C :   -0.048137
  21 C :    0.022707
  22 C :   -0.002752
  23 C :    0.012117
  24 C :   -0.028420
  25 C :    0.006646
  26 C :   -0.029038
  27 C :    0.014367
  28 C :   -0.034560
  29 C :   -0.014877
  30 C :   -0.056882
  31 C :   -0.008735
  32 C :   -0.058896
  33 C :   -0.019870
  34 C :   -0.012907
  35 C :   -0.023947
  36 C :   -0.013256
  37 C :   -0.041101
  38 C :   -0.023816
  39 C :   -0.226273
  40 S :    0.482424
  41 C :   -0.118073
  42 C :   -0.158192
  43 C :    0.039559
  44 O :   -0.045273
  45 C :    0.104223
  46 O :   -0.178411
  47 O :   -0.049858
  48 C :   -0.071923
  49 C :   -0.023614
  50 C :   -0.067522
  51 C :    0.049273
  52 N :    0.004582
  53 C :    0.039145
  54 C :   -0.136954
  55 C :   -0.039981
  56 C :   -0.177235
  57 C :   -0.025508
  58 C :   -0.060045
  59 C :   -0.172048
  60 S :    0.350864
  61 C :   -0.194511
  62 C :   -0.025386
  63 C :   -0.045843
  64 C :   -0.136934
  65 S :    0.331415
  66 C :   -0.098059
  67 H :    0.040506
  68 H :    0.041023
  69 H :    0.038846
  70 H :    0.045768
  71 H :    0.027398
  72 H :    0.028758
  73 H :    0.030944
  74 H :    0.018304
  75 H :    0.021638
  76 H :    0.021971
  77 H :    0.023070
  78 H :    0.027877
  79 H :    0.020432
  80 H :    0.026410
  81 H :    0.019806
  82 H :    0.027631
  83 H :    0.024364
  84 H :    0.023454
  85 H :    0.025130
  86 H :    0.027002
  87 H :    0.017363
  88 H :    0.035300
  89 H :    0.069087
  90 H :    0.105563
  91 H :    0.035687
  92 H :    0.034770
  93 H :    0.035431
  94 H :    0.033958
  95 H :    0.037286
  96 H :    0.028637
  97 H :    0.078983
  98 H :    0.011263
  99 H :    0.020816
 100 H :    0.032985
 101 H :    0.029988
 102 H :    0.027468
 103 H :    0.030176
 104 H :    0.029503
 105 H :    0.024554
 106 H :    0.021873

  Mayer bond orders larger than 0.100000
B(  0-C ,  1-C ) :   1.6405 B(  0-C ,  6-C ) :   1.0085 B(  0-C , 18-C ) :   1.0560
B(  1-C ,  2-C ) :   1.1417 B(  1-C ,  4-C ) :   1.1396 B(  2-C ,  3-N ) :   2.9699
B(  4-C ,  5-N ) :   2.9896 B(  6-C ,  7-C ) :   1.2699 B(  6-C , 11-C ) :   1.4065
B(  7-C ,  8-C ) :   1.4238 B(  7-C , 16-C ) :   0.9455 B(  8-C ,  9-C ) :   1.2469
B(  8-C , 67-H ) :   1.0159 B(  9-C , 10-C ) :   1.3049 B(  9-C , 14-C ) :   1.1617
B( 10-C , 11-C ) :   1.3336 B( 10-C , 12-S ) :   1.0851 B( 11-C , 68-H ) :   0.9794
B( 12-S , 13-C ) :   1.0858 B( 13-C , 14-C ) :   1.6205 B( 13-C , 15-Br) :   1.0192
B( 14-C , 69-H ) :   0.9996 B( 16-C , 17-O ) :   2.2020 B( 16-C , 18-C ) :   0.9402
B( 18-C , 19-C ) :   1.6076 B( 19-C , 20-C ) :   1.0945 B( 19-C , 70-H ) :   0.9509
B( 20-C , 21-C ) :   1.2890 B( 20-C , 25-C ) :   1.3039 B( 21-C , 22-C ) :   1.4488
B( 21-C , 71-H ) :   0.9793 B( 22-C , 23-C ) :   1.3677 B( 22-C , 28-C ) :   0.9118
B( 23-C , 24-C ) :   1.3246 B( 23-C , 26-C ) :   1.0082 B( 24-C , 25-C ) :   1.3903
B( 24-C , 72-H ) :   0.9931 B( 25-C , 73-H ) :   0.9948 B( 26-C , 27-C ) :   1.3548
B( 26-C , 36-C ) :   1.3376 B( 27-C , 28-C ) :   0.9293 B( 27-C , 33-C ) :   1.4135
B( 28-C , 29-C ) :   1.0401 B( 28-C , 31-C ) :   1.0130 B( 29-C , 30-C ) :   1.1079
B( 29-C , 74-H ) :   0.9392 B( 29-C , 75-H ) :   0.9338 B( 30-C , 76-H ) :   0.9644
B( 30-C , 77-H ) :   0.9628 B( 30-C , 78-H ) :   0.9581 B( 31-C , 32-C ) :   1.1167
B( 31-C , 79-H ) :   0.9378 B( 31-C , 80-H ) :   0.9389 B( 32-C , 81-H ) :   0.9626
B( 32-C , 82-H ) :   0.9585 B( 32-C , 83-H ) :   0.9602 B( 33-C , 34-C ) :   1.3013
B( 33-C , 84-H ) :   0.9970 B( 34-C , 35-C ) :   1.3295 B( 34-C , 37-C ) :   1.0755
B( 35-C , 36-C ) :   1.3835 B( 35-C , 85-H ) :   0.9938 B( 36-C , 86-H ) :   0.9899
B( 37-C , 38-C ) :   1.6552 B( 37-C , 87-H ) :   0.9826 B( 38-C , 39-C ) :   1.1570
B( 38-C , 88-H ) :   0.9672 B( 39-C , 40-S ) :   1.0547 B( 39-C , 41-C ) :   0.1009
B( 39-C , 43-C ) :   1.4753 B( 40-S , 41-C ) :   1.1719 B( 41-C , 42-C ) :   1.4246
B( 41-C , 48-C ) :   1.1526 B( 42-C , 43-C ) :   1.1288 B( 42-C , 45-C ) :   0.9859
B( 43-C , 44-O ) :   1.3055 B( 44-O , 89-H ) :   0.9216 B( 45-C , 46-O ) :   2.0937
B( 45-C , 47-O ) :   1.1738 B( 47-O , 90-H ) :   0.9316 B( 48-C , 49-C ) :   1.7305
B( 48-C , 91-H ) :   0.9419 B( 49-C , 50-C ) :   1.0845 B( 49-C , 51-C ) :   1.0546
B( 50-C , 92-H ) :   0.9331 B( 50-C , 93-H ) :   0.9410 B( 50-C , 94-H ) :   0.9349
B( 51-C , 52-N ) :   1.0005 B( 51-C , 95-H ) :   0.9247 B( 51-C , 96-H ) :   0.9392
B( 52-N , 53-C ) :   1.2336 B( 52-N , 97-H ) :   0.9409 B( 53-C , 54-C ) :   1.5779
B( 53-C , 98-H ) :   0.9442 B( 54-C , 55-C ) :   1.2157 B( 54-C , 99-H ) :   0.9597
B( 55-C , 56-C ) :   1.6043 B( 55-C ,100-H ) :   0.9579 B( 56-C , 57-C ) :   1.1442
B( 56-C , 60-S ) :   1.0048 B( 57-C , 58-C ) :   1.6068 B( 57-C ,101-H ) :   0.9961
B( 58-C , 59-C ) :   1.1669 B( 58-C ,102-H ) :   0.9922 B( 59-C , 60-S ) :   1.0346
B( 59-C , 61-C ) :   1.5631 B( 61-C , 62-C ) :   1.1585 B( 61-C , 65-S ) :   1.0253
B( 62-C , 63-C ) :   1.6548 B( 62-C ,103-H ) :   0.9912 B( 63-C , 64-C ) :   1.0830
B( 63-C ,104-H ) :   0.9929 B( 64-C , 65-S ) :   1.0107 B( 64-C , 66-C ) :   1.8596
B( 66-C ,105-H ) :   0.9500 B( 66-C ,106-H ) :   0.9418

-----------------------------------------------------------------------------
         ABSORPTION SPECTRUM VIA TRANSITION ELECTRIC DIPOLE MOMENTS
-----------------------------------------------------------------------------
State   Energy  Wavelength   fosc         T2         TX        TY        TZ
        (cm-1)    (nm)                  (au**2)     (au)      (au)      (au)
-----------------------------------------------------------------------------
   0   17407.3    574.5   0.404087410   7.64224   2.01741  -1.77970   0.63638
   1   19149.8    522.2   0.461452154   7.93301   2.08316  -1.39901   1.27916
   2   20264.2    493.5   1.402658859  22.78756  -2.45789   3.98895  -0.91358
   3   20721.9    482.6   0.356263426   5.66000  -1.03424  -0.07173  -2.14131
   4   24588.6    406.7   0.003788615   0.05073  -0.01280  -0.16801   0.14944
   5   25292.1    395.4   0.279669868   3.64030  -0.62193   1.72787   0.51764
   6   26317.7    380.0   0.016175152   0.20234  -0.10796  -0.07085  -0.43089
   7   27201.9    367.6   0.066968621   0.81049  -0.62683   0.63182   0.13557
   8   28717.4    348.2   0.395725903   4.53654  -1.51779  -0.09778  -1.49107
   9   29525.2    338.7   0.041888243   0.46706   0.09014   0.45290  -0.50381
  10   29770.9    335.9   0.139621210   1.54396   0.95494  -0.77176   0.19085
  11   30522.9    327.6   0.024918068   0.26876   0.34797  -0.38135   0.04740
  12   30702.8    325.7   0.061247112   0.65672  -0.39238  -0.70367   0.08722
  13   31400.9    318.5   0.114415118   1.19955  -0.72119  -0.55510  -0.60934
  14   32382.9    308.8   0.080804609   0.82148  -0.76325  -0.03501   0.48755
  15   32900.2    303.9   0.111510760   1.11582   0.38981   0.84201  -0.50486
  16   33128.0    301.9   0.298032996   2.96173  -0.31836  -1.68440  -0.15224
  17   33431.9    299.1   0.028747590   0.28308  -0.36611   0.26589   0.27992
  18   33586.3    297.7   0.030728773   0.30120   0.22280  -0.28463   0.41297
  19   33831.4    295.6   0.551386329   5.36552   1.24112   0.94361   1.71310
  20   34111.9    293.2   0.263482635   2.54285   1.19141   1.05855  -0.05351
  21   34316.5    291.4   0.070334057   0.67474   0.07429  -0.64006  -0.50946
  22   34878.4    286.7   0.118656637   1.11998  -0.90422  -0.31050   0.45382
  23   35307.7    283.2   0.120255474   1.12127   0.63529  -0.80794   0.25478
  24   36486.0    274.1   0.001551013   0.01399  -0.10227   0.05700   0.01692
  25   36620.8    273.1   0.053705724   0.48280   0.57363   0.19946  -0.33758
  26   37015.7    270.2   0.090150798   0.80179   0.71375  -0.38145   0.38319
  27   37565.7    266.2   0.021368748   0.18727  -0.31824  -0.18700  -0.22588
  28   39090.2    255.8   0.012317982   0.10374  -0.23044   0.19205   0.11729
  29   39375.8    254.0   0.021029039   0.17582  -0.12873  -0.39813  -0.02718
  30   39456.3    253.4   0.124842665   1.04165   0.77557  -0.55984   0.35598
  31   39567.5    252.7   0.036074720   0.30015   0.40989  -0.36342   0.00825
  32   39739.6    251.6   0.134727367   1.11611  -0.03545   1.05517   0.03825

FINAL SINGLE POINT ENERGY     -6747.992217878676

DIPOLE MOMENT
-------------
                                X             Y             Z
Electronic contribution:    172.15931    -156.89390      70.03578
Nuclear contribution   :   -171.16460     159.13822     -68.27616
                        -----------------------------------------
Total Dipole Moment    :      0.99472       2.24433       1.75962
                        -----------------------------------------
Magnitude (a.u.)       :      3.02038
Magnitude (Debye)      :      7.67721

Rotational constants in cm-1:     0.001751     0.000161     0.000155
Rotational constants in MHz :    52.485969     4.828242     4.644773

                             ****ORCA TERMINATED NORMALLY****
TOTAL RUN TIME: 0 days 0 hours 9 minutes 8 seconds 372 msec
