                         Program Version 4.2.0 -  RELEASE  -
|  1> # ORCA input file
|  2> # SCF done       -196.109039672866          0.000807589305
|  3> ! CAM-B3LYP def2-SVP def2/J RIJCOSX Grid4 TightSCF
|  4> %maxcore 5000
|  5> %tddft
|  6>     Mode sTDDFT
|  7>     Ethresh 5.0
|  8>     maxcore 5000
|  9> end
| 10>
| 11> %pal
| 12>   nprocs 6
| 13>   end
| 14> * xyz 0 1
| 15>    C       -9.89732         5.40659        -7.39174
| 16>    C      -10.98007         5.59211        -6.57107
| 17>    C      -11.71092         6.79461        -6.48069
| 18>    N      -12.32356         7.75256        -6.32489
| 19>    C      -11.47478         4.63067        -5.66921
| 20>    N      -11.93404         3.88656        -4.92342
| 21>    C       -9.39100         6.36678        -8.36566
| 22>    C       -8.18222         5.87113        -8.92044
| 23>    C       -7.48003         6.55374        -9.88388
| 24>    C       -7.99764         7.77541       -10.32787
| 25>    C       -9.20775         8.25675        -9.77397
| 26>    C       -9.91377         7.57149        -8.79229
| 27>    S       -9.67505         9.77480       -10.47419
| 28>    C       -8.25419         9.74897       -11.48270
| 29>    C       -7.47004         8.65820       -11.30870
| 30>   Br       -7.93600        11.16471       -12.66913
| 31>    C       -7.87653         4.57118        -8.30483
| 32>    O       -6.89865         3.85973        -8.48936
| 33>    C       -8.99306         4.28070        -7.39681
| 34>    C       -9.05104         3.13309        -6.65286
| 35>    N       -8.05730         2.23001        -6.65861
| 36>    C       -7.92474         1.20479        -5.75471
| 37>    S       -7.20420        -0.28526        -6.27566
| 38>    C       -7.53437        -0.97174        -4.72018
| 39>    N       -7.12367        -2.29575        -4.48752
| 40>    O       -7.35849        -2.77491        -3.39720
| 41>    O       -6.55794        -2.85850        -5.40632
| 42>    C       -8.16064        -0.10824        -3.86285
| 43>    C       -8.36750         1.16559        -4.42772
| 44>    C       -8.92190         2.28772        -3.70053
| 45>    C       -8.50668         3.55509        -3.91797
| 46>    C       -9.18929         4.72259        -3.46493
| 47>    C       -8.97391         5.97259        -4.03207
| 48>    O       -9.81174         7.03804        -3.78422
| 49>    C      -10.89424         6.76848        -2.99502
| 50>    C      -11.07027         5.50183        -2.37109
| 51>    C      -12.19742         5.43744        -1.61837
| 52>    S      -13.06080         6.92472        -1.66994
| 53>    C      -11.89267         7.64062        -2.71297
| 54>    O      -10.18674         4.47978        -2.56426
| 55>    C       -7.94128         6.25793        -4.95235
| 56>    C       -7.84318         7.43071        -5.65848
| 57>    C       -6.81539         7.66661        -6.57059
| 58>    C       -6.69269         8.79639        -7.35101
| 59>    C       -5.67803         9.06089        -8.29560
| 60>    C       -5.81646        10.25318        -8.94562
| 61>    C       -6.95027        10.98869        -8.54527
| 62>    S       -7.83332        10.12583        -7.30852
| 63>    C       -7.36908        12.22168        -9.02411
| 64>    C       -6.74948        13.01490       -10.01142
| 65>    C       -7.40377        14.18566       -10.26272
| 66>    C       -8.56602        14.37371        -9.48332
| 67>    S       -8.81063        13.00572        -8.42416
| 68>    C       -9.37759        15.49149        -9.48293
| 69>    C      -10.50127        15.63576        -8.67579
| 70>    C      -11.26989        16.76550        -8.49825
| 71>    C      -11.03278        18.14465        -8.82410
| 72>    C       -9.81238        18.76522        -8.97025
| 73>    C       -9.65662        20.13498        -9.25721
| 74>    N       -9.46670        21.23823        -9.51508
| 75>    C       -8.56903        18.14669        -8.73498
| 76>    N       -7.52833        17.71601        -8.50834
| 77>    C      -12.31659        18.84147        -8.73876
| 78>    C      -13.27507        17.95718        -8.18343
| 79>    C      -12.64341        16.63904        -7.95990
| 80>    O      -13.14744        15.65004        -7.47354
| 81>    C      -14.56926        18.33718        -7.92830
| 82>    C      -14.93915        19.64948        -8.24468
| 83>    C      -13.97965        20.51889        -8.81330
| 84>    C      -12.66686        20.13633        -9.06572
| 85>    S      -14.64974        22.08986        -9.13277
| 86>    C      -16.18781        21.56619        -8.49963
| 87>    C      -16.20216        20.28079        -8.07485
| 88>   Br      -17.62905        22.76641        -8.46087
| 89>    H       -6.56368         6.15607       -10.29102
| 90>    H      -10.83046         7.97830        -8.39899
| 91>    H       -6.55928         8.48088       -11.85068
| 92>    H       -9.89740         2.91505        -6.01824
| 93>    H       -7.32942         2.38922        -7.36621
| 94>    H       -8.42486        -0.37464        -2.85540
| 95>    H       -9.71208         2.08160        -2.99505
| 96>    H       -7.65671         3.71736        -4.55914
| 97>    H      -12.56479         4.60737        -1.05272
| 98>    H      -12.00770         8.64530        -3.06165
| 99>    H       -7.17826         5.51255        -5.10692
|100>    H       -8.59856         8.19271        -5.52336
|101>    H       -6.05326         6.90676        -6.69117
|102>    H       -4.87646         8.36431        -8.46573
|103>    H       -5.13653        10.61714        -9.69432
|104>    H       -5.84639        12.71119       -10.50873
|105>    H       -7.08000        14.92349       -10.97404
|106>    H       -9.10346        16.28299       -10.16545
|107>    H      -10.87180        14.74883        -8.16956
|108>    H      -15.27540        17.64598        -7.49551
|109>    H      -11.97263        20.83436        -9.50321
|110>    H      -17.06570        19.79607        -7.65724
|111> *
|112>
|113>                          ****END OF INPUT****

CARTESIAN COORDINATES (ANGSTROEM)
---------------------------------
  C     -9.897320    5.406590   -7.391740
  C    -10.980070    5.592110   -6.571070
  C    -11.710920    6.794610   -6.480690
  N    -12.323560    7.752560   -6.324890
  C    -11.474780    4.630670   -5.669210
  N    -11.934040    3.886560   -4.923420
  C     -9.391000    6.366780   -8.365660
  C     -8.182220    5.871130   -8.920440
  C     -7.480030    6.553740   -9.883880
  C     -7.997640    7.775410  -10.327870
  C     -9.207750    8.256750   -9.773970
  C     -9.913770    7.571490   -8.792290
  S     -9.675050    9.774800  -10.474190
  C     -8.254190    9.748970  -11.482700
  C     -7.470040    8.658200  -11.308700
  Br    -7.936000   11.164710  -12.669130
  C     -7.876530    4.571180   -8.304830
  O     -6.898650    3.859730   -8.489360
  C     -8.993060    4.280700   -7.396810
  C     -9.051040    3.133090   -6.652860
  N     -8.057300    2.230010   -6.658610
  C     -7.924740    1.204790   -5.754710
  S     -7.204200   -0.285260   -6.275660
  C     -7.534370   -0.971740   -4.720180
  N     -7.123670   -2.295750   -4.487520
  O     -7.358490   -2.774910   -3.397200
  O     -6.557940   -2.858500   -5.406320
  C     -8.160640   -0.108240   -3.862850
  C     -8.367500    1.165590   -4.427720
  C     -8.921900    2.287720   -3.700530
  C     -8.506680    3.555090   -3.917970
  C     -9.189290    4.722590   -3.464930
  C     -8.973910    5.972590   -4.032070
  O     -9.811740    7.038040   -3.784220
  C    -10.894240    6.768480   -2.995020
  C    -11.070270    5.501830   -2.371090
  C    -12.197420    5.437440   -1.618370
  S    -13.060800    6.924720   -1.669940
  C    -11.892670    7.640620   -2.712970
  O    -10.186740    4.479780   -2.564260
  C     -7.941280    6.257930   -4.952350
  C     -7.843180    7.430710   -5.658480
  C     -6.815390    7.666610   -6.570590
  C     -6.692690    8.796390   -7.351010
  C     -5.678030    9.060890   -8.295600
  C     -5.816460   10.253180   -8.945620
  C     -6.950270   10.988690   -8.545270
  S     -7.833320   10.125830   -7.308520
  C     -7.369080   12.221680   -9.024110
  C     -6.749480   13.014900  -10.011420
  C     -7.403770   14.185660  -10.262720
  C     -8.566020   14.373710   -9.483320
  S     -8.810630   13.005720   -8.424160
  C     -9.377590   15.491490   -9.482930
  C    -10.501270   15.635760   -8.675790
  C    -11.269890   16.765500   -8.498250
  C    -11.032780   18.144650   -8.824100
  C     -9.812380   18.765220   -8.970250
  C     -9.656620   20.134980   -9.257210
  N     -9.466700   21.238230   -9.515080
  C     -8.569030   18.146690   -8.734980
  N     -7.528330   17.716010   -8.508340
  C    -12.316590   18.841470   -8.738760
  C    -13.275070   17.957180   -8.183430
  C    -12.643410   16.639040   -7.959900
  O    -13.147440   15.650040   -7.473540
  C    -14.569260   18.337180   -7.928300
  C    -14.939150   19.649480   -8.244680
  C    -13.979650   20.518890   -8.813300
  C    -12.666860   20.136330   -9.065720
  S    -14.649740   22.089860   -9.132770
  C    -16.187810   21.566190   -8.499630
  C    -16.202160   20.280790   -8.074850
  Br   -17.629050   22.766410   -8.460870
  H     -6.563680    6.156070  -10.291020
  H    -10.830460    7.978300   -8.398990
  H     -6.559280    8.480880  -11.850680
  H     -9.897400    2.915050   -6.018240
  H     -7.329420    2.389220   -7.366210
  H     -8.424860   -0.374640   -2.855400
  H     -9.712080    2.081600   -2.995050
  H     -7.656710    3.717360   -4.559140
  H    -12.564790    4.607370   -1.052720
  H    -12.007700    8.645300   -3.061650
  H     -7.178260    5.512550   -5.106920
  H     -8.598560    8.192710   -5.523360
  H     -6.053260    6.906760   -6.691170
  H     -4.876460    8.364310   -8.465730
  H     -5.136530   10.617140   -9.694320
  H     -5.846390   12.711190  -10.508730
  H     -7.080000   14.923490  -10.974040
  H     -9.103460   16.282990  -10.165450
  H    -10.871800   14.748830   -8.169560
  H    -15.275400   17.645980   -7.495510
  H    -11.972630   20.834360   -9.503210
  H    -17.065700   19.796070   -7.657240

 Total Charge           Charge          ....    0
 Multiplicity           Mult            ....    1
 Number of Electrons    NEL             ....  602
 Basis Dimension        Dim             .... 1206

ORBITAL ENERGIES
----------------

  NO   OCC          E(Eh)            E(eV)
   0   2.0000    -482.896866    -13140.2918
   1   2.0000    -482.878110    -13139.7814
   2   2.0000     -88.998454     -2421.7711
   3   2.0000     -88.985394     -2421.4157
   4   2.0000     -88.968678     -2420.9608
   5   2.0000     -88.966196     -2420.8933
   6   2.0000     -88.963158     -2420.8106
   7   2.0000     -88.959126     -2420.7009
   8   2.0000     -62.574285     -1702.7328
   9   2.0000     -62.555785     -1702.2294
  10   2.0000     -56.408240     -1534.9463
  11   2.0000     -56.405572     -1534.8737
  12   2.0000     -56.405482     -1534.8712
  13   2.0000     -56.389724     -1534.4424
  14   2.0000     -56.387033     -1534.3692
  15   2.0000     -56.386994     -1534.3681
  16   2.0000     -19.287429      -524.8376
  17   2.0000     -19.284739      -524.7644
  18   2.0000     -19.248947      -523.7905
  19   2.0000     -19.248691      -523.7835
  20   2.0000     -19.240458      -523.5595
  21   2.0000     -19.199287      -522.4392
  22   2.0000     -14.660624      -398.9359
  23   2.0000     -14.500420      -394.5765
  24   2.0000     -14.428034      -392.6068
  25   2.0000     -14.422263      -392.4497
  26   2.0000     -14.402491      -391.9117
  27   2.0000     -14.400283      -391.8516
  28   2.0000     -10.387711      -282.6640
  29   2.0000     -10.379302      -282.4352
  30   2.0000     -10.373944      -282.2894
  31   2.0000     -10.368752      -282.1481
  32   2.0000     -10.367096      -282.1030
  33   2.0000     -10.363053      -281.9930
  34   2.0000     -10.357275      -281.8358
  35   2.0000     -10.353730      -281.7393
  36   2.0000     -10.349956      -281.6366
  37   2.0000     -10.349499      -281.6242
  38   2.0000     -10.349483      -281.6238
  39   2.0000     -10.343242      -281.4539
  40   2.0000     -10.342569      -281.4356
  41   2.0000     -10.338272      -281.3187
  42   2.0000     -10.336019      -281.2574
  43   2.0000     -10.330688      -281.1123
  44   2.0000     -10.329324      -281.0752
  45   2.0000     -10.327608      -281.0285
  46   2.0000     -10.327493      -281.0254
  47   2.0000     -10.326877      -281.0086
  48   2.0000     -10.325685      -280.9762
  49   2.0000     -10.325359      -280.9673
  50   2.0000     -10.320099      -280.8242
  51   2.0000     -10.319575      -280.8099
  52   2.0000     -10.318104      -280.7699
  53   2.0000     -10.317617      -280.7566
  54   2.0000     -10.315895      -280.7098
  55   2.0000     -10.315037      -280.6864
  56   2.0000     -10.314875      -280.6820
  57   2.0000     -10.309286      -280.5299
  58   2.0000     -10.308085      -280.4972
  59   2.0000     -10.307650      -280.4854
  60   2.0000     -10.307231      -280.4740
  61   2.0000     -10.307131      -280.4713
  62   2.0000     -10.306638      -280.4579
  63   2.0000     -10.306414      -280.4518
  64   2.0000     -10.306194      -280.4458
  65   2.0000     -10.306058      -280.4421
  66   2.0000     -10.303996      -280.3860
  67   2.0000     -10.303815      -280.3811
  68   2.0000     -10.302511      -280.3456
  69   2.0000     -10.301339      -280.3137
  70   2.0000     -10.298888      -280.2470
  71   2.0000     -10.296372      -280.1785
  72   2.0000     -10.296308      -280.1768
  73   2.0000     -10.295920      -280.1662
  74   2.0000     -10.295462      -280.1538
  75   2.0000     -10.293746      -280.1071
  76   2.0000     -10.293679      -280.1052
  77   2.0000     -10.289702      -279.9970
  78   2.0000     -10.287772      -279.9445
  79   2.0000     -10.284012      -279.8422
  80   2.0000     -10.279967      -279.7321
  81   2.0000     -10.278537      -279.6932
  82   2.0000      -8.803594      -239.5580
  83   2.0000      -8.785185      -239.0570
  84   2.0000      -8.094144      -220.2528
  85   2.0000      -8.080833      -219.8907
  86   2.0000      -8.064250      -219.4394
  87   2.0000      -8.062143      -219.3821
  88   2.0000      -8.059377      -219.3068
  89   2.0000      -8.054969      -219.1868
  90   2.0000      -6.639831      -180.6790
  91   2.0000      -6.625385      -180.2859
  92   2.0000      -6.625134      -180.2791
  93   2.0000      -6.621410      -180.1777
  94   2.0000      -6.606945      -179.7841
  95   2.0000      -6.606774      -179.7794
  96   2.0000      -6.063659      -165.0006
  97   2.0000      -6.059278      -164.8813
  98   2.0000      -6.055830      -164.7875
  99   2.0000      -6.050555      -164.6440
 100   2.0000      -6.046232      -164.5263
 101   2.0000      -6.042113      -164.4143
 102   2.0000      -6.033908      -164.1910
 103   2.0000      -6.031830      -164.1344
 104   2.0000      -6.029951      -164.0833
 105   2.0000      -6.028955      -164.0562
 106   2.0000      -6.027575      -164.0187
 107   2.0000      -6.025324      -163.9574
 108   2.0000      -6.024954      -163.9473
 109   2.0000      -6.024453      -163.9337
 110   2.0000      -6.023393      -163.9049
 111   2.0000      -6.020535      -163.8271
 112   2.0000      -6.020232      -163.8188
 113   2.0000      -6.016705      -163.7229
 114   2.0000      -2.755723       -74.9870
 115   2.0000      -2.751708       -74.8778
 116   2.0000      -2.751457       -74.8710
 117   2.0000      -2.740014       -74.5596
 118   2.0000      -2.739988       -74.5589
 119   2.0000      -2.737338       -74.4868
 120   2.0000      -2.733206       -74.3743
 121   2.0000      -2.733097       -74.3713
 122   2.0000      -2.721590       -74.0582
 123   2.0000      -2.721574       -74.0578
 124   2.0000      -1.331337       -36.2275
 125   2.0000      -1.213011       -33.0077
 126   2.0000      -1.175875       -31.9972
 127   2.0000      -1.154639       -31.4193
 128   2.0000      -1.150752       -31.3136
 129   2.0000      -1.113786       -30.3076
 130   2.0000      -1.106442       -30.1078
 131   2.0000      -1.034505       -28.1503
 132   2.0000      -1.024593       -27.8806
 133   2.0000      -1.018989       -27.7281
 134   2.0000      -1.015735       -27.6396
 135   2.0000      -1.011225       -27.5168
 136   2.0000      -1.004607       -27.3368
 137   2.0000      -1.000940       -27.2370
 138   2.0000      -1.000249       -27.2181
 139   2.0000      -0.993524       -27.0352
 140   2.0000      -0.990876       -26.9631
 141   2.0000      -0.980412       -26.6784
 142   2.0000      -0.976537       -26.5729
 143   2.0000      -0.953159       -25.9368
 144   2.0000      -0.945452       -25.7271
 145   2.0000      -0.933543       -25.4030
 146   2.0000      -0.931059       -25.3354
 147   2.0000      -0.920131       -25.0380
 148   2.0000      -0.917214       -24.9587
 149   2.0000      -0.911008       -24.7898
 150   2.0000      -0.900792       -24.5118
 151   2.0000      -0.897287       -24.4164
 152   2.0000      -0.896705       -24.4006
 153   2.0000      -0.890290       -24.2260
 154   2.0000      -0.879891       -23.9430
 155   2.0000      -0.874748       -23.8031
 156   2.0000      -0.869416       -23.6580
 157   2.0000      -0.865339       -23.5471
 158   2.0000      -0.854471       -23.2513
 159   2.0000      -0.846954       -23.0468
 160   2.0000      -0.841557       -22.8999
 161   2.0000      -0.840328       -22.8665
 162   2.0000      -0.833999       -22.6943
 163   2.0000      -0.825691       -22.4682
 164   2.0000      -0.819008       -22.2863
 165   2.0000      -0.817471       -22.2445
 166   2.0000      -0.798509       -21.7285
 167   2.0000      -0.791992       -21.5512
 168   2.0000      -0.776532       -21.1305
 169   2.0000      -0.772715       -21.0267
 170   2.0000      -0.766687       -20.8626
 171   2.0000      -0.751380       -20.4461
 172   2.0000      -0.743748       -20.2384
 173   2.0000      -0.732015       -19.9191
 174   2.0000      -0.729160       -19.8414
 175   2.0000      -0.716822       -19.5057
 176   2.0000      -0.709282       -19.3005
 177   2.0000      -0.703393       -19.1403
 178   2.0000      -0.701246       -19.0819
 179   2.0000      -0.695987       -18.9388
 180   2.0000      -0.689946       -18.7744
 181   2.0000      -0.687752       -18.7147
 182   2.0000      -0.678368       -18.4593
 183   2.0000      -0.676615       -18.4116
 184   2.0000      -0.670706       -18.2508
 185   2.0000      -0.666721       -18.1424
 186   2.0000      -0.661076       -17.9888
 187   2.0000      -0.655672       -17.8417
 188   2.0000      -0.649968       -17.6865
 189   2.0000      -0.644506       -17.5379
 190   2.0000      -0.641969       -17.4689
 191   2.0000      -0.640350       -17.4248
 192   2.0000      -0.638005       -17.3610
 193   2.0000      -0.633170       -17.2294
 194   2.0000      -0.629778       -17.1371
 195   2.0000      -0.626895       -17.0587
 196   2.0000      -0.621968       -16.9246
 197   2.0000      -0.611249       -16.6329
 198   2.0000      -0.611193       -16.6314
 199   2.0000      -0.606849       -16.5132
 200   2.0000      -0.601680       -16.3725
 201   2.0000      -0.592875       -16.1330
 202   2.0000      -0.592289       -16.1170
 203   2.0000      -0.586397       -15.9567
 204   2.0000      -0.585670       -15.9369
 205   2.0000      -0.583884       -15.8883
 206   2.0000      -0.581778       -15.8310
 207   2.0000      -0.573425       -15.6037
 208   2.0000      -0.567338       -15.4381
 209   2.0000      -0.562622       -15.3097
 210   2.0000      -0.559285       -15.2189
 211   2.0000      -0.556156       -15.1338
 212   2.0000      -0.554725       -15.0948
 213   2.0000      -0.548717       -14.9313
 214   2.0000      -0.547264       -14.8918
 215   2.0000      -0.543324       -14.7846
 216   2.0000      -0.541403       -14.7323
 217   2.0000      -0.535626       -14.5751
 218   2.0000      -0.534318       -14.5395
 219   2.0000      -0.531507       -14.4631
 220   2.0000      -0.530747       -14.4424
 221   2.0000      -0.529169       -14.3994
 222   2.0000      -0.525415       -14.2973
 223   2.0000      -0.523041       -14.2327
 224   2.0000      -0.520782       -14.1712
 225   2.0000      -0.518238       -14.1020
 226   2.0000      -0.514930       -14.0119
 227   2.0000      -0.513733       -13.9794
 228   2.0000      -0.508987       -13.8502
 229   2.0000      -0.508133       -13.8270
 230   2.0000      -0.507295       -13.8042
 231   2.0000      -0.503078       -13.6895
 232   2.0000      -0.502432       -13.6719
 233   2.0000      -0.498854       -13.5745
 234   2.0000      -0.496725       -13.5166
 235   2.0000      -0.495330       -13.4786
 236   2.0000      -0.490971       -13.3600
 237   2.0000      -0.488008       -13.2794
 238   2.0000      -0.486944       -13.2504
 239   2.0000      -0.484859       -13.1937
 240   2.0000      -0.484601       -13.1867
 241   2.0000      -0.482042       -13.1170
 242   2.0000      -0.480739       -13.0816
 243   2.0000      -0.480149       -13.0655
 244   2.0000      -0.473853       -12.8942
 245   2.0000      -0.471868       -12.8402
 246   2.0000      -0.471234       -12.8229
 247   2.0000      -0.469210       -12.7678
 248   2.0000      -0.462912       -12.5965
 249   2.0000      -0.459493       -12.5034
 250   2.0000      -0.458696       -12.4818
 251   2.0000      -0.452834       -12.3222
 252   2.0000      -0.452247       -12.3063
 253   2.0000      -0.450678       -12.2636
 254   2.0000      -0.449425       -12.2295
 255   2.0000      -0.448324       -12.1995
 256   2.0000      -0.439578       -11.9615
 257   2.0000      -0.437649       -11.9090
 258   2.0000      -0.436465       -11.8768
 259   2.0000      -0.435704       -11.8561
 260   2.0000      -0.434802       -11.8316
 261   2.0000      -0.433990       -11.8095
 262   2.0000      -0.431909       -11.7528
 263   2.0000      -0.431238       -11.7346
 264   2.0000      -0.429332       -11.6827
 265   2.0000      -0.426185       -11.5971
 266   2.0000      -0.424438       -11.5496
 267   2.0000      -0.419793       -11.4231
 268   2.0000      -0.417459       -11.3596
 269   2.0000      -0.413603       -11.2547
 270   2.0000      -0.410210       -11.1624
 271   2.0000      -0.408102       -11.1050
 272   2.0000      -0.406409       -11.0590
 273   2.0000      -0.404917       -11.0184
 274   2.0000      -0.396862       -10.7992
 275   2.0000      -0.395487       -10.7617
 276   2.0000      -0.389051       -10.5866
 277   2.0000      -0.386913       -10.5284
 278   2.0000      -0.385838       -10.4992
 279   2.0000      -0.384368       -10.4592
 280   2.0000      -0.377581       -10.2745
 281   2.0000      -0.376991       -10.2585
 282   2.0000      -0.368082       -10.0160
 283   2.0000      -0.367581       -10.0024
 284   2.0000      -0.364985        -9.9317
 285   2.0000      -0.358937        -9.7672
 286   2.0000      -0.354034        -9.6337
 287   2.0000      -0.348747        -9.4899
 288   2.0000      -0.339519        -9.2388
 289   2.0000      -0.335612        -9.1325
 290   2.0000      -0.327681        -8.9167
 291   2.0000      -0.322864        -8.7856
 292   2.0000      -0.318939        -8.6788
 293   2.0000      -0.306742        -8.3469
 294   2.0000      -0.304788        -8.2937
 295   2.0000      -0.303829        -8.2676
 296   2.0000      -0.296835        -8.0773
 297   2.0000      -0.292526        -7.9600
 298   2.0000      -0.283496        -7.7143
 299   2.0000      -0.262142        -7.1332
 300   2.0000      -0.224563        -6.1107
 301   0.0000      -0.117084        -3.1860
 302   0.0000      -0.092364        -2.5134
 303   0.0000      -0.078485        -2.1357
 304   0.0000      -0.068398        -1.8612
 305   0.0000      -0.054737        -1.4895

MULLIKEN ATOMIC CHARGES
-----------------------
   0 C :    0.345601
   1 C :   -0.341636
   2 C :   -0.196858
   3 N :    0.164137
   4 C :   -0.208537
   5 N :    0.145403
   6 C :    0.014170
   7 C :    0.002247
   8 C :   -0.085714
   9 C :    0.120442
  10 C :   -0.082619
  11 C :   -0.029545
  12 S :    0.199126
  13 C :   -0.145059
  14 C :    0.063624
  15 Br:    0.028693
  16 C :    0.148850
  17 O :   -0.205749
  18 C :   -0.137779
  19 C :    0.017529
  20 N :   -0.014718
  21 C :   -0.129468
  22 S :    0.205512
  23 C :   -0.001057
  24 N :    0.274763
  25 O :   -0.239881
  26 O :   -0.255605
  27 C :    0.004363
  28 C :    0.110827
  29 C :   -0.028646
  30 C :   -0.052547
  31 C :    0.176319
  32 C :    0.171944
  33 O :   -0.266237
  34 C :    0.205642
  35 C :    0.225135
  36 C :   -0.160881
  37 S :    0.120585
  38 C :   -0.152028
  39 O :   -0.239085
  40 C :   -0.055966
  41 C :    0.006037
  42 C :    0.018520
  43 C :   -0.042729
  44 C :    0.048326
  45 C :    0.039569
  46 C :   -0.038773
  47 S :    0.100653
  48 C :   -0.068580
  49 C :    0.055913
  50 C :    0.030983
  51 C :   -0.010293
  52 S :    0.112368
  53 C :   -0.006154
  54 C :    0.017469
  55 C :   -0.124479
  56 C :    0.287284
  57 C :   -0.346384
  58 C :   -0.179570
  59 N :    0.138937
  60 C :   -0.222874
  61 N :    0.157429
  62 C :    0.004488
  63 C :   -0.004443
  64 C :    0.135072
  65 O :   -0.151921
  66 C :   -0.077040
  67 C :    0.114103
  68 C :   -0.090390
  69 C :   -0.024876
  70 S :    0.178873
  71 C :   -0.125009
  72 C :    0.040742
  73 Br:    0.015503
  74 H :   -0.016306
  75 H :   -0.004808
  76 H :   -0.009909
  77 H :    0.058421
  78 H :    0.165895
  79 H :    0.015854
  80 H :    0.027687
  81 H :    0.009932
  82 H :    0.026502
  83 H :    0.034215
  84 H :   -0.004665
  85 H :    0.026388
  86 H :   -0.007564
  87 H :   -0.007806
  88 H :   -0.009116
  89 H :   -0.008291
  90 H :   -0.002002
  91 H :    0.011530
  92 H :    0.016508
  93 H :   -0.013142
  94 H :   -0.007278
  95 H :   -0.006095
Sum of atomic charges:   -0.0000000

LOEWDIN ATOMIC CHARGES
----------------------
   0 C :    0.081148
   1 C :   -0.148626
   2 C :   -0.020655
   3 N :   -0.053540
   4 C :   -0.022873
   5 N :   -0.055721
   6 C :   -0.014846
   7 C :   -0.052655
   8 C :    0.022098
   9 C :   -0.034561
  10 C :   -0.144024
  11 C :   -0.008056
  12 S :    0.446614
  13 C :   -0.273452
  14 C :   -0.069297
  15 Br:    0.149921
  16 C :    0.088801
  17 O :   -0.177201
  18 C :   -0.147223
  19 C :    0.123367
  20 N :    0.055927
  21 C :   -0.124707
  22 S :    0.476999
  23 C :   -0.200545
  24 N :    0.272785
  25 O :   -0.205353
  26 O :   -0.222080
  27 C :    0.003029
  28 C :   -0.083092
  29 C :   -0.017272
  30 C :   -0.036231
  31 C :    0.034888
  32 C :    0.019437
  33 O :   -0.051033
  34 C :   -0.014755
  35 C :   -0.009183
  36 C :   -0.201430
  37 S :    0.451420
  38 C :   -0.196657
  39 O :   -0.032943
  40 C :   -0.026202
  41 C :   -0.028147
  42 C :   -0.030164
  43 C :   -0.153237
  44 C :   -0.020042
  45 C :   -0.032700
  46 C :   -0.156471
  47 S :    0.402751
  48 C :   -0.193815
  49 C :   -0.011098
  50 C :   -0.036949
  51 C :   -0.101702
  52 S :    0.403799
  53 C :   -0.066576
  54 C :    0.050262
  55 C :   -0.105295
  56 C :    0.068164
  57 C :   -0.153694
  58 C :   -0.020328
  59 N :   -0.064589
  60 C :   -0.023787
  61 N :   -0.063446
  62 C :   -0.016244
  63 C :   -0.051099
  64 C :    0.077752
  65 O :   -0.153939
  66 C :    0.018861
  67 C :   -0.036543
  68 C :   -0.145040
  69 C :   -0.016230
  70 S :    0.427252
  71 C :   -0.274884
  72 C :   -0.070425
  73 Br:    0.130550
  74 H :    0.038659
  75 H :    0.041966
  76 H :    0.035744
  77 H :    0.046765
  78 H :    0.086859
  79 H :    0.049314
  80 H :    0.040027
  81 H :    0.030748
  82 H :    0.030905
  83 H :    0.034149
  84 H :    0.032583
  85 H :    0.030597
  86 H :    0.034936
  87 H :    0.035423
  88 H :    0.033505
  89 H :    0.032059
  90 H :    0.039061
  91 H :    0.038462
  92 H :    0.035760
  93 H :    0.039830
  94 H :    0.039776
  95 H :    0.037700

  Mayer bond orders larger than 0.100000
B(  0-C ,  1-C ) :   1.6324 B(  0-C ,  6-C ) :   0.9975 B(  0-C , 18-C ) :   1.0995
B(  1-C ,  2-C ) :   1.1550 B(  1-C ,  4-C ) :   1.1516 B(  2-C ,  3-N ) :   2.9544
B(  4-C ,  5-N ) :   2.8974 B(  6-C ,  7-C ) :   1.2743 B(  6-C , 11-C ) :   1.4188
B(  7-C ,  8-C ) :   1.4104 B(  7-C , 16-C ) :   0.9702 B(  8-C ,  9-C ) :   1.2321
B(  8-C , 74-H ) :   1.0222 B(  9-C , 10-C ) :   1.3144 B(  9-C , 14-C ) :   1.1645
B( 10-C , 11-C ) :   1.3103 B( 10-C , 12-S ) :   1.0900 B( 11-C , 75-H ) :   0.9845
B( 12-S , 13-C ) :   1.0903 B( 13-C , 14-C ) :   1.6014 B( 13-C , 15-Br) :   1.0229
B( 14-C , 76-H ) :   1.0035 B( 16-C , 17-O ) :   2.0948 B( 16-C , 18-C ) :   0.9818
B( 17-O , 78-H ) :   0.1190 B( 18-C , 19-C ) :   1.4898 B( 19-C , 20-N ) :   1.3421
B( 19-C , 77-H ) :   0.9107 B( 20-N , 21-C ) :   1.1101 B( 20-N , 78-H ) :   0.8479
B( 21-C , 22-S ) :   1.1485 B( 21-C , 28-C ) :   1.4289 B( 22-S , 23-C ) :   1.1044
B( 23-C , 24-N ) :   0.9537 B( 23-C , 27-C ) :   1.4882 B( 24-N , 25-O ) :   1.5477
B( 24-N , 26-O ) :   1.5198 B( 25-O , 26-O ) :   0.2657 B( 27-C , 28-C ) :   1.2230
B( 27-C , 79-H ) :   1.0088 B( 28-C , 29-C ) :   1.0203 B( 29-C , 30-C ) :   1.7221
B( 29-C , 80-H ) :   0.9709 B( 30-C , 31-C ) :   1.2067 B( 30-C , 81-H ) :   0.9227
B( 31-C , 32-C ) :   1.4083 B( 31-C , 39-O ) :   1.1080 B( 32-C , 33-O ) :   1.0729
B( 32-C , 40-C ) :   1.1900 B( 33-O , 34-C ) :   1.0217 B( 34-C , 35-C ) :   1.2126
B( 34-C , 38-C ) :   1.5804 B( 35-C , 36-C ) :   1.5733 B( 35-C , 39-O ) :   1.0231
B( 36-C , 37-S ) :   1.1523 B( 36-C , 82-H ) :   0.9712 B( 37-S , 38-C ) :   1.1500
B( 38-C , 83-H ) :   0.9692 B( 40-C , 41-C ) :   1.5811 B( 40-C , 84-H ) :   0.9633
B( 41-C , 42-C ) :   1.1598 B( 41-C , 85-H ) :   0.9810 B( 42-C , 43-C ) :   1.5355
B( 42-C , 86-H ) :   0.9801 B( 43-C , 44-C ) :   1.1472 B( 43-C , 47-S ) :   1.0369
B( 44-C , 45-C ) :   1.5553 B( 44-C , 87-H ) :   1.0057 B( 45-C , 46-C ) :   1.2094
B( 45-C , 88-H ) :   0.9965 B( 46-C , 47-S ) :   1.0748 B( 46-C , 48-C ) :   1.4547
B( 48-C , 49-C ) :   1.2188 B( 48-C , 52-S ) :   1.0500 B( 49-C , 50-C ) :   1.5360
B( 49-C , 89-H ) :   0.9952 B( 50-C , 51-C ) :   1.1823 B( 50-C , 90-H ) :   1.0028
B( 51-C , 52-S ) :   1.0785 B( 51-C , 53-C ) :   1.5021 B( 53-C , 54-C ) :   1.2154
B( 53-C , 91-H ) :   0.9611 B( 54-C , 55-C ) :   1.5321 B( 54-C , 92-H ) :   0.9414
B( 55-C , 56-C ) :   1.0910 B( 55-C , 64-C ) :   0.9621 B( 56-C , 57-C ) :   1.5926
B( 56-C , 62-C ) :   1.0051 B( 57-C , 58-C ) :   1.1338 B( 57-C , 60-C ) :   1.1694
B( 58-C , 59-N ) :   2.9758 B( 60-C , 61-N ) :   3.0125 B( 62-C , 63-C ) :   1.2772
B( 62-C , 69-C ) :   1.4231 B( 63-C , 64-C ) :   0.9167 B( 63-C , 66-C ) :   1.4350
B( 64-C , 65-O ) :   2.2538 B( 66-C , 67-C ) :   1.2445 B( 66-C , 93-H ) :   1.0150
B( 67-C , 68-C ) :   1.3168 B( 67-C , 72-C ) :   1.1613 B( 68-C , 69-C ) :   1.3193
B( 68-C , 70-S ) :   1.0824 B( 69-C , 94-H ) :   0.9800 B( 70-S , 71-C ) :   1.0855
B( 71-C , 72-C ) :   1.6213 B( 71-C , 73-Br) :   1.0144 B( 72-C , 95-H ) :   0.9996

-----------------------------------------------------------------------------
         ABSORPTION SPECTRUM VIA TRANSITION ELECTRIC DIPOLE MOMENTS
-----------------------------------------------------------------------------
State   Energy  Wavelength   fosc         T2         TX        TY        TZ
        (cm-1)    (nm)                  (au**2)     (au)      (au)      (au)
-----------------------------------------------------------------------------
   0   10051.7    994.9   1.189586531  38.96106   1.01081  -5.96319   1.54263
   1   13701.0    729.9   0.344723339   8.28309  -1.09502   2.37456  -1.20229
   2   16736.4    597.5   0.011489517   0.22600   0.43628  -0.11341   0.15101
   3   17079.9    585.5   0.116673749   2.24887  -0.97542   1.13034   0.14058
   4   19655.6    508.8   0.048380851   0.81033   0.64995  -0.09398  -0.61568
   5   20814.0    480.4   0.112834179   1.78469  -0.68890  -0.49684   1.03114
   6   22867.1    437.3   0.051150930   0.73641  -0.37615   0.25451  -0.72811
   7   23405.6    427.2   0.056690952   0.79739   0.18458   0.39771  -0.77791
   8   23777.9    420.6   0.079550255   1.10140  -0.12619  -0.84958   0.60306
   9   24042.1    415.9   0.024378341   0.33382   0.20704   0.50892  -0.17873
  10   24254.8    412.3   0.053030910   0.71979  -0.70977   0.45854  -0.07589
  11   24877.0    402.0   0.004202951   0.05562  -0.04890   0.11694   0.19888
  12   25858.2    386.7   0.247770310   3.15447  -1.67326   0.45991   0.37834
  13   26736.3    374.0   0.024754330   0.30481   0.39293  -0.38152   0.06964
  14   27105.5    368.9   0.007531904   0.09148  -0.29760  -0.05228   0.01344
  15   27325.7    366.0   0.214242192   2.58113   1.03638  -1.22539  -0.07399
  16   27754.6    360.3   0.052677127   0.62483   0.56778  -0.44731  -0.31996
  17   28146.1    355.3   0.020922758   0.24472   0.41484  -0.24734  -0.10701
  18   28407.7    352.0   0.053173058   0.61621   0.40340  -0.21063  -0.63962
  19   28688.4    348.6   0.423715977   4.86232   0.30809   1.64811  -1.43218
  20   28941.6    345.5   0.034848685   0.39640  -0.00983   0.59637  -0.20161
  21   29409.4    340.0   0.184610069   2.06654   0.00925  -1.37150   0.43062
  22   29909.8    334.3   0.035110124   0.38645  -0.35110   0.35606   0.36933
  23   30151.5    331.7   0.139284380   1.52079  -0.52076   1.11720  -0.03824
  24   30509.4    327.8   0.135112156   1.45793   0.54282   0.78759  -0.73687
  25   31048.0    322.1   0.284417520   3.01577  -0.42705  -1.17444   1.20585
  26   31160.9    320.9   0.030012376   0.31708   0.52219  -0.09162   0.18973
  27   31374.0    318.7   0.268120952   2.81343  -0.11375   1.66282  -0.18849
  28   31767.4    314.8   0.301399614   3.12346   1.60690  -0.63653  -0.36899
  29   32240.4    310.2   0.433613223   4.42769   1.98276  -0.65116  -0.26900
  30   32362.2    309.0   0.022221289   0.22605   0.06110  -0.13522  -0.45170
  31   32748.3    305.4   0.024709282   0.24840   0.14899  -0.46561   0.09699
  32   32907.8    303.9   0.123110581   1.23161   0.83696   0.35212  -0.63806
  33   33292.4    300.4   0.023407765   0.23147  -0.30335  -0.37031  -0.04815
  34   33593.6    297.7   0.016232154   0.15907   0.20872  -0.23051   0.24974
  35   33614.7    297.5   0.157807527   1.54552   0.23923   0.93069  -0.78874
  36   34121.0    293.1   0.061789259   0.59617   0.40534  -0.62650   0.19840
  37   34187.9    292.5   0.039820533   0.38345  -0.46026   0.12419   0.39521
  38   34557.5    289.4   0.129116408   1.23003  -0.68293   0.31511   0.81507
  39   34660.4    288.5   0.038742663   0.36799   0.14795  -0.56346   0.16916
  40   34704.4    288.1   0.107536034   1.02011   0.01592  -0.98460   0.22452
  41   35244.0    283.7   0.034101368   0.31854   0.24848  -0.14950  -0.48420
  42   35311.9    283.2   0.042296339   0.39433  -0.03333   0.61360   0.12930
  43   35631.9    280.6   0.128148577   1.18399   0.87418   0.29439  -0.57718
  44   35749.1    279.7   0.017754326   0.16350  -0.38945   0.06902  -0.08404
  45   35853.8    278.9   0.050527056   0.46394  -0.05932   0.27005  -0.62249
  46   36105.2    277.0   0.028168628   0.25685  -0.29206  -0.28826   0.29741
  47   36652.3    272.8   0.044876832   0.40309  -0.47094   0.40914  -0.11792
  48   36892.2    271.1   0.057811467   0.51589   0.29023   0.28001  -0.59435
  49   37105.5    269.5   0.066327977   0.58848  -0.73004  -0.07749   0.22254
  50   37376.0    267.6   0.044592296   0.39277  -0.11378   0.59687   0.15353
  51   37517.5    266.5   0.249525372   2.18956  -0.81241  -1.03665   0.67447
  52   37672.3    265.4   0.058228639   0.50885   0.52397   0.31685  -0.36594
  53   38180.3    261.9   0.022898565   0.19744  -0.40630   0.17007   0.05864
  54   38304.0    261.1   0.053977142   0.46392   0.13807  -0.55806   0.36527
  55   38357.1    260.7   0.034022882   0.29201   0.49229   0.19397  -0.10973
  56   38639.4    258.8   0.001343363   0.01145   0.08835   0.03265  -0.05073
  57   38700.3    258.4   0.050846376   0.43253  -0.65515   0.03695   0.04419
  58   38814.0    257.6   0.008894215   0.07544   0.19908  -0.01546   0.18859
  59   38883.3    257.2   0.101839961   0.86224   0.33039   0.71557  -0.49097
  60   39099.7    255.8   0.203315492   1.71188   0.62798  -1.13888   0.14303
  61   39234.0    254.9   0.062073681   0.52086  -0.64244   0.32002   0.07563
  62   39413.6    253.7   0.009942583   0.08305  -0.12014  -0.25372  -0.06511
  63   39550.9    252.8   0.125547998   1.04503  -0.82024   0.05773   0.60738
  64   39757.4    251.5   0.077770240   0.64398   0.70855  -0.01659  -0.37638
  65   39897.0    250.6   0.023309231   0.19234   0.28566  -0.21087   0.25742
  66   39968.4    250.2   0.027169073   0.22379  -0.30024   0.17396   0.32153
  67   40260.7    248.4   0.005117110   0.04184  -0.05081  -0.04752   0.19236

FINAL SINGLE POINT ENERGY    -10383.365816159760

DIPOLE MOMENT
-------------
                                X             Y             Z
Electronic contribution:    -69.29668     144.68098     -64.86905
Nuclear contribution   :     70.27060    -146.75589      63.38186
                        -----------------------------------------
Total Dipole Moment    :      0.97393      -2.07490      -1.48718
                        -----------------------------------------
Magnitude (a.u.)       :      2.73230
Magnitude (Debye)      :      6.94496

Rotational constants in cm-1:     0.001291     0.000237     0.000212
Rotational constants in MHz :    38.696824     7.115220     6.361814

                             ****ORCA TERMINATED NORMALLY****
TOTAL RUN TIME: 0 days 0 hours 13 minutes 39 seconds 735 msec
