                         Program Version 4.2.0 -  RELEASE  -
|  1> # ORCA input file
|  2> # SCF done       -173.926008739465          0.000917915535
|  3> ! CAM-B3LYP def2-SVP def2/J RIJCOSX Grid4 TightSCF
|  4> %maxcore 5000
|  5> %tddft
|  6>     Mode sTDDFT
|  7>     Ethresh 5.0
|  8>     maxcore 5000
|  9> end
| 10>
| 11> %pal
| 12>   nprocs 6
| 13>   end
| 14> * xyz 0 1
| 15>    C       -0.83157         3.50688         4.64339
| 16>    C        0.26237         4.33943         4.69985
| 17>    C        1.38182         4.11592         5.52292
| 18>    N        2.32353         3.97914         6.16714
| 19>    C        0.39688         5.53522         3.96781
| 20>    N        0.56792         6.53221         3.42265
| 21>    C       -1.03868         2.32087         5.46918
| 22>    C       -2.32199         1.79570         5.18510
| 23>    C       -2.81827         0.67711         5.80550
| 24>    C       -2.01030         0.04712         6.75948
| 25>    C       -0.72969         0.57768         7.03512
| 26>    C       -0.22554         1.70890         6.40342
| 27>    S        0.10366        -0.35800         8.24097
| 28>    C       -1.26491        -1.43170         8.35733
| 29>    C       -2.29225        -1.10997         7.53696
| 30>   Br       -1.20908        -2.87819         9.55176
| 31>    C       -2.97408         2.62607         4.14772
| 32>    O       -4.03977         2.39065         3.61081
| 33>    C       -2.00830         3.69406         3.83412
| 34>    C       -2.12973         4.56601         2.77115
| 35>    C       -3.31839         4.91305         2.12484
| 36>    S       -3.26430         5.38369         0.44226
| 37>    C       -4.97440         5.56381         0.34232
| 38>    C       -5.57811         5.30539         1.57238
| 39>    C       -4.64381         4.97359         2.59588
| 40>    C       -5.10527         4.83708         3.90733
| 41>    C       -6.45182         4.88210         4.20297
| 42>    O       -6.73060         4.75994         5.52004
| 43>    C       -8.04646         4.73628         6.02721
| 44>    C       -7.40254         5.05156         3.13903
| 45>    O       -8.72864         4.99372         3.46917
| 46>    C       -9.68409         5.11398         2.44580
| 47>    C       -6.95822         5.28357         1.86431
| 48>    C       -5.56961         5.90716        -0.92862
| 49>    C       -6.46404         6.87148        -1.16121
| 50>    C       -6.96759         7.83636        -0.13448
| 51>    C       -7.00847         7.13911        -2.55025
| 52>    N       -6.54500         6.28097        -3.60579
| 53>    C       -5.29272         6.36466        -4.13808
| 54>    C       -4.33808         7.25685        -3.77751
| 55>    C       -3.08014         7.35198        -4.40743
| 56>    C       -2.08451         8.19050        -3.98490
| 57>    C       -0.80174         8.37655        -4.55552
| 58>    C       -0.02322         9.28624        -3.90657
| 59>    C       -0.63803         9.86936        -2.77679
| 60>    S       -2.25360         9.22773        -2.56905
| 61>    C       -0.11614        10.80534        -1.90575
| 62>    C        1.14844        11.43124        -1.94462
| 63>    C        1.35945        12.31072        -0.92706
| 64>    C        0.28148        12.43359        -0.01250
| 65>    S       -1.02720        11.37672        -0.52522
| 66>    C        0.27366        13.24649         1.09100
| 67>    C       -0.72931        13.41803         2.06947
| 68>    C       -0.62975        14.28701         3.15813
| 69>    C       -1.81205        14.18846         3.93572
| 70>    C       -2.21001        14.81567         5.09264
| 71>    C       -3.47020        14.47885         5.62204
| 72>    C       -4.14133        14.91999         6.74944
| 73>    C       -5.40528        14.24773         6.83426
| 74>    C       -5.50839        13.39277         5.75521
| 75>    C       -4.32030        13.50049         4.96538
| 76>    C       -3.92873        12.87411         3.81453
| 77>    C       -2.66493        13.21047         3.28158
| 78>    C       -2.00321        12.75490         2.16030
| 79>    C       -6.40742        14.41679         7.85776
| 80>    C       -6.31872        15.23296         8.90499
| 81>    H       -3.80052         0.30060         5.56656
| 82>    H        0.75977         2.07168         6.64404
| 83>    H       -3.21131        -1.66425         7.47980
| 84>    H       -1.22187         4.97746         2.34559
| 85>    H       -4.41854         4.70619         4.72629
| 86>    H       -7.92775         4.63634         7.10607
| 87>    H       -8.61277         3.88580         5.64323
| 88>    H       -8.58417         5.66023         5.80533
| 89>    H       -9.64390         6.10044         1.97199
| 90>    H      -10.64958         4.98919         2.93378
| 91>    H       -9.55854         4.33723         1.68513
| 92>    H       -7.64856         5.44233         1.05392
| 93>    H       -5.17322         5.34890        -1.76776
| 94>    H       -6.47718         7.68982         0.82211
| 95>    H       -8.04502         7.73748        -0.00118
| 96>    H       -6.77550         8.85475        -0.47153
| 97>    H       -6.76290         8.17254        -2.82238
| 98>    H       -8.10133         7.06618        -2.51486
| 99>    H       -7.04676         5.41927        -3.74339
|100>    H       -5.10143         5.65972        -4.93609
|101>    H       -4.50946         7.92814        -2.94914
|102>    H       -2.88256         6.72689        -5.26812
|103>    H       -0.49778         7.83130        -5.43211
|104>    H        0.97589         9.54991        -4.20483
|105>    H        1.86377        11.21834        -2.71896
|106>    H        2.26416        12.87861        -0.79590
|107>    H        1.17055        13.83742         1.23808
|108>    H        0.20660        14.92568         3.37593
|109>    H       -1.58261        15.54268         5.58910
|110>    H       -3.77793        15.64807         7.45137
|111>    H       -6.33878        12.74652         5.53430
|112>    H       -4.55186        12.14237         3.31889
|113>    H       -2.37378        12.02017         1.47032
|114>    H       -7.29416        13.80707         7.73034
|115>    H       -5.45750        15.85546         9.07644
|116>    H       -7.10819        15.30344         9.63336
|117> *
|118>
|119>                          ****END OF INPUT****

CARTESIAN COORDINATES (ANGSTROEM)
---------------------------------
  C     -0.831570    3.506880    4.643390
  C      0.262370    4.339430    4.699850
  C      1.381820    4.115920    5.522920
  N      2.323530    3.979140    6.167140
  C      0.396880    5.535220    3.967810
  N      0.567920    6.532210    3.422650
  C     -1.038680    2.320870    5.469180
  C     -2.321990    1.795700    5.185100
  C     -2.818270    0.677110    5.805500
  C     -2.010300    0.047120    6.759480
  C     -0.729690    0.577680    7.035120
  C     -0.225540    1.708900    6.403420
  S      0.103660   -0.358000    8.240970
  C     -1.264910   -1.431700    8.357330
  C     -2.292250   -1.109970    7.536960
  Br    -1.209080   -2.878190    9.551760
  C     -2.974080    2.626070    4.147720
  O     -4.039770    2.390650    3.610810
  C     -2.008300    3.694060    3.834120
  C     -2.129730    4.566010    2.771150
  C     -3.318390    4.913050    2.124840
  S     -3.264300    5.383690    0.442260
  C     -4.974400    5.563810    0.342320
  C     -5.578110    5.305390    1.572380
  C     -4.643810    4.973590    2.595880
  C     -5.105270    4.837080    3.907330
  C     -6.451820    4.882100    4.202970
  O     -6.730600    4.759940    5.520040
  C     -8.046460    4.736280    6.027210
  C     -7.402540    5.051560    3.139030
  O     -8.728640    4.993720    3.469170
  C     -9.684090    5.113980    2.445800
  C     -6.958220    5.283570    1.864310
  C     -5.569610    5.907160   -0.928620
  C     -6.464040    6.871480   -1.161210
  C     -6.967590    7.836360   -0.134480
  C     -7.008470    7.139110   -2.550250
  N     -6.545000    6.280970   -3.605790
  C     -5.292720    6.364660   -4.138080
  C     -4.338080    7.256850   -3.777510
  C     -3.080140    7.351980   -4.407430
  C     -2.084510    8.190500   -3.984900
  C     -0.801740    8.376550   -4.555520
  C     -0.023220    9.286240   -3.906570
  C     -0.638030    9.869360   -2.776790
  S     -2.253600    9.227730   -2.569050
  C     -0.116140   10.805340   -1.905750
  C      1.148440   11.431240   -1.944620
  C      1.359450   12.310720   -0.927060
  C      0.281480   12.433590   -0.012500
  S     -1.027200   11.376720   -0.525220
  C      0.273660   13.246490    1.091000
  C     -0.729310   13.418030    2.069470
  C     -0.629750   14.287010    3.158130
  C     -1.812050   14.188460    3.935720
  C     -2.210010   14.815670    5.092640
  C     -3.470200   14.478850    5.622040
  C     -4.141330   14.919990    6.749440
  C     -5.405280   14.247730    6.834260
  C     -5.508390   13.392770    5.755210
  C     -4.320300   13.500490    4.965380
  C     -3.928730   12.874110    3.814530
  C     -2.664930   13.210470    3.281580
  C     -2.003210   12.754900    2.160300
  C     -6.407420   14.416790    7.857760
  C     -6.318720   15.232960    8.904990
  H     -3.800520    0.300600    5.566560
  H      0.759770    2.071680    6.644040
  H     -3.211310   -1.664250    7.479800
  H     -1.221870    4.977460    2.345590
  H     -4.418540    4.706190    4.726290
  H     -7.927750    4.636340    7.106070
  H     -8.612770    3.885800    5.643230
  H     -8.584170    5.660230    5.805330
  H     -9.643900    6.100440    1.971990
  H    -10.649580    4.989190    2.933780
  H     -9.558540    4.337230    1.685130
  H     -7.648560    5.442330    1.053920
  H     -5.173220    5.348900   -1.767760
  H     -6.477180    7.689820    0.822110
  H     -8.045020    7.737480   -0.001180
  H     -6.775500    8.854750   -0.471530
  H     -6.762900    8.172540   -2.822380
  H     -8.101330    7.066180   -2.514860
  H     -7.046760    5.419270   -3.743390
  H     -5.101430    5.659720   -4.936090
  H     -4.509460    7.928140   -2.949140
  H     -2.882560    6.726890   -5.268120
  H     -0.497780    7.831300   -5.432110
  H      0.975890    9.549910   -4.204830
  H      1.863770   11.218340   -2.718960
  H      2.264160   12.878610   -0.795900
  H      1.170550   13.837420    1.238080
  H      0.206600   14.925680    3.375930
  H     -1.582610   15.542680    5.589100
  H     -3.777930   15.648070    7.451370
  H     -6.338780   12.746520    5.534300
  H     -4.551860   12.142370    3.318890
  H     -2.373780   12.020170    1.470320
  H     -7.294160   13.807070    7.730340
  H     -5.457500   15.855460    9.076440
  H     -7.108190   15.303440    9.633360

 Total Charge           Charge          ....    0
 Multiplicity           Mult            ....    1
 Number of Electrons    NEL             ....  510
 Basis Dimension        Dim             .... 1138

ORBITAL ENERGIES
----------------

  NO   OCC          E(Eh)            E(eV)
   0   2.0000    -482.876611    -13139.7406
   1   2.0000     -88.964909     -2420.8582
   2   2.0000     -88.963596     -2420.8225
   3   2.0000     -88.923022     -2419.7184
   4   2.0000     -88.922913     -2419.7155
   5   2.0000     -62.554313     -1702.1894
   6   2.0000     -56.388247     -1534.4022
   7   2.0000     -56.385562     -1534.3291
   8   2.0000     -56.385524     -1534.3281
   9   2.0000     -19.260528      -524.1056
  10   2.0000     -19.247187      -523.7426
  11   2.0000     -19.194873      -522.3190
  12   2.0000     -14.440149      -392.9364
  13   2.0000     -14.397449      -391.7745
  14   2.0000     -14.395817      -391.7301
  15   2.0000     -10.347917      -281.5811
  16   2.0000     -10.347625      -281.5732
  17   2.0000     -10.345885      -281.5259
  18   2.0000     -10.345306      -281.5101
  19   2.0000     -10.337559      -281.2993
  20   2.0000     -10.322647      -280.8935
  21   2.0000     -10.322202      -280.8814
  22   2.0000     -10.321017      -280.8492
  23   2.0000     -10.320818      -280.8437
  24   2.0000     -10.315695      -280.7043
  25   2.0000     -10.313274      -280.6384
  26   2.0000     -10.311482      -280.5897
  27   2.0000     -10.305024      -280.4140
  28   2.0000     -10.301324      -280.3133
  29   2.0000     -10.299306      -280.2584
  30   2.0000     -10.298871      -280.2465
  31   2.0000     -10.298460      -280.2353
  32   2.0000     -10.293766      -280.1076
  33   2.0000     -10.291666      -280.0505
  34   2.0000     -10.290736      -280.0252
  35   2.0000     -10.289429      -279.9896
  36   2.0000     -10.287267      -279.9308
  37   2.0000     -10.286354      -279.9059
  38   2.0000     -10.285976      -279.8956
  39   2.0000     -10.285838      -279.8919
  40   2.0000     -10.285731      -279.8890
  41   2.0000     -10.285570      -279.8846
  42   2.0000     -10.284924      -279.8670
  43   2.0000     -10.284503      -279.8556
  44   2.0000     -10.284399      -279.8527
  45   2.0000     -10.282282      -279.7951
  46   2.0000     -10.281027      -279.7610
  47   2.0000     -10.277767      -279.6723
  48   2.0000     -10.276215      -279.6300
  49   2.0000     -10.275241      -279.6035
  50   2.0000     -10.271252      -279.4950
  51   2.0000     -10.269422      -279.4452
  52   2.0000     -10.267240      -279.3858
  53   2.0000     -10.266970      -279.3785
  54   2.0000     -10.266478      -279.3651
  55   2.0000     -10.266344      -279.3614
  56   2.0000     -10.265667      -279.3430
  57   2.0000     -10.262403      -279.2542
  58   2.0000     -10.260701      -279.2079
  59   2.0000     -10.260509      -279.2027
  60   2.0000     -10.257963      -279.1334
  61   2.0000     -10.257188      -279.1123
  62   2.0000     -10.256576      -279.0956
  63   2.0000     -10.256060      -279.0816
  64   2.0000     -10.254578      -279.0413
  65   2.0000     -10.253573      -279.0139
  66   2.0000     -10.252545      -278.9859
  67   2.0000     -10.252326      -278.9800
  68   2.0000     -10.251612      -278.9605
  69   2.0000     -10.248989      -278.8892
  70   2.0000      -8.783733      -239.0175
  71   2.0000      -8.060401      -219.3347
  72   2.0000      -8.059579      -219.3123
  73   2.0000      -8.019240      -218.2146
  74   2.0000      -8.018978      -218.2075
  75   2.0000      -6.619943      -180.1378
  76   2.0000      -6.605491      -179.7446
  77   2.0000      -6.605340      -179.7404
  78   2.0000      -6.029424      -164.0690
  79   2.0000      -6.029283      -164.0651
  80   2.0000      -6.025301      -163.9568
  81   2.0000      -6.025007      -163.9488
  82   2.0000      -6.023016      -163.8946
  83   2.0000      -6.020793      -163.8341
  84   2.0000      -5.988998      -162.9689
  85   2.0000      -5.988780      -162.9630
  86   2.0000      -5.985109      -162.8631
  87   2.0000      -5.984773      -162.8540
  88   2.0000      -5.980030      -162.7249
  89   2.0000      -5.979793      -162.7184
  90   2.0000      -2.735870       -74.4468
  91   2.0000      -2.731753       -74.3348
  92   2.0000      -2.731637       -74.3316
  93   2.0000      -2.720152       -74.0191
  94   2.0000      -2.720136       -74.0187
  95   2.0000      -1.168796       -31.8046
  96   2.0000      -1.145186       -31.1621
  97   2.0000      -1.109193       -30.1827
  98   2.0000      -1.039502       -28.2863
  99   2.0000      -1.008077       -27.4312
 100   2.0000      -1.000145       -27.2153
 101   2.0000      -0.996095       -27.1051
 102   2.0000      -0.975493       -26.5445
 103   2.0000      -0.974641       -26.5213
 104   2.0000      -0.972716       -26.4690
 105   2.0000      -0.971982       -26.4490
 106   2.0000      -0.952774       -25.9263
 107   2.0000      -0.945244       -25.7214
 108   2.0000      -0.934059       -25.4170
 109   2.0000      -0.929924       -25.3045
 110   2.0000      -0.920069       -25.0364
 111   2.0000      -0.894549       -24.3419
 112   2.0000      -0.890899       -24.2426
 113   2.0000      -0.887155       -24.1407
 114   2.0000      -0.881280       -23.9808
 115   2.0000      -0.871752       -23.7216
 116   2.0000      -0.864685       -23.5293
 117   2.0000      -0.856150       -23.2970
 118   2.0000      -0.850249       -23.1365
 119   2.0000      -0.849101       -23.1052
 120   2.0000      -0.845289       -23.0015
 121   2.0000      -0.838612       -22.8198
 122   2.0000      -0.825938       -22.4749
 123   2.0000      -0.822928       -22.3930
 124   2.0000      -0.816286       -22.2123
 125   2.0000      -0.814732       -22.1700
 126   2.0000      -0.803075       -21.8528
 127   2.0000      -0.800442       -21.7811
 128   2.0000      -0.791918       -21.5492
 129   2.0000      -0.784150       -21.3378
 130   2.0000      -0.781544       -21.2669
 131   2.0000      -0.770633       -20.9700
 132   2.0000      -0.769592       -20.9417
 133   2.0000      -0.744959       -20.2714
 134   2.0000      -0.742472       -20.2037
 135   2.0000      -0.735197       -20.0057
 136   2.0000      -0.730527       -19.8786
 137   2.0000      -0.714512       -19.4429
 138   2.0000      -0.706338       -19.2204
 139   2.0000      -0.697197       -18.9717
 140   2.0000      -0.688041       -18.7226
 141   2.0000      -0.680701       -18.5228
 142   2.0000      -0.673641       -18.3307
 143   2.0000      -0.667278       -18.1575
 144   2.0000      -0.663100       -18.0439
 145   2.0000      -0.656924       -17.8758
 146   2.0000      -0.647399       -17.6166
 147   2.0000      -0.645482       -17.5645
 148   2.0000      -0.642812       -17.4918
 149   2.0000      -0.640716       -17.4348
 150   2.0000      -0.629431       -17.1277
 151   2.0000      -0.627229       -17.0678
 152   2.0000      -0.623604       -16.9691
 153   2.0000      -0.610936       -16.6244
 154   2.0000      -0.610552       -16.6140
 155   2.0000      -0.606577       -16.5058
 156   2.0000      -0.604453       -16.4480
 157   2.0000      -0.602379       -16.3916
 158   2.0000      -0.600780       -16.3480
 159   2.0000      -0.592957       -16.1352
 160   2.0000      -0.589018       -16.0280
 161   2.0000      -0.580933       -15.8080
 162   2.0000      -0.576728       -15.6936
 163   2.0000      -0.574402       -15.6303
 164   2.0000      -0.570731       -15.5304
 165   2.0000      -0.569995       -15.5103
 166   2.0000      -0.565990       -15.4014
 167   2.0000      -0.560396       -15.2492
 168   2.0000      -0.560004       -15.2385
 169   2.0000      -0.552297       -15.0288
 170   2.0000      -0.544898       -14.8274
 171   2.0000      -0.540745       -14.7144
 172   2.0000      -0.538043       -14.6409
 173   2.0000      -0.535612       -14.5747
 174   2.0000      -0.529524       -14.4091
 175   2.0000      -0.526867       -14.3368
 176   2.0000      -0.525586       -14.3019
 177   2.0000      -0.523385       -14.2420
 178   2.0000      -0.520894       -14.1743
 179   2.0000      -0.518560       -14.1107
 180   2.0000      -0.514241       -13.9932
 181   2.0000      -0.511388       -13.9156
 182   2.0000      -0.508129       -13.8269
 183   2.0000      -0.505695       -13.7607
 184   2.0000      -0.502766       -13.6810
 185   2.0000      -0.498407       -13.5624
 186   2.0000      -0.494174       -13.4472
 187   2.0000      -0.493612       -13.4319
 188   2.0000      -0.489475       -13.3193
 189   2.0000      -0.486222       -13.2308
 190   2.0000      -0.482882       -13.1399
 191   2.0000      -0.481944       -13.1144
 192   2.0000      -0.480780       -13.0827
 193   2.0000      -0.479323       -13.0430
 194   2.0000      -0.478529       -13.0214
 195   2.0000      -0.475455       -12.9378
 196   2.0000      -0.474163       -12.9026
 197   2.0000      -0.472034       -12.8447
 198   2.0000      -0.469668       -12.7803
 199   2.0000      -0.468970       -12.7613
 200   2.0000      -0.462997       -12.5988
 201   2.0000      -0.460830       -12.5398
 202   2.0000      -0.459035       -12.4910
 203   2.0000      -0.458524       -12.4771
 204   2.0000      -0.452182       -12.3045
 205   2.0000      -0.449695       -12.2368
 206   2.0000      -0.448679       -12.2092
 207   2.0000      -0.446327       -12.1452
 208   2.0000      -0.445114       -12.1122
 209   2.0000      -0.437432       -11.9031
 210   2.0000      -0.436418       -11.8756
 211   2.0000      -0.436140       -11.8680
 212   2.0000      -0.435328       -11.8459
 213   2.0000      -0.434798       -11.8315
 214   2.0000      -0.432709       -11.7746
 215   2.0000      -0.430819       -11.7232
 216   2.0000      -0.427168       -11.6238
 217   2.0000      -0.425851       -11.5880
 218   2.0000      -0.423923       -11.5355
 219   2.0000      -0.423644       -11.5279
 220   2.0000      -0.420713       -11.4482
 221   2.0000      -0.417196       -11.3525
 222   2.0000      -0.410543       -11.1714
 223   2.0000      -0.409625       -11.1465
 224   2.0000      -0.409203       -11.1350
 225   2.0000      -0.406534       -11.0624
 226   2.0000      -0.401024       -10.9124
 227   2.0000      -0.400005       -10.8847
 228   2.0000      -0.393172       -10.6988
 229   2.0000      -0.391157       -10.6439
 230   2.0000      -0.391014       -10.6400
 231   2.0000      -0.385436       -10.4882
 232   2.0000      -0.382670       -10.4130
 233   2.0000      -0.375169       -10.2089
 234   2.0000      -0.373575       -10.1655
 235   2.0000      -0.370182       -10.0732
 236   2.0000      -0.366306        -9.9677
 237   2.0000      -0.366102        -9.9621
 238   2.0000      -0.353600        -9.6219
 239   2.0000      -0.351389        -9.5618
 240   2.0000      -0.338175        -9.2022
 241   2.0000      -0.331294        -9.0150
 242   2.0000      -0.321382        -8.7453
 243   2.0000      -0.319036        -8.6814
 244   2.0000      -0.305442        -8.3115
 245   2.0000      -0.304764        -8.2931
 246   2.0000      -0.300830        -8.1860
 247   2.0000      -0.298177        -8.1138
 248   2.0000      -0.282466        -7.6863
 249   2.0000      -0.280131        -7.6228
 250   2.0000      -0.267288        -7.2733
 251   2.0000      -0.255855        -6.9622
 252   2.0000      -0.245099        -6.6695
 253   2.0000      -0.233677        -6.3587
 254   2.0000      -0.182762        -4.9732
 255   0.0000      -0.082668        -2.2495
 256   0.0000      -0.081028        -2.2049
 257   0.0000      -0.049664        -1.3514
 258   0.0000      -0.047847        -1.3020
 259   0.0000      -0.013073        -0.3557

MULLIKEN ATOMIC CHARGES
-----------------------
   0 C :    0.304924
   1 C :   -0.351781
   2 C :   -0.182118
   3 N :    0.135109
   4 C :   -0.213489
   5 N :    0.158513
   6 C :    0.017161
   7 C :   -0.013424
   8 C :   -0.075578
   9 C :    0.115927
  10 C :   -0.091354
  11 C :   -0.024429
  12 S :    0.178322
  13 C :   -0.124017
  14 C :    0.037191
  15 Br:    0.012874
  16 C :    0.121179
  17 O :   -0.156147
  18 C :   -0.132002
  19 C :    0.025658
  20 C :   -0.147854
  21 S :    0.197486
  22 C :   -0.150388
  23 C :    0.132556
  24 C :    0.174095
  25 C :   -0.076184
  26 C :    0.168696
  27 O :   -0.295965
  28 C :    0.204200
  29 C :    0.198893
  30 O :   -0.330468
  31 C :    0.184259
  32 C :   -0.177979
  33 C :    0.007382
  34 C :   -0.217281
  35 C :    0.090391
  36 C :    0.188493
  37 N :   -0.157015
  38 C :    0.046537
  39 C :   -0.039072
  40 C :   -0.011581
  41 C :   -0.032893
  42 C :    0.038025
  43 C :    0.017667
  44 C :   -0.041691
  45 S :    0.037837
  46 C :   -0.036756
  47 C :    0.027646
  48 C :    0.028354
  49 C :   -0.016119
  50 S :    0.031501
  51 C :   -0.021399
  52 C :    0.067487
  53 C :   -0.047741
  54 C :    0.078507
  55 C :   -0.012557
  56 C :    0.053187
  57 C :   -0.030276
  58 C :    0.065037
  59 C :   -0.036198
  60 C :    0.063401
  61 C :   -0.005355
  62 C :    0.040081
  63 C :   -0.026040
  64 C :    0.012022
  65 C :   -0.029979
  66 H :   -0.018746
  67 H :   -0.009658
  68 H :   -0.008144
  69 H :    0.026409
  70 H :   -0.018873
  71 H :    0.030996
  72 H :    0.021687
  73 H :    0.018811
  74 H :    0.018326
  75 H :    0.038518
  76 H :    0.028293
  77 H :   -0.042804
  78 H :    0.006830
  79 H :    0.044200
  80 H :    0.017364
  81 H :    0.029985
  82 H :    0.031038
  83 H :    0.019752
  84 H :    0.125103
  85 H :   -0.000286
  86 H :   -0.003715
  87 H :   -0.027658
  88 H :   -0.023296
  89 H :   -0.021220
  90 H :   -0.020815
  91 H :   -0.019951
  92 H :   -0.030308
  93 H :   -0.033691
  94 H :   -0.029944
  95 H :   -0.028768
  96 H :   -0.035270
  97 H :   -0.030619
  98 H :   -0.008729
  99 H :   -0.023925
 100 H :    0.006575
 101 H :    0.017071
Sum of atomic charges:   -0.0000000

LOEWDIN ATOMIC CHARGES
----------------------
   0 C :    0.075451
   1 C :   -0.153239
   2 C :   -0.018174
   3 N :   -0.066535
   4 C :   -0.026896
   5 N :   -0.057953
   6 C :   -0.020499
   7 C :   -0.046213
   8 C :    0.015059
   9 C :   -0.035951
  10 C :   -0.147205
  11 C :   -0.012269
  12 S :    0.426297
  13 C :   -0.275024
  14 C :   -0.071841
  15 Br:    0.128346
  16 C :    0.071149
  17 O :   -0.150179
  18 C :   -0.123304
  19 C :    0.046996
  20 C :   -0.194897
  21 S :    0.494864
  22 C :   -0.141121
  23 C :   -0.057893
  24 C :   -0.007390
  25 C :   -0.027597
  26 C :    0.063275
  27 O :   -0.089372
  28 C :    0.077582
  29 C :    0.033644
  30 O :   -0.100054
  31 C :    0.077158
  32 C :   -0.066731
  33 C :   -0.075169
  34 C :   -0.022971
  35 C :   -0.048736
  36 C :    0.036140
  37 N :   -0.011218
  38 C :    0.029776
  39 C :   -0.121323
  40 C :   -0.047528
  41 C :   -0.166281
  42 C :   -0.035770
  43 C :   -0.044458
  44 C :   -0.177721
  45 S :    0.345246
  46 C :   -0.188486
  47 C :   -0.038770
  48 C :   -0.038249
  49 C :   -0.149600
  50 S :    0.362216
  51 C :   -0.058343
  52 C :   -0.056701
  53 C :    0.000098
  54 C :   -0.053600
  55 C :    0.061116
  56 C :   -0.059239
  57 C :    0.036578
  58 C :   -0.060030
  59 C :    0.004857
  60 C :   -0.059152
  61 C :    0.066646
  62 C :   -0.061921
  63 C :    0.034221
  64 C :   -0.020427
  65 C :   -0.060617
  66 H :    0.037684
  67 H :    0.039918
  68 H :    0.036779
  69 H :    0.043686
  70 H :    0.036368
  71 H :    0.023936
  72 H :    0.014938
  73 H :    0.013681
  74 H :    0.013908
  75 H :    0.029872
  76 H :    0.017843
  77 H :    0.029028
  78 H :    0.033359
  79 H :    0.038612
  80 H :    0.030221
  81 H :    0.039379
  82 H :    0.036381
  83 H :    0.034360
  84 H :    0.078261
  85 H :    0.026261
  86 H :    0.016624
  87 H :    0.027584
  88 H :    0.029266
  89 H :    0.028713
  90 H :    0.029134
  91 H :    0.030203
  92 H :    0.032538
  93 H :    0.021429
  94 H :    0.032608
  95 H :    0.023006
  96 H :    0.020932
  97 H :    0.032715
  98 H :    0.013431
  99 H :    0.027506
 100 H :    0.017173
 101 H :    0.022598

  Mayer bond orders larger than 0.100000
B(  0-C ,  1-C ) :   1.6126 B(  0-C ,  6-C ) :   0.9962 B(  0-C , 18-C ) :   1.1074
B(  1-C ,  2-C ) :   1.1446 B(  1-C ,  4-C ) :   1.1454 B(  2-C ,  3-N ) :   2.9643
B(  4-C ,  5-N ) :   2.9955 B(  6-C ,  7-C ) :   1.2758 B(  6-C , 11-C ) :   1.4182
B(  7-C ,  8-C ) :   1.4360 B(  7-C , 16-C ) :   0.9275 B(  8-C ,  9-C ) :   1.2380
B(  8-C , 66-H ) :   1.0159 B(  9-C , 10-C ) :   1.3178 B(  9-C , 14-C ) :   1.1602
B( 10-C , 11-C ) :   1.3201 B( 10-C , 12-S ) :   1.0802 B( 11-C , 67-H ) :   0.9799
B( 12-S , 13-C ) :   1.0864 B( 13-C , 14-C ) :   1.6219 B( 13-C , 15-Br) :   1.0127
B( 14-C , 68-H ) :   0.9995 B( 16-C , 17-O ) :   2.2034 B( 16-C , 18-C ) :   0.9795
B( 18-C , 19-C ) :   1.4792 B( 19-C , 20-C ) :   1.2881 B( 19-C , 69-H ) :   0.9347
B( 20-C , 21-S ) :   1.0842 B( 20-C , 24-C ) :   1.2890 B( 21-S , 22-C ) :   1.2241
B( 22-C , 23-C ) :   1.3710 B( 22-C , 33-C ) :   1.0202 B( 23-C , 24-C ) :   1.2271
B( 23-C , 32-C ) :   1.1425 B( 24-C , 25-C ) :   1.2104 B( 25-C , 26-C ) :   1.5032
B( 25-C , 70-H ) :   0.9899 B( 26-C , 27-O ) :   1.2000 B( 26-C , 29-C ) :   1.1635
B( 27-O , 28-C ) :   0.9348 B( 28-C , 71-H ) :   0.9774 B( 28-C , 72-H ) :   0.9749
B( 28-C , 73-H ) :   0.9747 B( 29-C , 30-O ) :   1.1215 B( 29-C , 32-C ) :   1.4511
B( 30-O , 31-C ) :   0.9654 B( 31-C , 74-H ) :   0.9683 B( 31-C , 75-H ) :   0.9767
B( 31-C , 76-H ) :   0.9664 B( 32-C , 77-H ) :   0.9890 B( 33-C , 34-C ) :   1.8688
B( 33-C , 78-H ) :   0.9308 B( 34-C , 35-C ) :   1.0914 B( 34-C , 36-C ) :   0.9882
B( 35-C , 79-H ) :   0.9431 B( 35-C , 80-H ) :   0.9488 B( 35-C , 81-H ) :   0.9449
B( 36-C , 37-N ) :   1.0662 B( 36-C , 82-H ) :   0.9233 B( 36-C , 83-H ) :   0.9346
B( 37-N , 38-C ) :   1.1778 B( 37-N , 84-H ) :   0.9399 B( 38-C , 39-C ) :   1.6470
B( 38-C , 85-H ) :   0.9703 B( 39-C , 40-C ) :   1.1391 B( 39-C , 86-H ) :   0.9557
B( 40-C , 41-C ) :   1.6024 B( 40-C , 87-H ) :   0.9834 B( 41-C , 42-C ) :   1.1370
B( 41-C , 45-S ) :   1.0119 B( 42-C , 43-C ) :   1.5944 B( 42-C , 88-H ) :   0.9981
B( 43-C , 44-C ) :   1.1882 B( 43-C , 89-H ) :   0.9925 B( 44-C , 45-S ) :   1.0391
B( 44-C , 46-C ) :   1.5151 B( 46-C , 47-C ) :   1.1886 B( 46-C , 50-S ) :   1.0311
B( 47-C , 48-C ) :   1.5918 B( 47-C , 90-H ) :   0.9918 B( 48-C , 49-C ) :   1.1408
B( 48-C , 91-H ) :   0.9982 B( 49-C , 50-S ) :   1.0216 B( 49-C , 51-C ) :   1.5805
B( 51-C , 52-C ) :   1.1330 B( 51-C , 92-H ) :   0.9677 B( 52-C , 53-C ) :   1.4504
B( 52-C , 63-C ) :   1.1240 B( 53-C , 54-C ) :   1.1006 B( 53-C , 93-H ) :   1.0195
B( 54-C , 55-C ) :   1.4500 B( 54-C , 62-C ) :   1.1249 B( 55-C , 56-C ) :   1.1235
B( 55-C , 94-H ) :   1.0049 B( 56-C , 57-C ) :   1.4500 B( 56-C , 60-C ) :   1.1282
B( 57-C , 58-C ) :   1.1377 B( 57-C , 95-H ) :   1.0082 B( 58-C , 59-C ) :   1.5132
B( 58-C , 64-C ) :   1.0874 B( 59-C , 60-C ) :   1.0825 B( 59-C , 96-H ) :   1.0159
B( 60-C , 61-C ) :   1.4652 B( 61-C , 62-C ) :   1.1243 B( 61-C , 97-H ) :   1.0039
B( 62-C , 63-C ) :   1.4644 B( 63-C , 98-H ) :   0.9901 B( 64-C , 65-C ) :   1.9312
B( 64-C , 99-H ) :   0.9652 B( 65-C ,100-H ) :   0.9520 B( 65-C ,101-H ) :   0.9495

-----------------------------------------------------------------------------
         ABSORPTION SPECTRUM VIA TRANSITION ELECTRIC DIPOLE MOMENTS
-----------------------------------------------------------------------------
State   Energy  Wavelength   fosc         T2         TX        TY        TZ
        (cm-1)    (nm)                  (au**2)     (au)      (au)      (au)
-----------------------------------------------------------------------------
   0    5645.9   1771.2   0.016906955   0.98585   0.06497   0.64508   0.75200
   1    9861.1   1014.1   0.002646085   0.08834   0.04301  -0.26157   0.13443
   2   14539.4    687.8   0.085227902   1.92980   0.24511   1.01083   0.92084
   3   16007.3    624.7   1.234435694  25.38779  -0.34613  -3.67444  -3.43023
   4   18418.6    542.9   0.753441648  13.46695  -2.64505   0.70599  -2.44382
   5   18544.8    539.2   0.112681188   2.00035   1.07624  -0.26594   0.87825
   6   21805.0    458.6   0.002292613   0.03461  -0.13425   0.04135   0.12198
   7   22455.9    445.3   0.138024993   2.02350   0.89512  -0.33215  -1.05449
   8   24006.4    416.6   0.029418269   0.40343  -0.12870   0.58042  -0.22355
   9   24580.0    406.8   0.004765082   0.06382   0.04211   0.15551   0.19459
  10   25042.6    399.3   0.009563045   0.12572  -0.05259   0.20041   0.28773
  11   25769.8    388.1   0.000633364   0.00809  -0.05564  -0.07037   0.00663
  12   25877.9    386.4   0.105381359   1.34063   1.02609   0.52935  -0.08703
  13   26150.2    382.4   0.033099778   0.41670  -0.09106   0.58537  -0.25641
  14   26715.4    374.3   0.246104143   3.03272  -0.27048  -0.15087   1.71371
  15   27578.8    362.6   0.001334662   0.01593   0.11979   0.02814  -0.02812
  16   27975.0    357.5   0.268033252   3.15423   0.00961   1.54494  -0.87596
  17   28532.7    350.5   0.220337624   2.54226   1.37298  -0.06203  -0.80829
  18   28712.7    348.3   1.258465034  14.42924  -3.13230  -0.26898   2.13204
  19   29916.8    334.3   0.041844880   0.46047   0.55427  -0.19122   0.34161
  20   30013.7    333.2   0.031051482   0.34059  -0.45042   0.06486   0.36539
  21   30332.0    329.7   0.000176840   0.00192  -0.01591   0.03674   0.01778
  22   30645.4    326.3   0.017848243   0.19174  -0.35280  -0.25599   0.04167
  23   30981.2    322.8   0.006934223   0.07368   0.24009   0.00968  -0.12629
  24   31181.2    320.7   0.023670091   0.24991   0.19818  -0.21224  -0.40693
  25   31578.6    316.7   0.004672579   0.04871  -0.11988  -0.01344   0.18483
  26   32124.8    311.3   0.000854126   0.00875  -0.00058   0.00915  -0.09311
  27   32308.5    309.5   0.268930327   2.74031  -0.90622   0.48559   1.29741
  28   32379.4    308.8   0.047214260   0.48004  -0.13453  -0.50430   0.45565
  29   32690.6    305.9   0.006075594   0.06118   0.13114  -0.05992  -0.20099
  30   32892.7    304.0   0.261517037   2.61744   1.16655   1.03213  -0.43739
  31   33255.5    300.7   0.001748116   0.01731   0.12084   0.03980  -0.03346
  32   33394.3    299.5   0.002592025   0.02555   0.12994   0.08226  -0.04361
  33   33901.0    295.0   0.258823009   2.51342  -0.06202   1.46937  -0.59206
  34   34208.2    292.3   0.251896167   2.42419   0.37405   1.11615  -1.01906
  35   34345.7    291.2   0.000125168   0.00120  -0.02451  -0.00053   0.02447
  36   35027.5    285.5   0.013818151   0.12987  -0.23086   0.02080   0.27594
  37   35162.2    284.4   0.014913751   0.13963   0.00530  -0.21252  -0.30731
  38   35426.6    282.3   0.000009019   0.00008  -0.00806   0.00141  -0.00410
  39   36002.6    277.8   0.007254177   0.06633   0.02077  -0.25335  -0.04142
  40   36188.6    276.3   0.071093651   0.64675   0.72801   0.11488   0.32179
  41   36982.2    270.4   0.000555069   0.00494   0.04407  -0.03349   0.04333
  42   37310.2    268.0   0.187496699   1.65440   1.05767   0.11624   0.72265
  43   37629.8    265.7   0.000500655   0.00438  -0.06077   0.00928   0.02451
  44   37692.0    265.3   0.003160487   0.02760   0.16428  -0.00113  -0.02480
  45   37792.6    264.6   0.153915500   1.34076   0.71936  -0.25980  -0.86936
  46   37834.6    264.3   0.004140548   0.03603  -0.04485  -0.06606   0.17220
  47   37902.5    263.8   0.002153449   0.01870   0.01244  -0.01678  -0.13516
  48   38130.9    262.3   0.003179976   0.02746  -0.01553   0.06011   0.15362
  49   38231.3    261.6   0.033071437   0.28478  -0.01616  -0.47371   0.24519
  50   38674.1    258.6   0.188734025   1.60659   0.73454  -0.31469  -0.98388
  51   39026.0    256.2   0.001501599   0.01267   0.04849  -0.07060  -0.07302
  52   39114.6    255.7   0.191428600   1.61118  -1.04725  -0.49572   0.51837
  53   39366.3    254.0   0.006127445   0.05124   0.04209  -0.10058  -0.19838
  54   39585.4    252.6   0.014344849   0.11930   0.00222  -0.21493  -0.27037
  55   39641.4    252.3   0.075379667   0.62601   0.05087  -0.45914  -0.64235
  56   39918.4    250.5   0.001120445   0.00924   0.03586  -0.07195  -0.05270
  57   40200.6    248.8   0.024443358   0.20017  -0.40536   0.16836  -0.08667
  58   40234.5    248.5   0.000446174   0.00365  -0.04373   0.03606   0.02094
  59   40285.4    248.2   0.016448156   0.13441  -0.23866   0.17683   0.21491

FINAL SINGLE POINT ENERGY     -6670.289344227170

DIPOLE MOMENT
-------------
                                X             Y             Z
Electronic contribution:     71.18136    -150.66634      94.91372
Nuclear contribution   :    -75.86078     149.54491     -96.94578
                        -----------------------------------------
Total Dipole Moment    :     -4.67942      -1.12142      -2.03206
                        -----------------------------------------
Magnitude (a.u.)       :      5.22339
Magnitude (Debye)      :     13.27681

Rotational constants in cm-1:     0.000900     0.000424     0.000387
Rotational constants in MHz :    26.971143    12.702204    11.588624

                             ****ORCA TERMINATED NORMALLY****
TOTAL RUN TIME: 0 days 0 hours 12 minutes 29 seconds 747 msec
