                         Program Version 4.2.0 -  RELEASE  -
|  1> # ORCA input file
|  2> # SCF done       -193.445650058111          0.000610220222
|  3> ! CAM-B3LYP def2-SVP def2/J RIJCOSX Grid4 TightSCF
|  4> %maxcore 5000
|  5> %tddft
|  6>     Mode sTDDFT
|  7>     Ethresh 5.0
|  8>     maxcore 5000
|  9> end
| 10>
| 11> %pal
| 12>   nprocs 6
| 13>   end
| 14> * xyz 0 1
| 15>    C       -3.17805        -0.66420         3.88000
| 16>    C       -1.84373        -0.94084         4.07079
| 17>    C       -1.34788        -1.76377         5.10020
| 18>    N       -0.87884        -2.41923         5.91934
| 19>    C       -0.78628        -0.46917         3.26831
| 20>    N        0.13766        -0.15130         2.66267
| 21>    C       -4.27279        -1.24313         4.66049
| 22>    C       -5.49600        -0.76985         4.12939
| 23>    C       -6.71738        -1.15096         4.62252
| 24>    C       -6.73355        -2.04954         5.69633
| 25>    C       -5.50841        -2.51022         6.22646
| 26>    C       -4.27004        -2.12127         5.72580
| 27>    S       -5.75829        -3.61095         7.55046
| 28>    C       -7.48325        -3.44059         7.36859
| 29>    C       -7.85556        -2.60312         6.37291
| 30>   Br       -8.63523        -4.38971         8.50734
| 31>    C       -5.20648         0.15463         3.01453
| 32>    O       -6.02962         0.82584         2.40595
| 33>    C       -3.75832         0.16212         2.85231
| 34>    C       -3.04710         0.95644         1.95769
| 35>    C       -3.44774         1.55894         0.77421
| 36>    C       -4.51363         1.29058        -0.07901
| 37>    C       -4.69688         1.94517        -1.32334
| 38>    C       -5.71457         1.44459        -2.08145
| 39>    C       -6.37337         0.35924        -1.46993
| 40>    S       -5.68827         0.03226         0.10309
| 41>    C       -7.44726        -0.38112        -1.94173
| 42>    C       -8.10125        -0.28569        -3.18733
| 43>    C       -9.12002        -1.18020        -3.34014
| 44>    C       -9.32609        -2.02314        -2.22317
| 45>    S       -8.16873        -1.63387        -0.96541
| 46>    C      -10.28438        -3.00881        -2.13240
| 47>    C      -10.55043        -3.85118        -1.05178
| 48>    S       -9.72579        -3.71037         0.48410
| 49>    C      -10.68161        -4.97864         1.14902
| 50>    C      -11.58642        -5.47734         0.27557
| 51>    C      -11.53879        -4.86070        -1.00370
| 52>    C      -12.26265        -5.28552        -2.15153
| 53>    C      -13.43196        -5.99318        -2.21131
| 54>    C      -13.80849        -6.59291        -3.55153
| 55>    C      -13.83207        -5.51618        -4.60377
| 56>    C      -12.88126        -5.47060        -5.61335
| 57>    C      -12.88951        -4.44745        -6.54464
| 58>    C      -13.84327        -3.44082        -6.48705
| 59>    C      -13.87817        -2.35432        -7.52300
| 60>    C      -14.77771        -2.76002        -8.69205
| 61>    C      -14.79507        -3.48909        -5.47541
| 62>    C      -14.78890        -4.51009        -4.54509
| 63>    C      -14.36034        -6.15598        -1.14926
| 64>    C      -14.56603        -5.24969        -0.14486
| 65>    C      -15.46829        -5.37368         0.92214
| 66>    C      -16.10447        -6.50531         1.38233
| 67>    C      -17.00401        -6.54640         2.47564
| 68>    C      -17.44967        -7.79179         2.80129
| 69>    C      -16.92139        -8.81651         1.98745
| 70>    S      -15.85900        -8.13248         0.77358
| 71>    C      -17.14627       -10.17527         2.07808
| 72>    C      -17.98752       -10.86246         2.98220
| 73>    C      -17.97466       -12.21574         2.84447
| 74>    C      -17.11519       -12.68525         1.81874
| 75>    S      -16.33472       -11.31417         1.02268
| 76>    C      -16.87212       -13.98026         1.47080
| 77>    N      -16.00855       -14.32895         0.48336
| 78>    C      -15.70302       -15.58285         0.08087
| 79>    S      -16.51745       -16.96678         0.74468
| 80>    C      -15.62894       -17.99139        -0.34164
| 81>    N      -15.86642       -19.35965        -0.26596
| 82>    O      -15.24998       -20.09117        -1.02315
| 83>    O      -16.68611       -19.72810         0.56453
| 84>    C      -14.77480       -17.29757        -1.16163
| 85>    C      -14.78653       -15.91598        -0.92424
| 86>    C      -13.93907       -14.99102        -1.65812
| 87>    C      -13.44279       -13.83790        -1.22216
| 88>    H       -7.63215        -0.77579         4.19134
| 89>    H       -3.36425        -2.50330         6.16591
| 90>    H       -8.87741        -2.38210         6.12356
| 91>    H       -2.01487         1.15053         2.22446
| 92>    H       -2.75925         2.29946         0.38191
| 93>    H       -4.07063         2.76875        -1.61846
| 94>    H       -6.00480         1.83100        -3.04191
| 95>    H       -7.80373         0.42849        -3.93357
| 96>    H       -9.73288        -1.25962        -4.22105
| 97>    H      -10.91127        -3.13530        -3.00638
| 98>    H      -10.50361        -5.28851         2.16012
| 99>    H      -12.24784        -6.29139         0.50892
|100>    H      -11.77767        -5.08782        -3.09966
|101>    H      -14.79109        -7.06292        -3.48257
|102>    H      -13.08156        -7.36071        -3.82805
|103>    H      -12.12753        -6.24353        -5.67592
|104>    H      -12.14153        -4.42945        -7.32483
|105>    H      -12.86965        -2.16391        -7.89571
|106>    H      -14.25907        -1.43182        -7.08015
|107>    H      -14.40761        -3.67212        -9.15450
|108>    H      -14.80329        -1.97461        -9.44374
|109>    H      -15.79172        -2.94121        -8.34349
|110>    H      -15.54653        -2.71463        -5.41532
|111>    H      -15.53128        -4.52944        -3.75964
|112>    H      -15.03641        -6.99745        -1.23165
|113>    H      -14.01682        -4.31769        -0.19154
|114>    H      -15.66698        -4.47506         1.49291
|115>    H      -17.29003        -5.64748         2.99291
|116>    H      -18.12712        -7.99924         3.60979
|117>    H      -18.57798       -10.33611         3.70997
|118>    H      -18.54856       -12.89735         3.44581
|119>    H      -17.35904       -14.78798         1.99647
|120>    H      -15.57172       -13.57338        -0.03631
|121>    H      -14.15284       -17.78667        -1.88942
|122>    H      -13.67773       -15.33370        -2.65102
|123>    H      -13.58663       -13.46598        -0.22122
|124>    H      -12.81506       -13.23557        -1.85518
|125> *
|126>
|127>                          ****END OF INPUT****

CARTESIAN COORDINATES (ANGSTROEM)
---------------------------------
  C     -3.178050   -0.664200    3.880000
  C     -1.843730   -0.940840    4.070790
  C     -1.347880   -1.763770    5.100200
  N     -0.878840   -2.419230    5.919340
  C     -0.786280   -0.469170    3.268310
  N      0.137660   -0.151300    2.662670
  C     -4.272790   -1.243130    4.660490
  C     -5.496000   -0.769850    4.129390
  C     -6.717380   -1.150960    4.622520
  C     -6.733550   -2.049540    5.696330
  C     -5.508410   -2.510220    6.226460
  C     -4.270040   -2.121270    5.725800
  S     -5.758290   -3.610950    7.550460
  C     -7.483250   -3.440590    7.368590
  C     -7.855560   -2.603120    6.372910
  Br    -8.635230   -4.389710    8.507340
  C     -5.206480    0.154630    3.014530
  O     -6.029620    0.825840    2.405950
  C     -3.758320    0.162120    2.852310
  C     -3.047100    0.956440    1.957690
  C     -3.447740    1.558940    0.774210
  C     -4.513630    1.290580   -0.079010
  C     -4.696880    1.945170   -1.323340
  C     -5.714570    1.444590   -2.081450
  C     -6.373370    0.359240   -1.469930
  S     -5.688270    0.032260    0.103090
  C     -7.447260   -0.381120   -1.941730
  C     -8.101250   -0.285690   -3.187330
  C     -9.120020   -1.180200   -3.340140
  C     -9.326090   -2.023140   -2.223170
  S     -8.168730   -1.633870   -0.965410
  C    -10.284380   -3.008810   -2.132400
  C    -10.550430   -3.851180   -1.051780
  S     -9.725790   -3.710370    0.484100
  C    -10.681610   -4.978640    1.149020
  C    -11.586420   -5.477340    0.275570
  C    -11.538790   -4.860700   -1.003700
  C    -12.262650   -5.285520   -2.151530
  C    -13.431960   -5.993180   -2.211310
  C    -13.808490   -6.592910   -3.551530
  C    -13.832070   -5.516180   -4.603770
  C    -12.881260   -5.470600   -5.613350
  C    -12.889510   -4.447450   -6.544640
  C    -13.843270   -3.440820   -6.487050
  C    -13.878170   -2.354320   -7.523000
  C    -14.777710   -2.760020   -8.692050
  C    -14.795070   -3.489090   -5.475410
  C    -14.788900   -4.510090   -4.545090
  C    -14.360340   -6.155980   -1.149260
  C    -14.566030   -5.249690   -0.144860
  C    -15.468290   -5.373680    0.922140
  C    -16.104470   -6.505310    1.382330
  C    -17.004010   -6.546400    2.475640
  C    -17.449670   -7.791790    2.801290
  C    -16.921390   -8.816510    1.987450
  S    -15.859000   -8.132480    0.773580
  C    -17.146270  -10.175270    2.078080
  C    -17.987520  -10.862460    2.982200
  C    -17.974660  -12.215740    2.844470
  C    -17.115190  -12.685250    1.818740
  S    -16.334720  -11.314170    1.022680
  C    -16.872120  -13.980260    1.470800
  N    -16.008550  -14.328950    0.483360
  C    -15.703020  -15.582850    0.080870
  S    -16.517450  -16.966780    0.744680
  C    -15.628940  -17.991390   -0.341640
  N    -15.866420  -19.359650   -0.265960
  O    -15.249980  -20.091170   -1.023150
  O    -16.686110  -19.728100    0.564530
  C    -14.774800  -17.297570   -1.161630
  C    -14.786530  -15.915980   -0.924240
  C    -13.939070  -14.991020   -1.658120
  C    -13.442790  -13.837900   -1.222160
  H     -7.632150   -0.775790    4.191340
  H     -3.364250   -2.503300    6.165910
  H     -8.877410   -2.382100    6.123560
  H     -2.014870    1.150530    2.224460
  H     -2.759250    2.299460    0.381910
  H     -4.070630    2.768750   -1.618460
  H     -6.004800    1.831000   -3.041910
  H     -7.803730    0.428490   -3.933570
  H     -9.732880   -1.259620   -4.221050
  H    -10.911270   -3.135300   -3.006380
  H    -10.503610   -5.288510    2.160120
  H    -12.247840   -6.291390    0.508920
  H    -11.777670   -5.087820   -3.099660
  H    -14.791090   -7.062920   -3.482570
  H    -13.081560   -7.360710   -3.828050
  H    -12.127530   -6.243530   -5.675920
  H    -12.141530   -4.429450   -7.324830
  H    -12.869650   -2.163910   -7.895710
  H    -14.259070   -1.431820   -7.080150
  H    -14.407610   -3.672120   -9.154500
  H    -14.803290   -1.974610   -9.443740
  H    -15.791720   -2.941210   -8.343490
  H    -15.546530   -2.714630   -5.415320
  H    -15.531280   -4.529440   -3.759640
  H    -15.036410   -6.997450   -1.231650
  H    -14.016820   -4.317690   -0.191540
  H    -15.666980   -4.475060    1.492910
  H    -17.290030   -5.647480    2.992910
  H    -18.127120   -7.999240    3.609790
  H    -18.577980  -10.336110    3.709970
  H    -18.548560  -12.897350    3.445810
  H    -17.359040  -14.787980    1.996470
  H    -15.571720  -13.573380   -0.036310
  H    -14.152840  -17.786670   -1.889420
  H    -13.677730  -15.333700   -2.651020
  H    -13.586630  -13.465980   -0.221220
  H    -12.815060  -13.235570   -1.855180

 Total Charge           Charge          ....    0
 Multiplicity           Mult            ....    1
 Number of Electrons    NEL             ....  584
 Basis Dimension        Dim             .... 1253

ORBITAL ENERGIES
----------------

  NO   OCC          E(Eh)            E(eV)
   0   2.0000    -482.874661    -13139.6875
   1   2.0000     -88.989780     -2421.5350
   2   2.0000     -88.966877     -2420.9118
   3   2.0000     -88.960259     -2420.7317
   4   2.0000     -88.960170     -2420.7293
   5   2.0000     -88.959638     -2420.7148
   6   2.0000     -88.959258     -2420.7045
   7   2.0000     -88.951936     -2420.5052
   8   2.0000     -62.552345     -1702.1359
   9   2.0000     -56.386266     -1534.3483
  10   2.0000     -56.383605     -1534.2759
  11   2.0000     -56.383564     -1534.2748
  12   2.0000     -19.233935      -523.3820
  13   2.0000     -19.233631      -523.3737
  14   2.0000     -19.187529      -522.1192
  15   2.0000     -14.646030      -398.5387
  16   2.0000     -14.498036      -394.5116
  17   2.0000     -14.390271      -391.5792
  18   2.0000     -14.389427      -391.5562
  19   2.0000     -10.376692      -282.3641
  20   2.0000     -10.351703      -281.6842
  21   2.0000     -10.343683      -281.4659
  22   2.0000     -10.341895      -281.4173
  23   2.0000     -10.332527      -281.1624
  24   2.0000     -10.331865      -281.1443
  25   2.0000     -10.331485      -281.1340
  26   2.0000     -10.325274      -280.9650
  27   2.0000     -10.319933      -280.8197
  28   2.0000     -10.319587      -280.8102
  29   2.0000     -10.317293      -280.7478
  30   2.0000     -10.313781      -280.6522
  31   2.0000     -10.312695      -280.6227
  32   2.0000     -10.312329      -280.6128
  33   2.0000     -10.312327      -280.6127
  34   2.0000     -10.309212      -280.5279
  35   2.0000     -10.308709      -280.5142
  36   2.0000     -10.307221      -280.4737
  37   2.0000     -10.306168      -280.4451
  38   2.0000     -10.305275      -280.4208
  39   2.0000     -10.305214      -280.4191
  40   2.0000     -10.303541      -280.3736
  41   2.0000     -10.303057      -280.3604
  42   2.0000     -10.302642      -280.3491
  43   2.0000     -10.301790      -280.3260
  44   2.0000     -10.298848      -280.2459
  45   2.0000     -10.296386      -280.1789
  46   2.0000     -10.294951      -280.1399
  47   2.0000     -10.294748      -280.1343
  48   2.0000     -10.293812      -280.1089
  49   2.0000     -10.293135      -280.0904
  50   2.0000     -10.290434      -280.0169
  51   2.0000     -10.288746      -279.9710
  52   2.0000     -10.287766      -279.9444
  53   2.0000     -10.287481      -279.9366
  54   2.0000     -10.285485      -279.8823
  55   2.0000     -10.284283      -279.8496
  56   2.0000     -10.284272      -279.8493
  57   2.0000     -10.283770      -279.8356
  58   2.0000     -10.282518      -279.8015
  59   2.0000     -10.282376      -279.7977
  60   2.0000     -10.278828      -279.7011
  61   2.0000     -10.278719      -279.6982
  62   2.0000     -10.278314      -279.6872
  63   2.0000     -10.278188      -279.6837
  64   2.0000     -10.277930      -279.6767
  65   2.0000     -10.276873      -279.6479
  66   2.0000     -10.274970      -279.5961
  67   2.0000     -10.272887      -279.5395
  68   2.0000     -10.269932      -279.4591
  69   2.0000     -10.269292      -279.4416
  70   2.0000     -10.268794      -279.4281
  71   2.0000     -10.268621      -279.4234
  72   2.0000     -10.268527      -279.4208
  73   2.0000     -10.268423      -279.4180
  74   2.0000     -10.268167      -279.4110
  75   2.0000     -10.262670      -279.2615
  76   2.0000     -10.259137      -279.1653
  77   2.0000      -8.781747      -238.9635
  78   2.0000      -8.085067      -220.0058
  79   2.0000      -8.063129      -219.4089
  80   2.0000      -8.056400      -219.2258
  81   2.0000      -8.056020      -219.2154
  82   2.0000      -8.055326      -219.1966
  83   2.0000      -8.055217      -219.1936
  84   2.0000      -8.046657      -218.9607
  85   2.0000      -6.617896      -180.0821
  86   2.0000      -6.603531      -179.6912
  87   2.0000      -6.603405      -179.6878
  88   2.0000      -6.054800      -164.7595
  89   2.0000      -6.050346      -164.6383
  90   2.0000      -6.046490      -164.5334
  91   2.0000      -6.032947      -164.1648
  92   2.0000      -6.029004      -164.0575
  93   2.0000      -6.026097      -163.9784
  94   2.0000      -6.025452      -163.9609
  95   2.0000      -6.025029      -163.9494
  96   2.0000      -6.024907      -163.9460
  97   2.0000      -6.023856      -163.9175
  98   2.0000      -6.021873      -163.8635
  99   2.0000      -6.021084      -163.8420
 100   2.0000      -6.020950      -163.8384
 101   2.0000      -6.020655      -163.8304
 102   2.0000      -6.017969      -163.7573
 103   2.0000      -6.017480      -163.7440
 104   2.0000      -6.016448      -163.7159
 105   2.0000      -6.016440      -163.7157
 106   2.0000      -6.016090      -163.7061
 107   2.0000      -6.011677      -163.5861
 108   2.0000      -6.008626      -163.5030
 109   2.0000      -2.733829       -74.3913
 110   2.0000      -2.729731       -74.2797
 111   2.0000      -2.729645       -74.2774
 112   2.0000      -2.718221       -73.9666
 113   2.0000      -2.718209       -73.9662
 114   2.0000      -1.313319       -35.7372
 115   2.0000      -1.132306       -30.8116
 116   2.0000      -1.105577       -30.0843
 117   2.0000      -1.101111       -29.9627
 118   2.0000      -1.013663       -27.5832
 119   2.0000      -1.007145       -27.4058
 120   2.0000      -1.005198       -27.3528
 121   2.0000      -1.002238       -27.2723
 122   2.0000      -0.991324       -26.9753
 123   2.0000      -0.990004       -26.9394
 124   2.0000      -0.985594       -26.8194
 125   2.0000      -0.977414       -26.5968
 126   2.0000      -0.968881       -26.3646
 127   2.0000      -0.965637       -26.2763
 128   2.0000      -0.959412       -26.1069
 129   2.0000      -0.933327       -25.3971
 130   2.0000      -0.922763       -25.1096
 131   2.0000      -0.922666       -25.1070
 132   2.0000      -0.906904       -24.6781
 133   2.0000      -0.905114       -24.6294
 134   2.0000      -0.893033       -24.3007
 135   2.0000      -0.889804       -24.2128
 136   2.0000      -0.884728       -24.0747
 137   2.0000      -0.882857       -24.0238
 138   2.0000      -0.874858       -23.8061
 139   2.0000      -0.866268       -23.5724
 140   2.0000      -0.863341       -23.4927
 141   2.0000      -0.861610       -23.4456
 142   2.0000      -0.855880       -23.2897
 143   2.0000      -0.852356       -23.1938
 144   2.0000      -0.846369       -23.0309
 145   2.0000      -0.839820       -22.8527
 146   2.0000      -0.837388       -22.7865
 147   2.0000      -0.834686       -22.7130
 148   2.0000      -0.833341       -22.6764
 149   2.0000      -0.828300       -22.5392
 150   2.0000      -0.816001       -22.2045
 151   2.0000      -0.811915       -22.0933
 152   2.0000      -0.809150       -22.0181
 153   2.0000      -0.796383       -21.6707
 154   2.0000      -0.782918       -21.3043
 155   2.0000      -0.769819       -20.9478
 156   2.0000      -0.764456       -20.8019
 157   2.0000      -0.750265       -20.4157
 158   2.0000      -0.746205       -20.3053
 159   2.0000      -0.734825       -19.9956
 160   2.0000      -0.723725       -19.6936
 161   2.0000      -0.721050       -19.6208
 162   2.0000      -0.717739       -19.5307
 163   2.0000      -0.705124       -19.1874
 164   2.0000      -0.696524       -18.9534
 165   2.0000      -0.694179       -18.8896
 166   2.0000      -0.693566       -18.8729
 167   2.0000      -0.680140       -18.5075
 168   2.0000      -0.679509       -18.4904
 169   2.0000      -0.671309       -18.2672
 170   2.0000      -0.665621       -18.1125
 171   2.0000      -0.664328       -18.0773
 172   2.0000      -0.657700       -17.8969
 173   2.0000      -0.654896       -17.8206
 174   2.0000      -0.648919       -17.6580
 175   2.0000      -0.639176       -17.3929
 176   2.0000      -0.638180       -17.3657
 177   2.0000      -0.637012       -17.3340
 178   2.0000      -0.632795       -17.2192
 179   2.0000      -0.631052       -17.1718
 180   2.0000      -0.627163       -17.0660
 181   2.0000      -0.625551       -17.0221
 182   2.0000      -0.618879       -16.8406
 183   2.0000      -0.617249       -16.7962
 184   2.0000      -0.610515       -16.6129
 185   2.0000      -0.607637       -16.5347
 186   2.0000      -0.603808       -16.4304
 187   2.0000      -0.600840       -16.3497
 188   2.0000      -0.595064       -16.1925
 189   2.0000      -0.588638       -16.0177
 190   2.0000      -0.587259       -15.9801
 191   2.0000      -0.582066       -15.8388
 192   2.0000      -0.576418       -15.6851
 193   2.0000      -0.575665       -15.6646
 194   2.0000      -0.566745       -15.4219
 195   2.0000      -0.565289       -15.3823
 196   2.0000      -0.561841       -15.2885
 197   2.0000      -0.558312       -15.1925
 198   2.0000      -0.556182       -15.1345
 199   2.0000      -0.547117       -14.8878
 200   2.0000      -0.545846       -14.8532
 201   2.0000      -0.536371       -14.5954
 202   2.0000      -0.533487       -14.5169
 203   2.0000      -0.532384       -14.4869
 204   2.0000      -0.532176       -14.4813
 205   2.0000      -0.528580       -14.3834
 206   2.0000      -0.522467       -14.2170
 207   2.0000      -0.519965       -14.1490
 208   2.0000      -0.517821       -14.0906
 209   2.0000      -0.516373       -14.0512
 210   2.0000      -0.515577       -14.0296
 211   2.0000      -0.513520       -13.9736
 212   2.0000      -0.512116       -13.9354
 213   2.0000      -0.510146       -13.8818
 214   2.0000      -0.508462       -13.8359
 215   2.0000      -0.507561       -13.8114
 216   2.0000      -0.505769       -13.7627
 217   2.0000      -0.503055       -13.6888
 218   2.0000      -0.502276       -13.6676
 219   2.0000      -0.500434       -13.6175
 220   2.0000      -0.499387       -13.5890
 221   2.0000      -0.497256       -13.5310
 222   2.0000      -0.494502       -13.4561
 223   2.0000      -0.489781       -13.3276
 224   2.0000      -0.485759       -13.2182
 225   2.0000      -0.484274       -13.1778
 226   2.0000      -0.483847       -13.1661
 227   2.0000      -0.479755       -13.0548
 228   2.0000      -0.478893       -13.0314
 229   2.0000      -0.475189       -12.9305
 230   2.0000      -0.474023       -12.8988
 231   2.0000      -0.470012       -12.7897
 232   2.0000      -0.468835       -12.7576
 233   2.0000      -0.465860       -12.6767
 234   2.0000      -0.465075       -12.6553
 235   2.0000      -0.463083       -12.6011
 236   2.0000      -0.460944       -12.5429
 237   2.0000      -0.459136       -12.4937
 238   2.0000      -0.458095       -12.4654
 239   2.0000      -0.454578       -12.3697
 240   2.0000      -0.452164       -12.3040
 241   2.0000      -0.445773       -12.1301
 242   2.0000      -0.441189       -12.0054
 243   2.0000      -0.440929       -11.9983
 244   2.0000      -0.438201       -11.9241
 245   2.0000      -0.437564       -11.9067
 246   2.0000      -0.436397       -11.8750
 247   2.0000      -0.432748       -11.7757
 248   2.0000      -0.428914       -11.6714
 249   2.0000      -0.426696       -11.6110
 250   2.0000      -0.425339       -11.5741
 251   2.0000      -0.424821       -11.5600
 252   2.0000      -0.421449       -11.4682
 253   2.0000      -0.419023       -11.4022
 254   2.0000      -0.415202       -11.2982
 255   2.0000      -0.411436       -11.1957
 256   2.0000      -0.410101       -11.1594
 257   2.0000      -0.407993       -11.1020
 258   2.0000      -0.406321       -11.0566
 259   2.0000      -0.404445       -11.0055
 260   2.0000      -0.402638       -10.9563
 261   2.0000      -0.399697       -10.8763
 262   2.0000      -0.399040       -10.8584
 263   2.0000      -0.395480       -10.7616
 264   2.0000      -0.385615       -10.4931
 265   2.0000      -0.383947       -10.4477
 266   2.0000      -0.382669       -10.4130
 267   2.0000      -0.382103       -10.3976
 268   2.0000      -0.374135       -10.1807
 269   2.0000      -0.373047       -10.1511
 270   2.0000      -0.366085        -9.9617
 271   2.0000      -0.364909        -9.9297
 272   2.0000      -0.364346        -9.9144
 273   2.0000      -0.362757        -9.8711
 274   2.0000      -0.355167        -9.6646
 275   2.0000      -0.349727        -9.5165
 276   2.0000      -0.342012        -9.3066
 277   2.0000      -0.339367        -9.2347
 278   2.0000      -0.338543        -9.2122
 279   2.0000      -0.329195        -8.9578
 280   2.0000      -0.327114        -8.9012
 281   2.0000      -0.323188        -8.7944
 282   2.0000      -0.319579        -8.6962
 283   2.0000      -0.308066        -8.3829
 284   2.0000      -0.304314        -8.2808
 285   2.0000      -0.296428        -8.0662
 286   2.0000      -0.290649        -7.9090
 287   2.0000      -0.283061        -7.7025
 288   2.0000      -0.274315        -7.4645
 289   2.0000      -0.264725        -7.2035
 290   2.0000      -0.229558        -6.2466
 291   2.0000      -0.211832        -5.7643
 292   0.0000      -0.107747        -2.9320
 293   0.0000      -0.087267        -2.3747
 294   0.0000      -0.055659        -1.5146
 295   0.0000      -0.049974        -1.3599
 296   0.0000      -0.028927        -0.7871

MULLIKEN ATOMIC CHARGES
-----------------------
   0 C :    0.313408
   1 C :   -0.362831
   2 C :   -0.187306
   3 N :    0.129290
   4 C :   -0.206190
   5 N :    0.146517
   6 C :    0.010817
   7 C :   -0.001168
   8 C :   -0.085840
   9 C :    0.119407
  10 C :   -0.094112
  11 C :   -0.025573
  12 S :    0.173434
  13 C :   -0.124462
  14 C :    0.032689
  15 Br:    0.003736
  16 C :    0.110527
  17 O :   -0.188033
  18 C :   -0.101117
  19 C :   -0.009563
  20 C :   -0.011331
  21 C :    0.001249
  22 C :    0.019335
  23 C :    0.040694
  24 C :   -0.077793
  25 S :    0.169940
  26 C :   -0.007822
  27 C :    0.019564
  28 C :    0.045454
  29 C :   -0.055405
  30 S :    0.099058
  31 C :    0.013856
  32 C :   -0.134107
  33 S :    0.100708
  34 C :   -0.033191
  35 C :    0.015863
  36 C :    0.112515
  37 C :   -0.066834
  38 C :   -0.026492
  39 C :    0.221834
  40 C :   -0.056857
  41 C :   -0.011794
  42 C :   -0.019291
  43 C :   -0.028114
  44 C :    0.065007
  45 C :    0.026077
  46 C :   -0.009758
  47 C :    0.004090
  48 C :   -0.069481
  49 C :    0.022889
  50 C :   -0.018529
  51 C :   -0.023633
  52 C :    0.033539
  53 C :    0.029110
  54 C :   -0.051628
  55 S :    0.067524
  56 C :   -0.040297
  57 C :    0.023113
  58 C :    0.048363
  59 C :   -0.049912
  60 S :    0.046682
  61 C :    0.036833
  62 N :   -0.027013
  63 C :   -0.114747
  64 S :    0.150528
  65 C :   -0.009948
  66 N :    0.281136
  67 O :   -0.256524
  68 O :   -0.275376
  69 C :    0.013703
  70 C :    0.085506
  71 C :   -0.025421
  72 C :   -0.051167
  73 H :   -0.021609
  74 H :   -0.012400
  75 H :   -0.012904
  76 H :    0.019802
  77 H :   -0.010138
  78 H :   -0.011205
  79 H :   -0.014627
  80 H :   -0.009034
  81 H :   -0.001719
  82 H :    0.006637
  83 H :    0.034185
  84 H :    0.005058
  85 H :   -0.012036
  86 H :    0.001311
  87 H :    0.007157
  88 H :   -0.028741
  89 H :   -0.031618
  90 H :   -0.001154
  91 H :    0.001390
  92 H :    0.008325
  93 H :    0.016796
  94 H :    0.009233
  95 H :   -0.029238
  96 H :   -0.027516
  97 H :   -0.000352
  98 H :    0.011734
  99 H :   -0.012674
 100 H :   -0.010278
 101 H :   -0.010619
 102 H :   -0.008519
 103 H :   -0.004094
 104 H :    0.028850
 105 H :    0.142985
 106 H :    0.010944
 107 H :    0.011176
 108 H :    0.022000
 109 H :    0.037556
Sum of atomic charges:    0.0000000

LOEWDIN ATOMIC CHARGES
----------------------
   0 C :    0.077656
   1 C :   -0.157680
   2 C :   -0.018005
   3 N :   -0.073075
   4 C :   -0.023685
   5 N :   -0.067536
   6 C :   -0.019230
   7 C :   -0.042543
   8 C :    0.008572
   9 C :   -0.038442
  10 C :   -0.149951
  11 C :   -0.014139
  12 S :    0.422647
  13 C :   -0.278298
  14 C :   -0.073680
  15 Br:    0.121323
  16 C :    0.047849
  17 O :   -0.188085
  18 C :   -0.127335
  19 C :    0.037540
  20 C :   -0.082035
  21 C :   -0.111037
  22 C :   -0.045000
  23 C :   -0.025093
  24 C :   -0.207495
  25 S :    0.495015
  26 C :   -0.134782
  27 C :   -0.050879
  28 C :   -0.004795
  29 C :   -0.174075
  30 S :    0.397573
  31 C :   -0.024847
  32 C :   -0.188388
  33 S :    0.420596
  34 C :   -0.158875
  35 C :   -0.053035
  36 C :   -0.034854
  37 C :   -0.043788
  38 C :   -0.004775
  39 C :   -0.009417
  40 C :   -0.024665
  41 C :   -0.035935
  42 C :   -0.030420
  43 C :   -0.023457
  44 C :   -0.028353
  45 C :   -0.048738
  46 C :   -0.025315
  47 C :   -0.019606
  48 C :   -0.060048
  49 C :   -0.009400
  50 C :   -0.074841
  51 C :   -0.132534
  52 C :   -0.037065
  53 C :   -0.029904
  54 C :   -0.193206
  55 S :    0.384258
  56 C :   -0.161178
  57 C :   -0.042524
  58 C :   -0.019807
  59 C :   -0.187221
  60 S :    0.346023
  61 C :    0.000254
  62 N :    0.052641
  63 C :   -0.095922
  64 S :    0.452444
  65 C :   -0.217164
  66 N :    0.274680
  67 O :   -0.222915
  68 O :   -0.241209
  69 C :    0.006701
  70 C :   -0.110292
  71 C :   -0.014811
  72 C :   -0.060237
  73 H :    0.036018
  74 H :    0.039097
  75 H :    0.034716
  76 H :    0.044970
  77 H :    0.037384
  78 H :    0.033381
  79 H :    0.031117
  80 H :    0.033962
  81 H :    0.037686
  82 H :    0.046219
  83 H :    0.028184
  84 H :    0.035380
  85 H :    0.028865
  86 H :    0.032234
  87 H :    0.035214
  88 H :    0.023767
  89 H :    0.024086
  90 H :    0.024373
  91 H :    0.025376
  92 H :    0.023237
  93 H :    0.023090
  94 H :    0.023261
  95 H :    0.024790
  96 H :    0.026682
  97 H :    0.010704
  98 H :    0.036920
  99 H :    0.034803
 100 H :    0.034448
 101 H :    0.032705
 102 H :    0.034453
 103 H :    0.036771
 104 H :    0.032562
 105 H :    0.085981
 106 H :    0.047047
 107 H :    0.037285
 108 H :    0.017790
 109 H :    0.031286

  Mayer bond orders larger than 0.100000
B(  0-C ,  1-C ) :   1.5855 B(  0-C ,  6-C ) :   0.9837 B(  0-C , 18-C ) :   1.1348
B(  1-C ,  2-C ) :   1.1496 B(  1-C ,  4-C ) :   1.1490 B(  2-C ,  3-N ) :   2.9606
B(  4-C ,  5-N ) :   2.9869 B(  6-C ,  7-C ) :   1.2807 B(  6-C , 11-C ) :   1.4259
B(  7-C ,  8-C ) :   1.4377 B(  7-C , 16-C ) :   0.9235 B(  8-C ,  9-C ) :   1.2306
B(  8-C , 73-H ) :   1.0169 B(  9-C , 10-C ) :   1.3277 B(  9-C , 14-C ) :   1.1588
B( 10-C , 11-C ) :   1.3125 B( 10-C , 12-S ) :   1.0771 B( 11-C , 74-H ) :   0.9808
B( 12-S , 13-C ) :   1.0873 B( 13-C , 14-C ) :   1.6197 B( 13-C , 15-Br) :   1.0069
B( 14-C , 75-H ) :   1.0006 B( 16-C , 17-O ) :   2.1347 B( 16-C , 18-C ) :   1.0334
B( 18-C , 19-C ) :   1.3579 B( 19-C , 20-C ) :   1.4214 B( 19-C , 76-H ) :   0.9377
B( 20-C , 21-C ) :   1.3904 B( 20-C , 77-H ) :   0.9501 B( 21-C , 22-C ) :   1.1990
B( 21-C , 25-S ) :   1.1466 B( 22-C , 23-C ) :   1.5383 B( 22-C , 78-H ) :   0.9987
B( 23-C , 24-C ) :   1.2152 B( 23-C , 79-H ) :   0.9925 B( 24-C , 25-S ) :   1.0692
B( 24-C , 26-C ) :   1.4360 B( 26-C , 27-C ) :   1.2130 B( 26-C , 30-S ) :   1.0918
B( 27-C , 28-C ) :   1.5499 B( 27-C , 80-H ) :   0.9950 B( 28-C , 29-C ) :   1.1729
B( 28-C , 81-H ) :   1.0000 B( 29-C , 30-S ) :   1.0267 B( 29-C , 31-C ) :   1.5251
B( 31-C , 32-C ) :   1.2554 B( 31-C , 82-H ) :   0.9594 B( 32-C , 33-S ) :   1.0816
B( 32-C , 36-C ) :   1.3512 B( 33-S , 34-C ) :   1.1478 B( 34-C , 35-C ) :   1.5871
B( 34-C , 83-H ) :   0.9687 B( 35-C , 36-C ) :   1.2478 B( 35-C , 84-H ) :   0.9840
B( 36-C , 37-C ) :   1.1188 B( 37-C , 38-C ) :   1.6597 B( 37-C , 85-H ) :   0.9489
B( 38-C , 39-C ) :   1.0228 B( 38-C , 48-C ) :   1.1627 B( 39-C , 40-C ) :   1.0462
B( 39-C , 86-H ) :   0.9147 B( 39-C , 87-H ) :   0.9088 B( 40-C , 41-C ) :   1.3982
B( 40-C , 47-C ) :   1.3783 B( 41-C , 42-C ) :   1.3665 B( 41-C , 88-H ) :   0.9903
B( 42-C , 43-C ) :   1.4050 B( 42-C , 89-H ) :   0.9941 B( 43-C , 44-C ) :   1.0351
B( 43-C , 46-C ) :   1.3811 B( 44-C , 45-C ) :   1.0989 B( 44-C , 90-H ) :   0.9367
B( 44-C , 91-H ) :   0.9364 B( 45-C , 92-H ) :   0.9699 B( 45-C , 93-H ) :   0.9689
B( 45-C , 94-H ) :   0.9704 B( 46-C , 47-C ) :   1.3932 B( 46-C , 95-H ) :   0.9936
B( 47-C , 96-H ) :   0.9948 B( 48-C , 49-C ) :   1.6004 B( 48-C , 97-H ) :   0.9372
B( 49-C , 50-C ) :   1.2298 B( 49-C , 98-H ) :   0.9587 B( 50-C , 51-C ) :   1.5435
B( 50-C , 99-H ) :   0.9623 B( 51-C , 52-C ) :   1.1588 B( 51-C , 55-S ) :   1.0495
B( 52-C , 53-C ) :   1.5795 B( 52-C ,100-H ) :   0.9991 B( 53-C , 54-C ) :   1.1923
B( 53-C ,101-H ) :   0.9941 B( 54-C , 55-S ) :   1.0267 B( 54-C , 56-C ) :   1.5135
B( 56-C , 57-C ) :   1.1868 B( 56-C , 60-S ) :   1.0508 B( 57-C , 58-C ) :   1.6104
B( 57-C ,102-H ) :   0.9923 B( 58-C , 59-C ) :   1.1521 B( 58-C ,103-H ) :   0.9949
B( 59-C , 60-S ) :   1.0070 B( 59-C , 61-C ) :   1.6058 B( 61-C , 62-N ) :   1.1494
B( 61-C ,104-H ) :   0.9592 B( 62-N , 63-C ) :   1.2328 B( 62-N ,105-H ) :   0.8939
B( 63-C , 64-S ) :   1.1385 B( 63-C , 70-C ) :   1.3716 B( 64-S , 65-C ) :   1.0642
B( 65-C , 66-N ) :   0.9889 B( 65-C , 69-C ) :   1.4733 B( 66-N , 67-O ) :   1.5266
B( 66-N , 68-O ) :   1.4982 B( 67-O , 68-O ) :   0.2523 B( 69-C , 70-C ) :   1.2498
B( 69-C ,106-H ) :   1.0061 B( 70-C , 71-C ) :   1.0564 B( 71-C , 72-C ) :   1.9377
B( 71-C ,107-H ) :   0.9605 B( 72-C ,108-H ) :   0.9576 B( 72-C ,109-H ) :   0.9501

-----------------------------------------------------------------------------
         ABSORPTION SPECTRUM VIA TRANSITION ELECTRIC DIPOLE MOMENTS
-----------------------------------------------------------------------------
State   Energy  Wavelength   fosc         T2         TX        TY        TZ
        (cm-1)    (nm)                  (au**2)     (au)      (au)      (au)
-----------------------------------------------------------------------------
   0    9517.9   1050.7   1.478484247  51.13903  -5.11723  -4.86302  -1.14191
   1   14365.1    696.1   0.606457590  13.89851   0.88898  -2.74712   2.35830
   2   15424.7    648.3   0.226162224   4.82702   0.14565   2.13582  -0.49404
   3   19634.8    509.3   0.242577064   4.06723   0.62729  -1.34246  -1.36805
   4   20728.5    482.4   0.059394954   0.94331  -0.32344   0.76132   0.50901
   5   21578.5    463.4   0.105338322   1.60709  -0.40483  -1.11963   0.43548
   6   22493.5    444.6   0.042865539   0.62738   0.19953   0.33225  -0.69078
   7   23092.8    433.0   0.180595669   2.57458   0.98270  -0.75622  -1.01834
   8   24062.7    415.6   0.126176130   1.72627   0.86267  -0.81899  -0.55796
   9   24306.4    411.4   0.060741545   0.82270   0.08387   0.88090  -0.19918
  10   26028.5    384.2   0.180385571   2.28154   0.03195   1.50700  -0.09740
  11   26791.5    373.3   0.444656522   5.46391   1.33185   0.52722  -1.84720
  12   27235.2    367.2   0.073788916   0.89194   0.35487   0.02188  -0.87495
  13   27676.3    361.3   0.172788765   2.05534  -0.27010   1.33519  -0.44683
  14   28568.8    350.0   0.054710780   0.63046  -0.29104   0.54144   0.50259
  15   28722.6    348.2   0.122842048   1.40799   0.36538  -1.03293   0.45558
  16   29398.9    340.1   0.061118417   0.68441  -0.01342   0.05173  -0.82556
  17   29576.9    338.1   0.012449505   0.13857  -0.14025  -0.19082   0.28721
  18   29967.0    333.7   0.006678621   0.07337   0.24806   0.10792   0.01368
  19   30360.2    329.4   0.024400583   0.26459  -0.43378   0.05083  -0.27174
  20   30643.0    326.3   0.015318059   0.16457   0.19379  -0.35632  -0.00697
  21   30804.1    324.6   0.050808036   0.54300  -0.64741  -0.23220   0.26446
  22   31082.0    321.7   0.061746173   0.65400   0.51949   0.43522  -0.44126
  23   31588.8    316.6   0.151444431   1.57832  -1.02250  -0.39755   0.61219
  24   32363.3    309.0   0.007558076   0.07688  -0.21547   0.07387  -0.15811
  25   32422.3    308.4   0.100618830   1.02167   0.33960   0.72199  -0.62054
  26   32504.5    307.6   0.306397367   3.10325  -1.01784  -0.79517   1.19790
  27   33090.5    302.2   0.231863117   2.30677   1.16890   0.66387  -0.70691
  28   33415.9    299.3   0.007545607   0.07434   0.18349   0.14362  -0.14157
  29   33598.4    297.6   0.007306588   0.07159  -0.04712  -0.09422  -0.24596
  30   33665.2    297.0   0.013743294   0.13440   0.02506   0.21807  -0.29362
  31   34019.8    293.9   0.072709025   0.70361   0.64880  -0.31969   0.42481
  32   34207.1    292.3   0.057972353   0.55793  -0.60497   0.29216  -0.32648
  33   34516.2    289.7   0.063461415   0.60529   0.58142   0.38177  -0.34855
  34   34727.3    288.0   0.018088045   0.17147  -0.37345   0.17690   0.02668
  35   34906.2    286.5   0.007829936   0.07385   0.05601  -0.23016  -0.13318
  36   34929.3    286.3   0.082528709   0.77784   0.65470   0.48022   0.34439
  37   35298.5    283.3   0.029616675   0.27622   0.20241   0.48050   0.06611
  38   35543.7    281.3   0.113769540   1.05375   0.65157  -0.04836  -0.79175
  39   35936.0    278.3   0.085825434   0.78625   0.82647  -0.31315   0.07169
  40   37013.7    270.2   0.016165231   0.14378   0.19721   0.07820  -0.31428
  41   37105.5    269.5   0.023704507   0.21031   0.07014  -0.10027  -0.44197
  42   37327.8    267.9   0.116233857   1.02512   0.94373   0.31209   0.19260
  43   37602.7    265.9   0.035622374   0.31187   0.27077   0.21225  -0.43989
  44   37830.7    264.3   0.016923640   0.14727   0.24200   0.13854  -0.26366
  45   38018.8    263.0   0.118246990   1.02392   0.79511  -0.29182   0.55368
  46   38195.9    261.8   0.083954854   0.72361  -0.10651  -0.71413   0.44976
  47   38553.9    259.4   0.059509972   0.50816  -0.35808  -0.60410  -0.12248
  48   38819.8    257.6   0.033115844   0.28084  -0.35753   0.01741  -0.39078
  49   38964.9    256.6   0.009231218   0.07799  -0.03326   0.26178  -0.09143
  50   39033.6    256.2   0.040725940   0.34348   0.07530  -0.39205   0.42908
  51   39111.8    255.7   0.050413998   0.42435  -0.13771  -0.42005   0.47847
  52   39416.1    253.7   0.034820732   0.29083   0.19847  -0.25489  -0.43182
  53   39534.6    252.9   0.057008389   0.47472  -0.15684  -0.39797   0.54013
  54   39736.5    251.7   0.030683189   0.25421   0.37393  -0.12687   0.31351
  55   39986.1    250.1   0.004922249   0.04053   0.14244   0.13489   0.04520
  56   40031.4    249.8   0.026592233   0.21869   0.42488  -0.19346   0.02716

FINAL SINGLE POINT ENERGY     -8033.894415119205

DIPOLE MOMENT
-------------
                                X             Y             Z
Electronic contribution:     71.95867       3.35941     158.22987
Nuclear contribution   :    -78.34328      -3.13893    -161.12632
                        -----------------------------------------
Total Dipole Moment    :     -6.38461       0.22048      -2.89645
                        -----------------------------------------
Magnitude (a.u.)       :      7.01436
Magnitude (Debye)      :     17.82909

Rotational constants in cm-1:     0.000706     0.000255     0.000212
Rotational constants in MHz :    21.163453     7.646003     6.367889

                             ****ORCA TERMINATED NORMALLY****
TOTAL RUN TIME: 0 days 0 hours 20 minutes 40 seconds 299 msec
