                         Program Version 4.2.0 -  RELEASE  -
|  1> # ORCA input file
|  2> # SCF done       -211.696396780499          0.000808165504
|  3> ! CAM-B3LYP def2-SVP def2/J RIJCOSX Grid4 TightSCF
|  4> %maxcore 5000
|  5> %tddft
|  6>     Mode sTDDFT
|  7>     Ethresh 5.0
|  8>     maxcore 5000
|  9> end
| 10>
| 11> %pal
| 12>   nprocs 6
| 13>   end
| 14> * xyz 0 1
| 15>    C       -2.16024        -5.40188         7.28305
| 16>    S       -1.77426        -6.69795         6.24753
| 17>    C       -2.92768        -6.19439         5.05419
| 18>    C       -3.59039        -5.04071         5.47443
| 19>    C       -3.14354        -4.58750         6.75887
| 20>    C       -3.70706        -3.42415         7.32230
| 21>    C       -4.67713        -2.72448         6.65100
| 22>    C       -5.24290        -1.50783         7.23292
| 23>    C       -5.43075        -1.31074         8.53077
| 24>    C       -5.12603        -3.17705         5.36787
| 25>    C       -6.20042        -2.42137         4.64636
| 26>    C       -4.59289        -4.30454         4.80925
| 27>    C       -3.10262        -6.90306         3.82829
| 28>    C       -2.39564        -7.97401         3.44926
| 29>    C       -2.57127        -8.65874         2.14084
| 30>    C       -2.81074       -10.16799         2.28177
| 31>    O       -3.51514       -10.71376         3.07396
| 32>    O       -2.10628       -10.82587         1.34555
| 33>    C       -1.44335        -9.92910         0.46266
| 34>    C       -1.30720        -8.62961         1.26959
| 35>    C       -1.10632        -7.37023         0.44015
| 36>    C       -2.12030        -7.23849        -0.68907
| 37>    C       -2.21243        -8.47097        -1.58186
| 38>    C       -2.27903        -9.81535        -0.83355
| 39>    O       -1.82041       -10.77857        -1.77561
| 40>    C       -1.13087       -10.22204        -2.77766
| 41>    O       -0.63678       -10.84837        -3.66468
| 42>    C       -1.07507        -8.69804        -2.59636
| 43>    C        0.29439        -8.32681        -2.13888
| 44>    C        0.98620        -7.31914        -2.68498
| 45>    C        2.30237        -6.87877        -2.30473
| 46>    C        2.98809        -7.24997        -1.13064
| 47>    C        4.33576        -6.79324        -0.87745
| 48>    N        5.02837        -7.30372         0.15992
| 49>    C        4.41895        -8.07097         1.01990
| 50>    C        3.01251        -8.33665         0.88841
| 51>    N        2.36030        -7.97328        -0.18773
| 52>    C        2.30181        -9.00160         1.91418
| 53>    N        1.71900        -9.52436         2.75146
| 54>    C        5.15468        -8.65715         2.07993
| 55>    N        5.72028        -9.15547         2.94219
| 56>    C        4.97467        -5.83712        -1.67832
| 57>    C        4.27526        -5.40637        -2.80789
| 58>    C        2.97115        -5.95361        -3.12776
| 59>    N        2.48274        -5.43543        -4.25968
| 60>    S        3.52895        -4.38440        -4.85442
| 61>    N        4.66199        -4.50911        -3.72865
| 62>    C        6.26492        -5.28520        -1.17215
| 63>    C        5.97853        -4.34779         0.01570
| 64>    O        5.14281        -4.49861         0.85490
| 65>    O        6.80741        -3.30782        -0.03268
| 66>    C        7.72137        -3.38901        -1.12616
| 67>    C        7.09097        -4.40404        -2.10288
| 68>    C        8.05059        -5.18150        -2.99938
| 69>    C        9.31039        -5.64527        -2.28123
| 70>    C       10.03075        -4.53218        -1.53222
| 71>    C        9.12519        -3.73554        -0.57929
| 72>    O        9.84366        -2.53158        -0.33410
| 73>    C       10.76041        -2.29442        -1.28712
| 74>    O       11.46915        -1.33548        -1.28932
| 75>    C       10.71708        -3.41233        -2.33849
| 76>    C        9.94074        -2.89622        -3.50125
| 77>    C       10.35182        -2.87339        -4.77587
| 78>    C        9.49458        -2.47607        -5.84661
| 79>    S        7.78435        -2.34261        -5.59643
| 80>    C        7.47241        -1.94782        -7.25181
| 81>    C        8.66452        -1.90476        -7.97543
| 82>    C        9.81331        -2.21522        -7.18040
| 83>    C       11.08720        -2.20543        -7.77766
| 84>    C       11.23613        -1.90233        -9.10810
| 85>    C       12.56801        -1.87795        -9.71053
| 86>    C       13.56497        -2.68325        -9.36874
| 87>    C       10.08735        -1.59068        -9.90361
| 88>    C       10.25071        -1.27067       -11.35810
| 89>    C        8.84280        -1.60099        -9.34199
| 90>    C        6.14086        -1.72710        -7.72238
| 91>    C        5.03957        -1.83405        -6.97665
| 92>    H       -1.65285        -5.29821         8.22152
| 93>    H       -3.34521        -3.07938         8.27886
| 94>    H       -5.52446        -0.73227         6.53343
| 95>    H       -5.20066        -2.06612         9.26355
| 96>    H       -5.84151        -0.39018         8.90866
| 97>    H       -7.06696        -2.27654         5.28967
| 98>    H       -6.51399        -2.96053         3.75569
| 99>    H       -5.83986        -1.43900         4.33999
|100>    H       -4.94400        -4.64164         3.84483
|101>    H       -3.87007        -6.51042         3.17335
|102>    H       -1.62577        -8.37538         4.09347
|103>    H       -3.43311        -8.23993         1.61016
|104>    H       -0.47552       -10.37764         0.22094
|105>    H       -0.44847        -8.74781         1.93883
|106>    H       -0.09530        -7.37433         0.03232
|107>    H       -1.19115        -6.50562         1.10177
|108>    H       -1.86201        -6.37752        -1.30771
|109>    H       -3.11040        -7.05051        -0.26802
|110>    H       -3.13430        -8.38886        -2.17027
|111>    H       -3.31082       -10.08749        -0.58400
|112>    H       -1.28463        -8.20219        -3.54656
|113>    H        0.72883        -8.92947        -1.35668
|114>    H        0.56441        -6.76363        -3.51291
|115>    H        6.85033        -6.11421        -0.75620
|116>    H        7.76443        -2.37980        -1.54713
|117>    H        6.39833        -3.85821        -2.74982
|118>    H        8.32262        -4.56488        -3.85395
|119>    H        7.51702        -6.05053        -3.38870
|120>    H        9.99588        -6.08585        -3.00667
|121>    H        9.05688        -6.42274        -1.55622
|122>    H       10.81364        -4.99430        -0.91846
|123>    H        8.99871        -4.23578         0.38661
|124>    H       11.72653        -3.68330        -2.65078
|125>    H        8.96393        -2.49378        -3.27683
|126>    H       11.34876        -3.19441        -5.04324
|127>    H       11.95654        -2.40903        -7.17215
|128>    H       12.72300        -1.14624       -10.49172
|129>    H       13.45072        -3.45226        -8.62290
|130>    H       14.53157        -2.61555        -9.83757
|131>    H       10.82029        -2.04987       -11.86230
|132>    H       10.78246        -0.32751       -11.48573
|133>    H        9.28036        -1.18046       -11.84019
|134>    H        7.97857        -1.36963        -9.94696
|135>    H        6.05840        -1.46317        -8.76815
|136>    H        5.09246        -2.09533        -5.93206
|137>    H        4.06146        -1.65691        -7.38623
|138> *
|139>
|140>                          ****END OF INPUT****

CARTESIAN COORDINATES (ANGSTROEM)
---------------------------------
  C     -2.160240   -5.401880    7.283050
  S     -1.774260   -6.697950    6.247530
  C     -2.927680   -6.194390    5.054190
  C     -3.590390   -5.040710    5.474430
  C     -3.143540   -4.587500    6.758870
  C     -3.707060   -3.424150    7.322300
  C     -4.677130   -2.724480    6.651000
  C     -5.242900   -1.507830    7.232920
  C     -5.430750   -1.310740    8.530770
  C     -5.126030   -3.177050    5.367870
  C     -6.200420   -2.421370    4.646360
  C     -4.592890   -4.304540    4.809250
  C     -3.102620   -6.903060    3.828290
  C     -2.395640   -7.974010    3.449260
  C     -2.571270   -8.658740    2.140840
  C     -2.810740  -10.167990    2.281770
  O     -3.515140  -10.713760    3.073960
  O     -2.106280  -10.825870    1.345550
  C     -1.443350   -9.929100    0.462660
  C     -1.307200   -8.629610    1.269590
  C     -1.106320   -7.370230    0.440150
  C     -2.120300   -7.238490   -0.689070
  C     -2.212430   -8.470970   -1.581860
  C     -2.279030   -9.815350   -0.833550
  O     -1.820410  -10.778570   -1.775610
  C     -1.130870  -10.222040   -2.777660
  O     -0.636780  -10.848370   -3.664680
  C     -1.075070   -8.698040   -2.596360
  C      0.294390   -8.326810   -2.138880
  C      0.986200   -7.319140   -2.684980
  C      2.302370   -6.878770   -2.304730
  C      2.988090   -7.249970   -1.130640
  C      4.335760   -6.793240   -0.877450
  N      5.028370   -7.303720    0.159920
  C      4.418950   -8.070970    1.019900
  C      3.012510   -8.336650    0.888410
  N      2.360300   -7.973280   -0.187730
  C      2.301810   -9.001600    1.914180
  N      1.719000   -9.524360    2.751460
  C      5.154680   -8.657150    2.079930
  N      5.720280   -9.155470    2.942190
  C      4.974670   -5.837120   -1.678320
  C      4.275260   -5.406370   -2.807890
  C      2.971150   -5.953610   -3.127760
  N      2.482740   -5.435430   -4.259680
  S      3.528950   -4.384400   -4.854420
  N      4.661990   -4.509110   -3.728650
  C      6.264920   -5.285200   -1.172150
  C      5.978530   -4.347790    0.015700
  O      5.142810   -4.498610    0.854900
  O      6.807410   -3.307820   -0.032680
  C      7.721370   -3.389010   -1.126160
  C      7.090970   -4.404040   -2.102880
  C      8.050590   -5.181500   -2.999380
  C      9.310390   -5.645270   -2.281230
  C     10.030750   -4.532180   -1.532220
  C      9.125190   -3.735540   -0.579290
  O      9.843660   -2.531580   -0.334100
  C     10.760410   -2.294420   -1.287120
  O     11.469150   -1.335480   -1.289320
  C     10.717080   -3.412330   -2.338490
  C      9.940740   -2.896220   -3.501250
  C     10.351820   -2.873390   -4.775870
  C      9.494580   -2.476070   -5.846610
  S      7.784350   -2.342610   -5.596430
  C      7.472410   -1.947820   -7.251810
  C      8.664520   -1.904760   -7.975430
  C      9.813310   -2.215220   -7.180400
  C     11.087200   -2.205430   -7.777660
  C     11.236130   -1.902330   -9.108100
  C     12.568010   -1.877950   -9.710530
  C     13.564970   -2.683250   -9.368740
  C     10.087350   -1.590680   -9.903610
  C     10.250710   -1.270670  -11.358100
  C      8.842800   -1.600990   -9.341990
  C      6.140860   -1.727100   -7.722380
  C      5.039570   -1.834050   -6.976650
  H     -1.652850   -5.298210    8.221520
  H     -3.345210   -3.079380    8.278860
  H     -5.524460   -0.732270    6.533430
  H     -5.200660   -2.066120    9.263550
  H     -5.841510   -0.390180    8.908660
  H     -7.066960   -2.276540    5.289670
  H     -6.513990   -2.960530    3.755690
  H     -5.839860   -1.439000    4.339990
  H     -4.944000   -4.641640    3.844830
  H     -3.870070   -6.510420    3.173350
  H     -1.625770   -8.375380    4.093470
  H     -3.433110   -8.239930    1.610160
  H     -0.475520  -10.377640    0.220940
  H     -0.448470   -8.747810    1.938830
  H     -0.095300   -7.374330    0.032320
  H     -1.191150   -6.505620    1.101770
  H     -1.862010   -6.377520   -1.307710
  H     -3.110400   -7.050510   -0.268020
  H     -3.134300   -8.388860   -2.170270
  H     -3.310820  -10.087490   -0.584000
  H     -1.284630   -8.202190   -3.546560
  H      0.728830   -8.929470   -1.356680
  H      0.564410   -6.763630   -3.512910
  H      6.850330   -6.114210   -0.756200
  H      7.764430   -2.379800   -1.547130
  H      6.398330   -3.858210   -2.749820
  H      8.322620   -4.564880   -3.853950
  H      7.517020   -6.050530   -3.388700
  H      9.995880   -6.085850   -3.006670
  H      9.056880   -6.422740   -1.556220
  H     10.813640   -4.994300   -0.918460
  H      8.998710   -4.235780    0.386610
  H     11.726530   -3.683300   -2.650780
  H      8.963930   -2.493780   -3.276830
  H     11.348760   -3.194410   -5.043240
  H     11.956540   -2.409030   -7.172150
  H     12.723000   -1.146240  -10.491720
  H     13.450720   -3.452260   -8.622900
  H     14.531570   -2.615550   -9.837570
  H     10.820290   -2.049870  -11.862300
  H     10.782460   -0.327510  -11.485730
  H      9.280360   -1.180460  -11.840190
  H      7.978570   -1.369630   -9.946960
  H      6.058400   -1.463170   -8.768150
  H      5.092460   -2.095330   -5.932060
  H      4.061460   -1.656910   -7.386230

 Total Charge           Charge          ....    0
 Multiplicity           Mult            ....    1
 Number of Electrons    NEL             ....  560
 Basis Dimension        Dim             .... 1320

ORBITAL ENERGIES
----------------

  NO   OCC          E(Eh)            E(eV)
   0   2.0000     -89.064641     -2423.5721
   1   2.0000     -88.970369     -2421.0068
   2   2.0000     -88.953723     -2420.5539
   3   2.0000     -19.275142      -524.5033
   4   2.0000     -19.265290      -524.2352
   5   2.0000     -19.264466      -524.2128
   6   2.0000     -19.252652      -523.8913
   7   2.0000     -19.214552      -522.8545
   8   2.0000     -19.202243      -522.5196
   9   2.0000     -19.202085      -522.5153
  10   2.0000     -19.190587      -522.2024
  11   2.0000     -14.478140      -393.9702
  12   2.0000     -14.473667      -393.8485
  13   2.0000     -14.470179      -393.7536
  14   2.0000     -14.468847      -393.7173
  15   2.0000     -14.446082      -393.0979
  16   2.0000     -14.438564      -392.8933
  17   2.0000     -10.411454      -283.3101
  18   2.0000     -10.400199      -283.0038
  19   2.0000     -10.399537      -282.9858
  20   2.0000     -10.394492      -282.8485
  21   2.0000     -10.392899      -282.8052
  22   2.0000     -10.386633      -282.6347
  23   2.0000     -10.359927      -281.9079
  24   2.0000     -10.359814      -281.9049
  25   2.0000     -10.357963      -281.8545
  26   2.0000     -10.356562      -281.8164
  27   2.0000     -10.351094      -281.6676
  28   2.0000     -10.348447      -281.5956
  29   2.0000     -10.343116      -281.4505
  30   2.0000     -10.339547      -281.3534
  31   2.0000     -10.337442      -281.2961
  32   2.0000     -10.332561      -281.1633
  33   2.0000     -10.331323      -281.1296
  34   2.0000     -10.328792      -281.0607
  35   2.0000     -10.311925      -280.6017
  36   2.0000     -10.309745      -280.5424
  37   2.0000     -10.305571      -280.4289
  38   2.0000     -10.305193      -280.4186
  39   2.0000     -10.302364      -280.3416
  40   2.0000     -10.302046      -280.3329
  41   2.0000     -10.301989      -280.3314
  42   2.0000     -10.300571      -280.2928
  43   2.0000     -10.297901      -280.2201
  44   2.0000     -10.295066      -280.1430
  45   2.0000     -10.294732      -280.1339
  46   2.0000     -10.292711      -280.0789
  47   2.0000     -10.292667      -280.0777
  48   2.0000     -10.288041      -279.9518
  49   2.0000     -10.287140      -279.9273
  50   2.0000     -10.286730      -279.9162
  51   2.0000     -10.285637      -279.8864
  52   2.0000     -10.284917      -279.8668
  53   2.0000     -10.284630      -279.8590
  54   2.0000     -10.284155      -279.8461
  55   2.0000     -10.283560      -279.8299
  56   2.0000     -10.282999      -279.8146
  57   2.0000     -10.282515      -279.8015
  58   2.0000     -10.281981      -279.7869
  59   2.0000     -10.278368      -279.6886
  60   2.0000     -10.277279      -279.6590
  61   2.0000     -10.276594      -279.6403
  62   2.0000     -10.275958      -279.6230
  63   2.0000     -10.274768      -279.5907
  64   2.0000     -10.272387      -279.5259
  65   2.0000     -10.270486      -279.4741
  66   2.0000     -10.269920      -279.4587
  67   2.0000     -10.269372      -279.4438
  68   2.0000     -10.269074      -279.4357
  69   2.0000     -10.267780      -279.4005
  70   2.0000     -10.267070      -279.3812
  71   2.0000     -10.266583      -279.3679
  72   2.0000     -10.265262      -279.3320
  73   2.0000     -10.263545      -279.2852
  74   2.0000     -10.260698      -279.2078
  75   2.0000     -10.259477      -279.1746
  76   2.0000     -10.256813      -279.1021
  77   2.0000      -8.155234      -221.9152
  78   2.0000      -8.064918      -219.4576
  79   2.0000      -8.049000      -219.0244
  80   2.0000      -6.126199      -166.7024
  81   2.0000      -6.118523      -166.4935
  82   2.0000      -6.118232      -166.4855
  83   2.0000      -6.033868      -164.1899
  84   2.0000      -6.029888      -164.0816
  85   2.0000      -6.027823      -164.0254
  86   2.0000      -6.017890      -163.7551
  87   2.0000      -6.013655      -163.6399
  88   2.0000      -6.012144      -163.5988
  89   2.0000      -1.213251       -33.0142
  90   2.0000      -1.202256       -32.7150
  91   2.0000      -1.200037       -32.6547
  92   2.0000      -1.187684       -32.3185
  93   2.0000      -1.158243       -31.5174
  94   2.0000      -1.133667       -30.8487
  95   2.0000      -1.122595       -30.5474
  96   2.0000      -1.111190       -30.2370
  97   2.0000      -1.110192       -30.2099
  98   2.0000      -1.098478       -29.8911
  99   2.0000      -1.060219       -28.8500
 100   2.0000      -1.027451       -27.9584
 101   2.0000      -1.016036       -27.6478
 102   2.0000      -1.011590       -27.5268
 103   2.0000      -1.002082       -27.2680
 104   2.0000      -0.994299       -27.0563
 105   2.0000      -0.982439       -26.7335
 106   2.0000      -0.960317       -26.1316
 107   2.0000      -0.955118       -25.9901
 108   2.0000      -0.948146       -25.8004
 109   2.0000      -0.935955       -25.4686
 110   2.0000      -0.932301       -25.3692
 111   2.0000      -0.925586       -25.1865
 112   2.0000      -0.920140       -25.0383
 113   2.0000      -0.914379       -24.8815
 114   2.0000      -0.902452       -24.5570
 115   2.0000      -0.891509       -24.2592
 116   2.0000      -0.882515       -24.0144
 117   2.0000      -0.877944       -23.8901
 118   2.0000      -0.869102       -23.6495
 119   2.0000      -0.865925       -23.5630
 120   2.0000      -0.861442       -23.4410
 121   2.0000      -0.856616       -23.3097
 122   2.0000      -0.853563       -23.2266
 123   2.0000      -0.846944       -23.0465
 124   2.0000      -0.844315       -22.9750
 125   2.0000      -0.843904       -22.9638
 126   2.0000      -0.835111       -22.7245
 127   2.0000      -0.827255       -22.5107
 128   2.0000      -0.818857       -22.2822
 129   2.0000      -0.812598       -22.1119
 130   2.0000      -0.806785       -21.9537
 131   2.0000      -0.794153       -21.6100
 132   2.0000      -0.788229       -21.4488
 133   2.0000      -0.772713       -21.0266
 134   2.0000      -0.764833       -20.8122
 135   2.0000      -0.758371       -20.6363
 136   2.0000      -0.751947       -20.4615
 137   2.0000      -0.749338       -20.3905
 138   2.0000      -0.741735       -20.1836
 139   2.0000      -0.738011       -20.0823
 140   2.0000      -0.728314       -19.8184
 141   2.0000      -0.719172       -19.5697
 142   2.0000      -0.716761       -19.5040
 143   2.0000      -0.712447       -19.3867
 144   2.0000      -0.705760       -19.2047
 145   2.0000      -0.700388       -19.0585
 146   2.0000      -0.699105       -19.0236
 147   2.0000      -0.687397       -18.7050
 148   2.0000      -0.678149       -18.4534
 149   2.0000      -0.674878       -18.3644
 150   2.0000      -0.669958       -18.2305
 151   2.0000      -0.665972       -18.1220
 152   2.0000      -0.665450       -18.1078
 153   2.0000      -0.659724       -17.9520
 154   2.0000      -0.657164       -17.8823
 155   2.0000      -0.651640       -17.7320
 156   2.0000      -0.645431       -17.5631
 157   2.0000      -0.640869       -17.4389
 158   2.0000      -0.638920       -17.3859
 159   2.0000      -0.636986       -17.3333
 160   2.0000      -0.629189       -17.1211
 161   2.0000      -0.626118       -17.0375
 162   2.0000      -0.623763       -16.9735
 163   2.0000      -0.622840       -16.9484
 164   2.0000      -0.619473       -16.8567
 165   2.0000      -0.618198       -16.8220
 166   2.0000      -0.613096       -16.6832
 167   2.0000      -0.608465       -16.5572
 168   2.0000      -0.603812       -16.4305
 169   2.0000      -0.593376       -16.1466
 170   2.0000      -0.590751       -16.0751
 171   2.0000      -0.586730       -15.9657
 172   2.0000      -0.579666       -15.7735
 173   2.0000      -0.577620       -15.7178
 174   2.0000      -0.573657       -15.6100
 175   2.0000      -0.571171       -15.5423
 176   2.0000      -0.570155       -15.5147
 177   2.0000      -0.563919       -15.3450
 178   2.0000      -0.561512       -15.2795
 179   2.0000      -0.558257       -15.1909
 180   2.0000      -0.554944       -15.1008
 181   2.0000      -0.553133       -15.0515
 182   2.0000      -0.548749       -14.9322
 183   2.0000      -0.547339       -14.8938
 184   2.0000      -0.541804       -14.7432
 185   2.0000      -0.541059       -14.7230
 186   2.0000      -0.537661       -14.6305
 187   2.0000      -0.536564       -14.6007
 188   2.0000      -0.534278       -14.5385
 189   2.0000      -0.533241       -14.5102
 190   2.0000      -0.531483       -14.4624
 191   2.0000      -0.530649       -14.4397
 192   2.0000      -0.529545       -14.4097
 193   2.0000      -0.524958       -14.2848
 194   2.0000      -0.522136       -14.2080
 195   2.0000      -0.520195       -14.1552
 196   2.0000      -0.517613       -14.0850
 197   2.0000      -0.514772       -14.0077
 198   2.0000      -0.513309       -13.9678
 199   2.0000      -0.506805       -13.7909
 200   2.0000      -0.504625       -13.7315
 201   2.0000      -0.503488       -13.7006
 202   2.0000      -0.501043       -13.6341
 203   2.0000      -0.500534       -13.6202
 204   2.0000      -0.497707       -13.5433
 205   2.0000      -0.496184       -13.5018
 206   2.0000      -0.494692       -13.4612
 207   2.0000      -0.493884       -13.4393
 208   2.0000      -0.493082       -13.4174
 209   2.0000      -0.492384       -13.3984
 210   2.0000      -0.490269       -13.3409
 211   2.0000      -0.486550       -13.2397
 212   2.0000      -0.484648       -13.1879
 213   2.0000      -0.483054       -13.1446
 214   2.0000      -0.480069       -13.0634
 215   2.0000      -0.476624       -12.9696
 216   2.0000      -0.473119       -12.8742
 217   2.0000      -0.471076       -12.8186
 218   2.0000      -0.469917       -12.7871
 219   2.0000      -0.468172       -12.7396
 220   2.0000      -0.465433       -12.6651
 221   2.0000      -0.463329       -12.6078
 222   2.0000      -0.462564       -12.5870
 223   2.0000      -0.461433       -12.5562
 224   2.0000      -0.460425       -12.5288
 225   2.0000      -0.458739       -12.4829
 226   2.0000      -0.456312       -12.4169
 227   2.0000      -0.455419       -12.3926
 228   2.0000      -0.452862       -12.3230
 229   2.0000      -0.451803       -12.2942
 230   2.0000      -0.450345       -12.2545
 231   2.0000      -0.447699       -12.1825
 232   2.0000      -0.446992       -12.1633
 233   2.0000      -0.446454       -12.1486
 234   2.0000      -0.444509       -12.0957
 235   2.0000      -0.439782       -11.9671
 236   2.0000      -0.437575       -11.9070
 237   2.0000      -0.436937       -11.8897
 238   2.0000      -0.435989       -11.8639
 239   2.0000      -0.431092       -11.7306
 240   2.0000      -0.429807       -11.6956
 241   2.0000      -0.427769       -11.6402
 242   2.0000      -0.427322       -11.6280
 243   2.0000      -0.423651       -11.5281
 244   2.0000      -0.422608       -11.4997
 245   2.0000      -0.421321       -11.4647
 246   2.0000      -0.419488       -11.4148
 247   2.0000      -0.414379       -11.2758
 248   2.0000      -0.413017       -11.2388
 249   2.0000      -0.409807       -11.1514
 250   2.0000      -0.409094       -11.1320
 251   2.0000      -0.407967       -11.1013
 252   2.0000      -0.406313       -11.0563
 253   2.0000      -0.405822       -11.0430
 254   2.0000      -0.401079       -10.9139
 255   2.0000      -0.397960       -10.8290
 256   2.0000      -0.396979       -10.8023
 257   2.0000      -0.395183       -10.7535
 258   2.0000      -0.389682       -10.6038
 259   2.0000      -0.386443       -10.5156
 260   2.0000      -0.378654       -10.3037
 261   2.0000      -0.373041       -10.1510
 262   2.0000      -0.371372       -10.1055
 263   2.0000      -0.369160       -10.0453
 264   2.0000      -0.364469        -9.9177
 265   2.0000      -0.360727        -9.8159
 266   2.0000      -0.357912        -9.7393
 267   2.0000      -0.355432        -9.6718
 268   2.0000      -0.354910        -9.6576
 269   2.0000      -0.353782        -9.6269
 270   2.0000      -0.343147        -9.3375
 271   2.0000      -0.337975        -9.1968
 272   2.0000      -0.335655        -9.1336
 273   2.0000      -0.326344        -8.8803
 274   2.0000      -0.313063        -8.5189
 275   2.0000      -0.301915        -8.2155
 276   2.0000      -0.292505        -7.9595
 277   2.0000      -0.286455        -7.7948
 278   2.0000      -0.243572        -6.6279
 279   2.0000      -0.235868        -6.4183
 280   0.0000      -0.130321        -3.5462
 281   0.0000      -0.063067        -1.7161
 282   0.0000      -0.061178        -1.6647
 283   0.0000      -0.049707        -1.3526
 284   0.0000      -0.030749        -0.8367

MULLIKEN ATOMIC CHARGES
-----------------------
   0 C :   -0.127720
   1 S :    0.152386
   2 C :   -0.144921
   3 C :    0.148093
   4 C :    0.102396
   5 C :   -0.072398
   6 C :    0.075320
   7 C :   -0.035077
   8 C :   -0.014315
   9 C :   -0.073855
  10 C :    0.097271
  11 C :   -0.090969
  12 C :    0.020655
  13 C :    0.012407
  14 C :   -0.108958
  15 C :    0.195205
  16 O :   -0.146717
  17 O :   -0.258698
  18 C :    0.171076
  19 C :   -0.082579
  20 C :    0.102001
  21 C :    0.108729
  22 C :   -0.090761
  23 C :    0.165309
  24 O :   -0.251404
  25 C :    0.174645
  26 O :   -0.153798
  27 C :   -0.050465
  28 C :    0.035407
  29 C :   -0.054713
  30 C :    0.072123
  31 C :   -0.028207
  32 C :   -0.008120
  33 N :    0.049873
  34 C :   -0.116621
  35 C :   -0.123573
  36 N :    0.016757
  37 C :   -0.162936
  38 N :    0.205103
  39 C :   -0.209837
  40 N :    0.240248
  41 C :   -0.019045
  42 C :    0.029022
  43 C :    0.011392
  44 N :   -0.265370
  45 S :    0.563909
  46 N :   -0.306355
  47 C :   -0.090660
  48 C :    0.203520
  49 O :   -0.156566
  50 O :   -0.246770
  51 C :    0.169225
  52 C :   -0.057805
  53 C :    0.112493
  54 C :    0.117747
  55 C :   -0.093298
  56 C :    0.156198
  57 O :   -0.256643
  58 C :    0.179147
  59 O :   -0.149315
  60 C :   -0.034825
  61 C :   -0.039793
  62 C :    0.041058
  63 C :   -0.121881
  64 S :    0.103634
  65 C :   -0.130538
  66 C :    0.142229
  67 C :    0.136067
  68 C :   -0.106306
  69 C :    0.085316
  70 C :   -0.038901
  71 C :   -0.009311
  72 C :   -0.073224
  73 C :    0.097155
  74 C :   -0.096429
  75 C :    0.013357
  76 C :   -0.050344
  77 H :    0.013748
  78 H :   -0.039179
  79 H :   -0.005545
  80 H :    0.018938
  81 H :    0.018967
  82 H :    0.030463
  83 H :    0.004781
  84 H :    0.027412
  85 H :   -0.051857
  86 H :   -0.023815
  87 H :    0.008963
  88 H :    0.018973
  89 H :    0.017535
  90 H :    0.019517
  91 H :    0.018293
  92 H :    0.006545
  93 H :    0.002450
  94 H :    0.003013
  95 H :    0.019248
  96 H :    0.021246
  97 H :    0.025518
  98 H :    0.026642
  99 H :    0.000894
 100 H :    0.039852
 101 H :    0.030451
 102 H :    0.035679
 103 H :    0.021817
 104 H :   -0.002025
 105 H :    0.009280
 106 H :    0.006529
 107 H :    0.022615
 108 H :    0.020597
 109 H :    0.019699
 110 H :    0.002545
 111 H :   -0.008772
 112 H :   -0.035705
 113 H :   -0.000371
 114 H :    0.016966
 115 H :    0.024072
 116 H :    0.032400
 117 H :    0.032249
 118 H :    0.008509
 119 H :   -0.044493
 120 H :   -0.005207
 121 H :    0.011745
 122 H :    0.022360
Sum of atomic charges:   -0.0000000

LOEWDIN ATOMIC CHARGES
----------------------
   0 C :   -0.195086
   1 S :    0.487736
   2 C :   -0.195337
   3 C :   -0.042480
   4 C :   -0.056202
   5 C :   -0.002503
   6 C :   -0.034388
   7 C :   -0.020713
   8 C :   -0.041802
   9 C :   -0.018008
  10 C :   -0.045606
  11 C :   -0.033089
  12 C :   -0.037879
  13 C :   -0.024368
  14 C :   -0.061200
  15 C :    0.078064
  16 O :   -0.141064
  17 O :   -0.070369
  18 C :    0.067586
  19 C :   -0.033890
  20 C :   -0.031091
  21 C :   -0.027009
  22 C :   -0.031535
  23 C :    0.068729
  24 O :   -0.064074
  25 C :    0.077570
  26 O :   -0.144355
  27 C :   -0.056069
  28 C :    0.032894
  29 C :   -0.032875
  30 C :   -0.002265
  31 C :   -0.007395
  32 C :    0.003245
  33 N :    0.013643
  34 C :   -0.019469
  35 C :   -0.026564
  36 N :    0.007966
  37 C :   -0.027497
  38 N :   -0.004813
  39 C :   -0.035716
  40 N :    0.001960
  41 C :   -0.012661
  42 C :   -0.037229
  43 C :   -0.039997
  44 N :   -0.277163
  45 S :    0.707656
  46 N :   -0.288639
  47 C :   -0.056451
  48 C :    0.085411
  49 O :   -0.149430
  50 O :   -0.055644
  51 C :    0.068983
  52 C :   -0.039240
  53 C :   -0.026142
  54 C :   -0.025903
  55 C :   -0.034104
  56 C :    0.068668
  57 O :   -0.071555
  58 C :    0.080347
  59 O :   -0.140249
  60 C :   -0.052310
  61 C :   -0.029453
  62 C :   -0.035379
  63 C :   -0.173474
  64 S :    0.472876
  65 C :   -0.187999
  66 C :   -0.038235
  67 C :   -0.046059
  68 C :   -0.006828
  69 C :   -0.026039
  70 C :   -0.020865
  71 C :   -0.036515
  72 C :   -0.013864
  73 C :   -0.044648
  74 C :   -0.029759
  75 C :   -0.029974
  76 C :   -0.074591
  77 H :    0.022611
  78 H :    0.026828
  79 H :    0.027125
  80 H :    0.021352
  81 H :    0.023404
  82 H :    0.034869
  83 H :    0.028094
  84 H :    0.033013
  85 H :    0.020229
  86 H :    0.028986
  87 H :    0.023519
  88 H :    0.036928
  89 H :    0.026660
  90 H :    0.033133
  91 H :    0.023281
  92 H :    0.033048
  93 H :    0.030683
  94 H :    0.023565
  95 H :    0.037245
  96 H :    0.031537
  97 H :    0.045134
  98 H :    0.023699
  99 H :    0.035441
 100 H :    0.050236
 101 H :    0.029721
 102 H :    0.030271
 103 H :    0.022803
 104 H :    0.029504
 105 H :    0.033615
 106 H :    0.025117
 107 H :    0.037960
 108 H :    0.031639
 109 H :    0.043512
 110 H :    0.012390
 111 H :    0.034067
 112 H :    0.025926
 113 H :    0.029191
 114 H :    0.020643
 115 H :    0.025784
 116 H :    0.035940
 117 H :    0.035680
 118 H :    0.029963
 119 H :    0.023383
 120 H :    0.035573
 121 H :    0.003511
 122 H :    0.024957

  Mayer bond orders larger than 0.100000
B(  0-C ,  1-S ) :   1.2065 B(  0-C ,  2-C ) :   0.1120 B(  0-C ,  4-C ) :   1.4123
B(  0-C , 77-H ) :   0.9692 B(  1-S ,  2-C ) :   1.1577 B(  2-C ,  3-C ) :   1.3617
B(  2-C , 12-C ) :   1.1330 B(  3-C ,  4-C ) :   1.1981 B(  3-C , 11-C ) :   1.1737
B(  4-C ,  5-C ) :   1.1509 B(  5-C ,  6-C ) :   1.5445 B(  5-C , 78-H ) :   1.0023
B(  6-C ,  7-C ) :   1.0258 B(  6-C ,  9-C ) :   1.1806 B(  7-C ,  8-C ) :   1.9833
B(  7-C , 79-H ) :   0.9501 B(  8-C , 80-H ) :   0.9574 B(  8-C , 81-H ) :   0.9500
B(  9-C , 10-C ) :   1.0867 B(  9-C , 11-C ) :   1.5866 B( 10-C , 82-H ) :   0.9436
B( 10-C , 83-H ) :   0.9541 B( 10-C , 84-H ) :   0.9410 B( 11-C , 85-H ) :   0.9865
B( 12-C , 13-C ) :   1.7903 B( 12-C , 86-H ) :   0.9689 B( 13-C , 14-C ) :   1.0264
B( 13-C , 87-H ) :   0.9645 B( 14-C , 15-C ) :   0.8727 B( 14-C , 19-C ) :   0.9649
B( 14-C , 88-H ) :   0.9036 B( 15-C , 16-O ) :   2.2636 B( 15-C , 17-O ) :   1.1272
B( 17-O , 18-C ) :   0.9606 B( 18-C , 19-C ) :   1.0122 B( 18-C , 23-C ) :   0.9714
B( 18-C , 89-H ) :   0.9107 B( 19-C , 20-C ) :   1.0702 B( 19-C , 90-H ) :   0.9020
B( 20-C , 21-C ) :   1.0604 B( 20-C , 91-H ) :   0.9241 B( 20-C , 92-H ) :   0.9130
B( 21-C , 22-C ) :   1.0664 B( 21-C , 93-H ) :   0.9237 B( 21-C , 94-H ) :   0.9324
B( 22-C , 23-C ) :   1.0112 B( 22-C , 27-C ) :   0.9912 B( 22-C , 95-H ) :   0.9085
B( 23-C , 24-O ) :   0.9587 B( 23-C , 96-H ) :   0.9177 B( 24-O , 25-C ) :   1.1412
B( 25-C , 26-O ) :   2.2454 B( 25-C , 27-C ) :   0.8829 B( 27-C , 28-C ) :   1.0016
B( 27-C , 97-H ) :   0.9083 B( 28-C , 29-C ) :   1.7548 B( 28-C , 98-H ) :   0.9411
B( 29-C , 30-C ) :   1.1539 B( 29-C , 99-H ) :   0.9662 B( 30-C , 31-C ) :   1.2569
B( 30-C , 41-C ) :   0.1424 B( 30-C , 43-C ) :   1.2075 B( 31-C , 32-C ) :   1.1294
B( 31-C , 36-N ) :   1.3874 B( 32-C , 33-N ) :   1.3731 B( 32-C , 41-C ) :   1.3476
B( 33-N , 34-C ) :   1.7589 B( 34-C , 35-C ) :   1.1718 B( 34-C , 39-C ) :   1.1508
B( 35-C , 36-N ) :   1.7367 B( 35-C , 37-C ) :   1.1591 B( 37-C , 38-N ) :   2.9367
B( 39-C , 40-N ) :   3.0498 B( 41-C , 42-C ) :   1.2967 B( 41-C , 47-C ) :   1.0821
B( 42-C , 43-C ) :   1.1143 B( 42-C , 46-N ) :   1.4252 B( 43-C , 44-N ) :   1.5121
B( 44-N , 45-S ) :   1.3158 B( 44-N , 46-N ) :   0.1607 B( 45-S , 46-N ) :   1.2819
B( 47-C , 48-C ) :   0.8888 B( 47-C , 52-C ) :   0.9813 B( 47-C ,100-H ) :   0.8206
B( 48-C , 49-O ) :   2.2152 B( 48-C , 50-O ) :   1.1708 B( 50-O , 51-C ) :   0.9428
B( 51-C , 52-C ) :   1.0172 B( 51-C , 56-C ) :   0.9739 B( 51-C ,101-H ) :   0.9097
B( 52-C , 53-C ) :   1.0687 B( 52-C ,102-H ) :   0.8735 B( 53-C , 54-C ) :   1.0693
B( 53-C ,103-H ) :   0.9196 B( 53-C ,104-H ) :   0.9172 B( 54-C , 55-C ) :   1.0628
B( 54-C ,105-H ) :   0.9226 B( 54-C ,106-H ) :   0.9325 B( 55-C , 56-C ) :   1.0092
B( 55-C , 60-C ) :   0.9861 B( 55-C ,107-H ) :   0.9108 B( 56-C , 57-O ) :   0.9661
B( 56-C ,108-H ) :   0.9183 B( 57-O , 58-C ) :   1.1222 B( 58-C , 59-O ) :   2.2548
B( 58-C , 60-C ) :   0.8861 B( 60-C , 61-C ) :   1.0047 B( 60-C ,109-H ) :   0.9168
B( 61-C , 62-C ) :   1.7952 B( 61-C ,110-H ) :   0.9434 B( 62-C , 63-C ) :   1.1354
B( 62-C ,111-H ) :   0.9722 B( 63-C , 64-S ) :   1.1460 B( 63-C , 65-C ) :   0.1083
B( 63-C , 67-C ) :   1.3435 B( 64-S , 65-C ) :   1.1342 B( 65-C , 66-C ) :   1.3602
B( 65-C , 75-C ) :   1.1448 B( 66-C , 67-C ) :   1.1964 B( 66-C , 74-C ) :   1.1698
B( 67-C , 68-C ) :   1.1811 B( 68-C , 69-C ) :   1.5387 B( 68-C ,112-H ) :   0.9929
B( 69-C , 70-C ) :   1.0259 B( 69-C , 72-C ) :   1.1832 B( 70-C , 71-C ) :   1.9807
B( 70-C ,113-H ) :   0.9503 B( 71-C ,114-H ) :   0.9580 B( 71-C ,115-H ) :   0.9497
B( 72-C , 73-C ) :   1.0861 B( 72-C , 74-C ) :   1.5828 B( 73-C ,116-H ) :   0.9437
B( 73-C ,117-H ) :   0.9406 B( 73-C ,118-H ) :   0.9542 B( 74-C ,119-H ) :   0.9889
B( 75-C , 76-C ) :   1.9059 B( 75-C ,120-H ) :   0.9593 B( 76-C ,121-H ) :   0.9485
B( 76-C ,122-H ) :   0.9473

-----------------------------------------------------------------------------
         ABSORPTION SPECTRUM VIA TRANSITION ELECTRIC DIPOLE MOMENTS
-----------------------------------------------------------------------------
State   Energy  Wavelength   fosc         T2         TX        TY        TZ
        (cm-1)    (nm)                  (au**2)     (au)      (au)      (au)
-----------------------------------------------------------------------------
   0   12068.8    828.6   0.000890991   0.02430   0.11547   0.07435  -0.07377
   1   12077.0    828.0   0.000067824   0.00185  -0.04112  -0.01255   0.00065
   2   17140.0    583.4   0.170082194   3.26680  -1.61045  -0.75693  -0.31673
   3   23617.2    423.4   0.339033118   4.72596   1.48672  -0.35573   1.54567
   4   24362.0    410.5   0.000018793   0.00025   0.00835  -0.00043  -0.01357
   5   25960.7    385.2   0.000002755   0.00003   0.00038  -0.00526   0.00267
   6   26263.4    380.8   0.004536009   0.05686  -0.04670   0.05151   0.22809
   7   26338.4    379.7   0.009133883   0.11417  -0.04711   0.15636   0.29581
   8   28018.0    356.9   0.047758457   0.56116   0.00561   0.16586  -0.73049
   9   28270.6    353.7   0.266004553   3.09763   0.14786   0.87513   1.51984
  10   28484.9    351.1   0.011492176   0.13282   0.12987  -0.11975   0.31877
  11   28517.5    350.7   0.000629294   0.00726  -0.02657   0.01516  -0.07955
  12   28723.9    348.1   0.008843121   0.10135  -0.00660   0.23037  -0.21963
  13   29875.7    334.7   0.012791124   0.14095   0.24662   0.20162   0.19869
  14   29960.3    333.8   0.000806091   0.00886   0.05750   0.05268  -0.05269
  15   30044.3    332.8   0.014949498   0.16381  -0.29116  -0.25466  -0.11911
  16   30719.4    325.5   0.003107090   0.03330  -0.13369  -0.12215   0.02245
  17   31471.5    317.7   0.029505505   0.30865  -0.43703  -0.30333   0.16011
  18   31563.3    316.8   0.049259425   0.51379   0.45468   0.35828  -0.42272
  19   31829.5    314.2   0.000011808   0.00012   0.00685   0.00629  -0.00597
  20   32221.9    310.3   0.042926977   0.43859   0.29434   0.10799  -0.58334
  21   32546.5    307.3   0.002827273   0.02860   0.09133  -0.09614   0.10495
  22   32612.7    306.6   0.000773070   0.00780   0.00220  -0.06084   0.06401
  23   33515.3    298.4   0.069452002   0.68221   0.02271   0.33765  -0.75345
  24   34708.3    288.1   0.048255088   0.45770  -0.03726   0.21287   0.64109
  25   34818.3    287.2   0.871545639   8.24060   0.13728   1.39944  -2.50266
  26   35123.0    284.7   0.524744171   4.91848  -0.23479  -0.95078   1.98982
  27   35614.5    280.8   0.087967955   0.81315  -0.71561   0.32279  -0.44368
  28   36111.0    276.9   0.082136665   0.74881  -0.07302  -0.41451   0.75609
  29   37718.3    265.1   0.000482374   0.00421   0.03190   0.01802  -0.05355
  30   37988.8    263.2   0.001158949   0.01004   0.01477  -0.09889   0.00679
  31   38316.9    261.0   0.003029418   0.02603   0.11110   0.02612  -0.11403
  32   38386.2    260.5   0.353880919   3.03500  -1.22473  -0.21502   1.22016
  33   38411.4    260.3   0.080512603   0.69005   0.61496   0.05519  -0.55572
  34   38612.1    259.0   0.620914325   5.29400   2.14193  -0.18866  -0.81886
  35   38921.3    256.9   0.003134643   0.02651  -0.15574   0.00961   0.04656
  36   39605.7    252.5   0.004859531   0.04039  -0.03936  -0.07827   0.18088
  37   39696.2    251.9   0.004917283   0.04078   0.00915   0.08390  -0.18346

FINAL SINGLE POINT ENERGY     -4434.465449013628

DIPOLE MOMENT
-------------
                                X             Y             Z
Electronic contribution:      5.68654     -34.07061      20.43512
Nuclear contribution   :     -4.81101      36.68493     -24.74419
                        -----------------------------------------
Total Dipole Moment    :      0.87554       2.61432      -4.30907
                        -----------------------------------------
Magnitude (a.u.)       :      5.11560
Magnitude (Debye)      :     13.00281

Rotational constants in cm-1:     0.001244     0.000303     0.000286
Rotational constants in MHz :    37.295141     9.085602     8.570156

                             ****ORCA TERMINATED NORMALLY****
TOTAL RUN TIME: 0 days 0 hours 12 minutes 48 seconds 270 msec
