                         Program Version 4.2.0 -  RELEASE  -
|  1> # ORCA input file
|  2> # SCF done       -192.582571704344          0.000317015548
|  3> ! CAM-B3LYP def2-SVP def2/J RIJCOSX Grid4 TightSCF
|  4> %maxcore 5000
|  5> %tddft
|  6>     Mode sTDDFT
|  7>     Ethresh 5.0
|  8>     maxcore 5000
|  9> end
| 10>
| 11> %pal
| 12>   nprocs 6
| 13>   end
| 14> * xyz 0 1
| 15>    C        2.63958       -10.82425         2.54968
| 16>    O        2.64478       -11.80220         3.24414
| 17>    N        3.64371       -10.55125         1.63067
| 18>    C        4.84199       -11.22982         1.57087
| 19>    N        5.57078       -10.83716         0.58383
| 20>    C        4.85021        -9.86546        -0.05988
| 21>    C        3.66260        -9.67041         0.56305
| 22>    N        1.59480        -9.89320         2.55576
| 23>    C        0.25945       -10.24410         2.52725
| 24>    C       -0.43728        -9.07839         2.45455
| 25>    N        0.41153        -8.01960         2.48353
| 26>    C        1.62269        -8.50412         2.55237
| 27>    C        2.79937        -7.70946         2.74103
| 28>    C        3.96519        -8.02155         3.39933
| 29>    C        4.85183        -6.93688         3.49649
| 30>    C        6.10797        -6.93993         4.25876
| 31>    C        7.11492        -7.86869         3.93553
| 32>    C        8.35576        -7.78642         4.55643
| 33>    C        8.60610        -6.78390         5.47710
| 34>    C        7.61663        -5.89139         5.83151
| 35>    C        6.35788        -5.97816         5.24365
| 36>    O        5.44238        -5.04082         5.65414
| 37>    C        4.12166        -5.45729         5.94493
| 38>    O        6.80111        -8.78212         2.98321
| 39>    C        7.85243        -9.55173         2.43435
| 40>    C        4.36094        -5.79924         2.87466
| 41>    S        2.77504        -6.05675         2.22517
| 42>    C        4.97225        -4.49913         2.82909
| 43>    C        6.35636        -4.30826         2.69595
| 44>    C        6.96001        -3.01860         2.87496
| 45>    N        8.30572        -2.91869         2.87526
| 46>    C        9.02395        -3.96546         2.64659
| 47>    C        8.41404        -5.21108         2.33284
| 48>    N        7.13528        -5.36635         2.36963
| 49>    F        9.15851        -6.25582         1.96433
| 50>    F       10.34744        -3.84614         2.69651
| 51>    C        6.20808        -1.84071         3.07073
| 52>    C        4.80603        -2.01794         3.09879
| 53>    C        4.20812        -3.33048         2.99315
| 54>    N        2.87812        -3.28307         3.10513
| 55>    S        2.42519        -1.75964         3.29647
| 56>    N        3.87425        -1.07523         3.26184
| 57>    C        6.83415        -0.57285         3.25416
| 58>    C        6.20836         0.64597         3.44218
| 59>    C        7.10048         1.70842         3.60728
| 60>    C        6.74936         3.11837         3.80487
| 61>    C        5.85870         3.46728         4.83559
| 62>    C        5.61502         4.80485         5.11860
| 63>    C        6.25351         5.79387         4.39046
| 64>    C        7.10230         5.46715         3.35386
| 65>    C        7.34246         4.13228         3.05010
| 66>    O        8.19681         3.88664         1.99213
| 67>    C        7.72625         3.03132         0.96695
| 68>    O        5.30477         2.42613         5.50988
| 69>    C        4.47537         2.69757         6.61264
| 70>    C        8.42276         1.29041         3.54006
| 71>    S        8.56450        -0.40560         3.25454
| 72>    C        9.54165         2.15952         3.78686
| 73>    N        9.62363         2.97151         4.80136
| 74>    C       10.78246         3.66843         4.65715
| 75>    C       11.41040         3.30783         3.50883
| 76>    N       10.63052         2.32205         2.93494
| 77>    C       10.79876         1.72371         1.69303
| 78>    O       10.50516         0.58410         1.45351
| 79>    N       11.33399         2.57010         0.72234
| 80>    C       11.99099         2.14849        -0.41233
| 81>    N       12.32726         3.13571        -1.17088
| 82>    C       11.86063         4.26507        -0.55375
| 83>    C       11.25120         3.94689         0.61638
| 84>    H        5.10015       -11.98323         2.28703
| 85>    H        5.24362        -9.37899        -0.92900
| 86>    H        2.84355        -9.02292         0.33147
| 87>    H       -0.04071       -11.27090         2.53243
| 88>    H       -1.49596        -8.92975         2.39263
| 89>    H        4.16739        -8.97776         3.84944
| 90>    H        9.14038        -8.48219         4.31057
| 91>    H        9.58227        -6.71250         5.93222
| 92>    H        7.78997        -5.11655         6.56081
| 93>    H        4.05580        -6.54013         6.06129
| 94>    H        3.42524        -5.13448         5.16590
| 95>    H        3.84366        -4.97850         6.88656
| 96>    H        8.24902       -10.26278         3.16605
| 97>    H        8.65787        -8.90988         2.06955
| 98>    H        7.41237       -10.09916         1.60147
| 99>    H        5.14045         0.75153         3.45493
|100>    H        4.94246         5.08732         5.91215
|101>    H        6.07035         6.83059         4.62850
|102>    H        7.58928         6.22847         2.76569
|103>    H        6.63734         3.06173         0.89451
|104>    H        8.03984         1.99414         1.12052
|105>    H        8.15996         3.40005         0.03550
|106>    H        5.00416         3.26499         7.38458
|107>    H        4.19334         1.72421         7.01110
|108>    H        3.57202         3.24051         6.31493
|109>    H       11.08386         4.38402         5.39498
|110>    H       12.34249         3.61344         3.08004
|111>    H       12.19933         1.11344        -0.59224
|112>    H       12.00120         5.22878        -0.99976
|113>    H       10.72820         4.54193         1.33571
|114> *
|115>
|116>                          ****END OF INPUT****

CARTESIAN COORDINATES (ANGSTROEM)
---------------------------------
  C      2.639580  -10.824250    2.549680
  O      2.644780  -11.802200    3.244140
  N      3.643710  -10.551250    1.630670
  C      4.841990  -11.229820    1.570870
  N      5.570780  -10.837160    0.583830
  C      4.850210   -9.865460   -0.059880
  C      3.662600   -9.670410    0.563050
  N      1.594800   -9.893200    2.555760
  C      0.259450  -10.244100    2.527250
  C     -0.437280   -9.078390    2.454550
  N      0.411530   -8.019600    2.483530
  C      1.622690   -8.504120    2.552370
  C      2.799370   -7.709460    2.741030
  C      3.965190   -8.021550    3.399330
  C      4.851830   -6.936880    3.496490
  C      6.107970   -6.939930    4.258760
  C      7.114920   -7.868690    3.935530
  C      8.355760   -7.786420    4.556430
  C      8.606100   -6.783900    5.477100
  C      7.616630   -5.891390    5.831510
  C      6.357880   -5.978160    5.243650
  O      5.442380   -5.040820    5.654140
  C      4.121660   -5.457290    5.944930
  O      6.801110   -8.782120    2.983210
  C      7.852430   -9.551730    2.434350
  C      4.360940   -5.799240    2.874660
  S      2.775040   -6.056750    2.225170
  C      4.972250   -4.499130    2.829090
  C      6.356360   -4.308260    2.695950
  C      6.960010   -3.018600    2.874960
  N      8.305720   -2.918690    2.875260
  C      9.023950   -3.965460    2.646590
  C      8.414040   -5.211080    2.332840
  N      7.135280   -5.366350    2.369630
  F      9.158510   -6.255820    1.964330
  F     10.347440   -3.846140    2.696510
  C      6.208080   -1.840710    3.070730
  C      4.806030   -2.017940    3.098790
  C      4.208120   -3.330480    2.993150
  N      2.878120   -3.283070    3.105130
  S      2.425190   -1.759640    3.296470
  N      3.874250   -1.075230    3.261840
  C      6.834150   -0.572850    3.254160
  C      6.208360    0.645970    3.442180
  C      7.100480    1.708420    3.607280
  C      6.749360    3.118370    3.804870
  C      5.858700    3.467280    4.835590
  C      5.615020    4.804850    5.118600
  C      6.253510    5.793870    4.390460
  C      7.102300    5.467150    3.353860
  C      7.342460    4.132280    3.050100
  O      8.196810    3.886640    1.992130
  C      7.726250    3.031320    0.966950
  O      5.304770    2.426130    5.509880
  C      4.475370    2.697570    6.612640
  C      8.422760    1.290410    3.540060
  S      8.564500   -0.405600    3.254540
  C      9.541650    2.159520    3.786860
  N      9.623630    2.971510    4.801360
  C     10.782460    3.668430    4.657150
  C     11.410400    3.307830    3.508830
  N     10.630520    2.322050    2.934940
  C     10.798760    1.723710    1.693030
  O     10.505160    0.584100    1.453510
  N     11.333990    2.570100    0.722340
  C     11.990990    2.148490   -0.412330
  N     12.327260    3.135710   -1.170880
  C     11.860630    4.265070   -0.553750
  C     11.251200    3.946890    0.616380
  H      5.100150  -11.983230    2.287030
  H      5.243620   -9.378990   -0.929000
  H      2.843550   -9.022920    0.331470
  H     -0.040710  -11.270900    2.532430
  H     -1.495960   -8.929750    2.392630
  H      4.167390   -8.977760    3.849440
  H      9.140380   -8.482190    4.310570
  H      9.582270   -6.712500    5.932220
  H      7.789970   -5.116550    6.560810
  H      4.055800   -6.540130    6.061290
  H      3.425240   -5.134480    5.165900
  H      3.843660   -4.978500    6.886560
  H      8.249020  -10.262780    3.166050
  H      8.657870   -8.909880    2.069550
  H      7.412370  -10.099160    1.601470
  H      5.140450    0.751530    3.454930
  H      4.942460    5.087320    5.912150
  H      6.070350    6.830590    4.628500
  H      7.589280    6.228470    2.765690
  H      6.637340    3.061730    0.894510
  H      8.039840    1.994140    1.120520
  H      8.159960    3.400050    0.035500
  H      5.004160    3.264990    7.384580
  H      4.193340    1.724210    7.011100
  H      3.572020    3.240510    6.314930
  H     11.083860    4.384020    5.394980
  H     12.342490    3.613440    3.080040
  H     12.199330    1.113440   -0.592240
  H     12.001200    5.228780   -0.999760
  H     10.728200    4.541930    1.335710

 Total Charge           Charge          ....    0
 Multiplicity           Mult            ....    1
 Number of Electrons    NEL             ....  504
 Basis Dimension        Dim             .... 1128

ORBITAL ENERGIES
----------------

  NO   OCC          E(Eh)            E(eV)
   0   2.0000     -89.031419     -2422.6681
   1   2.0000     -88.953366     -2420.5442
   2   2.0000     -88.941643     -2420.2251
   3   2.0000     -24.804418      -674.9625
   4   2.0000     -24.803550      -674.9389
   5   2.0000     -19.240040      -523.5481
   6   2.0000     -19.236810      -523.4602
   7   2.0000     -19.236575      -523.4538
   8   2.0000     -19.230594      -523.2911
   9   2.0000     -19.229601      -523.2641
  10   2.0000     -19.228825      -523.2429
  11   2.0000     -14.494453      -394.4141
  12   2.0000     -14.493047      -394.3759
  13   2.0000     -14.485765      -394.1777
  14   2.0000     -14.483362      -394.1123
  15   2.0000     -14.441117      -392.9628
  16   2.0000     -14.440506      -392.9462
  17   2.0000     -14.439991      -392.9321
  18   2.0000     -14.438664      -392.8960
  19   2.0000     -14.402560      -391.9136
  20   2.0000     -14.399161      -391.8211
  21   2.0000     -14.391936      -391.6245
  22   2.0000     -14.385995      -391.4628
  23   2.0000     -10.454207      -284.4734
  24   2.0000     -10.443280      -284.1761
  25   2.0000     -10.419282      -283.5231
  26   2.0000     -10.414693      -283.3982
  27   2.0000     -10.349528      -281.6250
  28   2.0000     -10.336607      -281.2734
  29   2.0000     -10.336382      -281.2672
  30   2.0000     -10.330249      -281.1004
  31   2.0000     -10.329235      -281.0728
  32   2.0000     -10.328251      -281.0460
  33   2.0000     -10.327551      -281.0269
  34   2.0000     -10.327420      -281.0234
  35   2.0000     -10.325435      -280.9694
  36   2.0000     -10.322825      -280.8983
  37   2.0000     -10.322141      -280.8797
  38   2.0000     -10.317327      -280.7487
  39   2.0000     -10.316205      -280.7182
  40   2.0000     -10.310929      -280.5746
  41   2.0000     -10.310108      -280.5523
  42   2.0000     -10.307856      -280.4910
  43   2.0000     -10.306263      -280.4477
  44   2.0000     -10.304676      -280.4045
  45   2.0000     -10.303260      -280.3659
  46   2.0000     -10.301881      -280.3284
  47   2.0000     -10.301416      -280.3158
  48   2.0000     -10.299738      -280.2701
  49   2.0000     -10.299601      -280.2664
  50   2.0000     -10.298834      -280.2455
  51   2.0000     -10.292027      -280.0603
  52   2.0000     -10.291589      -280.0484
  53   2.0000     -10.291162      -280.0367
  54   2.0000     -10.284386      -279.8524
  55   2.0000     -10.284116      -279.8450
  56   2.0000     -10.283408      -279.8258
  57   2.0000     -10.279863      -279.7293
  58   2.0000     -10.275828      -279.6195
  59   2.0000     -10.269291      -279.4416
  60   2.0000     -10.268320      -279.4152
  61   2.0000     -10.267003      -279.3794
  62   2.0000     -10.263662      -279.2884
  63   2.0000     -10.262782      -279.2645
  64   2.0000     -10.256494      -279.0934
  65   2.0000     -10.255229      -279.0590
  66   2.0000     -10.254436      -279.0374
  67   2.0000     -10.252349      -278.9806
  68   2.0000     -10.249261      -278.8966
  69   2.0000      -8.122902      -221.0354
  70   2.0000      -8.047919      -218.9950
  71   2.0000      -8.034986      -218.6431
  72   2.0000      -6.093973      -165.8254
  73   2.0000      -6.086172      -165.6132
  74   2.0000      -6.085691      -165.6001
  75   2.0000      -6.017307      -163.7392
  76   2.0000      -6.012929      -163.6201
  77   2.0000      -6.010076      -163.5425
  78   2.0000      -6.004382      -163.3875
  79   2.0000      -5.999788      -163.2625
  80   2.0000      -5.997313      -163.1952
  81   2.0000      -1.331130       -36.2219
  82   2.0000      -1.316826       -35.8326
  83   2.0000      -1.197944       -32.5977
  84   2.0000      -1.188363       -32.3370
  85   2.0000      -1.142279       -31.0830
  86   2.0000      -1.139337       -31.0029
  87   2.0000      -1.130225       -30.7550
  88   2.0000      -1.129616       -30.7384
  89   2.0000      -1.128656       -30.7123
  90   2.0000      -1.124863       -30.6091
  91   2.0000      -1.122762       -30.5519
  92   2.0000      -1.114883       -30.3375
  93   2.0000      -1.112580       -30.2748
  94   2.0000      -1.100230       -29.9388
  95   2.0000      -1.026742       -27.9391
  96   2.0000      -1.008121       -27.4324
  97   2.0000      -1.000464       -27.2240
  98   2.0000      -0.991622       -26.9834
  99   2.0000      -0.983041       -26.7499
 100   2.0000      -0.976833       -26.5810
 101   2.0000      -0.970846       -26.4181
 102   2.0000      -0.964999       -26.2590
 103   2.0000      -0.953055       -25.9339
 104   2.0000      -0.936964       -25.4961
 105   2.0000      -0.932748       -25.3814
 106   2.0000      -0.892722       -24.2922
 107   2.0000      -0.876920       -23.8622
 108   2.0000      -0.871019       -23.7016
 109   2.0000      -0.858329       -23.3563
 110   2.0000      -0.855922       -23.2908
 111   2.0000      -0.850740       -23.1498
 112   2.0000      -0.849977       -23.1291
 113   2.0000      -0.841717       -22.9043
 114   2.0000      -0.832767       -22.6607
 115   2.0000      -0.831864       -22.6362
 116   2.0000      -0.820252       -22.3202
 117   2.0000      -0.810232       -22.0475
 118   2.0000      -0.807274       -21.9670
 119   2.0000      -0.800443       -21.7812
 120   2.0000      -0.796680       -21.6788
 121   2.0000      -0.787472       -21.4282
 122   2.0000      -0.782203       -21.2848
 123   2.0000      -0.769220       -20.9315
 124   2.0000      -0.766399       -20.8548
 125   2.0000      -0.762350       -20.7446
 126   2.0000      -0.759450       -20.6657
 127   2.0000      -0.752000       -20.4630
 128   2.0000      -0.741171       -20.1683
 129   2.0000      -0.730003       -19.8644
 130   2.0000      -0.720391       -19.6028
 131   2.0000      -0.712734       -19.3945
 132   2.0000      -0.702917       -19.1273
 133   2.0000      -0.698586       -19.0095
 134   2.0000      -0.694593       -18.9008
 135   2.0000      -0.691263       -18.8102
 136   2.0000      -0.683931       -18.6107
 137   2.0000      -0.683002       -18.5854
 138   2.0000      -0.673650       -18.3310
 139   2.0000      -0.666959       -18.1489
 140   2.0000      -0.664943       -18.0940
 141   2.0000      -0.663529       -18.0555
 142   2.0000      -0.662345       -18.0233
 143   2.0000      -0.659776       -17.9534
 144   2.0000      -0.654750       -17.8167
 145   2.0000      -0.650694       -17.7063
 146   2.0000      -0.648805       -17.6549
 147   2.0000      -0.633409       -17.2359
 148   2.0000      -0.622812       -16.9476
 149   2.0000      -0.617012       -16.7897
 150   2.0000      -0.615144       -16.7389
 151   2.0000      -0.610453       -16.6113
 152   2.0000      -0.605642       -16.4804
 153   2.0000      -0.598701       -16.2915
 154   2.0000      -0.596525       -16.2323
 155   2.0000      -0.583440       -15.8762
 156   2.0000      -0.582012       -15.8374
 157   2.0000      -0.578333       -15.7372
 158   2.0000      -0.576754       -15.6943
 159   2.0000      -0.575985       -15.6733
 160   2.0000      -0.574129       -15.6228
 161   2.0000      -0.571676       -15.5561
 162   2.0000      -0.568887       -15.4802
 163   2.0000      -0.560604       -15.2548
 164   2.0000      -0.559194       -15.2164
 165   2.0000      -0.558185       -15.1890
 166   2.0000      -0.554976       -15.1017
 167   2.0000      -0.554872       -15.0988
 168   2.0000      -0.548493       -14.9252
 169   2.0000      -0.546750       -14.8778
 170   2.0000      -0.545562       -14.8455
 171   2.0000      -0.544472       -14.8158
 172   2.0000      -0.543389       -14.7864
 173   2.0000      -0.541219       -14.7273
 174   2.0000      -0.540295       -14.7022
 175   2.0000      -0.538385       -14.6502
 176   2.0000      -0.536914       -14.6102
 177   2.0000      -0.534015       -14.5313
 178   2.0000      -0.532574       -14.4921
 179   2.0000      -0.528984       -14.3944
 180   2.0000      -0.523389       -14.2421
 181   2.0000      -0.520415       -14.1612
 182   2.0000      -0.519823       -14.1451
 183   2.0000      -0.516019       -14.0416
 184   2.0000      -0.514812       -14.0087
 185   2.0000      -0.513261       -13.9665
 186   2.0000      -0.510814       -13.8999
 187   2.0000      -0.509486       -13.8638
 188   2.0000      -0.504999       -13.7417
 189   2.0000      -0.502094       -13.6627
 190   2.0000      -0.501236       -13.6393
 191   2.0000      -0.496874       -13.5206
 192   2.0000      -0.493244       -13.4219
 193   2.0000      -0.490336       -13.3427
 194   2.0000      -0.488650       -13.2969
 195   2.0000      -0.486911       -13.2495
 196   2.0000      -0.485781       -13.2188
 197   2.0000      -0.479962       -13.0604
 198   2.0000      -0.476021       -12.9532
 199   2.0000      -0.473757       -12.8916
 200   2.0000      -0.473071       -12.8729
 201   2.0000      -0.470792       -12.8109
 202   2.0000      -0.468490       -12.7483
 203   2.0000      -0.467628       -12.7248
 204   2.0000      -0.460641       -12.5347
 205   2.0000      -0.452730       -12.3194
 206   2.0000      -0.446810       -12.1583
 207   2.0000      -0.445433       -12.1209
 208   2.0000      -0.443890       -12.0788
 209   2.0000      -0.441075       -12.0023
 210   2.0000      -0.437743       -11.9116
 211   2.0000      -0.433412       -11.7938
 212   2.0000      -0.427383       -11.6297
 213   2.0000      -0.421793       -11.4776
 214   2.0000      -0.418024       -11.3750
 215   2.0000      -0.416463       -11.3325
 216   2.0000      -0.409979       -11.1561
 217   2.0000      -0.406230       -11.0541
 218   2.0000      -0.403678       -10.9846
 219   2.0000      -0.399822       -10.8797
 220   2.0000      -0.398245       -10.8368
 221   2.0000      -0.396535       -10.7903
 222   2.0000      -0.390114       -10.6155
 223   2.0000      -0.386365       -10.5135
 224   2.0000      -0.384052       -10.4506
 225   2.0000      -0.380107       -10.3432
 226   2.0000      -0.376723       -10.2512
 227   2.0000      -0.374403       -10.1880
 228   2.0000      -0.370802       -10.0900
 229   2.0000      -0.368070       -10.0157
 230   2.0000      -0.363934        -9.9032
 231   2.0000      -0.361848        -9.8464
 232   2.0000      -0.358889        -9.7659
 233   2.0000      -0.356633        -9.7045
 234   2.0000      -0.354313        -9.6414
 235   2.0000      -0.348887        -9.4937
 236   2.0000      -0.346460        -9.4277
 237   2.0000      -0.345942        -9.4135
 238   2.0000      -0.342836        -9.3290
 239   2.0000      -0.331778        -9.0281
 240   2.0000      -0.326648        -8.8885
 241   2.0000      -0.318258        -8.6602
 242   2.0000      -0.315634        -8.5888
 243   2.0000      -0.312430        -8.5016
 244   2.0000      -0.310851        -8.4587
 245   2.0000      -0.300557        -8.1786
 246   2.0000      -0.287560        -7.8249
 247   2.0000      -0.282649        -7.6913
 248   2.0000      -0.278522        -7.5790
 249   2.0000      -0.274398        -7.4668
 250   2.0000      -0.268277        -7.3002
 251   2.0000      -0.237048        -6.4504
 252   0.0000      -0.095757        -2.6057
 253   0.0000      -0.029764        -0.8099
 254   0.0000      -0.017669        -0.4808
 255   0.0000      -0.010662        -0.2901
 256   0.0000      -0.008654        -0.2355

MULLIKEN ATOMIC CHARGES
-----------------------
   0 C :    0.200466
   1 O :   -0.142095
   2 N :   -0.179100
   3 C :    0.133439
   4 N :   -0.132397
   5 C :    0.027757
   6 C :    0.095167
   7 N :   -0.178754
   8 C :    0.086774
   9 C :    0.028129
  10 N :   -0.089929
  11 C :    0.037219
  12 C :   -0.111280
  13 C :   -0.013468
  14 C :    0.117512
  15 C :   -0.038019
  16 C :    0.212312
  17 C :   -0.108696
  18 C :    0.036261
  19 C :   -0.054449
  20 C :    0.150352
  21 O :   -0.344085
  22 C :    0.215087
  23 O :   -0.308702
  24 C :    0.166864
  25 C :   -0.273835
  26 S :    0.224489
  27 C :    0.139426
  28 C :   -0.090899
  29 C :   -0.059535
  30 N :   -0.035813
  31 C :    0.155094
  32 C :    0.149191
  33 N :    0.040477
  34 F :   -0.150871
  35 F :   -0.139566
  36 C :    0.214996
  37 C :   -0.021252
  38 C :    0.003989
  39 N :   -0.293403
  40 S :    0.532015
  41 N :   -0.284258
  42 C :   -0.188415
  43 C :   -0.039014
  44 C :    0.138235
  45 C :    0.020118
  46 C :    0.196571
  47 C :   -0.104878
  48 C :    0.045891
  49 C :   -0.028014
  50 C :    0.141091
  51 O :   -0.369340
  52 C :    0.191420
  53 O :   -0.302295
  54 C :    0.184283
  55 C :   -0.189835
  56 S :    0.224406
  57 C :    0.044676
  58 N :   -0.091639
  59 C :    0.034405
  60 C :    0.062313
  61 N :   -0.156784
  62 C :    0.223779
  63 O :   -0.149624
  64 N :   -0.191606
  65 C :    0.107348
  66 N :   -0.113978
  67 C :    0.005222
  68 C :    0.055183
  69 H :    0.035022
  70 H :    0.007747
  71 H :    0.037458
  72 H :    0.021276
  73 H :    0.002339
  74 H :   -0.016503
  75 H :   -0.033019
  76 H :   -0.013450
  77 H :   -0.026866
  78 H :    0.017997
  79 H :    0.033629
  80 H :    0.022985
  81 H :    0.010866
  82 H :    0.019186
  83 H :    0.045900
  84 H :   -0.015729
  85 H :   -0.039504
  86 H :   -0.018427
  87 H :   -0.038716
  88 H :    0.023448
  89 H :    0.041556
  90 H :    0.030856
  91 H :    0.025261
  92 H :    0.035204
  93 H :    0.018678
  94 H :   -0.004911
  95 H :    0.025089
  96 H :    0.032009
  97 H :    0.002870
  98 H :    0.051617
Sum of atomic charges:   -0.0000000

LOEWDIN ATOMIC CHARGES
----------------------
   0 C :    0.114248
   1 O :   -0.131308
   2 N :    0.031349
   3 C :    0.055491
   4 N :   -0.089955
   5 C :   -0.018550
   6 C :   -0.009004
   7 N :    0.025594
   8 C :   -0.005400
   9 C :   -0.028888
  10 N :   -0.105332
  11 C :   -0.006284
  12 C :   -0.203868
  13 C :   -0.043018
  14 C :   -0.032371
  15 C :   -0.083318
  16 C :    0.072032
  17 C :   -0.091081
  18 C :   -0.013326
  19 C :   -0.072070
  20 C :    0.053363
  21 O :   -0.123675
  22 C :    0.078737
  23 O :   -0.095394
  24 C :    0.070229
  25 C :   -0.163805
  26 S :    0.503752
  27 C :   -0.049671
  28 C :   -0.001389
  29 C :   -0.015067
  30 N :   -0.054088
  31 C :    0.066540
  32 C :    0.057496
  33 N :   -0.017880
  34 F :   -0.033383
  35 F :   -0.027777
  36 C :   -0.026364
  37 C :   -0.038659
  38 C :   -0.043552
  39 N :   -0.298170
  40 S :    0.664182
  41 N :   -0.278250
  42 C :   -0.178204
  43 C :   -0.026303
  44 C :   -0.035723
  45 C :   -0.068119
  46 C :    0.073064
  47 C :   -0.088623
  48 C :   -0.008300
  49 C :   -0.062322
  50 C :    0.061991
  51 O :   -0.135038
  52 C :    0.071544
  53 O :   -0.092586
  54 C :    0.077145
  55 C :   -0.206192
  56 S :    0.517097
  57 C :    0.017725
  58 N :   -0.090393
  59 C :   -0.025158
  60 C :   -0.022433
  61 N :    0.034013
  62 C :    0.113609
  63 O :   -0.138010
  64 N :    0.026413
  65 C :    0.042493
  66 N :   -0.097581
  67 C :   -0.033693
  68 C :   -0.018737
  69 H :    0.026374
  70 H :    0.025246
  71 H :    0.032011
  72 H :    0.031721
  73 H :    0.024509
  74 H :    0.027274
  75 H :    0.027145
  76 H :    0.030431
  77 H :    0.030776
  78 H :    0.018236
  79 H :    0.013778
  80 H :    0.019416
  81 H :    0.009625
  82 H :    0.012821
  83 H :    0.022256
  84 H :    0.026400
  85 H :    0.024836
  86 H :    0.028354
  87 H :    0.027326
  88 H :    0.020233
  89 H :    0.012036
  90 H :    0.021379
  91 H :    0.016528
  92 H :    0.028234
  93 H :    0.013054
  94 H :    0.023098
  95 H :    0.027714
  96 H :    0.025247
  97 H :    0.022535
  98 H :    0.031613

  Mayer bond orders larger than 0.100000
B(  0-C ,  1-O ) :   2.2091 B(  0-C ,  2-N ) :   1.0255 B(  0-C ,  7-N ) :   0.9763
B(  2-N ,  3-C ) :   1.1045 B(  2-N ,  6-C ) :   1.0840 B(  3-C ,  4-N ) :   1.7147
B(  3-C , 69-H ) :   0.9815 B(  4-N ,  5-C ) :   1.2916 B(  5-C ,  6-C ) :   1.6025
B(  5-C , 70-H ) :   1.0028 B(  6-C , 71-H ) :   0.9808 B(  7-N ,  8-C ) :   1.0978
B(  7-N , 11-C ) :   1.1223 B(  8-C ,  9-C ) :   1.5523 B(  8-C , 72-H ) :   0.9891
B(  9-C , 10-N ) :   1.3448 B(  9-C , 73-H ) :   0.9975 B( 10-N , 11-C ) :   1.7882
B( 11-C , 12-C ) :   1.0198 B( 12-C , 13-C ) :   1.4938 B( 12-C , 25-C ) :   0.1197
B( 12-C , 26-S ) :   1.1395 B( 13-C , 14-C ) :   1.2741 B( 13-C , 74-H ) :   1.0004
B( 14-C , 15-C ) :   0.9126 B( 14-C , 25-C ) :   1.5413 B( 15-C , 16-C ) :   1.3493
B( 15-C , 20-C ) :   1.3878 B( 16-C , 17-C ) :   1.3222 B( 16-C , 23-O ) :   1.2042
B( 17-C , 18-C ) :   1.3212 B( 17-C , 75-H ) :   1.0021 B( 18-C , 19-C ) :   1.3587
B( 18-C , 76-H ) :   0.9938 B( 19-C , 20-C ) :   1.3653 B( 19-C , 77-H ) :   1.0048
B( 20-C , 21-O ) :   1.1185 B( 21-O , 22-C ) :   0.9383 B( 22-C , 78-H ) :   0.9617
B( 22-C , 79-H ) :   0.9650 B( 22-C , 80-H ) :   0.9765 B( 23-O , 24-C ) :   0.9446
B( 24-C , 81-H ) :   0.9671 B( 24-C , 82-H ) :   0.9659 B( 24-C , 83-H ) :   0.9534
B( 25-C , 26-S ) :   1.1401 B( 25-C , 27-C ) :   1.0547 B( 27-C , 28-C ) :   1.3639
B( 27-C , 36-C ) :   0.1353 B( 27-C , 38-C ) :   1.2340 B( 28-C , 29-C ) :   1.0945
B( 28-C , 33-N ) :   1.4234 B( 29-C , 30-N ) :   1.3750 B( 29-C , 36-C ) :   1.3014
B( 30-N , 31-C ) :   1.6756 B( 31-C , 32-C ) :   1.0947 B( 31-C , 35-F ) :   1.1850
B( 32-C , 33-N ) :   1.6885 B( 32-C , 34-F ) :   1.1280 B( 36-C , 37-C ) :   1.2092
B( 36-C , 42-C ) :   1.1394 B( 37-C , 38-C ) :   1.1209 B( 37-C , 41-N ) :   1.5085
B( 38-C , 39-N ) :   1.4645 B( 39-N , 40-S ) :   1.2783 B( 39-N , 41-N ) :   0.1574
B( 40-S , 41-N ) :   1.2801 B( 42-C , 43-C ) :   1.4583 B( 42-C , 55-C ) :   0.1085
B( 42-C , 56-S ) :   1.1216 B( 43-C , 44-C ) :   1.2464 B( 43-C , 84-H ) :   0.9917
B( 44-C , 45-C ) :   0.9160 B( 44-C , 55-C ) :   1.5361 B( 45-C , 46-C ) :   1.3674
B( 45-C , 50-C ) :   1.4017 B( 46-C , 47-C ) :   1.3224 B( 46-C , 53-O ) :   1.1804
B( 47-C , 48-C ) :   1.3323 B( 47-C , 85-H ) :   1.0002 B( 48-C , 49-C ) :   1.3623
B( 48-C , 86-H ) :   0.9895 B( 49-C , 50-C ) :   1.3736 B( 49-C , 87-H ) :   1.0027
B( 50-C , 51-O ) :   1.0578 B( 51-O , 52-C ) :   0.9363 B( 52-C , 88-H ) :   0.9643
B( 52-C , 89-H ) :   0.9558 B( 52-C , 90-H ) :   0.9773 B( 53-O , 54-C ) :   0.9648
B( 54-C , 91-H ) :   0.9690 B( 54-C , 92-H ) :   0.9790 B( 54-C , 93-H ) :   0.9681
B( 55-C , 56-S ) :   1.1267 B( 55-C , 57-C ) :   0.9964 B( 57-C , 58-N ) :   1.7533
B( 57-C , 61-N ) :   1.1092 B( 58-N , 59-C ) :   1.3286 B( 59-C , 60-C ) :   1.5618
B( 59-C , 94-H ) :   0.9992 B( 60-C , 61-N ) :   1.0881 B( 60-C , 95-H ) :   0.9802
B( 61-N , 62-C ) :   0.9998 B( 62-C , 63-O ) :   2.1694 B( 62-C , 64-N ) :   1.0072
B( 64-N , 65-C ) :   1.1151 B( 64-N , 68-C ) :   1.0932 B( 65-C , 66-N ) :   1.7489
B( 65-C , 96-H ) :   0.9827 B( 66-N , 67-C ) :   1.3292 B( 67-C , 68-C ) :   1.5828
B( 67-C , 97-H ) :   1.0034 B( 68-C , 98-H ) :   0.9766

-----------------------------------------------------------------------------
         ABSORPTION SPECTRUM VIA TRANSITION ELECTRIC DIPOLE MOMENTS
-----------------------------------------------------------------------------
State   Energy  Wavelength   fosc         T2         TX        TY        TZ
        (cm-1)    (nm)                  (au**2)     (au)      (au)      (au)
-----------------------------------------------------------------------------
   0   13823.7    723.4   0.432005739  10.28826   1.48708   2.83580   0.18730
   1   20012.8    499.7   0.037025143   0.60906  -0.30148  -0.71632  -0.07114
   2   21147.5    472.9   0.001405008   0.02187  -0.13510   0.01976  -0.05683
   3   22226.5    449.9   0.028714145   0.42530  -0.08328  -0.64571   0.03770
   4   24737.5    404.2   0.008110807   0.10794  -0.26633  -0.10406   0.16181
   5   25942.1    385.5   0.000569822   0.00723   0.03910   0.07005  -0.02820
   6   28388.0    352.3   0.024476863   0.28385  -0.05108  -0.49770   0.18313
   7   28762.3    347.7   0.013479907   0.15429  -0.10780  -0.37180   0.06660
   8   29091.7    343.7   0.354973300   4.01700  -1.10155  -1.66577  -0.16973
   9   29421.3    339.9   0.035912444   0.40185  -0.62052  -0.02064  -0.12797
  10   30069.1    332.6   0.009262788   0.10141   0.26218   0.14492  -0.10803
  11   30657.9    326.2   0.188419573   2.02329   1.35679   0.34816  -0.24737
  12   30857.6    324.1   0.109738015   1.17077   0.58702  -0.90189  -0.11306
  13   32361.8    309.0   0.032932456   0.33502   0.01578   0.57578  -0.05701
  14   32516.0    307.5   0.341498068   3.45754   1.26436   1.36328   0.02002
  15   33918.6    294.8   0.016600731   0.16113  -0.33285  -0.11275  -0.19398
  16   34240.1    292.1   0.002662384   0.02560   0.08168   0.12950  -0.04643
  17   34526.2    289.6   0.020976204   0.20001  -0.28361  -0.34198   0.05123
  18   35624.3    280.7   0.011542978   0.10667  -0.01779  -0.32315   0.04392
  19   35733.5    279.8   0.066433854   0.61205  -0.40043   0.63768  -0.21232
  20   36055.0    277.4   0.243853961   2.22659  -0.72974   1.25606   0.34115
  21   37142.9    269.2   0.040222775   0.35651  -0.09228   0.56139   0.18120
  22   37219.3    268.7   0.023816328   0.21066  -0.42778   0.02569   0.16433
  23   37754.9    264.9   0.010429800   0.09094   0.05027  -0.12596   0.26935
  24   37966.9    263.4   0.044663279   0.38728  -0.03659  -0.53921   0.30852
  25   38474.6    259.9   0.032395560   0.27720  -0.49071  -0.19078  -0.00208
  26   38833.2    257.5   0.061361321   0.52020   0.54703  -0.15019  -0.44542
  27   39002.5    256.4   0.032381920   0.27333   0.18074  -0.48402  -0.07990
  28   39171.7    255.3   0.003290065   0.02765  -0.13785   0.04706   0.08022
  29   39500.3    253.2   0.022897581   0.19084   0.32290  -0.26030   0.13718
  30   39682.7    252.0   0.207851183   1.72435   0.84554  -0.93552  -0.36634
  31   39866.8    250.8   0.096969916   0.80076  -0.85959   0.22124   0.11367
  32   40194.7    248.8   0.013290730   0.10886   0.05795   0.32452   0.01355

FINAL SINGLE POINT ENERGY     -4269.425198266408

DIPOLE MOMENT
-------------
                                X             Y             Z
Electronic contribution:      1.58789     -20.00813     -11.04650
Nuclear contribution   :     -2.95193      20.31892      11.68164
                        -----------------------------------------
Total Dipole Moment    :     -1.36404       0.31078       0.63514
                        -----------------------------------------
Magnitude (a.u.)       :      1.53642
Magnitude (Debye)      :      3.90528

Rotational constants in cm-1:     0.002138     0.000537     0.000479
Rotational constants in MHz :    64.087119    16.097126    14.345980

                             ****ORCA TERMINATED NORMALLY****
TOTAL RUN TIME: 0 days 0 hours 10 minutes 30 seconds 829 msec
