                         Program Version 4.2.0 -  RELEASE  -
|  1> # ORCA input file
|  2> # SCF done       -187.462802838122          0.000273527341
|  3> ! CAM-B3LYP def2-SVP def2/J RIJCOSX Grid4 TightSCF
|  4> %maxcore 5000
|  5> %tddft
|  6>     Mode sTDDFT
|  7>     Ethresh 5.0
|  8>     maxcore 5000
|  9> end
| 10>
| 11> %pal
| 12>   nprocs 6
| 13>   end
| 14> * xyz 0 1
| 15>    C        2.42467        -6.25961        -1.08174
| 16>    C        2.25599        -6.35971        -2.55966
| 17>    O        1.90571        -5.47018        -3.30209
| 18>    C        2.66717        -7.73815        -2.89148
| 19>    C        2.88397        -8.45894        -1.71522
| 20>    C        2.59420        -7.60376        -0.57407
| 21>    C        2.27035        -8.00876         0.69408
| 22>    C        1.71753        -7.11559         1.63172
| 23>    N        1.21836        -6.41213         2.39007
| 24>    C        2.37883        -9.32795         1.17069
| 25>    N        2.47837       -10.37511         1.63072
| 26>    C        3.29184        -9.79783        -1.75638
| 27>    C        3.48937       -10.38529        -2.97851
| 28>    C        3.28632        -9.68492        -4.18830
| 29>    C        2.85934        -8.32450        -4.15739
| 30>    C        2.65990        -7.63206        -5.36915
| 31>    C        2.87755        -8.26081        -6.56400
| 32>    C        3.29909        -9.59975        -6.60044
| 33>    C        3.49771       -10.29696        -5.44038
| 34>    C        2.52081        -5.05623        -0.46225
| 35>    C        3.12697        -4.77117         0.79108
| 36>    C        2.88254        -3.68267         1.60037
| 37>    C        3.71142        -3.66113         2.72208
| 38>    C        4.64027        -4.70847         2.75675
| 39>    S        4.43800        -5.77077         1.42012
| 40>    C        5.51626        -4.60411         3.84328
| 41>    C        5.23659        -3.49264         4.64025
| 42>    S        3.88676        -2.56531         4.06255
| 43>    C        6.13138        -3.33265         5.71117
| 44>    C        7.08600        -4.30499         5.71580
| 45>    S        6.90344        -5.45668         4.41993
| 46>    C        8.20633        -4.43024         6.71339
| 47>    C        9.04168        -5.64249         6.46271
| 48>    N        9.99517        -5.69481         5.55853
| 49>    S       10.67091        -7.16830         5.58095
| 50>    N        9.75406        -7.77882         6.77307
| 51>    C        8.90414        -6.86109         7.17553
| 52>    C        7.87691        -7.08981         8.24335
| 53>    C        7.48439        -5.76052         8.79832
| 54>    C        7.62768        -4.53892         8.09212
| 55>    N        7.18623        -3.50727         8.77721
| 56>    S        6.62505        -4.02189        10.21066
| 57>    N        6.94608        -5.59404         9.98582
| 58>    C        6.69914        -7.77500         7.60647
| 59>    C        6.61797        -9.08861         7.25509
| 60>    C        5.40832        -9.37309         6.59801
| 61>    C        4.58322        -8.25824         6.44757
| 62>    S        5.29472        -6.84888         7.14210
| 63>    C        3.39324        -8.56040         5.77786
| 64>    C        3.31523        -9.91447         5.42657
| 65>    S        4.71838       -10.81812         5.92325
| 66>    C        2.15422       -10.24242         4.73198
| 67>    C        1.32200        -9.15229         4.56308
| 68>    S        2.01259        -7.68623         5.25158
| 69>    C        0.15240        -9.13144         3.76642
| 70>    C       -0.75955        -8.13570         3.61621
| 71>    C       -1.49205        -8.00111         2.32730
| 72>    O       -1.58455        -8.84748         1.46357
| 73>    C       -1.95982        -6.60340         2.30210
| 74>    C       -1.66725        -5.98959         3.52024
| 75>    C       -1.05409        -6.96492         4.41225
| 76>    C       -1.01098        -6.89931         5.77890
| 77>    C       -0.65132        -8.00497         6.57924
| 78>    N       -0.41290        -8.90093         7.25567
| 79>    C       -1.40003        -5.77538         6.53364
| 80>    N       -1.69312        -4.88407         7.19529
| 81>    C       -1.97644        -4.64132         3.73620
| 82>    C       -2.58092        -3.93647         2.72857
| 83>    C       -2.90300        -4.52939         1.48776
| 84>    C       -2.58232        -5.89836         1.25351
| 85>    C       -2.89815        -6.48043         0.00898
| 86>    C       -3.51334        -5.73929        -0.96191
| 87>    C       -3.83792        -4.39251        -0.73380
| 88>    C       -3.53864        -3.80014         0.46215
| 89>    H        3.46078       -10.34890        -0.84505
| 90>    H        3.81309       -11.41467        -3.03260
| 91>    H        2.33716        -6.60369        -5.32871
| 92>    H        2.72709        -7.72913        -7.49160
| 93>    H        3.46655       -10.07600        -7.55508
| 94>    H        3.82103       -11.32754        -5.46619
| 95>    H        2.17795        -4.19640        -1.02911
| 96>    H        2.11691        -2.95784         1.39384
| 97>    H        6.08421        -2.54618         6.44131
| 98>    H        8.82663        -3.52816         6.64397
| 99>    H        8.28119        -7.73753         9.02743
|100>    H        7.39173        -9.80688         7.45170
|101>    H        1.91750       -11.22211         4.36144
|102>    H        0.05689        -9.96546         3.07734
|103>    H       -1.73066        -4.16350         4.67087
|104>    H       -2.82381        -2.89347         2.87423
|105>    H       -2.64641        -7.51656        -0.15418
|106>    H       -3.75596        -6.18723        -1.91408
|107>    H       -4.32697        -3.82670        -1.51304
|108>    H       -3.78796        -2.76384         0.64032
|109> *
|110>
|111>                          ****END OF INPUT****

CARTESIAN COORDINATES (ANGSTROEM)
---------------------------------
  C      2.424670   -6.259610   -1.081740
  C      2.255990   -6.359710   -2.559660
  O      1.905710   -5.470180   -3.302090
  C      2.667170   -7.738150   -2.891480
  C      2.883970   -8.458940   -1.715220
  C      2.594200   -7.603760   -0.574070
  C      2.270350   -8.008760    0.694080
  C      1.717530   -7.115590    1.631720
  N      1.218360   -6.412130    2.390070
  C      2.378830   -9.327950    1.170690
  N      2.478370  -10.375110    1.630720
  C      3.291840   -9.797830   -1.756380
  C      3.489370  -10.385290   -2.978510
  C      3.286320   -9.684920   -4.188300
  C      2.859340   -8.324500   -4.157390
  C      2.659900   -7.632060   -5.369150
  C      2.877550   -8.260810   -6.564000
  C      3.299090   -9.599750   -6.600440
  C      3.497710  -10.296960   -5.440380
  C      2.520810   -5.056230   -0.462250
  C      3.126970   -4.771170    0.791080
  C      2.882540   -3.682670    1.600370
  C      3.711420   -3.661130    2.722080
  C      4.640270   -4.708470    2.756750
  S      4.438000   -5.770770    1.420120
  C      5.516260   -4.604110    3.843280
  C      5.236590   -3.492640    4.640250
  S      3.886760   -2.565310    4.062550
  C      6.131380   -3.332650    5.711170
  C      7.086000   -4.304990    5.715800
  S      6.903440   -5.456680    4.419930
  C      8.206330   -4.430240    6.713390
  C      9.041680   -5.642490    6.462710
  N      9.995170   -5.694810    5.558530
  S     10.670910   -7.168300    5.580950
  N      9.754060   -7.778820    6.773070
  C      8.904140   -6.861090    7.175530
  C      7.876910   -7.089810    8.243350
  C      7.484390   -5.760520    8.798320
  C      7.627680   -4.538920    8.092120
  N      7.186230   -3.507270    8.777210
  S      6.625050   -4.021890   10.210660
  N      6.946080   -5.594040    9.985820
  C      6.699140   -7.775000    7.606470
  C      6.617970   -9.088610    7.255090
  C      5.408320   -9.373090    6.598010
  C      4.583220   -8.258240    6.447570
  S      5.294720   -6.848880    7.142100
  C      3.393240   -8.560400    5.777860
  C      3.315230   -9.914470    5.426570
  S      4.718380  -10.818120    5.923250
  C      2.154220  -10.242420    4.731980
  C      1.322000   -9.152290    4.563080
  S      2.012590   -7.686230    5.251580
  C      0.152400   -9.131440    3.766420
  C     -0.759550   -8.135700    3.616210
  C     -1.492050   -8.001110    2.327300
  O     -1.584550   -8.847480    1.463570
  C     -1.959820   -6.603400    2.302100
  C     -1.667250   -5.989590    3.520240
  C     -1.054090   -6.964920    4.412250
  C     -1.010980   -6.899310    5.778900
  C     -0.651320   -8.004970    6.579240
  N     -0.412900   -8.900930    7.255670
  C     -1.400030   -5.775380    6.533640
  N     -1.693120   -4.884070    7.195290
  C     -1.976440   -4.641320    3.736200
  C     -2.580920   -3.936470    2.728570
  C     -2.903000   -4.529390    1.487760
  C     -2.582320   -5.898360    1.253510
  C     -2.898150   -6.480430    0.008980
  C     -3.513340   -5.739290   -0.961910
  C     -3.837920   -4.392510   -0.733800
  C     -3.538640   -3.800140    0.462150
  H      3.460780  -10.348900   -0.845050
  H      3.813090  -11.414670   -3.032600
  H      2.337160   -6.603690   -5.328710
  H      2.727090   -7.729130   -7.491600
  H      3.466550  -10.076000   -7.555080
  H      3.821030  -11.327540   -5.466190
  H      2.177950   -4.196400   -1.029110
  H      2.116910   -2.957840    1.393840
  H      6.084210   -2.546180    6.441310
  H      8.826630   -3.528160    6.643970
  H      8.281190   -7.737530    9.027430
  H      7.391730   -9.806880    7.451700
  H      1.917500  -11.222110    4.361440
  H      0.056890   -9.965460    3.077340
  H     -1.730660   -4.163500    4.670870
  H     -2.823810   -2.893470    2.874230
  H     -2.646410   -7.516560   -0.154180
  H     -3.755960   -6.187230   -1.914080
  H     -4.326970   -3.826700   -1.513040
  H     -3.787960   -2.763840    0.640320

 Total Charge           Charge          ....    0
 Multiplicity           Mult            ....    1
 Number of Electrons    NEL             ....  556
 Basis Dimension        Dim             .... 1168

ORBITAL ENERGIES
----------------

  NO   OCC          E(Eh)            E(eV)
   0   2.0000     -89.019233     -2422.3365
   1   2.0000     -89.019196     -2422.3355
   2   2.0000     -88.971910     -2421.0487
   3   2.0000     -88.971125     -2421.0274
   4   2.0000     -88.965916     -2420.8856
   5   2.0000     -88.965814     -2420.8829
   6   2.0000     -88.956869     -2420.6395
   7   2.0000     -88.956306     -2420.6241
   8   2.0000     -19.218997      -522.9755
   9   2.0000     -19.202968      -522.5393
  10   2.0000     -14.448808      -393.1721
  11   2.0000     -14.447240      -393.1294
  12   2.0000     -14.447156      -393.1271
  13   2.0000     -14.446481      -393.1087
  14   2.0000     -14.420575      -392.4038
  15   2.0000     -14.417779      -392.3277
  16   2.0000     -14.401979      -391.8978
  17   2.0000     -14.396892      -391.7594
  18   2.0000     -10.370368      -282.1920
  19   2.0000     -10.353675      -281.7378
  20   2.0000     -10.345107      -281.5047
  21   2.0000     -10.342579      -281.4359
  22   2.0000     -10.338904      -281.3359
  23   2.0000     -10.338355      -281.3209
  24   2.0000     -10.338033      -281.3122
  25   2.0000     -10.337032      -281.2849
  26   2.0000     -10.328235      -281.0456
  27   2.0000     -10.324464      -280.9429
  28   2.0000     -10.324121      -280.9336
  29   2.0000     -10.323508      -280.9169
  30   2.0000     -10.322046      -280.8771
  31   2.0000     -10.321316      -280.8573
  32   2.0000     -10.321009      -280.8489
  33   2.0000     -10.320420      -280.8329
  34   2.0000     -10.320213      -280.8273
  35   2.0000     -10.318694      -280.7859
  36   2.0000     -10.315342      -280.6947
  37   2.0000     -10.312963      -280.6300
  38   2.0000     -10.312547      -280.6187
  39   2.0000     -10.311150      -280.5807
  40   2.0000     -10.310337      -280.5585
  41   2.0000     -10.308596      -280.5112
  42   2.0000     -10.305044      -280.4145
  43   2.0000     -10.304966      -280.4124
  44   2.0000     -10.304625      -280.4031
  45   2.0000     -10.303606      -280.3754
  46   2.0000     -10.302345      -280.3411
  47   2.0000     -10.300629      -280.2944
  48   2.0000     -10.299135      -280.2537
  49   2.0000     -10.298884      -280.2469
  50   2.0000     -10.298159      -280.2271
  51   2.0000     -10.297347      -280.2051
  52   2.0000     -10.297127      -280.1991
  53   2.0000     -10.296915      -280.1933
  54   2.0000     -10.296755      -280.1889
  55   2.0000     -10.293435      -280.0986
  56   2.0000     -10.293360      -280.0966
  57   2.0000     -10.288044      -279.9519
  58   2.0000     -10.287805      -279.9454
  59   2.0000     -10.285131      -279.8727
  60   2.0000     -10.284621      -279.8588
  61   2.0000     -10.284595      -279.8580
  62   2.0000     -10.284045      -279.8431
  63   2.0000     -10.283324      -279.8235
  64   2.0000     -10.283005      -279.8148
  65   2.0000     -10.282766      -279.8083
  66   2.0000     -10.279844      -279.7288
  67   2.0000     -10.278913      -279.7034
  68   2.0000     -10.278392      -279.6893
  69   2.0000     -10.277418      -279.6628
  70   2.0000     -10.273620      -279.5594
  71   2.0000     -10.273034      -279.5435
  72   2.0000     -10.270992      -279.4879
  73   2.0000     -10.266544      -279.3669
  74   2.0000      -8.112107      -220.7417
  75   2.0000      -8.111849      -220.7346
  76   2.0000      -8.066534      -219.5016
  77   2.0000      -8.065394      -219.4705
  78   2.0000      -8.061154      -219.3552
  79   2.0000      -8.059993      -219.3236
  80   2.0000      -8.051469      -219.0916
  81   2.0000      -8.051181      -219.0838
  82   2.0000      -6.083719      -165.5464
  83   2.0000      -6.083434      -165.5386
  84   2.0000      -6.076051      -165.3377
  85   2.0000      -6.075809      -165.3312
  86   2.0000      -6.073303      -165.2630
  87   2.0000      -6.073139      -165.2585
  88   2.0000      -6.036144      -164.2518
  89   2.0000      -6.034994      -164.2205
  90   2.0000      -6.032053      -164.1405
  91   2.0000      -6.030860      -164.1080
  92   2.0000      -6.030817      -164.1069
  93   2.0000      -6.029530      -164.0718
  94   2.0000      -6.028041      -164.0313
  95   2.0000      -6.027104      -164.0058
  96   2.0000      -6.027012      -164.0033
  97   2.0000      -6.025447      -163.9608
  98   2.0000      -6.022152      -163.8711
  99   2.0000      -6.021765      -163.8606
 100   2.0000      -6.021185      -163.8448
 101   2.0000      -6.020786      -163.8339
 102   2.0000      -6.017345      -163.7403
 103   2.0000      -6.016617      -163.7205
 104   2.0000      -6.012754      -163.6154
 105   2.0000      -6.012465      -163.6075
 106   2.0000      -1.134267       -30.8650
 107   2.0000      -1.133926       -30.8557
 108   2.0000      -1.129252       -30.7285
 109   2.0000      -1.117229       -30.4014
 110   2.0000      -1.029726       -28.0203
 111   2.0000      -1.022371       -27.8201
 112   2.0000      -1.019583       -27.7443
 113   2.0000      -1.004334       -27.3293
 114   2.0000      -1.001813       -27.2607
 115   2.0000      -1.000365       -27.2213
 116   2.0000      -0.997552       -27.1448
 117   2.0000      -0.990774       -26.9603
 118   2.0000      -0.984275       -26.7835
 119   2.0000      -0.982768       -26.7425
 120   2.0000      -0.980160       -26.6715
 121   2.0000      -0.976821       -26.5806
 122   2.0000      -0.970240       -26.4016
 123   2.0000      -0.961876       -26.1740
 124   2.0000      -0.954707       -25.9789
 125   2.0000      -0.936211       -25.4756
 126   2.0000      -0.924619       -25.1602
 127   2.0000      -0.921996       -25.0888
 128   2.0000      -0.907950       -24.7066
 129   2.0000      -0.905358       -24.6361
 130   2.0000      -0.888939       -24.1893
 131   2.0000      -0.888668       -24.1819
 132   2.0000      -0.883109       -24.0306
 133   2.0000      -0.875181       -23.8149
 134   2.0000      -0.873031       -23.7564
 135   2.0000      -0.865549       -23.5528
 136   2.0000      -0.856817       -23.3152
 137   2.0000      -0.851291       -23.1648
 138   2.0000      -0.842763       -22.9327
 139   2.0000      -0.841605       -22.9012
 140   2.0000      -0.837635       -22.7932
 141   2.0000      -0.833360       -22.6769
 142   2.0000      -0.826270       -22.4839
 143   2.0000      -0.812821       -22.1180
 144   2.0000      -0.797624       -21.7044
 145   2.0000      -0.790571       -21.5125
 146   2.0000      -0.786286       -21.3959
 147   2.0000      -0.780110       -21.2279
 148   2.0000      -0.774275       -21.0691
 149   2.0000      -0.759104       -20.6563
 150   2.0000      -0.756966       -20.5981
 151   2.0000      -0.745186       -20.2775
 152   2.0000      -0.727061       -19.7843
 153   2.0000      -0.716211       -19.4891
 154   2.0000      -0.711430       -19.3590
 155   2.0000      -0.702403       -19.1134
 156   2.0000      -0.701857       -19.0985
 157   2.0000      -0.701060       -19.0768
 158   2.0000      -0.696168       -18.9437
 159   2.0000      -0.687258       -18.7013
 160   2.0000      -0.679871       -18.5002
 161   2.0000      -0.677802       -18.4439
 162   2.0000      -0.665645       -18.1131
 163   2.0000      -0.662293       -18.0219
 164   2.0000      -0.659980       -17.9590
 165   2.0000      -0.654764       -17.8170
 166   2.0000      -0.650147       -17.6914
 167   2.0000      -0.642227       -17.4759
 168   2.0000      -0.637100       -17.3364
 169   2.0000      -0.631328       -17.1793
 170   2.0000      -0.630896       -17.1676
 171   2.0000      -0.627864       -17.0850
 172   2.0000      -0.619663       -16.8619
 173   2.0000      -0.615567       -16.7504
 174   2.0000      -0.613702       -16.6997
 175   2.0000      -0.608214       -16.5503
 176   2.0000      -0.597863       -16.2687
 177   2.0000      -0.595365       -16.2007
 178   2.0000      -0.590118       -16.0579
 179   2.0000      -0.585640       -15.9361
 180   2.0000      -0.578274       -15.7356
 181   2.0000      -0.575855       -15.6698
 182   2.0000      -0.574149       -15.6234
 183   2.0000      -0.568601       -15.4724
 184   2.0000      -0.563668       -15.3382
 185   2.0000      -0.561255       -15.2725
 186   2.0000      -0.554065       -15.0769
 187   2.0000      -0.551367       -15.0034
 188   2.0000      -0.547255       -14.8916
 189   2.0000      -0.546194       -14.8627
 190   2.0000      -0.541083       -14.7236
 191   2.0000      -0.538264       -14.6469
 192   2.0000      -0.536069       -14.5872
 193   2.0000      -0.532832       -14.4991
 194   2.0000      -0.530147       -14.4260
 195   2.0000      -0.528958       -14.3937
 196   2.0000      -0.524431       -14.2705
 197   2.0000      -0.522677       -14.2228
 198   2.0000      -0.519044       -14.1239
 199   2.0000      -0.517449       -14.0805
 200   2.0000      -0.515618       -14.0307
 201   2.0000      -0.514351       -13.9962
 202   2.0000      -0.510316       -13.8864
 203   2.0000      -0.507143       -13.8001
 204   2.0000      -0.506555       -13.7841
 205   2.0000      -0.504456       -13.7269
 206   2.0000      -0.501186       -13.6380
 207   2.0000      -0.497286       -13.5318
 208   2.0000      -0.496384       -13.5073
 209   2.0000      -0.493934       -13.4406
 210   2.0000      -0.488026       -13.2799
 211   2.0000      -0.486273       -13.2322
 212   2.0000      -0.485249       -13.2043
 213   2.0000      -0.483099       -13.1458
 214   2.0000      -0.481771       -13.1097
 215   2.0000      -0.479846       -13.0573
 216   2.0000      -0.475356       -12.9351
 217   2.0000      -0.474006       -12.8984
 218   2.0000      -0.471260       -12.8236
 219   2.0000      -0.470825       -12.8118
 220   2.0000      -0.469455       -12.7745
 221   2.0000      -0.463400       -12.6098
 222   2.0000      -0.462224       -12.5778
 223   2.0000      -0.459893       -12.5143
 224   2.0000      -0.458891       -12.4871
 225   2.0000      -0.454757       -12.3746
 226   2.0000      -0.453315       -12.3353
 227   2.0000      -0.450066       -12.2469
 228   2.0000      -0.449118       -12.2211
 229   2.0000      -0.442096       -12.0300
 230   2.0000      -0.438771       -11.9396
 231   2.0000      -0.435978       -11.8636
 232   2.0000      -0.435465       -11.8496
 233   2.0000      -0.432794       -11.7769
 234   2.0000      -0.431575       -11.7438
 235   2.0000      -0.431281       -11.7358
 236   2.0000      -0.429635       -11.6910
 237   2.0000      -0.427186       -11.6243
 238   2.0000      -0.426856       -11.6153
 239   2.0000      -0.422680       -11.5017
 240   2.0000      -0.420581       -11.4446
 241   2.0000      -0.419877       -11.4254
 242   2.0000      -0.419087       -11.4039
 243   2.0000      -0.417298       -11.3553
 244   2.0000      -0.415181       -11.2976
 245   2.0000      -0.413100       -11.2410
 246   2.0000      -0.412698       -11.2301
 247   2.0000      -0.407378       -11.0853
 248   2.0000      -0.404278       -11.0010
 249   2.0000      -0.401678       -10.9302
 250   2.0000      -0.399568       -10.8728
 251   2.0000      -0.397278       -10.8105
 252   2.0000      -0.394150       -10.7254
 253   2.0000      -0.388670       -10.5762
 254   2.0000      -0.387067       -10.5326
 255   2.0000      -0.380173       -10.3450
 256   2.0000      -0.376923       -10.2566
 257   2.0000      -0.376100       -10.2342
 258   2.0000      -0.373529       -10.1642
 259   2.0000      -0.365835        -9.9549
 260   2.0000      -0.364101        -9.9077
 261   2.0000      -0.353127        -9.6091
 262   2.0000      -0.347373        -9.4525
 263   2.0000      -0.346043        -9.4163
 264   2.0000      -0.343597        -9.3497
 265   2.0000      -0.338478        -9.2105
 266   2.0000      -0.330685        -8.9984
 267   2.0000      -0.326025        -8.8716
 268   2.0000      -0.325266        -8.8509
 269   2.0000      -0.317621        -8.6429
 270   2.0000      -0.313502        -8.5308
 271   2.0000      -0.300664        -8.1815
 272   2.0000      -0.295987        -8.0542
 273   2.0000      -0.290774        -7.9124
 274   2.0000      -0.280617        -7.6360
 275   2.0000      -0.278338        -7.5739
 276   2.0000      -0.265223        -7.2171
 277   2.0000      -0.251812        -6.8522
 278   0.0000      -0.089857        -2.4451
 279   0.0000      -0.074029        -2.0144
 280   0.0000      -0.070556        -1.9199
 281   0.0000      -0.055749        -1.5170
 282   0.0000      -0.040864        -1.1120

MULLIKEN ATOMIC CHARGES
-----------------------
   0 C :   -0.134276
   1 C :    0.129209
   2 O :   -0.147568
   3 C :    0.004991
   4 C :   -0.001489
   5 C :    0.241921
   6 C :   -0.317675
   7 C :   -0.177890
   8 N :    0.153847
   9 C :   -0.150133
  10 N :    0.146070
  11 C :   -0.022930
  12 C :    0.009968
  13 C :    0.076524
  14 C :    0.031471
  15 C :   -0.022190
  16 C :    0.037142
  17 C :    0.038007
  18 C :   -0.017519
  19 C :    0.060120
  20 C :   -0.125738
  21 C :    0.030672
  22 C :   -0.029037
  23 C :   -0.063163
  24 S :    0.163920
  25 C :   -0.075221
  26 C :   -0.032547
  27 S :    0.167500
  28 C :    0.007542
  29 C :   -0.188207
  30 S :    0.166711
  31 C :    0.386784
  32 C :   -0.202633
  33 N :   -0.252849
  34 S :    0.468980
  35 N :   -0.272990
  36 C :   -0.037723
  37 C :    0.291838
  38 C :   -0.160579
  39 C :   -0.084805
  40 N :   -0.278721
  41 S :    0.474747
  42 N :   -0.244257
  43 C :   -0.140031
  44 C :   -0.005916
  45 C :   -0.034347
  46 C :   -0.075120
  47 S :    0.151063
  48 C :   -0.060161
  49 C :   -0.030644
  50 S :    0.162344
  51 C :    0.028611
  52 C :   -0.093184
  53 S :    0.172053
  54 C :    0.045366
  55 C :   -0.136802
  56 C :    0.118029
  57 O :   -0.161018
  58 C :    0.012569
  59 C :    0.016167
  60 C :    0.269546
  61 C :   -0.322110
  62 C :   -0.212938
  63 N :    0.173430
  64 C :   -0.181881
  65 N :    0.150193
  66 C :   -0.019930
  67 C :   -0.002002
  68 C :    0.082296
  69 C :    0.034063
  70 C :   -0.030489
  71 C :    0.037253
  72 C :    0.036507
  73 C :   -0.025119
  74 H :   -0.000100
  75 H :   -0.013142
  76 H :   -0.000240
  77 H :   -0.006745
  78 H :   -0.006559
  79 H :   -0.021001
  80 H :    0.027073
  81 H :   -0.000918
  82 H :   -0.003275
  83 H :    0.042666
  84 H :    0.032697
  85 H :   -0.009741
  86 H :    0.001596
  87 H :    0.027963
  88 H :   -0.004112
  89 H :   -0.019581
  90 H :   -0.003680
  91 H :   -0.011603
  92 H :   -0.010594
  93 H :   -0.026324
Sum of atomic charges:   -0.0000000

LOEWDIN ATOMIC CHARGES
----------------------
   0 C :   -0.095605
   1 C :    0.088511
   2 O :   -0.141044
   3 C :   -0.031532
   4 C :   -0.004514
   5 C :    0.065083
   6 C :   -0.140581
   7 C :   -0.014940
   8 N :   -0.055781
   9 C :   -0.008787
  10 N :   -0.055329
  11 C :   -0.017145
  12 C :    0.019381
  13 C :   -0.008872
  14 C :   -0.002955
  15 C :   -0.001981
  16 C :   -0.012104
  17 C :   -0.012252
  18 C :   -0.012119
  19 C :    0.049662
  20 C :   -0.178194
  21 C :   -0.016381
  22 C :   -0.196941
  23 C :   -0.194423
  24 S :    0.448062
  25 C :   -0.226787
  26 C :   -0.181315
  27 S :    0.418099
  28 C :   -0.067976
  29 C :   -0.157557
  30 S :    0.444239
  31 C :   -0.028930
  32 C :   -0.072367
  33 N :   -0.263045
  34 S :    0.598545
  35 N :   -0.269345
  36 C :   -0.047690
  37 C :   -0.029574
  38 C :   -0.070336
  39 C :   -0.051605
  40 N :   -0.271761
  41 S :    0.604018
  42 N :   -0.255986
  43 C :   -0.155024
  44 C :   -0.065599
  45 C :   -0.183917
  46 C :   -0.224488
  47 S :    0.444107
  48 C :   -0.198016
  49 C :   -0.198359
  50 S :    0.412391
  51 C :   -0.008095
  52 C :   -0.175614
  53 S :    0.472095
  54 C :    0.045779
  55 C :   -0.096337
  56 C :    0.088029
  57 O :   -0.152790
  58 C :   -0.030404
  59 C :    0.006164
  60 C :    0.068818
  61 C :   -0.142544
  62 C :   -0.036165
  63 N :   -0.048893
  64 C :   -0.019166
  65 N :   -0.057653
  66 C :   -0.014623
  67 C :    0.012065
  68 C :   -0.011543
  69 C :   -0.002941
  70 C :   -0.004237
  71 C :   -0.016070
  72 C :   -0.017435
  73 C :   -0.015539
  74 H :    0.039326
  75 H :    0.035587
  76 H :    0.035485
  77 H :    0.032652
  78 H :    0.032082
  79 H :    0.030464
  80 H :    0.051767
  81 H :    0.040789
  82 H :    0.037128
  83 H :    0.066082
  84 H :    0.063945
  85 H :    0.036681
  86 H :    0.041154
  87 H :    0.049264
  88 H :    0.038297
  89 H :    0.032537
  90 H :    0.033951
  91 H :    0.030677
  92 H :    0.030105
  93 H :    0.028182

  Mayer bond orders larger than 0.100000
B(  0-C ,  1-C ) :   0.9512 B(  0-C ,  5-C ) :   1.0313 B(  0-C , 19-C ) :   1.6635
B(  1-C ,  2-O ) :   2.2067 B(  1-C ,  3-C ) :   0.9357 B(  3-C ,  4-C ) :   1.4139
B(  3-C , 14-C ) :   1.2393 B(  4-C ,  5-C ) :   1.0130 B(  4-C , 11-C ) :   1.2589
B(  5-C ,  6-C ) :   1.6411 B(  6-C ,  7-C ) :   1.1741 B(  6-C ,  9-C ) :   1.1530
B(  7-C ,  8-N ) :   2.9185 B(  9-C , 10-N ) :   2.9179 B( 11-C , 12-C ) :   1.4654
B( 11-C , 74-H ) :   0.9885 B( 12-C , 13-C ) :   1.2271 B( 12-C , 75-H ) :   0.9927
B( 13-C , 14-C ) :   1.2387 B( 13-C , 18-C ) :   1.2410 B( 14-C , 15-C ) :   1.2768
B( 15-C , 16-C ) :   1.4758 B( 15-C , 76-H ) :   0.9857 B( 16-C , 17-C ) :   1.2532
B( 16-C , 77-H ) :   0.9882 B( 17-C , 18-C ) :   1.4957 B( 17-C , 78-H ) :   0.9897
B( 18-C , 79-H ) :   0.9967 B( 19-C , 20-C ) :   1.1195 B( 19-C , 80-H ) :   0.9518
B( 20-C , 21-C ) :   1.4673 B( 20-C , 24-S ) :   1.0837 B( 21-C , 22-C ) :   1.2821
B( 21-C , 81-H ) :   1.0037 B( 22-C , 23-C ) :   1.4374 B( 22-C , 27-S ) :   1.0455
B( 23-C , 24-S ) :   1.0901 B( 23-C , 25-C ) :   1.3099 B( 25-C , 26-C ) :   1.4672
B( 25-C , 30-S ) :   1.0684 B( 26-C , 27-S ) :   1.0637 B( 26-C , 28-C ) :   1.2333
B( 28-C , 29-C ) :   1.6071 B( 28-C , 82-H ) :   0.9994 B( 29-C , 30-S ) :   1.1343
B( 29-C , 31-C ) :   1.0128 B( 31-C , 32-C ) :   0.9595 B( 31-C , 39-C ) :   0.9889
B( 31-C , 83-H ) :   0.8281 B( 32-C , 33-N ) :   1.6779 B( 32-C , 36-C ) :   1.2288
B( 33-N , 34-S ) :   1.2168 B( 33-N , 35-N ) :   0.1231 B( 34-S , 35-N ) :   1.2088
B( 35-N , 36-C ) :   1.6750 B( 36-C , 37-C ) :   0.9897 B( 37-C , 38-C ) :   0.9705
B( 37-C , 43-C ) :   1.0401 B( 37-C , 84-H ) :   0.8479 B( 38-C , 39-C ) :   1.2282
B( 38-C , 42-N ) :   1.6915 B( 39-C , 40-N ) :   1.6529 B( 40-N , 41-S ) :   1.2084
B( 40-N , 42-N ) :   0.1235 B( 41-S , 42-N ) :   1.2244 B( 43-C , 44-C ) :   1.6039
B( 43-C , 47-S ) :   1.1273 B( 44-C , 45-C ) :   1.2301 B( 44-C , 85-H ) :   1.0076
B( 45-C , 46-C ) :   1.4728 B( 45-C , 50-S ) :   1.0601 B( 46-C , 47-S ) :   1.0681
B( 46-C , 48-C ) :   1.3070 B( 48-C , 49-C ) :   1.4274 B( 48-C , 53-S ) :   1.1060
B( 49-C , 50-S ) :   1.0382 B( 49-C , 51-C ) :   1.2927 B( 51-C , 52-C ) :   1.4535
B( 51-C , 86-H ) :   1.0048 B( 52-C , 53-S ) :   1.0845 B( 52-C , 54-C ) :   1.1623
B( 54-C , 55-C ) :   1.6441 B( 54-C , 87-H ) :   0.9457 B( 55-C , 56-C ) :   0.9626
B( 55-C , 60-C ) :   1.0280 B( 56-C , 57-O ) :   2.1851 B( 56-C , 58-C ) :   0.9458
B( 58-C , 59-C ) :   1.4203 B( 58-C , 69-C ) :   1.2352 B( 59-C , 60-C ) :   1.0044
B( 59-C , 66-C ) :   1.2644 B( 60-C , 61-C ) :   1.6561 B( 61-C , 62-C ) :   1.1493
B( 61-C , 64-C ) :   1.1342 B( 62-C , 63-N ) :   3.0322 B( 64-C , 65-N ) :   2.9959
B( 66-C , 67-C ) :   1.4655 B( 66-C , 88-H ) :   0.9860 B( 67-C , 68-C ) :   1.2225
B( 67-C , 89-H ) :   0.9934 B( 68-C , 69-C ) :   1.2464 B( 68-C , 73-C ) :   1.2377
B( 69-C , 70-C ) :   1.2732 B( 70-C , 71-C ) :   1.4755 B( 70-C , 90-H ) :   0.9866
B( 71-C , 72-C ) :   1.2559 B( 71-C , 91-H ) :   0.9866 B( 72-C , 73-C ) :   1.4960
B( 72-C , 92-H ) :   0.9883 B( 73-C , 93-H ) :   0.9968

-----------------------------------------------------------------------------
         ABSORPTION SPECTRUM VIA TRANSITION ELECTRIC DIPOLE MOMENTS
-----------------------------------------------------------------------------
State   Energy  Wavelength   fosc         T2         TX        TY        TZ
        (cm-1)    (nm)                  (au**2)     (au)      (au)      (au)
-----------------------------------------------------------------------------
   0   19686.5    508.0   0.018747710   0.31351   0.19886   0.49280   0.17638
   1   20140.8    496.5   0.262175907   4.28541   0.20481   1.52421   1.38573
   2   20840.8    479.8   0.557635049   8.80870  -2.74151   0.31748  -1.09181
   3   25074.3    398.8   0.034318037   0.45058  -0.30152   0.57370   0.17471
   4   25386.1    393.9   0.391025939   5.07091   1.99284   0.01950   1.04840
   5   25988.4    384.8   0.254821452   3.22799   0.50547   0.79705   1.52879
   6   26200.0    381.7   0.017721334   0.22267   0.18537  -0.03701  -0.43237
   7   26371.4    379.2   0.027623999   0.34485   0.53546   0.15261   0.18667
   8   26837.3    372.6   0.039892563   0.48936   0.07090   0.22886   0.65724
   9   26877.5    372.1   0.133505952   1.63526  -0.06310   0.88314   0.92269
  10   27038.1    369.8   0.201109688   2.44868  -1.10104   0.75205  -0.81903
  11   27642.2    361.8   0.128019569   1.52468   0.04970  -0.11835  -1.22809
  12   27793.5    359.8   0.208901363   2.47442  -0.69076   0.19098  -1.40029
  13   29737.5    336.3   0.032156735   0.35599  -0.01137   0.16571  -0.57307
  14   29762.2    336.0   0.097792125   1.08172   0.05820   0.10921   1.03267
  15   29926.4    334.2   0.019787003   0.21767   0.23427  -0.33462  -0.22543
  16   30271.0    330.3   0.036938548   0.40172   0.28705  -0.47396   0.30771
  17   30664.4    326.1   0.013010160   0.13968   0.20783   0.30947   0.02670
  18   30867.3    324.0   0.006012725   0.06413   0.08415   0.00902   0.23868
  19   31121.9    321.3   0.021927542   0.23195   0.02367   0.04289   0.47912
  20   31652.4    315.9   0.411891125   4.28402  -0.13463   0.00970  -2.06538
  21   32038.1    312.1   0.018517911   0.19028   0.10754  -0.34237   0.24799
  22   32267.3    309.9   0.398588141   4.06665  -0.47725  -0.75997  -1.80591
  23   32383.7    308.8   0.138327010   1.40623   0.13531   0.04069   1.17740
  24   32408.2    308.6   0.025501962   0.25906  -0.34819   0.30168  -0.21636
  25   32507.9    307.6   0.069087037   0.69965  -0.59909   0.54030   0.22095
  26   32822.5    304.7   0.322396417   3.23366   0.45754  -0.58811   1.63660
  27   32954.5    303.4   0.007611153   0.07603  -0.21004   0.14635   0.10247
  28   33072.5    302.4   0.013140127   0.13080  -0.16570  -0.14593  -0.28644
  29   33184.5    301.3   0.061459140   0.60971  -0.32051   0.70544   0.09668
  30   33365.3    299.7   0.003364951   0.03320   0.04039   0.12257  -0.12863
  31   34631.4    288.8   0.065259763   0.62037  -0.27752   0.34779   0.64992
  32   34689.7    288.3   0.020436244   0.19394   0.10643   0.14085   0.40346
  33   34848.2    287.0   0.094512247   0.89286  -0.62767   0.59135  -0.38625
  34   34929.3    286.3   0.258345553   2.43493   0.11421   0.14022   1.54991
  35   35241.2    283.8   0.048018991   0.44858   0.31561   0.56003  -0.18799
  36   35277.4    283.5   0.003830826   0.03575   0.07674   0.02882  -0.17038
  37   35634.4    280.6   0.025245527   0.23323   0.12621  -0.38870   0.25733
  38   36138.8    276.7   0.038664866   0.35222   0.05694  -0.56557   0.17063
  39   36683.1    272.6   0.037377880   0.33545   0.38932  -0.34959  -0.24832
  40   36861.2    271.3   0.005728768   0.05116  -0.06951  -0.21222   0.03598
  41   37091.1    269.6   0.132576943   1.17672  -0.53050   0.81961  -0.47278
  42   37171.3    269.0   0.020576943   0.18224  -0.13594  -0.40173  -0.04878
  43   37205.6    268.8   0.008919846   0.07893  -0.23570   0.14944  -0.03224
  44   37419.8    267.2   0.043432200   0.38211   0.43919  -0.01105   0.43485
  45   38303.0    261.1   0.069710731   0.59916   0.38186   0.53688   0.40633
  46   38392.3    260.5   0.107316896   0.92024  -0.34335  -0.72640  -0.52411
  47   38527.2    259.6   0.047549443   0.40631   0.18096   0.59828  -0.12498
  48   38886.2    257.2   0.035396549   0.29967  -0.52097  -0.14702   0.08149
  49   38994.5    256.4   0.177043254   1.49469  -0.70277  -0.79905  -0.60193
  50   39113.3    255.7   0.005176317   0.04357  -0.09435   0.13765   0.12538
  51   39648.0    252.2   0.121524480   1.00906   0.91329  -0.28268   0.30830
  52   39772.7    251.4   0.124181519   1.02789  -0.43999   0.90225  -0.14226
  53   39872.4    250.8   0.182089340   1.50345  -0.34797   0.22274  -1.15445
  54   40009.7    249.9   0.089762630   0.73859  -0.57790   0.09745  -0.62860

FINAL SINGLE POINT ENERGY     -5915.477452300371

DIPOLE MOMENT
-------------
                                X             Y             Z
Electronic contribution:     29.60404       3.28507      48.06776
Nuclear contribution   :    -26.92962      -2.51901     -50.75181
                        -----------------------------------------
Total Dipole Moment    :      2.67442       0.76606      -2.68405
                        -----------------------------------------
Magnitude (a.u.)       :      3.86568
Magnitude (Debye)      :      9.82578

Rotational constants in cm-1:     0.001183     0.000611     0.000519
Rotational constants in MHz :    35.471015    18.325654    15.563701

                             ****ORCA TERMINATED NORMALLY****
TOTAL RUN TIME: 0 days 0 hours 12 minutes 16 seconds 382 msec
