                         Program Version 4.2.0 -  RELEASE  -
|  1> # ORCA input file
|  2> # SCF done       -178.471778952596          0.000418283181
|  3> ! CAM-B3LYP def2-SVP def2/J RIJCOSX Grid4 TightSCF
|  4> %maxcore 5000
|  5> %tddft
|  6>     Mode sTDDFT
|  7>     Ethresh 5.0
|  8>     maxcore 5000
|  9> end
| 10>
| 11> %pal
| 12>   nprocs 6
| 13>   end
| 14> * xyz 0 1
| 15>    C        1.38347        -0.24486         3.41723
| 16>    C        0.96896        -1.67638         3.35932
| 17>    O        1.15691        -2.43260         2.43192
| 18>    C        0.34835        -1.95290         4.66694
| 19>    C        0.26923        -0.76995         5.40271
| 20>    C        0.76646         0.33697         4.58977
| 21>    C        0.46000         1.65847         4.78177
| 22>    C        0.70980         2.67132         3.83283
| 23>    N        0.84162         3.52964         3.08231
| 24>    C       -0.22601         2.16014         5.90698
| 25>    N       -0.75984         2.63328         6.80644
| 26>    C       -0.26075        -0.77091         6.69953
| 27>    C       -0.71027        -1.95360         7.22621
| 28>    C       -0.66176        -3.16454         6.50141
| 29>    C       -0.11525        -3.17780         5.18492
| 30>    C       -0.06489        -4.38965         4.46634
| 31>    C       -0.54114        -5.54180         5.02857
| 32>    C       -1.08309        -5.53403         6.32397
| 33>    C       -1.14178        -4.37324         7.04523
| 34>    C        2.25630         0.23159         2.49082
| 35>    C        3.04619         1.40572         2.53225
| 36>    C        3.48564         2.12583         3.62888
| 37>    C        4.26347         3.21755         3.25764
| 38>    C        4.42257         3.35471         1.86964
| 39>    S        3.64124         2.07697         1.02126
| 40>    C        5.14185         4.48645         1.49253
| 41>    C        5.54637         5.21991         2.59015
| 42>    S        5.04864         4.49921         4.10789
| 43>    C        6.24605         6.46435         2.56811
| 44>    C        6.64405         7.12543         3.72737
| 45>    O        6.38900         6.50435         4.92592
| 46>    C        7.53363         6.13322         5.68170
| 47>    C        7.23659         8.41763         3.71478
| 48>    O        7.54168         9.04572         4.89512
| 49>    C        6.45170         9.34229         5.75903
| 50>    C        7.56318         9.08556         2.53635
| 51>    C        7.23935         8.39860         1.33514
| 52>    C        6.56867         7.12191         1.35060
| 53>    N        6.38284         6.76635         0.09555
| 54>    O        6.89412         7.74066        -0.65051
| 55>    N        7.41087         8.73049         0.07148
| 56>    C        8.12848        10.39686         2.52204
| 57>    C        8.40240        11.15952         1.40300
| 58>    C        8.88551        12.41871         1.74857
| 59>    C        8.99257        12.63152         3.13107
| 60>    S        8.49410        11.23421         4.01584
| 61>    C        9.42277        13.91104         3.46971
| 62>    C        9.68687        14.68670         2.35574
| 63>    S        9.35692        13.81788         0.85967
| 64>    C       10.03554        16.05962         2.37987
| 65>    C       10.51424        16.84644         1.38274
| 66>    C       10.33364        18.32498         1.45277
| 67>    O       10.04787        18.96249         2.44227
| 68>    C       10.51478        18.79486         0.06708
| 69>    C       10.93159        17.73174        -0.73584
| 70>    C       11.10112        16.54454         0.09470
| 71>    C       11.91333        15.47755        -0.18105
| 72>    C       12.27111        14.52454         0.79663
| 73>    N       12.62304        13.77194         1.58835
| 74>    C       12.56388        15.27749        -1.41486
| 75>    N       13.10332        15.06796        -2.40606
| 76>    C       11.14853        17.91227        -2.10742
| 77>    C       10.94473        19.15584        -2.64641
| 78>    C       10.53345        20.25572        -1.86151
| 79>    C       10.30871        20.08301        -0.46444
| 80>    C        9.89545        21.18363         0.31345
| 81>    C        9.71257        22.40725        -0.26944
| 82>    C        9.93257        22.58334        -1.64499
| 83>    C       10.33390        21.53296        -2.42391
| 84>    H       -0.30592         0.13698         7.27877
| 85>    H       -1.11884        -1.97245         8.22628
| 86>    H        0.35315        -4.38326         3.47214
| 87>    H       -0.50369        -6.46945         4.47734
| 88>    H       -1.45425        -6.45542         6.74778
| 89>    H       -1.55880        -4.36453         8.04193
| 90>    H        2.40099        -0.40900         1.62593
| 91>    H        3.27672         1.84806         4.64612
| 92>    H        5.35664         4.78261         0.48334
| 93>    H        7.14852         5.69161         6.59816
| 94>    H        8.16133         6.99494         5.91718
| 95>    H        8.12602         5.39086         5.13885
| 96>    H        6.89607         9.81053         6.63449
| 97>    H        5.90463         8.44495         6.05144
| 98>    H        5.76488        10.04448         5.27828
| 99>    H        8.24716        10.80242         0.40267
|100>    H        9.55986        14.26573         4.47473
|101>    H        9.79017        16.58026         3.30114
|102>    H       11.45565        17.08708        -2.72951
|103>    H       11.09987        19.31292        -3.70409
|104>    H        9.72898        21.03629         1.36885
|105>    H        9.39599        23.24986         0.32698
|106>    H        9.78123        23.55819        -2.08450
|107>    H       10.50465        21.66629        -3.48243
|108> *
|109>
|110>                          ****END OF INPUT****

CARTESIAN COORDINATES (ANGSTROEM)
---------------------------------
  C      1.383470   -0.244860    3.417230
  C      0.968960   -1.676380    3.359320
  O      1.156910   -2.432600    2.431920
  C      0.348350   -1.952900    4.666940
  C      0.269230   -0.769950    5.402710
  C      0.766460    0.336970    4.589770
  C      0.460000    1.658470    4.781770
  C      0.709800    2.671320    3.832830
  N      0.841620    3.529640    3.082310
  C     -0.226010    2.160140    5.906980
  N     -0.759840    2.633280    6.806440
  C     -0.260750   -0.770910    6.699530
  C     -0.710270   -1.953600    7.226210
  C     -0.661760   -3.164540    6.501410
  C     -0.115250   -3.177800    5.184920
  C     -0.064890   -4.389650    4.466340
  C     -0.541140   -5.541800    5.028570
  C     -1.083090   -5.534030    6.323970
  C     -1.141780   -4.373240    7.045230
  C      2.256300    0.231590    2.490820
  C      3.046190    1.405720    2.532250
  C      3.485640    2.125830    3.628880
  C      4.263470    3.217550    3.257640
  C      4.422570    3.354710    1.869640
  S      3.641240    2.076970    1.021260
  C      5.141850    4.486450    1.492530
  C      5.546370    5.219910    2.590150
  S      5.048640    4.499210    4.107890
  C      6.246050    6.464350    2.568110
  C      6.644050    7.125430    3.727370
  O      6.389000    6.504350    4.925920
  C      7.533630    6.133220    5.681700
  C      7.236590    8.417630    3.714780
  O      7.541680    9.045720    4.895120
  C      6.451700    9.342290    5.759030
  C      7.563180    9.085560    2.536350
  C      7.239350    8.398600    1.335140
  C      6.568670    7.121910    1.350600
  N      6.382840    6.766350    0.095550
  O      6.894120    7.740660   -0.650510
  N      7.410870    8.730490    0.071480
  C      8.128480   10.396860    2.522040
  C      8.402400   11.159520    1.403000
  C      8.885510   12.418710    1.748570
  C      8.992570   12.631520    3.131070
  S      8.494100   11.234210    4.015840
  C      9.422770   13.911040    3.469710
  C      9.686870   14.686700    2.355740
  S      9.356920   13.817880    0.859670
  C     10.035540   16.059620    2.379870
  C     10.514240   16.846440    1.382740
  C     10.333640   18.324980    1.452770
  O     10.047870   18.962490    2.442270
  C     10.514780   18.794860    0.067080
  C     10.931590   17.731740   -0.735840
  C     11.101120   16.544540    0.094700
  C     11.913330   15.477550   -0.181050
  C     12.271110   14.524540    0.796630
  N     12.623040   13.771940    1.588350
  C     12.563880   15.277490   -1.414860
  N     13.103320   15.067960   -2.406060
  C     11.148530   17.912270   -2.107420
  C     10.944730   19.155840   -2.646410
  C     10.533450   20.255720   -1.861510
  C     10.308710   20.083010   -0.464440
  C      9.895450   21.183630    0.313450
  C      9.712570   22.407250   -0.269440
  C      9.932570   22.583340   -1.644990
  C     10.333900   21.532960   -2.423910
  H     -0.305920    0.136980    7.278770
  H     -1.118840   -1.972450    8.226280
  H      0.353150   -4.383260    3.472140
  H     -0.503690   -6.469450    4.477340
  H     -1.454250   -6.455420    6.747780
  H     -1.558800   -4.364530    8.041930
  H      2.400990   -0.409000    1.625930
  H      3.276720    1.848060    4.646120
  H      5.356640    4.782610    0.483340
  H      7.148520    5.691610    6.598160
  H      8.161330    6.994940    5.917180
  H      8.126020    5.390860    5.138850
  H      6.896070    9.810530    6.634490
  H      5.904630    8.444950    6.051440
  H      5.764880   10.044480    5.278280
  H      8.247160   10.802420    0.402670
  H      9.559860   14.265730    4.474730
  H      9.790170   16.580260    3.301140
  H     11.455650   17.087080   -2.729510
  H     11.099870   19.312920   -3.704090
  H      9.728980   21.036290    1.368850
  H      9.395990   23.249860    0.326980
  H      9.781230   23.558190   -2.084500
  H     10.504650   21.666290   -3.482430

 Total Charge           Charge          ....    0
 Multiplicity           Mult            ....    1
 Number of Electrons    NEL             ....  494
 Basis Dimension        Dim             .... 1102

ORBITAL ENERGIES
----------------

  NO   OCC          E(Eh)            E(eV)
   0   2.0000     -88.964052     -2420.8349
   1   2.0000     -88.963384     -2420.8168
   2   2.0000     -88.962646     -2420.7967
   3   2.0000     -88.962498     -2420.7926
   4   2.0000     -19.362672      -526.8851
   5   2.0000     -19.272478      -524.4308
   6   2.0000     -19.271707      -524.4098
   7   2.0000     -19.216637      -522.9113
   8   2.0000     -19.213660      -522.8303
   9   2.0000     -14.489459      -394.2782
  10   2.0000     -14.489167      -394.2703
  11   2.0000     -14.415298      -392.2602
  12   2.0000     -14.412764      -392.1912
  13   2.0000     -14.411311      -392.1517
  14   2.0000     -14.407094      -392.0370
  15   2.0000     -10.368347      -282.1371
  16   2.0000     -10.367476      -282.1134
  17   2.0000     -10.367193      -282.1057
  18   2.0000     -10.364830      -282.0414
  19   2.0000     -10.343773      -281.4684
  20   2.0000     -10.341643      -281.4104
  21   2.0000     -10.340354      -281.3753
  22   2.0000     -10.338550      -281.3263
  23   2.0000     -10.338295      -281.3193
  24   2.0000     -10.337418      -281.2954
  25   2.0000     -10.336648      -281.2745
  26   2.0000     -10.335569      -281.2451
  27   2.0000     -10.322614      -280.8926
  28   2.0000     -10.321848      -280.8718
  29   2.0000     -10.321253      -280.8556
  30   2.0000     -10.320680      -280.8400
  31   2.0000     -10.318165      -280.7715
  32   2.0000     -10.318087      -280.7694
  33   2.0000     -10.315482      -280.6985
  34   2.0000     -10.315137      -280.6892
  35   2.0000     -10.314784      -280.6795
  36   2.0000     -10.314143      -280.6621
  37   2.0000     -10.313693      -280.6499
  38   2.0000     -10.309197      -280.5275
  39   2.0000     -10.309006      -280.5223
  40   2.0000     -10.308010      -280.4952
  41   2.0000     -10.307875      -280.4915
  42   2.0000     -10.305574      -280.4289
  43   2.0000     -10.301293      -280.3124
  44   2.0000     -10.300909      -280.3020
  45   2.0000     -10.298725      -280.2426
  46   2.0000     -10.298440      -280.2348
  47   2.0000     -10.296445      -280.1805
  48   2.0000     -10.295878      -280.1651
  49   2.0000     -10.295596      -280.1574
  50   2.0000     -10.295045      -280.1424
  51   2.0000     -10.294845      -280.1370
  52   2.0000     -10.293345      -280.0961
  53   2.0000     -10.292482      -280.0727
  54   2.0000     -10.291936      -280.0578
  55   2.0000     -10.291882      -280.0563
  56   2.0000     -10.291652      -280.0501
  57   2.0000     -10.291385      -280.0428
  58   2.0000     -10.288112      -279.9538
  59   2.0000     -10.286686      -279.9150
  60   2.0000     -10.286297      -279.9044
  61   2.0000     -10.283789      -279.8361
  62   2.0000     -10.283276      -279.8222
  63   2.0000     -10.281259      -279.7673
  64   2.0000     -10.280908      -279.7577
  65   2.0000     -10.280369      -279.7431
  66   2.0000     -10.278482      -279.6917
  67   2.0000     -10.277193      -279.6566
  68   2.0000     -10.274461      -279.5823
  69   2.0000      -8.059468      -219.3093
  70   2.0000      -8.057595      -219.2583
  71   2.0000      -8.057330      -219.2511
  72   2.0000      -8.056490      -219.2282
  73   2.0000      -6.028891      -164.0545
  74   2.0000      -6.027146      -164.0070
  75   2.0000      -6.027004      -164.0031
  76   2.0000      -6.026152      -163.9799
  77   2.0000      -6.024964      -163.9476
  78   2.0000      -6.023133      -163.8978
  79   2.0000      -6.022642      -163.8844
  80   2.0000      -6.021824      -163.8622
  81   2.0000      -6.021089      -163.8422
  82   2.0000      -6.019064      -163.7871
  83   2.0000      -6.018980      -163.7848
  84   2.0000      -6.018114      -163.7612
  85   2.0000      -1.317939       -35.8629
  86   2.0000      -1.187239       -32.3064
  87   2.0000      -1.161889       -31.6166
  88   2.0000      -1.131659       -30.7940
  89   2.0000      -1.128576       -30.7101
  90   2.0000      -1.024095       -27.8670
  91   2.0000      -1.020721       -27.7752
  92   2.0000      -1.018344       -27.7105
  93   2.0000      -1.015209       -27.6252
  94   2.0000      -1.010863       -27.5070
  95   2.0000      -1.005398       -27.3583
  96   2.0000      -0.998515       -27.1710
  97   2.0000      -0.994492       -27.0615
  98   2.0000      -0.992022       -26.9943
  99   2.0000      -0.987404       -26.8686
 100   2.0000      -0.969286       -26.3756
 101   2.0000      -0.966552       -26.3012
 102   2.0000      -0.958127       -26.0720
 103   2.0000      -0.953025       -25.9331
 104   2.0000      -0.925801       -25.1923
 105   2.0000      -0.921604       -25.0781
 106   2.0000      -0.918309       -24.9885
 107   2.0000      -0.905600       -24.6426
 108   2.0000      -0.900886       -24.5144
 109   2.0000      -0.896723       -24.4011
 110   2.0000      -0.884014       -24.0552
 111   2.0000      -0.878634       -23.9089
 112   2.0000      -0.865705       -23.5570
 113   2.0000      -0.864393       -23.5213
 114   2.0000      -0.856602       -23.3093
 115   2.0000      -0.852703       -23.2032
 116   2.0000      -0.840680       -22.8761
 117   2.0000      -0.836822       -22.7711
 118   2.0000      -0.826018       -22.4771
 119   2.0000      -0.820272       -22.3207
 120   2.0000      -0.811372       -22.0785
 121   2.0000      -0.805612       -21.9218
 122   2.0000      -0.805139       -21.9090
 123   2.0000      -0.795275       -21.6405
 124   2.0000      -0.781537       -21.2667
 125   2.0000      -0.772174       -21.0119
 126   2.0000      -0.767313       -20.8796
 127   2.0000      -0.756347       -20.5812
 128   2.0000      -0.742615       -20.2076
 129   2.0000      -0.742102       -20.1936
 130   2.0000      -0.722644       -19.6641
 131   2.0000      -0.713535       -19.4163
 132   2.0000      -0.710680       -19.3386
 133   2.0000      -0.709673       -19.3112
 134   2.0000      -0.704629       -19.1739
 135   2.0000      -0.697870       -18.9900
 136   2.0000      -0.682434       -18.5700
 137   2.0000      -0.675982       -18.3944
 138   2.0000      -0.672352       -18.2956
 139   2.0000      -0.667172       -18.1547
 140   2.0000      -0.665195       -18.1009
 141   2.0000      -0.656174       -17.8554
 142   2.0000      -0.653125       -17.7724
 143   2.0000      -0.646067       -17.5804
 144   2.0000      -0.644530       -17.5385
 145   2.0000      -0.635229       -17.2855
 146   2.0000      -0.628869       -17.1124
 147   2.0000      -0.625635       -17.0244
 148   2.0000      -0.619768       -16.8648
 149   2.0000      -0.618070       -16.8185
 150   2.0000      -0.616437       -16.7741
 151   2.0000      -0.604612       -16.4523
 152   2.0000      -0.603387       -16.4190
 153   2.0000      -0.594385       -16.1740
 154   2.0000      -0.589646       -16.0451
 155   2.0000      -0.587972       -15.9995
 156   2.0000      -0.586549       -15.9608
 157   2.0000      -0.585135       -15.9223
 158   2.0000      -0.579165       -15.7599
 159   2.0000      -0.578897       -15.7526
 160   2.0000      -0.572512       -15.5788
 161   2.0000      -0.570766       -15.5313
 162   2.0000      -0.569109       -15.4863
 163   2.0000      -0.564354       -15.3568
 164   2.0000      -0.558997       -15.2111
 165   2.0000      -0.555834       -15.1250
 166   2.0000      -0.547374       -14.8948
 167   2.0000      -0.538292       -14.6477
 168   2.0000      -0.536676       -14.6037
 169   2.0000      -0.533566       -14.5191
 170   2.0000      -0.531988       -14.4761
 171   2.0000      -0.531015       -14.4497
 172   2.0000      -0.526349       -14.3227
 173   2.0000      -0.525214       -14.2918
 174   2.0000      -0.521457       -14.1896
 175   2.0000      -0.518897       -14.1199
 176   2.0000      -0.515916       -14.0388
 177   2.0000      -0.513187       -13.9645
 178   2.0000      -0.513110       -13.9624
 179   2.0000      -0.511178       -13.9099
 180   2.0000      -0.507287       -13.8040
 181   2.0000      -0.505599       -13.7581
 182   2.0000      -0.502694       -13.6790
 183   2.0000      -0.498955       -13.5773
 184   2.0000      -0.495885       -13.4937
 185   2.0000      -0.495537       -13.4842
 186   2.0000      -0.494541       -13.4571
 187   2.0000      -0.488473       -13.2920
 188   2.0000      -0.488338       -13.2883
 189   2.0000      -0.484989       -13.1972
 190   2.0000      -0.480444       -13.0735
 191   2.0000      -0.478726       -13.0268
 192   2.0000      -0.476144       -12.9565
 193   2.0000      -0.474352       -12.9078
 194   2.0000      -0.470258       -12.7964
 195   2.0000      -0.469006       -12.7623
 196   2.0000      -0.466818       -12.7028
 197   2.0000      -0.463353       -12.6085
 198   2.0000      -0.459148       -12.4940
 199   2.0000      -0.454204       -12.3595
 200   2.0000      -0.449920       -12.2429
 201   2.0000      -0.449370       -12.2280
 202   2.0000      -0.446357       -12.1460
 203   2.0000      -0.442667       -12.0456
 204   2.0000      -0.441745       -12.0205
 205   2.0000      -0.439380       -11.9561
 206   2.0000      -0.438816       -11.9408
 207   2.0000      -0.437354       -11.9010
 208   2.0000      -0.434713       -11.8291
 209   2.0000      -0.434530       -11.8242
 210   2.0000      -0.432601       -11.7717
 211   2.0000      -0.429844       -11.6966
 212   2.0000      -0.429612       -11.6903
 213   2.0000      -0.427320       -11.6280
 214   2.0000      -0.427071       -11.6212
 215   2.0000      -0.425579       -11.5806
 216   2.0000      -0.424248       -11.5444
 217   2.0000      -0.421827       -11.4785
 218   2.0000      -0.417977       -11.3737
 219   2.0000      -0.416676       -11.3383
 220   2.0000      -0.413914       -11.2632
 221   2.0000      -0.409556       -11.1446
 222   2.0000      -0.404740       -11.0135
 223   2.0000      -0.402111       -10.9420
 224   2.0000      -0.399494       -10.8708
 225   2.0000      -0.393384       -10.7045
 226   2.0000      -0.392780       -10.6881
 227   2.0000      -0.387673       -10.5491
 228   2.0000      -0.374255       -10.1840
 229   2.0000      -0.371829       -10.1180
 230   2.0000      -0.367775       -10.0077
 231   2.0000      -0.365077        -9.9342
 232   2.0000      -0.363549        -9.8927
 233   2.0000      -0.356861        -9.7107
 234   2.0000      -0.354702        -9.6519
 235   2.0000      -0.342958        -9.3324
 236   2.0000      -0.334965        -9.1149
 237   2.0000      -0.331518        -9.0211
 238   2.0000      -0.322529        -8.7765
 239   2.0000      -0.315332        -8.5806
 240   2.0000      -0.308368        -8.3911
 241   2.0000      -0.298369        -8.1190
 242   2.0000      -0.297652        -8.0995
 243   2.0000      -0.293801        -7.9947
 244   2.0000      -0.290419        -7.9027
 245   2.0000      -0.275637        -7.5005
 246   2.0000      -0.247200        -6.7267
 247   0.0000      -0.099783        -2.7152
 248   0.0000      -0.083468        -2.2713
 249   0.0000      -0.074497        -2.0272
 250   0.0000      -0.065790        -1.7902
 251   0.0000      -0.057548        -1.5660

MULLIKEN ATOMIC CHARGES
-----------------------
   0 C :   -0.120891
   1 C :    0.114957
   2 O :   -0.150789
   3 C :    0.013693
   4 C :   -0.012822
   5 C :    0.261992
   6 C :   -0.340528
   7 C :   -0.204688
   8 N :    0.180133
   9 C :   -0.179362
  10 N :    0.157314
  11 C :   -0.025698
  12 C :    0.009857
  13 C :    0.075846
  14 C :    0.034003
  15 C :   -0.023416
  16 C :    0.035710
  17 C :    0.039319
  18 C :   -0.018406
  19 C :    0.083872
  20 C :   -0.128882
  21 C :    0.008914
  22 C :   -0.010282
  23 C :    0.015393
  24 S :    0.165810
  25 C :   -0.049712
  26 C :   -0.163247
  27 S :    0.153414
  28 C :    0.182973
  29 C :    0.029320
  30 O :   -0.358652
  31 C :    0.184172
  32 C :    0.046935
  33 O :   -0.355311
  34 C :    0.180330
  35 C :    0.177489
  36 C :   -0.060249
  37 C :   -0.061936
  38 N :    0.038676
  39 O :   -0.085627
  40 N :    0.038115
  41 C :   -0.160974
  42 C :   -0.052088
  43 C :    0.008056
  44 C :    0.019998
  45 S :    0.148903
  46 C :   -0.006751
  47 C :   -0.087286
  48 S :    0.155750
  49 C :    0.043021
  50 C :   -0.125187
  51 C :    0.123873
  52 O :   -0.153564
  53 C :    0.008162
  54 C :   -0.005832
  55 C :    0.239750
  56 C :   -0.313172
  57 C :   -0.204799
  58 N :    0.173474
  59 C :   -0.176449
  60 N :    0.156013
  61 C :   -0.019198
  62 C :    0.003642
  63 C :    0.079854
  64 C :    0.036587
  65 C :   -0.027499
  66 C :    0.037404
  67 C :    0.039015
  68 C :   -0.021383
  69 H :    0.000395
  70 H :   -0.014229
  71 H :    0.000037
  72 H :   -0.006447
  73 H :   -0.007244
  74 H :   -0.022118
  75 H :    0.024296
  76 H :   -0.001205
  77 H :    0.007999
  78 H :    0.044342
  79 H :    0.046784
  80 H :    0.029295
  81 H :    0.043020
  82 H :    0.050729
  83 H :    0.029550
  84 H :    0.008917
  85 H :   -0.004605
  86 H :    0.022149
  87 H :    0.001510
  88 H :   -0.012938
  89 H :   -0.000128
  90 H :   -0.007775
  91 H :   -0.008120
  92 H :   -0.021273
Sum of atomic charges:    0.0000000

LOEWDIN ATOMIC CHARGES
----------------------
   0 C :   -0.090896
   1 C :    0.086623
   2 O :   -0.142823
   3 C :   -0.033094
   4 C :   -0.005175
   5 C :    0.066043
   6 C :   -0.137694
   7 C :   -0.020008
   8 N :   -0.038355
   9 C :   -0.021551
  10 N :   -0.052065
  11 C :   -0.018762
  12 C :    0.018359
  13 C :   -0.009750
  14 C :   -0.003097
  15 C :   -0.001760
  16 C :   -0.012521
  17 C :   -0.012561
  18 C :   -0.012699
  19 C :    0.045627
  20 C :   -0.176496
  21 C :   -0.031180
  22 C :   -0.201785
  23 C :   -0.183060
  24 S :    0.444792
  25 C :   -0.053889
  26 C :   -0.152319
  27 S :    0.446993
  28 C :   -0.053733
  29 C :    0.033437
  30 O :   -0.122361
  31 C :    0.080514
  32 C :    0.036642
  33 O :   -0.120671
  34 C :    0.078573
  35 C :   -0.056822
  36 C :   -0.041993
  37 C :   -0.042555
  38 N :   -0.019514
  39 O :    0.078950
  40 N :   -0.019875
  41 C :   -0.150589
  42 C :   -0.056267
  43 C :   -0.180094
  44 C :   -0.207957
  45 S :    0.449430
  46 C :   -0.023734
  47 C :   -0.170839
  48 S :    0.448839
  49 C :    0.045520
  50 C :   -0.094422
  51 C :    0.087937
  52 O :   -0.145354
  53 C :   -0.033679
  54 C :   -0.003002
  55 C :    0.060387
  56 C :   -0.136417
  57 C :   -0.035359
  58 N :   -0.045435
  59 C :   -0.020374
  60 N :   -0.049327
  61 C :   -0.017130
  62 C :    0.018359
  63 C :   -0.009890
  64 C :   -0.002890
  65 C :   -0.002742
  66 C :   -0.013084
  67 C :   -0.013734
  68 C :   -0.012626
  69 H :    0.039177
  70 H :    0.035307
  71 H :    0.035599
  72 H :    0.032649
  73 H :    0.031788
  74 H :    0.030144
  75 H :    0.046294
  76 H :    0.035014
  77 H :    0.035969
  78 H :    0.029738
  79 H :    0.019188
  80 H :    0.019864
  81 H :    0.029276
  82 H :    0.019107
  83 H :    0.018986
  84 H :    0.036121
  85 H :    0.038128
  86 H :    0.050586
  87 H :    0.039726
  88 H :    0.035340
  89 H :    0.035218
  90 H :    0.032185
  91 H :    0.031452
  92 H :    0.030132

  Mayer bond orders larger than 0.100000
B(  0-C ,  1-C ) :   0.9585 B(  0-C ,  5-C ) :   1.0288 B(  0-C , 19-C ) :   1.6877
B(  1-C ,  2-O ) :   2.1941 B(  1-C ,  3-C ) :   0.9388 B(  3-C ,  4-C ) :   1.4192
B(  3-C , 14-C ) :   1.2345 B(  4-C ,  5-C ) :   1.0013 B(  4-C , 11-C ) :   1.2581
B(  5-C ,  6-C ) :   1.6480 B(  6-C ,  7-C ) :   1.1640 B(  6-C ,  9-C ) :   1.1278
B(  7-C ,  8-N ) :   3.0134 B(  9-C , 10-N ) :   2.9948 B( 11-C , 12-C ) :   1.4679
B( 11-C , 69-H ) :   0.9865 B( 12-C , 13-C ) :   1.2260 B( 12-C , 70-H ) :   0.9928
B( 13-C , 14-C ) :   1.2407 B( 13-C , 18-C ) :   1.2394 B( 14-C , 15-C ) :   1.2766
B( 15-C , 16-C ) :   1.4751 B( 15-C , 71-H ) :   0.9858 B( 16-C , 17-C ) :   1.2549
B( 16-C , 72-H ) :   0.9877 B( 17-C , 18-C ) :   1.4966 B( 17-C , 73-H ) :   0.9890
B( 18-C , 74-H ) :   0.9968 B( 19-C , 20-C ) :   1.1179 B( 19-C , 75-H ) :   0.9283
B( 20-C , 21-C ) :   1.4641 B( 20-C , 24-S ) :   1.0898 B( 21-C , 22-C ) :   1.3094
B( 21-C , 76-H ) :   0.9935 B( 22-C , 23-C ) :   1.3975 B( 22-C , 27-S ) :   1.0281
B( 23-C , 24-S ) :   1.0869 B( 23-C , 25-C ) :   1.2318 B( 25-C , 26-C ) :   1.5172
B( 25-C , 77-H ) :   0.9870 B( 26-C , 27-S ) :   1.0913 B( 26-C , 28-C ) :   1.1532
B( 28-C , 29-C ) :   1.4480 B( 28-C , 35-C ) :   0.1144 B( 28-C , 37-C ) :   1.1146
B( 29-C , 30-O ) :   1.1150 B( 29-C , 32-C ) :   1.1487 B( 30-O , 31-C ) :   0.8957
B( 31-C , 78-H ) :   0.9824 B( 31-C , 79-H ) :   0.9695 B( 31-C , 80-H ) :   0.9679
B( 32-C , 33-O ) :   1.1283 B( 32-C , 35-C ) :   1.4430 B( 33-O , 34-C ) :   0.8924
B( 34-C , 81-H ) :   0.9823 B( 34-C , 82-H ) :   0.9683 B( 34-C , 83-H ) :   0.9678
B( 35-C , 36-C ) :   1.1152 B( 35-C , 41-C ) :   1.1547 B( 36-C , 37-C ) :   1.1318
B( 36-C , 40-N ) :   1.6067 B( 37-C , 38-N ) :   1.6072 B( 38-N , 39-O ) :   1.0614
B( 38-N , 40-N ) :   0.1764 B( 39-O , 40-N ) :   1.0609 B( 41-C , 42-C ) :   1.5092
B( 41-C , 45-S ) :   1.0958 B( 42-C , 43-C ) :   1.2420 B( 42-C , 84-H ) :   0.9878
B( 43-C , 44-C ) :   1.3871 B( 43-C , 48-S ) :   1.0882 B( 44-C , 45-S ) :   1.0267
B( 44-C , 46-C ) :   1.2653 B( 46-C , 47-C ) :   1.4544 B( 46-C , 85-H ) :   1.0086
B( 47-C , 48-S ) :   1.0868 B( 47-C , 49-C ) :   1.1434 B( 49-C , 50-C ) :   1.6576
B( 49-C , 86-H ) :   0.9455 B( 50-C , 51-C ) :   0.9575 B( 50-C , 55-C ) :   1.0237
B( 51-C , 52-O ) :   2.1923 B( 51-C , 53-C ) :   0.9396 B( 53-C , 54-C ) :   1.4173
B( 53-C , 64-C ) :   1.2388 B( 54-C , 55-C ) :   1.0024 B( 54-C , 61-C ) :   1.2641
B( 55-C , 56-C ) :   1.6649 B( 56-C , 57-C ) :   1.1454 B( 56-C , 59-C ) :   1.1326
B( 57-C , 58-N ) :   3.0323 B( 59-C , 60-N ) :   2.9980 B( 61-C , 62-C ) :   1.4668
B( 61-C , 87-H ) :   0.9864 B( 62-C , 63-C ) :   1.2250 B( 62-C , 88-H ) :   0.9938
B( 63-C , 64-C ) :   1.2430 B( 63-C , 68-C ) :   1.2392 B( 64-C , 65-C ) :   1.2748
B( 65-C , 66-C ) :   1.4764 B( 65-C , 89-H ) :   0.9863 B( 66-C , 67-C ) :   1.2551
B( 66-C , 90-H ) :   0.9867 B( 67-C , 68-C ) :   1.4976 B( 67-C , 91-H ) :   0.9885
B( 68-C , 92-H ) :   0.9972

-----------------------------------------------------------------------------
         ABSORPTION SPECTRUM VIA TRANSITION ELECTRIC DIPOLE MOMENTS
-----------------------------------------------------------------------------
State   Energy  Wavelength   fosc         T2         TX        TY        TZ
        (cm-1)    (nm)                  (au**2)     (au)      (au)      (au)
-----------------------------------------------------------------------------
   0   16848.0    593.5   2.159937607  42.20546  -3.33556  -5.43659   1.23411
   1   20537.9    486.9   0.076748075   1.23023   0.21855  -1.07350   0.17338
   2   22528.2    443.9   0.081696239   1.19385   0.08755   0.93014   0.56659
   3   24820.6    402.9   0.027031273   0.35853   0.45980  -0.17846   0.33951
   4   25564.3    391.2   0.019884970   0.25607   0.45721   0.00001  -0.21687
   5   26092.3    383.3   0.187705192   2.36832   0.95231   1.05406  -0.59194
   6   26692.2    374.6   0.075740095   0.93415   0.12690   0.52896  -0.79890
   7   26874.2    372.1   0.045463810   0.55694   0.19434   0.13121  -0.70848
   8   27467.0    364.1   0.300189592   3.59799   0.26475  -1.83728   0.39028
   9   27606.2    362.2   0.168471294   2.00907  -0.45759  -1.30918   0.29279
  10   29614.2    337.7   0.015270463   0.16976  -0.36889   0.12738   0.13212
  11   30066.6    332.6   0.007637602   0.08363   0.12691  -0.21217  -0.15001
  12   30382.3    329.1   0.075388430   0.81688  -0.06038  -0.84774   0.30753
  13   30455.3    328.4   0.079338763   0.85763   0.36633  -0.64923  -0.54948
  14   30619.9    326.6   0.029265118   0.31465   0.27705  -0.48467  -0.05464
  15   30860.4    324.0   0.030604218   0.32648  -0.08280  -0.37811  -0.42030
  16   31127.9    321.3   0.172915877   1.82878   0.60123  -0.37088  -1.15315
  17   31798.3    314.5   0.289282489   2.99498   0.37484  -1.51488  -0.74807
  18   32033.9    312.2   0.056853073   0.58428  -0.34466   0.67009   0.12835
  19   32362.2    309.0   0.035325337   0.35936  -0.34087  -0.46511   0.16381
  20   32669.0    306.1   0.301886231   3.04217   0.00321  -1.54611   0.80728
  21   32791.1    305.0   0.058132053   0.58363   0.48674   0.55082  -0.20811
  22   33674.4    297.0   0.593177814   5.79909  -0.07270  -2.32771   0.61284
  23   34427.3    290.5   0.165805788   1.58552   0.44508  -1.13756  -0.30557
  24   34545.6    289.5   0.047917420   0.45664  -0.41196  -0.49796   0.19740
  25   34751.2    287.8   0.051468386   0.48758   0.18148  -0.64997   0.17940
  26   35048.8    285.3   0.031350660   0.29448  -0.22227   0.36207  -0.33760
  27   35303.1    283.3   0.059146632   0.55156   0.30580   0.58023   0.34840
  28   35585.3    281.0   0.035494676   0.32837   0.15078  -0.46525   0.29864
  29   35951.6    278.2   0.255879853   2.34312  -0.19136   1.47801  -0.34926
  30   36381.8    274.9   0.240761574   2.17861  -0.60804  -1.21199   0.58306
  31   36773.2    271.9   0.026193655   0.23450  -0.14192   0.15179   0.43740
  32   36953.3    270.6   0.139693445   1.24451   0.55616   0.73869   0.62412
  33   38043.6    262.9   0.008438230   0.07302  -0.16792   0.19618  -0.07962
  34   38389.7    260.5   0.063731389   0.54653   0.04087   0.42054   0.60664
  35   38624.0    258.9   0.004371493   0.03726  -0.03910   0.11300  -0.15153
  36   38937.2    256.8   0.015052626   0.12727  -0.17685   0.29453  -0.09615
  37   39302.6    254.4   0.025036981   0.20972   0.18335   0.10134  -0.40722
  38   39753.7    251.5   0.006008324   0.04976  -0.03836  -0.10984  -0.19031
  39   39787.0    251.3   0.062918500   0.52061  -0.37056   0.38553   0.48441
  40   40320.5    248.0   0.034948681   0.28535   0.08012  -0.42142   0.31833

FINAL SINGLE POINT ENERGY     -4365.446531906006

DIPOLE MOMENT
-------------
                                X             Y             Z
Electronic contribution:      7.48849      -0.79577     -15.75698
Nuclear contribution   :     -8.28628       0.07542      17.83300
                        -----------------------------------------
Total Dipole Moment    :     -0.79779      -0.72035       2.07601
                        -----------------------------------------
Magnitude (a.u.)       :      2.33778
Magnitude (Debye)      :      5.94216

Rotational constants in cm-1:     0.003632     0.000215     0.000212
Rotational constants in MHz :   108.891072     6.450554     6.367272

                             ****ORCA TERMINATED NORMALLY****
TOTAL RUN TIME: 0 days 0 hours 9 minutes 13 seconds 415 msec
