                         Program Version 4.2.0 -  RELEASE  -
|  1> # ORCA input file
|  2> # SCF done       -177.655588571928          0.000653949441
|  3> ! CAM-B3LYP def2-SVP def2/J RIJCOSX Grid4 TightSCF
|  4> %maxcore 5000
|  5> %tddft
|  6>     Mode sTDDFT
|  7>     Ethresh 5.0
|  8>     maxcore 5000
|  9> end
| 10>
| 11> %pal
| 12>   nprocs 6
| 13>   end
| 14> * xyz 0 1
| 15>    C       -0.87525        -1.68339         6.15332
| 16>    C       -2.07818        -1.33433         6.68217
| 17>    S       -2.18069         0.37204         6.92901
| 18>    C       -0.56544         0.62030         6.30488
| 19>   Cl        0.11338         2.17092         6.21657
| 20>    C       -0.00917        -0.56619         5.93718
| 21>    C        1.26390        -1.02457         5.36562
| 22>    O        2.20518        -0.32036         5.06231
| 23>    C        1.12829        -2.49860         5.25739
| 24>    C       -0.19062        -2.89018         5.72878
| 25>    C       -0.75812        -4.13895         5.78335
| 26>    C       -2.06670        -4.32276         6.27648
| 27>    N       -3.12812        -4.50117         6.67554
| 28>    C       -0.17962        -5.35783         5.38040
| 29>    N        0.21201        -6.39344         5.07263
| 30>    C        2.05672        -3.41519         4.82202
| 31>    C        3.36122        -3.27546         4.33090
| 32>    C        4.16746        -2.16563         4.07118
| 33>    C        5.40917        -2.51581         3.58933
| 34>    C        5.58494        -3.90557         3.46789
| 35>    S        4.20479        -4.78542         3.94463
| 36>    C        6.88724        -4.15737         2.99010
| 37>    C        7.55084        -2.94268         2.80096
| 38>    C        6.65643        -1.78038         3.15918
| 39>    C        6.38265        -0.89041         1.94326
| 40>    C        7.24153        -0.95722         4.30984
| 41>    C        8.85265        -3.10267         2.35064
| 42>    C        9.20407        -4.43336         2.18990
| 43>    S        7.87137        -5.50588         2.60478
| 44>    C       10.45424        -4.99955         1.77438
| 45>    C       10.59128        -6.37697         1.64549
| 46>    C       11.78495        -6.97768         1.29136
| 47>    C       12.94300        -6.25094         1.04058
| 48>    C       12.84474        -4.82659         1.12832
| 49>    N       13.91843        -4.06477         0.85425
| 50>    C       13.81072        -2.76533         0.93429
| 51>    C       12.60317        -2.15607         1.30405
| 52>    N       11.53896        -2.86488         1.57178
| 53>    C       11.61033        -4.20550         1.49201
| 54>    C       14.16621        -6.92603         0.71894
| 55>    C       15.44375        -6.40785         0.58052
| 56>    C       16.38881        -7.38219         0.29591
| 57>    C       15.83937        -8.66300         0.20711
| 58>    S       14.14904        -8.66964         0.48097
| 59>    C       16.86534        -9.58807        -0.07512
| 60>    C       18.08474        -8.89901        -0.16157
| 61>    C       17.88015        -7.41961         0.06198
| 62>    C       18.26653        -6.62449        -1.18886
| 63>    C       18.64843        -6.91662         1.28699
| 64>    C       19.14560        -9.72459        -0.46718
| 65>    C       18.76202       -11.05867        -0.61755
| 66>    S       17.03605       -11.26513        -0.33779
| 67>    C       19.53623       -12.20030        -0.87244
| 68>    C       20.82026       -12.31086        -1.33692
| 69>    C       21.55062       -13.58438        -1.06927
| 70>    O       21.07570       -14.61311        -0.64811
| 71>    C       22.95311       -13.27775        -1.38442
| 72>    C       24.16035       -13.90105        -1.30314
| 73>    S       25.43459       -12.84945        -1.87887
| 74>    C       24.31288       -11.58339        -2.23275
| 75>    C       23.04359       -11.95049        -1.91780
| 76>    C       21.70600       -11.38784        -2.00525
| 77>    C       21.38275       -10.30649        -2.78945
| 78>    C       22.37687        -9.53126        -3.41722
| 79>    N       23.17382        -8.86821        -3.91042
| 80>    C       20.07307        -9.90671        -3.10632
| 81>    N       19.02435        -9.55341        -3.41396
| 82>   Cl       24.49675       -15.46519        -0.74427
| 83>    H       -2.91391        -1.95052         6.94713
| 84>    H        1.73638        -4.44967         4.86873
| 85>    H        3.82337        -1.16314         4.24572
| 86>    H        5.96017        -1.47748         1.13092
| 87>    H        7.30768        -0.43447         1.59965
| 88>    H        5.67891        -0.10622         2.20968
| 89>    H        7.44646        -1.59530         5.16650
| 90>    H        6.53612        -0.18687         4.60987
| 91>    H        8.16931        -0.48559         3.99627
| 92>    H        9.54480        -2.30951         2.14270
| 93>    H        9.73474        -7.00661         1.83777
| 94>    H       11.81955        -8.05505         1.22033
| 95>    H       14.69554        -2.18868         0.70049
| 96>    H       12.50319        -1.08158         1.37932
| 97>    H       15.64042        -5.35874         0.69069
| 98>    H       17.75795        -7.02465        -2.06236
| 99>    H       19.33847        -6.69061        -1.35700
|100>    H       17.99136        -5.58011        -1.06644
|101>    H       18.37075        -7.48723         2.17056
|102>    H       18.42052        -5.86851         1.46288
|103>    H       19.71849        -7.02078         1.12581
|104>    H       20.17004        -9.40537        -0.53226
|105>    H       19.08504       -13.14827        -0.59307
|106>    H       24.67498       -10.65984        -2.63870
|107> *
|108>
|109>                          ****END OF INPUT****

CARTESIAN COORDINATES (ANGSTROEM)
---------------------------------
  C     -0.875250   -1.683390    6.153320
  C     -2.078180   -1.334330    6.682170
  S     -2.180690    0.372040    6.929010
  C     -0.565440    0.620300    6.304880
  Cl     0.113380    2.170920    6.216570
  C     -0.009170   -0.566190    5.937180
  C      1.263900   -1.024570    5.365620
  O      2.205180   -0.320360    5.062310
  C      1.128290   -2.498600    5.257390
  C     -0.190620   -2.890180    5.728780
  C     -0.758120   -4.138950    5.783350
  C     -2.066700   -4.322760    6.276480
  N     -3.128120   -4.501170    6.675540
  C     -0.179620   -5.357830    5.380400
  N      0.212010   -6.393440    5.072630
  C      2.056720   -3.415190    4.822020
  C      3.361220   -3.275460    4.330900
  C      4.167460   -2.165630    4.071180
  C      5.409170   -2.515810    3.589330
  C      5.584940   -3.905570    3.467890
  S      4.204790   -4.785420    3.944630
  C      6.887240   -4.157370    2.990100
  C      7.550840   -2.942680    2.800960
  C      6.656430   -1.780380    3.159180
  C      6.382650   -0.890410    1.943260
  C      7.241530   -0.957220    4.309840
  C      8.852650   -3.102670    2.350640
  C      9.204070   -4.433360    2.189900
  S      7.871370   -5.505880    2.604780
  C     10.454240   -4.999550    1.774380
  C     10.591280   -6.376970    1.645490
  C     11.784950   -6.977680    1.291360
  C     12.943000   -6.250940    1.040580
  C     12.844740   -4.826590    1.128320
  N     13.918430   -4.064770    0.854250
  C     13.810720   -2.765330    0.934290
  C     12.603170   -2.156070    1.304050
  N     11.538960   -2.864880    1.571780
  C     11.610330   -4.205500    1.492010
  C     14.166210   -6.926030    0.718940
  C     15.443750   -6.407850    0.580520
  C     16.388810   -7.382190    0.295910
  C     15.839370   -8.663000    0.207110
  S     14.149040   -8.669640    0.480970
  C     16.865340   -9.588070   -0.075120
  C     18.084740   -8.899010   -0.161570
  C     17.880150   -7.419610    0.061980
  C     18.266530   -6.624490   -1.188860
  C     18.648430   -6.916620    1.286990
  C     19.145600   -9.724590   -0.467180
  C     18.762020  -11.058670   -0.617550
  S     17.036050  -11.265130   -0.337790
  C     19.536230  -12.200300   -0.872440
  C     20.820260  -12.310860   -1.336920
  C     21.550620  -13.584380   -1.069270
  O     21.075700  -14.613110   -0.648110
  C     22.953110  -13.277750   -1.384420
  C     24.160350  -13.901050   -1.303140
  S     25.434590  -12.849450   -1.878870
  C     24.312880  -11.583390   -2.232750
  C     23.043590  -11.950490   -1.917800
  C     21.706000  -11.387840   -2.005250
  C     21.382750  -10.306490   -2.789450
  C     22.376870   -9.531260   -3.417220
  N     23.173820   -8.868210   -3.910420
  C     20.073070   -9.906710   -3.106320
  N     19.024350   -9.553410   -3.413960
  Cl    24.496750  -15.465190   -0.744270
  H     -2.913910   -1.950520    6.947130
  H      1.736380   -4.449670    4.868730
  H      3.823370   -1.163140    4.245720
  H      5.960170   -1.477480    1.130920
  H      7.307680   -0.434470    1.599650
  H      5.678910   -0.106220    2.209680
  H      7.446460   -1.595300    5.166500
  H      6.536120   -0.186870    4.609870
  H      8.169310   -0.485590    3.996270
  H      9.544800   -2.309510    2.142700
  H      9.734740   -7.006610    1.837770
  H     11.819550   -8.055050    1.220330
  H     14.695540   -2.188680    0.700490
  H     12.503190   -1.081580    1.379320
  H     15.640420   -5.358740    0.690690
  H     17.757950   -7.024650   -2.062360
  H     19.338470   -6.690610   -1.357000
  H     17.991360   -5.580110   -1.066440
  H     18.370750   -7.487230    2.170560
  H     18.420520   -5.868510    1.462880
  H     19.718490   -7.020780    1.125810
  H     20.170040   -9.405370   -0.532260
  H     19.085040  -13.148270   -0.593070
  H     24.674980  -10.659840   -2.638700

 Total Charge           Charge          ....    0
 Multiplicity           Mult            ....    1
 Number of Electrons    NEL             ....  524
 Basis Dimension        Dim             .... 1104

ORBITAL ENERGIES
----------------

  NO   OCC          E(Eh)            E(eV)
   0   2.0000    -101.610331     -2764.9577
   1   2.0000    -101.609960     -2764.9476
   2   2.0000     -88.984444     -2421.3898
   3   2.0000     -88.983444     -2421.3626
   4   2.0000     -88.976236     -2421.1665
   5   2.0000     -88.974743     -2421.1258
   6   2.0000     -88.972440     -2421.0632
   7   2.0000     -88.971849     -2421.0471
   8   2.0000     -19.212849      -522.8082
   9   2.0000     -19.208323      -522.6850
  10   2.0000     -14.440641      -392.9498
  11   2.0000     -14.440440      -392.9443
  12   2.0000     -14.413900      -392.2222
  13   2.0000     -14.412700      -392.1895
  14   2.0000     -14.410996      -392.1431
  15   2.0000     -14.407154      -392.0386
  16   2.0000     -10.369978      -282.1814
  17   2.0000     -10.367969      -282.1268
  18   2.0000     -10.366582      -282.0890
  19   2.0000     -10.365376      -282.0562
  20   2.0000     -10.341692      -281.4117
  21   2.0000     -10.337687      -281.3028
  22   2.0000     -10.336996      -281.2840
  23   2.0000     -10.336747      -281.2772
  24   2.0000     -10.336310      -281.2653
  25   2.0000     -10.335299      -281.2378
  26   2.0000     -10.334873      -281.2262
  27   2.0000     -10.332581      -281.1638
  28   2.0000     -10.326354      -280.9944
  29   2.0000     -10.324778      -280.9515
  30   2.0000     -10.321444      -280.8608
  31   2.0000     -10.319788      -280.8157
  32   2.0000     -10.319162      -280.7987
  33   2.0000     -10.319081      -280.7965
  34   2.0000     -10.318968      -280.7934
  35   2.0000     -10.317421      -280.7513
  36   2.0000     -10.315902      -280.7100
  37   2.0000     -10.315782      -280.7067
  38   2.0000     -10.315505      -280.6992
  39   2.0000     -10.314438      -280.6701
  40   2.0000     -10.314265      -280.6654
  41   2.0000     -10.313349      -280.6405
  42   2.0000     -10.312834      -280.6265
  43   2.0000     -10.310699      -280.5684
  44   2.0000     -10.310393      -280.5601
  45   2.0000     -10.310157      -280.5536
  46   2.0000     -10.304825      -280.4085
  47   2.0000     -10.302484      -280.3448
  48   2.0000     -10.302212      -280.3374
  49   2.0000     -10.301905      -280.3291
  50   2.0000     -10.299852      -280.2732
  51   2.0000     -10.299249      -280.2568
  52   2.0000     -10.298594      -280.2390
  53   2.0000     -10.293801      -280.1086
  54   2.0000     -10.292149      -280.0636
  55   2.0000     -10.291773      -280.0534
  56   2.0000     -10.289799      -279.9997
  57   2.0000     -10.287852      -279.9467
  58   2.0000     -10.287047      -279.9248
  59   2.0000     -10.286377      -279.9065
  60   2.0000     -10.285477      -279.8821
  61   2.0000     -10.284733      -279.8618
  62   2.0000     -10.279626      -279.7228
  63   2.0000     -10.279502      -279.7195
  64   2.0000     -10.272420      -279.5268
  65   2.0000     -10.270859      -279.4843
  66   2.0000     -10.270713      -279.4803
  67   2.0000     -10.266048      -279.3534
  68   2.0000      -9.565116      -260.2800
  69   2.0000      -9.564767      -260.2705
  70   2.0000      -8.080297      -219.8761
  71   2.0000      -8.079189      -219.8459
  72   2.0000      -8.071367      -219.6331
  73   2.0000      -8.069820      -219.5910
  74   2.0000      -8.067338      -219.5234
  75   2.0000      -8.066687      -219.5057
  76   2.0000      -7.335716      -199.6150
  77   2.0000      -7.335379      -199.6058
  78   2.0000      -7.325172      -199.3281
  79   2.0000      -7.324793      -199.3178
  80   2.0000      -7.324652      -199.3139
  81   2.0000      -7.324312      -199.3047
  82   2.0000      -6.049724      -164.6214
  83   2.0000      -6.048642      -164.5919
  84   2.0000      -6.045152      -164.4969
  85   2.0000      -6.043997      -164.4655
  86   2.0000      -6.042399      -164.4220
  87   2.0000      -6.041352      -164.3935
  88   2.0000      -6.040614      -164.3735
  89   2.0000      -6.039009      -164.3298
  90   2.0000      -6.036696      -164.2669
  91   2.0000      -6.036586      -164.2639
  92   2.0000      -6.036048      -164.2492
  93   2.0000      -6.035001      -164.2207
  94   2.0000      -6.033491      -164.1796
  95   2.0000      -6.032642      -164.1565
  96   2.0000      -6.032011      -164.1394
  97   2.0000      -6.031992      -164.1388
  98   2.0000      -6.029327      -164.0663
  99   2.0000      -6.028704      -164.0494
 100   2.0000      -1.129036       -30.7226
 101   2.0000      -1.125441       -30.6248
 102   2.0000      -1.098003       -29.8782
 103   2.0000      -1.030098       -28.0304
 104   2.0000      -1.028605       -27.9898
 105   2.0000      -1.026104       -27.9217
 106   2.0000      -1.024942       -27.8901
 107   2.0000      -1.019754       -27.7489
 108   2.0000      -1.010268       -27.4908
 109   2.0000      -1.007491       -27.4152
 110   2.0000      -0.993436       -27.0328
 111   2.0000      -0.991024       -26.9671
 112   2.0000      -0.988275       -26.8923
 113   2.0000      -0.986518       -26.8445
 114   2.0000      -0.979818       -26.6622
 115   2.0000      -0.978131       -26.6163
 116   2.0000      -0.967642       -26.3309
 117   2.0000      -0.947254       -25.7761
 118   2.0000      -0.945458       -25.7272
 119   2.0000      -0.937321       -25.5058
 120   2.0000      -0.930127       -25.3100
 121   2.0000      -0.900945       -24.5160
 122   2.0000      -0.897897       -24.4330
 123   2.0000      -0.894821       -24.3493
 124   2.0000      -0.888389       -24.1743
 125   2.0000      -0.883948       -24.0534
 126   2.0000      -0.876446       -23.8493
 127   2.0000      -0.861010       -23.4293
 128   2.0000      -0.847929       -23.0733
 129   2.0000      -0.842552       -22.9270
 130   2.0000      -0.839889       -22.8545
 131   2.0000      -0.832323       -22.6487
 132   2.0000      -0.830529       -22.5998
 133   2.0000      -0.824766       -22.4430
 134   2.0000      -0.822923       -22.3929
 135   2.0000      -0.810834       -22.0639
 136   2.0000      -0.799553       -21.7569
 137   2.0000      -0.782722       -21.2989
 138   2.0000      -0.782540       -21.2940
 139   2.0000      -0.781182       -21.2570
 140   2.0000      -0.769495       -20.9390
 141   2.0000      -0.764654       -20.8073
 142   2.0000      -0.753128       -20.4937
 143   2.0000      -0.745822       -20.2948
 144   2.0000      -0.741684       -20.1823
 145   2.0000      -0.723399       -19.6847
 146   2.0000      -0.712323       -19.3833
 147   2.0000      -0.710890       -19.3443
 148   2.0000      -0.700691       -19.0668
 149   2.0000      -0.688541       -18.7362
 150   2.0000      -0.678816       -18.4715
 151   2.0000      -0.670454       -18.2440
 152   2.0000      -0.667459       -18.1625
 153   2.0000      -0.667403       -18.1610
 154   2.0000      -0.660609       -17.9761
 155   2.0000      -0.654217       -17.8021
 156   2.0000      -0.646475       -17.5915
 157   2.0000      -0.643284       -17.5046
 158   2.0000      -0.636816       -17.3286
 159   2.0000      -0.634445       -17.2641
 160   2.0000      -0.629286       -17.1237
 161   2.0000      -0.626422       -17.0458
 162   2.0000      -0.621701       -16.9173
 163   2.0000      -0.615477       -16.7480
 164   2.0000      -0.608871       -16.5682
 165   2.0000      -0.602507       -16.3950
 166   2.0000      -0.597335       -16.2543
 167   2.0000      -0.591098       -16.0846
 168   2.0000      -0.587627       -15.9901
 169   2.0000      -0.576795       -15.6954
 170   2.0000      -0.571623       -15.5547
 171   2.0000      -0.568516       -15.4701
 172   2.0000      -0.560765       -15.2592
 173   2.0000      -0.552670       -15.0389
 174   2.0000      -0.549742       -14.9592
 175   2.0000      -0.547268       -14.8919
 176   2.0000      -0.544083       -14.8053
 177   2.0000      -0.541356       -14.7310
 178   2.0000      -0.539897       -14.6914
 179   2.0000      -0.538522       -14.6539
 180   2.0000      -0.537261       -14.6196
 181   2.0000      -0.535996       -14.5852
 182   2.0000      -0.534845       -14.5539
 183   2.0000      -0.529829       -14.4174
 184   2.0000      -0.527788       -14.3618
 185   2.0000      -0.522060       -14.2060
 186   2.0000      -0.520392       -14.1606
 187   2.0000      -0.518971       -14.1219
 188   2.0000      -0.515575       -14.0295
 189   2.0000      -0.514395       -13.9974
 190   2.0000      -0.510458       -13.8903
 191   2.0000      -0.508071       -13.8253
 192   2.0000      -0.500413       -13.6169
 193   2.0000      -0.499980       -13.6052
 194   2.0000      -0.495967       -13.4960
 195   2.0000      -0.493459       -13.4277
 196   2.0000      -0.492259       -13.3951
 197   2.0000      -0.488840       -13.3020
 198   2.0000      -0.488136       -13.2828
 199   2.0000      -0.486561       -13.2400
 200   2.0000      -0.485493       -13.2109
 201   2.0000      -0.484581       -13.1861
 202   2.0000      -0.483872       -13.1668
 203   2.0000      -0.482977       -13.1425
 204   2.0000      -0.480562       -13.0768
 205   2.0000      -0.477184       -12.9848
 206   2.0000      -0.474628       -12.9153
 207   2.0000      -0.474397       -12.9090
 208   2.0000      -0.470129       -12.7928
 209   2.0000      -0.468517       -12.7490
 210   2.0000      -0.462544       -12.5865
 211   2.0000      -0.460617       -12.5340
 212   2.0000      -0.451193       -12.2776
 213   2.0000      -0.448489       -12.2040
 214   2.0000      -0.447918       -12.1885
 215   2.0000      -0.446443       -12.1483
 216   2.0000      -0.445031       -12.1099
 217   2.0000      -0.443815       -12.0768
 218   2.0000      -0.442655       -12.0453
 219   2.0000      -0.442087       -12.0298
 220   2.0000      -0.441240       -12.0068
 221   2.0000      -0.438658       -11.9365
 222   2.0000      -0.436402       -11.8751
 223   2.0000      -0.435896       -11.8613
 224   2.0000      -0.435669       -11.8552
 225   2.0000      -0.433176       -11.7873
 226   2.0000      -0.430741       -11.7211
 227   2.0000      -0.428641       -11.6639
 228   2.0000      -0.426822       -11.6144
 229   2.0000      -0.424979       -11.5643
 230   2.0000      -0.421552       -11.4710
 231   2.0000      -0.420274       -11.4362
 232   2.0000      -0.414264       -11.2727
 233   2.0000      -0.413353       -11.2479
 234   2.0000      -0.412945       -11.2368
 235   2.0000      -0.410241       -11.1632
 236   2.0000      -0.409633       -11.1467
 237   2.0000      -0.409093       -11.1320
 238   2.0000      -0.404350       -11.0029
 239   2.0000      -0.403950       -10.9920
 240   2.0000      -0.396418       -10.7871
 241   2.0000      -0.395686       -10.7672
 242   2.0000      -0.393024       -10.6947
 243   2.0000      -0.387268       -10.5381
 244   2.0000      -0.377710       -10.2780
 245   2.0000      -0.358018        -9.7422
 246   2.0000      -0.349369        -9.5068
 247   2.0000      -0.336981        -9.1697
 248   2.0000      -0.336415        -9.1543
 249   2.0000      -0.335340        -9.1251
 250   2.0000      -0.335075        -9.1179
 251   2.0000      -0.334162        -9.0930
 252   2.0000      -0.333894        -9.0857
 253   2.0000      -0.330001        -8.9798
 254   2.0000      -0.328952        -8.9512
 255   2.0000      -0.327362        -8.9080
 256   2.0000      -0.323363        -8.7992
 257   2.0000      -0.311032        -8.4636
 258   2.0000      -0.304405        -8.2833
 259   2.0000      -0.294794        -8.0217
 260   2.0000      -0.261649        -7.1198
 261   2.0000      -0.238329        -6.4853
 262   0.0000      -0.102894        -2.7999
 263   0.0000      -0.089319        -2.4305
 264   0.0000      -0.068224        -1.8565
 265   0.0000      -0.045191        -1.2297
 266   0.0000      -0.043915        -1.1950

MULLIKEN ATOMIC CHARGES
-----------------------
   0 C :    0.028026
   1 C :   -0.133189
   2 S :    0.174572
   3 C :   -0.177466
   4 Cl:   -0.011667
   5 C :    0.090526
   6 C :    0.156174
   7 O :   -0.158003
   8 C :   -0.121212
   9 C :    0.305754
  10 C :   -0.364036
  11 C :   -0.196253
  12 N :    0.147294
  13 C :   -0.173777
  14 N :    0.144902
  15 C :    0.036134
  16 C :   -0.109332
  17 C :   -0.019761
  18 C :   -0.001449
  19 C :   -0.056580
  20 S :    0.171571
  21 C :   -0.082722
  22 C :    0.040893
  23 C :   -0.099997
  24 C :    0.104072
  25 C :    0.103320
  26 C :   -0.052593
  27 C :   -0.112281
  28 S :    0.125551
  29 C :    0.165253
  30 C :   -0.066106
  31 C :   -0.066789
  32 C :    0.166142
  33 C :   -0.046029
  34 N :   -0.028759
  35 C :    0.037309
  36 C :    0.036792
  37 N :   -0.029692
  38 C :   -0.052066
  39 C :   -0.114602
  40 C :   -0.049662
  41 C :    0.040287
  42 C :   -0.077533
  43 S :    0.124722
  44 C :   -0.056973
  45 C :    0.000584
  46 C :   -0.117751
  47 C :    0.107392
  48 C :    0.105884
  49 C :    0.005499
  50 C :   -0.111515
  51 S :    0.176915
  52 C :    0.077602
  53 C :   -0.163360
  54 C :    0.128794
  55 O :   -0.138564
  56 C :    0.095462
  57 C :   -0.176875
  58 S :    0.173160
  59 C :   -0.133378
  60 C :    0.014771
  61 C :    0.273339
  62 C :   -0.347659
  63 C :   -0.186979
  64 N :    0.147309
  65 C :   -0.201682
  66 N :    0.172634
  67 Cl:   -0.006340
  68 H :    0.052413
  69 H :   -0.001395
  70 H :    0.010700
  71 H :    0.020719
  72 H :    0.012569
  73 H :    0.021638
  74 H :    0.020598
  75 H :    0.022345
  76 H :    0.011844
  77 H :   -0.008531
  78 H :    0.000292
  79 H :   -0.000120
  80 H :    0.014122
  81 H :    0.014898
  82 H :   -0.008822
  83 H :    0.036908
  84 H :    0.014522
  85 H :    0.010462
  86 H :    0.020244
  87 H :    0.013945
  88 H :    0.013719
  89 H :   -0.001995
  90 H :    0.022994
  91 H :    0.049917
Sum of atomic charges:   -0.0000000

LOEWDIN ATOMIC CHARGES
----------------------
   0 C :   -0.059064
   1 C :   -0.150188
   2 S :    0.463609
   3 C :   -0.275549
   4 Cl:    0.182625
   5 C :   -0.114057
   6 C :    0.084255
   7 O :   -0.149381
   8 C :   -0.111573
   9 C :    0.077317
  10 C :   -0.153705
  11 C :   -0.014931
  12 N :   -0.064007
  13 C :   -0.025614
  14 N :   -0.057854
  15 C :    0.044632
  16 C :   -0.178445
  17 C :   -0.001658
  18 C :   -0.043079
  19 C :   -0.161965
  20 S :    0.461478
  21 C :   -0.203056
  22 C :   -0.020810
  23 C :   -0.035387
  24 C :   -0.022718
  25 C :   -0.023005
  26 C :   -0.045298
  27 C :   -0.144432
  28 S :    0.440632
  29 C :   -0.037446
  30 C :   -0.014652
  31 C :   -0.016508
  32 C :   -0.034330
  33 C :    0.002031
  34 N :   -0.025813
  35 C :    0.008044
  36 C :    0.008475
  37 N :   -0.026808
  38 C :    0.002463
  39 C :   -0.147418
  40 C :   -0.042564
  41 C :   -0.022292
  42 C :   -0.199498
  43 S :    0.440438
  44 C :   -0.162286
  45 C :   -0.033868
  46 C :   -0.035118
  47 C :   -0.021570
  48 C :   -0.024148
  49 C :   -0.002853
  50 C :   -0.183784
  51 S :    0.463988
  52 C :    0.049235
  53 C :   -0.110761
  54 C :    0.077816
  55 O :   -0.144182
  56 C :   -0.116437
  57 C :   -0.274102
  58 S :    0.461968
  59 C :   -0.154912
  60 C :   -0.056808
  61 C :    0.067312
  62 C :   -0.156440
  63 C :   -0.019386
  64 N :   -0.062730
  65 C :   -0.018154
  66 N :   -0.049250
  67 Cl:    0.186386
  68 H :    0.036588
  69 H :    0.042507
  70 H :    0.035313
  71 H :    0.030146
  72 H :    0.024665
  73 H :    0.028230
  74 H :    0.029991
  75 H :    0.028597
  76 H :    0.024452
  77 H :    0.028953
  78 H :    0.025549
  79 H :    0.025532
  80 H :    0.027586
  81 H :    0.027576
  82 H :    0.029060
  83 H :    0.035699
  84 H :    0.025487
  85 H :    0.024027
  86 H :    0.029418
  87 H :    0.025630
  88 H :    0.024914
  89 H :    0.035851
  90 H :    0.045471
  91 H :    0.035945

  Mayer bond orders larger than 0.100000
B(  0-C ,  1-C ) :   1.5540 B(  0-C ,  5-C ) :   1.2241 B(  0-C ,  9-C ) :   0.9817
B(  1-C ,  2-S ) :   1.1550 B(  1-C , 68-H ) :   0.9525 B(  2-S ,  3-C ) :   1.1418
B(  3-C ,  4-Cl) :   1.1172 B(  3-C ,  5-C ) :   1.4835 B(  5-C ,  6-C ) :   0.9626
B(  6-C ,  7-O ) :   2.1556 B(  6-C ,  8-C ) :   0.9491 B(  8-C ,  9-C ) :   1.1144
B(  8-C , 15-C ) :   1.5386 B(  9-C , 10-C ) :   1.6096 B( 10-C , 11-C ) :   1.1598
B( 10-C , 13-C ) :   1.1390 B( 11-C , 12-N ) :   2.9844 B( 13-C , 14-N ) :   2.9570
B( 15-C , 16-C ) :   1.2755 B( 15-C , 69-H ) :   0.9065 B( 16-C , 17-C ) :   1.3539
B( 16-C , 20-S ) :   1.0662 B( 17-C , 18-C ) :   1.3559 B( 17-C , 70-H ) :   0.9830
B( 18-C , 19-C ) :   1.4396 B( 18-C , 23-C ) :   0.9337 B( 19-C , 20-S ) :   1.1347
B( 19-C , 21-C ) :   1.1860 B( 21-C , 22-C ) :   1.5083 B( 21-C , 28-S ) :   1.0756
B( 22-C , 23-C ) :   0.9446 B( 22-C , 26-C ) :   1.2571 B( 23-C , 24-C ) :   1.0327
B( 23-C , 25-C ) :   1.0354 B( 24-C , 71-H ) :   0.9638 B( 24-C , 72-H ) :   0.9649
B( 24-C , 73-H ) :   0.9652 B( 25-C , 74-H ) :   0.9642 B( 25-C , 75-H ) :   0.9648
B( 25-C , 76-H ) :   0.9646 B( 26-C , 27-C ) :   1.4732 B( 26-C , 77-H ) :   0.9930
B( 27-C , 28-S ) :   1.1064 B( 27-C , 29-C ) :   1.1230 B( 29-C , 30-C ) :   1.3793
B( 29-C , 32-C ) :   0.1174 B( 29-C , 38-C ) :   1.2130 B( 30-C , 31-C ) :   1.3127
B( 30-C , 78-H ) :   0.9848 B( 31-C , 32-C ) :   1.3790 B( 31-C , 79-H ) :   0.9853
B( 32-C , 33-C ) :   1.2154 B( 32-C , 39-C ) :   1.1189 B( 33-C , 34-N ) :   1.4764
B( 33-C , 38-C ) :   1.2248 B( 34-N , 35-C ) :   1.6321 B( 35-C , 36-C ) :   1.2430
B( 35-C , 80-H ) :   0.9741 B( 36-C , 37-N ) :   1.6284 B( 36-C , 81-H ) :   0.9740
B( 37-N , 38-C ) :   1.4790 B( 39-C , 40-C ) :   1.4747 B( 39-C , 43-S ) :   1.1043
B( 40-C , 41-C ) :   1.2628 B( 40-C , 82-H ) :   0.9928 B( 41-C , 42-C ) :   1.5089
B( 41-C , 46-C ) :   0.9407 B( 42-C , 43-S ) :   1.0775 B( 42-C , 44-C ) :   1.1873
B( 44-C , 45-C ) :   1.4653 B( 44-C , 51-S ) :   1.1246 B( 45-C , 46-C ) :   0.9373
B( 45-C , 49-C ) :   1.4132 B( 46-C , 47-C ) :   1.0355 B( 46-C , 48-C ) :   1.0371
B( 47-C , 83-H ) :   0.9616 B( 47-C , 84-H ) :   0.9634 B( 47-C , 85-H ) :   0.9634
B( 48-C , 86-H ) :   0.9638 B( 48-C , 87-H ) :   0.9645 B( 48-C , 88-H ) :   0.9646
B( 49-C , 50-C ) :   1.3470 B( 49-C , 89-H ) :   0.9888 B( 50-C , 51-S ) :   1.0785
B( 50-C , 52-C ) :   1.1985 B( 52-C , 53-C ) :   1.5949 B( 52-C , 90-H ) :   0.9262
B( 53-C , 54-C ) :   0.9560 B( 53-C , 61-C ) :   1.0774 B( 54-C , 55-O ) :   2.2660
B( 54-C , 56-C ) :   0.9211 B( 56-C , 57-C ) :   1.4948 B( 56-C , 60-C ) :   1.2210
B( 57-C , 58-S ) :   1.1425 B( 57-C , 67-Cl) :   1.1233 B( 58-S , 59-C ) :   1.1514
B( 59-C , 60-C ) :   1.5596 B( 59-C , 91-H ) :   0.9556 B( 60-C , 61-C ) :   1.0046
B( 61-C , 62-C ) :   1.6180 B( 62-C , 63-C ) :   1.1349 B( 62-C , 65-C ) :   1.1751
B( 63-C , 64-N ) :   2.9968 B( 65-C , 66-N ) :   2.9803

-----------------------------------------------------------------------------
         ABSORPTION SPECTRUM VIA TRANSITION ELECTRIC DIPOLE MOMENTS
-----------------------------------------------------------------------------
State   Energy  Wavelength   fosc         T2         TX        TY        TZ
        (cm-1)    (nm)                  (au**2)     (au)      (au)      (au)
-----------------------------------------------------------------------------
   0   15091.3    662.6   2.860424689  62.39938  -6.91011   2.88048   2.52044
   1   18738.5    533.7   0.148567115   2.61014   1.49213   0.53528  -0.31170
   2   22206.4    450.3   0.143198931   2.12293   1.11609   0.60592  -0.71424
   3   23117.5    432.6   0.002824363   0.04022   0.12563  -0.11813  -0.10240
   4   26707.0    374.4   0.110010379   1.35607   0.05618  -1.10112   0.37476
   5   27418.2    364.7   0.110049395   1.32137  -0.73924   0.83849   0.26802
   6   27852.3    359.0   0.037843503   0.44731  -0.05526  -0.66345  -0.06392
   7   28950.2    345.4   0.056023558   0.63708  -0.25046   0.58673  -0.47968
   8   29380.7    340.4   0.129440281   1.45038  -0.80777   0.89314   0.01390
   9   29500.9    339.0   0.203815781   2.27446   0.94746  -1.15859  -0.18563
  10   29785.1    335.7   0.005597385   0.06187  -0.14601   0.17830  -0.09357
  11   30118.1    332.0   0.034750277   0.37984   0.37962  -0.47675  -0.09187
  12   30346.7    329.5   0.038465654   0.41729   0.63562   0.08702   0.07551
  13   31034.8    322.2   0.138545550   1.46967   1.03467  -0.42495  -0.46748
  14   31717.0    315.3   0.008493625   0.08816  -0.10732  -0.27677   0.00665
  15   32295.4    309.6   0.077281025   0.78778   0.74839  -0.45689  -0.13768
  16   32934.5    303.6   0.020710359   0.20702  -0.01884  -0.38986   0.23383
  17   33565.2    297.9   0.045269286   0.44401  -0.18001  -0.63923  -0.05461
  18   33789.6    295.9   0.021276794   0.20730   0.21424  -0.31203   0.25306
  19   33936.5    294.7   0.096981871   0.94080   0.88731  -0.39150  -0.01452
  20   34273.8    291.8   0.110579629   1.06216  -0.04540  -1.02944   0.01888
  21   34543.5    289.5   0.024445060   0.23297   0.11794  -0.45318   0.11698
  22   34716.2    288.1   0.011462417   0.10870  -0.18231   0.27465  -0.00548
  23   35131.9    284.6   0.055116030   0.51648   0.36702  -0.56357   0.25331
  24   35449.4    282.1   0.006902068   0.06410  -0.20229  -0.06567   0.13734
  25   36346.0    275.1   0.011994520   0.10864  -0.00261  -0.32601  -0.04854
  26   36516.6    273.8   0.261744921   2.35974   0.47209  -1.44739   0.20478
  27   36772.2    271.9   0.133672779   1.19674  -0.61466  -0.84993  -0.31072
  28   37128.9    269.3   0.004885492   0.04332  -0.04027   0.09428  -0.18113
  29   37765.0    264.8   0.109177210   0.95174  -0.33504   0.85309   0.33424
  30   38154.3    262.1   0.430726303   3.71649  -0.92952   1.68883   0.01862
  31   38268.0    261.3   0.178695462   1.53728   1.07504   0.42264   0.45049
  32   38668.6    258.6   0.035769244   0.30453  -0.42574  -0.34408  -0.06984
  33   39055.2    256.0   0.388277486   3.27294   0.10151  -1.76412   0.38799
  34   39250.5    254.8   0.020822111   0.17464   0.37829   0.00557   0.17750
  35   39541.8    252.9   0.027814297   0.23157  -0.29903  -0.35473   0.12774
  36   39769.6    251.4   0.034276263   0.28374   0.23712   0.47550  -0.03760
  37   40069.5    249.6   0.037248464   0.30603   0.53114  -0.11588   0.10243

FINAL SINGLE POINT ENERGY     -5780.226589706288

DIPOLE MOMENT
-------------
                                X             Y             Z
Electronic contribution:    -13.12672     -36.35278       6.80716
Nuclear contribution   :     15.41030      39.07706      -6.08993
                        -----------------------------------------
Total Dipole Moment    :      2.28358       2.72427       0.71724
                        -----------------------------------------
Magnitude (a.u.)       :      3.62640
Magnitude (Debye)      :      9.21759

Rotational constants in cm-1:     0.003370     0.000159     0.000154
Rotational constants in MHz :   101.041944     4.777243     4.607143

                             ****ORCA TERMINATED NORMALLY****
TOTAL RUN TIME: 0 days 0 hours 8 minutes 54 seconds 596 msec
