                         Program Version 4.2.0 -  RELEASE  -
|  1> # ORCA input file
|  2> # SCF done       -190.808954220382          0.000861087705
|  3> ! CAM-B3LYP def2-SVP def2/J RIJCOSX Grid4 TightSCF
|  4> %maxcore 5000
|  5> %tddft
|  6>     Mode sTDDFT
|  7>     Ethresh 5.0
|  8>     maxcore 5000
|  9> end
| 10>
| 11> %pal
| 12>   nprocs 6
| 13>   end
| 14> * xyz 0 1
| 15>    C       -1.53548        -3.52940        -0.40076
| 16>    C       -2.80866        -3.35547        -0.84527
| 17>    S       -3.87914        -2.97862         0.45654
| 18>    C       -2.58130        -3.05762         1.62671
| 19>   Cl       -2.86526        -2.77916         3.27443
| 20>    C       -1.40444        -3.35878         1.01300
| 21>    C       -0.00508        -3.55833         1.41251
| 22>    O        0.43414        -3.47702         2.54132
| 23>    C        0.71307        -3.87429         0.15245
| 24>    C       -0.23129        -3.84489        -0.95299
| 25>    C       -0.00773        -4.05086        -2.29186
| 26>    C       -1.06101        -3.96929        -3.22632
| 27>    N       -1.90089        -3.91261        -4.00672
| 28>    C        1.21890        -4.34579        -2.91706
| 29>    N        2.17360        -4.58778        -3.50945
| 30>    C        2.04394        -4.17393        -0.02351
| 31>    C        3.12199        -4.23873         0.86859
| 32>    C        3.23995        -4.00182         2.23971
| 33>    C        4.52706        -4.17567         2.69695
| 34>    C        5.42935        -4.55362         1.68626
| 35>    S        4.68160        -4.69283         0.16017
| 36>    C        6.71226        -4.70563         2.24925
| 37>    C        6.64210        -4.42193         3.61865
| 38>    C        5.23427        -4.06081         4.02641
| 39>    C        5.15932        -2.63334         4.57536
| 40>    C        4.67336        -5.05946         5.04266
| 41>    C        7.86606        -4.53970         4.25284
| 42>    C        8.87790        -4.91066         3.37471
| 43>    S        8.29675        -5.12591         1.74017
| 44>    C       10.25093        -5.10323         3.69805
| 45>    C       11.21098        -5.45060         2.74572
| 46>    O       10.77279        -5.61601         1.45447
| 47>    C       11.33413        -4.74471         0.48213
| 48>    C       12.57139        -5.67869         3.07228
| 49>    O       13.45545        -6.08036         2.10024
| 50>    C       13.21079        -7.35499         1.52003
| 51>    C       13.09009        -5.46494         4.35077
| 52>    C       12.14196        -5.07132         5.33392
| 53>    C       10.74203        -4.92287         5.01955
| 54>    N       10.12811        -4.58114         6.13395
| 55>    O       11.06586        -4.52065         7.07737
| 56>    N       12.28117        -4.81144         6.61783
| 57>    C       14.46581        -5.64896         4.66572
| 58>    C       15.05813        -5.49085         5.91349
| 59>    C       16.41611        -5.75383         5.88329
| 60>    C       16.86894        -6.11294         4.60823
| 61>    S       15.61590        -6.12470         3.43714
| 62>    C       18.25163        -6.37388         4.67721
| 63>    C       18.69738        -6.16693         5.98971
| 64>    C       17.54804        -5.76370         6.88284
| 65>    C       17.76374        -4.37862         7.49796
| 66>    C       17.31046        -6.81274         7.97352
| 67>    C       20.05308        -6.38578         6.13260
| 68>    C       20.65685        -6.81081         4.95055
| 69>    S       19.50273        -6.86804         3.62284
| 70>    C       22.02936        -7.07004         4.77641
| 71>    C       22.66446        -7.75464         3.77946
| 72>    C       24.10645        -7.48020         3.51575
| 73>    O       24.86458        -6.85600         4.22066
| 74>    C       24.35665        -8.08737         2.19995
| 75>    C       25.38172        -8.16035         1.30696
| 76>    S       24.90983        -9.09303        -0.09590
| 77>    C       23.33431        -9.38452         0.55126
| 78>    C       23.18520        -8.79004         1.76305
| 79>    C       22.17418        -8.70069         2.80120
| 80>    C       21.11845        -9.56802         2.92941
| 81>    C       20.80522       -10.49802         1.91955
| 82>    N       20.52909       -11.24885         1.09634
| 83>    C       20.32773        -9.68316         4.08806
| 84>    N       19.69909        -9.83791         5.03676
| 85>   Cl       26.93177        -7.48687         1.43355
| 86>    H       -3.20013        -3.42000        -1.84075
| 87>    H        2.33096        -4.40595        -1.04272
| 88>    H        2.39573        -3.71679         2.83964
| 89>    H        5.55702        -1.92666         3.85037
| 90>    H        5.73878        -2.55677         5.49178
| 91>    H        4.12591        -2.37173         4.78689
| 92>    H        4.73247        -6.07250         4.65114
| 93>    H        3.63288        -4.82736         5.25403
| 94>    H        5.24284        -5.00858         5.96707
| 95>    H        8.05642        -4.37284         5.29639
| 96>    H       11.08201        -3.70494         0.70979
| 97>    H       10.87712        -5.03078        -0.46270
| 98>    H       12.41868        -4.84766         0.41899
| 99>    H       12.22133        -7.41151         1.06316
|100>    H       13.30764        -8.14241         2.27289
|101>    H       13.97936        -7.48254         0.76087
|102>    H       14.48893        -5.19816         6.77582
|103>    H       17.93824        -3.63998         6.71875
|104>    H       18.62378        -4.39496         8.16257
|105>    H       16.88526        -4.08499         8.06661
|106>    H       17.19994        -7.79931         7.52977
|107>    H       16.40730        -6.57306         8.52884
|108>    H       18.15266        -6.83339         8.66030
|109>    H       20.60620        -6.28646         7.04917
|110>    H       22.68964        -6.59038         5.49360
|111>    H       22.63146        -9.96370        -0.01390
|112> *
|113>
|114>                          ****END OF INPUT****

CARTESIAN COORDINATES (ANGSTROEM)
---------------------------------
  C     -1.535480   -3.529400   -0.400760
  C     -2.808660   -3.355470   -0.845270
  S     -3.879140   -2.978620    0.456540
  C     -2.581300   -3.057620    1.626710
  Cl    -2.865260   -2.779160    3.274430
  C     -1.404440   -3.358780    1.013000
  C     -0.005080   -3.558330    1.412510
  O      0.434140   -3.477020    2.541320
  C      0.713070   -3.874290    0.152450
  C     -0.231290   -3.844890   -0.952990
  C     -0.007730   -4.050860   -2.291860
  C     -1.061010   -3.969290   -3.226320
  N     -1.900890   -3.912610   -4.006720
  C      1.218900   -4.345790   -2.917060
  N      2.173600   -4.587780   -3.509450
  C      2.043940   -4.173930   -0.023510
  C      3.121990   -4.238730    0.868590
  C      3.239950   -4.001820    2.239710
  C      4.527060   -4.175670    2.696950
  C      5.429350   -4.553620    1.686260
  S      4.681600   -4.692830    0.160170
  C      6.712260   -4.705630    2.249250
  C      6.642100   -4.421930    3.618650
  C      5.234270   -4.060810    4.026410
  C      5.159320   -2.633340    4.575360
  C      4.673360   -5.059460    5.042660
  C      7.866060   -4.539700    4.252840
  C      8.877900   -4.910660    3.374710
  S      8.296750   -5.125910    1.740170
  C     10.250930   -5.103230    3.698050
  C     11.210980   -5.450600    2.745720
  O     10.772790   -5.616010    1.454470
  C     11.334130   -4.744710    0.482130
  C     12.571390   -5.678690    3.072280
  O     13.455450   -6.080360    2.100240
  C     13.210790   -7.354990    1.520030
  C     13.090090   -5.464940    4.350770
  C     12.141960   -5.071320    5.333920
  C     10.742030   -4.922870    5.019550
  N     10.128110   -4.581140    6.133950
  O     11.065860   -4.520650    7.077370
  N     12.281170   -4.811440    6.617830
  C     14.465810   -5.648960    4.665720
  C     15.058130   -5.490850    5.913490
  C     16.416110   -5.753830    5.883290
  C     16.868940   -6.112940    4.608230
  S     15.615900   -6.124700    3.437140
  C     18.251630   -6.373880    4.677210
  C     18.697380   -6.166930    5.989710
  C     17.548040   -5.763700    6.882840
  C     17.763740   -4.378620    7.497960
  C     17.310460   -6.812740    7.973520
  C     20.053080   -6.385780    6.132600
  C     20.656850   -6.810810    4.950550
  S     19.502730   -6.868040    3.622840
  C     22.029360   -7.070040    4.776410
  C     22.664460   -7.754640    3.779460
  C     24.106450   -7.480200    3.515750
  O     24.864580   -6.856000    4.220660
  C     24.356650   -8.087370    2.199950
  C     25.381720   -8.160350    1.306960
  S     24.909830   -9.093030   -0.095900
  C     23.334310   -9.384520    0.551260
  C     23.185200   -8.790040    1.763050
  C     22.174180   -8.700690    2.801200
  C     21.118450   -9.568020    2.929410
  C     20.805220  -10.498020    1.919550
  N     20.529090  -11.248850    1.096340
  C     20.327730   -9.683160    4.088060
  N     19.699090   -9.837910    5.036760
  Cl    26.931770   -7.486870    1.433550
  H     -3.200130   -3.420000   -1.840750
  H      2.330960   -4.405950   -1.042720
  H      2.395730   -3.716790    2.839640
  H      5.557020   -1.926660    3.850370
  H      5.738780   -2.556770    5.491780
  H      4.125910   -2.371730    4.786890
  H      4.732470   -6.072500    4.651140
  H      3.632880   -4.827360    5.254030
  H      5.242840   -5.008580    5.967070
  H      8.056420   -4.372840    5.296390
  H     11.082010   -3.704940    0.709790
  H     10.877120   -5.030780   -0.462700
  H     12.418680   -4.847660    0.418990
  H     12.221330   -7.411510    1.063160
  H     13.307640   -8.142410    2.272890
  H     13.979360   -7.482540    0.760870
  H     14.488930   -5.198160    6.775820
  H     17.938240   -3.639980    6.718750
  H     18.623780   -4.394960    8.162570
  H     16.885260   -4.084990    8.066610
  H     17.199940   -7.799310    7.529770
  H     16.407300   -6.573060    8.528840
  H     18.152660   -6.833390    8.660300
  H     20.606200   -6.286460    7.049170
  H     22.689640   -6.590380    5.493600
  H     22.631460   -9.963700   -0.013900

 Total Charge           Charge          ....    0
 Multiplicity           Mult            ....    1
 Number of Electrons    NEL             ....  550
 Basis Dimension        Dim             .... 1156

ORBITAL ENERGIES
----------------

  NO   OCC          E(Eh)            E(eV)
   0   2.0000    -101.610802     -2764.9705
   1   2.0000    -101.609818     -2764.9437
   2   2.0000     -88.985176     -2421.4097
   3   2.0000     -88.983503     -2421.3642
   4   2.0000     -88.975766     -2421.1537
   5   2.0000     -88.974628     -2421.1227
   6   2.0000     -88.973960     -2421.1045
   7   2.0000     -88.973263     -2421.0856
   8   2.0000     -19.366667      -526.9938
   9   2.0000     -19.276230      -524.5329
  10   2.0000     -19.275391      -524.5101
  11   2.0000     -19.212844      -522.8081
  12   2.0000     -19.208956      -522.7023
  13   2.0000     -14.493769      -394.3955
  14   2.0000     -14.493532      -394.3891
  15   2.0000     -14.412566      -392.1859
  16   2.0000     -14.411537      -392.1579
  17   2.0000     -14.410217      -392.1219
  18   2.0000     -14.407397      -392.0452
  19   2.0000     -10.370396      -282.1928
  20   2.0000     -10.369977      -282.1814
  21   2.0000     -10.369451      -282.1671
  22   2.0000     -10.368363      -282.1375
  23   2.0000     -10.366724      -282.0929
  24   2.0000     -10.366566      -282.0886
  25   2.0000     -10.342679      -281.4386
  26   2.0000     -10.342427      -281.4317
  27   2.0000     -10.340867      -281.3893
  28   2.0000     -10.340332      -281.3747
  29   2.0000     -10.339299      -281.3466
  30   2.0000     -10.337933      -281.3095
  31   2.0000     -10.337332      -281.2931
  32   2.0000     -10.332752      -281.1685
  33   2.0000     -10.325583      -280.9734
  34   2.0000     -10.324891      -280.9546
  35   2.0000     -10.324402      -280.9413
  36   2.0000     -10.323336      -280.9122
  37   2.0000     -10.323265      -280.9103
  38   2.0000     -10.321807      -280.8706
  39   2.0000     -10.321736      -280.8687
  40   2.0000     -10.319851      -280.8174
  41   2.0000     -10.319271      -280.8016
  42   2.0000     -10.318909      -280.7918
  43   2.0000     -10.316271      -280.7200
  44   2.0000     -10.315387      -280.6960
  45   2.0000     -10.314885      -280.6823
  46   2.0000     -10.314621      -280.6751
  47   2.0000     -10.312939      -280.6293
  48   2.0000     -10.310929      -280.5746
  49   2.0000     -10.308975      -280.5215
  50   2.0000     -10.308779      -280.5162
  51   2.0000     -10.305260      -280.4204
  52   2.0000     -10.302860      -280.3551
  53   2.0000     -10.301996      -280.3316
  54   2.0000     -10.301693      -280.3233
  55   2.0000     -10.299732      -280.2700
  56   2.0000     -10.294036      -280.1150
  57   2.0000     -10.292544      -280.0744
  58   2.0000     -10.292511      -280.0735
  59   2.0000     -10.289769      -279.9988
  60   2.0000     -10.287695      -279.9424
  61   2.0000     -10.287640      -279.9409
  62   2.0000     -10.286482      -279.9094
  63   2.0000     -10.286247      -279.9030
  64   2.0000     -10.285249      -279.8759
  65   2.0000     -10.285192      -279.8743
  66   2.0000     -10.284610      -279.8585
  67   2.0000     -10.272056      -279.5169
  68   2.0000     -10.269676      -279.4521
  69   2.0000     -10.269267      -279.4409
  70   2.0000     -10.268951      -279.4324
  71   2.0000      -9.565585      -260.2928
  72   2.0000      -9.564623      -260.2666
  73   2.0000      -8.080934      -219.8934
  74   2.0000      -8.079253      -219.8476
  75   2.0000      -8.070361      -219.6057
  76   2.0000      -8.069664      -219.5867
  77   2.0000      -8.067370      -219.5243
  78   2.0000      -8.066719      -219.5066
  79   2.0000      -7.336225      -199.6288
  80   2.0000      -7.335227      -199.6017
  81   2.0000      -7.325613      -199.3401
  82   2.0000      -7.325104      -199.3262
  83   2.0000      -7.324661      -199.3142
  84   2.0000      -7.324158      -199.3005
  85   2.0000      -6.050382      -164.6393
  86   2.0000      -6.048693      -164.5933
  87   2.0000      -6.045772      -164.5138
  88   2.0000      -6.044074      -164.4676
  89   2.0000      -6.043064      -164.4401
  90   2.0000      -6.041417      -164.3953
  91   2.0000      -6.039718      -164.3491
  92   2.0000      -6.038840      -164.3252
  93   2.0000      -6.036872      -164.2716
  94   2.0000      -6.036217      -164.2538
  95   2.0000      -6.035592      -164.2368
  96   2.0000      -6.034841      -164.2164
  97   2.0000      -6.032431      -164.1508
  98   2.0000      -6.032416      -164.1504
  99   2.0000      -6.031889      -164.1361
 100   2.0000      -6.031767      -164.1327
 101   2.0000      -6.029572      -164.0730
 102   2.0000      -6.028923      -164.0553
 103   2.0000      -1.320817       -35.9413
 104   2.0000      -1.190168       -32.3861
 105   2.0000      -1.165043       -31.7024
 106   2.0000      -1.129080       -30.7238
 107   2.0000      -1.125821       -30.6351
 108   2.0000      -1.030628       -28.0448
 109   2.0000      -1.028698       -27.9923
 110   2.0000      -1.028339       -27.9825
 111   2.0000      -1.026384       -27.9293
 112   2.0000      -1.022651       -27.8277
 113   2.0000      -1.014952       -27.6182
 114   2.0000      -1.008815       -27.4512
 115   2.0000      -1.007773       -27.4229
 116   2.0000      -0.991285       -26.9742
 117   2.0000      -0.988628       -26.9019
 118   2.0000      -0.986870       -26.8541
 119   2.0000      -0.983994       -26.7758
 120   2.0000      -0.979282       -26.6476
 121   2.0000      -0.977709       -26.6048
 122   2.0000      -0.948490       -25.8097
 123   2.0000      -0.946616       -25.7587
 124   2.0000      -0.938452       -25.5366
 125   2.0000      -0.937330       -25.5060
 126   2.0000      -0.925338       -25.1797
 127   2.0000      -0.903369       -24.5819
 128   2.0000      -0.900728       -24.5101
 129   2.0000      -0.897650       -24.4263
 130   2.0000      -0.888554       -24.1788
 131   2.0000      -0.886184       -24.1143
 132   2.0000      -0.864339       -23.5199
 133   2.0000      -0.853099       -23.2140
 134   2.0000      -0.842920       -22.9370
 135   2.0000      -0.841313       -22.8933
 136   2.0000      -0.833703       -22.6862
 137   2.0000      -0.832795       -22.6615
 138   2.0000      -0.827189       -22.5089
 139   2.0000      -0.824739       -22.4423
 140   2.0000      -0.822941       -22.3934
 141   2.0000      -0.819085       -22.2884
 142   2.0000      -0.808956       -22.0128
 143   2.0000      -0.799345       -21.7513
 144   2.0000      -0.783155       -21.3107
 145   2.0000      -0.782393       -21.2900
 146   2.0000      -0.781425       -21.2637
 147   2.0000      -0.758481       -20.6393
 148   2.0000      -0.749958       -20.4074
 149   2.0000      -0.746203       -20.3052
 150   2.0000      -0.743064       -20.2198
 151   2.0000      -0.739736       -20.1292
 152   2.0000      -0.721786       -19.6408
 153   2.0000      -0.714130       -19.4325
 154   2.0000      -0.710744       -19.3403
 155   2.0000      -0.702609       -19.1190
 156   2.0000      -0.686791       -18.6885
 157   2.0000      -0.679689       -18.4953
 158   2.0000      -0.671455       -18.2712
 159   2.0000      -0.667480       -18.1630
 160   2.0000      -0.667208       -18.1557
 161   2.0000      -0.660913       -17.9843
 162   2.0000      -0.658923       -17.9302
 163   2.0000      -0.648614       -17.6497
 164   2.0000      -0.644115       -17.5273
 165   2.0000      -0.640118       -17.4185
 166   2.0000      -0.635276       -17.2867
 167   2.0000      -0.632564       -17.2129
 168   2.0000      -0.627781       -17.0828
 169   2.0000      -0.620369       -16.8811
 170   2.0000      -0.619431       -16.8556
 171   2.0000      -0.617071       -16.7913
 172   2.0000      -0.613876       -16.7044
 173   2.0000      -0.608953       -16.5705
 174   2.0000      -0.601293       -16.3620
 175   2.0000      -0.596793       -16.2396
 176   2.0000      -0.591577       -16.0976
 177   2.0000      -0.587366       -15.9830
 178   2.0000      -0.579480       -15.7685
 179   2.0000      -0.575486       -15.6598
 180   2.0000      -0.574265       -15.6265
 181   2.0000      -0.568117       -15.4592
 182   2.0000      -0.563855       -15.3433
 183   2.0000      -0.556718       -15.1491
 184   2.0000      -0.554929       -15.1004
 185   2.0000      -0.548763       -14.9326
 186   2.0000      -0.541454       -14.7337
 187   2.0000      -0.540736       -14.7142
 188   2.0000      -0.539257       -14.6739
 189   2.0000      -0.537840       -14.6354
 190   2.0000      -0.536135       -14.5890
 191   2.0000      -0.535034       -14.5590
 192   2.0000      -0.533582       -14.5195
 193   2.0000      -0.528352       -14.3772
 194   2.0000      -0.525231       -14.2923
 195   2.0000      -0.523431       -14.2433
 196   2.0000      -0.520522       -14.1641
 197   2.0000      -0.519499       -14.1363
 198   2.0000      -0.516107       -14.0440
 199   2.0000      -0.513370       -13.9695
 200   2.0000      -0.512455       -13.9446
 201   2.0000      -0.511666       -13.9231
 202   2.0000      -0.507326       -13.8051
 203   2.0000      -0.503323       -13.6961
 204   2.0000      -0.501449       -13.6451
 205   2.0000      -0.499924       -13.6036
 206   2.0000      -0.499143       -13.5824
 207   2.0000      -0.496173       -13.5016
 208   2.0000      -0.491802       -13.3826
 209   2.0000      -0.489514       -13.3204
 210   2.0000      -0.487736       -13.2720
 211   2.0000      -0.486296       -13.2328
 212   2.0000      -0.484718       -13.1898
 213   2.0000      -0.483472       -13.1559
 214   2.0000      -0.482393       -13.1266
 215   2.0000      -0.477593       -12.9960
 216   2.0000      -0.476313       -12.9611
 217   2.0000      -0.473467       -12.8837
 218   2.0000      -0.470373       -12.7995
 219   2.0000      -0.464971       -12.6525
 220   2.0000      -0.462988       -12.5985
 221   2.0000      -0.460043       -12.5184
 222   2.0000      -0.459301       -12.4982
 223   2.0000      -0.452746       -12.3198
 224   2.0000      -0.450425       -12.2567
 225   2.0000      -0.446939       -12.1618
 226   2.0000      -0.446185       -12.1413
 227   2.0000      -0.445138       -12.1128
 228   2.0000      -0.444190       -12.0870
 229   2.0000      -0.442738       -12.0475
 230   2.0000      -0.441941       -12.0258
 231   2.0000      -0.441550       -12.0152
 232   2.0000      -0.437413       -11.9026
 233   2.0000      -0.437122       -11.8947
 234   2.0000      -0.436303       -11.8724
 235   2.0000      -0.435845       -11.8599
 236   2.0000      -0.434747       -11.8301
 237   2.0000      -0.431052       -11.7295
 238   2.0000      -0.427936       -11.6447
 239   2.0000      -0.427269       -11.6266
 240   2.0000      -0.426113       -11.5951
 241   2.0000      -0.422756       -11.5038
 242   2.0000      -0.421866       -11.4796
 243   2.0000      -0.420541       -11.4435
 244   2.0000      -0.418722       -11.3940
 245   2.0000      -0.413373       -11.2484
 246   2.0000      -0.412448       -11.2233
 247   2.0000      -0.411472       -11.1967
 248   2.0000      -0.411192       -11.1891
 249   2.0000      -0.408625       -11.1192
 250   2.0000      -0.404687       -11.0121
 251   2.0000      -0.402645       -10.9565
 252   2.0000      -0.401572       -10.9273
 253   2.0000      -0.396841       -10.7986
 254   2.0000      -0.395553       -10.7635
 255   2.0000      -0.395133       -10.7521
 256   2.0000      -0.384247       -10.4559
 257   2.0000      -0.380398       -10.3512
 258   2.0000      -0.371356       -10.1051
 259   2.0000      -0.357258        -9.7215
 260   2.0000      -0.353897        -9.6300
 261   2.0000      -0.336392        -9.1537
 262   2.0000      -0.336241        -9.1496
 263   2.0000      -0.335426        -9.1274
 264   2.0000      -0.334874        -9.1124
 265   2.0000      -0.334156        -9.0928
 266   2.0000      -0.330455        -8.9921
 267   2.0000      -0.329528        -8.9669
 268   2.0000      -0.327140        -8.9019
 269   2.0000      -0.323598        -8.8055
 270   2.0000      -0.311259        -8.4698
 271   2.0000      -0.303876        -8.2689
 272   2.0000      -0.294461        -8.0127
 273   2.0000      -0.262308        -7.1378
 274   2.0000      -0.237965        -6.4753
 275   0.0000      -0.106999        -2.9116
 276   0.0000      -0.090046        -2.4503
 277   0.0000      -0.071821        -1.9543
 278   0.0000      -0.044830        -1.2199
 279   0.0000      -0.042731        -1.1628

MULLIKEN ATOMIC CHARGES
-----------------------
   0 C :    0.028602
   1 C :   -0.131946
   2 S :    0.175189
   3 C :   -0.180806
   4 Cl:   -0.010453
   5 C :    0.089758
   6 C :    0.159039
   7 O :   -0.156881
   8 C :   -0.119246
   9 C :    0.303022
  10 C :   -0.358282
  11 C :   -0.196907
  12 N :    0.146828
  13 C :   -0.175897
  14 N :    0.141993
  15 C :    0.039233
  16 C :   -0.114758
  17 C :   -0.012609
  18 C :    0.001329
  19 C :   -0.064126
  20 S :    0.168739
  21 C :   -0.073290
  22 C :    0.039742
  23 C :   -0.104563
  24 C :    0.102607
  25 C :    0.103814
  26 C :   -0.069088
  27 C :   -0.162094
  28 S :    0.163145
  29 C :    0.171249
  30 C :    0.041735
  31 O :   -0.358860
  32 C :    0.178732
  33 C :    0.037350
  34 O :   -0.360859
  35 C :    0.178952
  36 C :    0.173795
  37 C :   -0.062755
  38 C :   -0.059689
  39 N :    0.035897
  40 O :   -0.086594
  41 N :    0.037308
  42 C :   -0.165814
  43 C :   -0.066922
  44 C :    0.033995
  45 C :   -0.065257
  46 S :    0.163341
  47 C :   -0.067477
  48 C :    0.030087
  49 C :   -0.113025
  50 C :    0.103231
  51 C :    0.101704
  52 C :   -0.002788
  53 C :   -0.092454
  54 S :    0.171791
  55 C :    0.042318
  56 C :   -0.163009
  57 C :    0.134112
  58 O :   -0.137917
  59 C :    0.090505
  60 C :   -0.174418
  61 S :    0.174063
  62 C :   -0.131230
  63 C :    0.017611
  64 C :    0.256561
  65 C :   -0.320900
  66 C :   -0.182702
  67 N :    0.142819
  68 C :   -0.205097
  69 N :    0.167643
  70 Cl:   -0.006849
  71 H :    0.051814
  72 H :   -0.002197
  73 H :    0.008518
  74 H :    0.019453
  75 H :    0.016286
  76 H :    0.021667
  77 H :    0.020499
  78 H :    0.021655
  79 H :    0.015600
  80 H :   -0.001397
  81 H :    0.029219
  82 H :    0.045738
  83 H :    0.050011
  84 H :    0.048815
  85 H :    0.032236
  86 H :    0.046118
  87 H :   -0.001630
  88 H :    0.021002
  89 H :    0.013466
  90 H :    0.018077
  91 H :    0.034124
  92 H :    0.016133
  93 H :    0.013875
  94 H :   -0.009040
  95 H :    0.027936
  96 H :    0.049743
Sum of atomic charges:   -0.0000000

LOEWDIN ATOMIC CHARGES
----------------------
   0 C :   -0.059166
   1 C :   -0.149941
   2 S :    0.463891
   3 C :   -0.275805
   4 Cl:    0.183284
   5 C :   -0.114030
   6 C :    0.084410
   7 O :   -0.148590
   8 C :   -0.111349
   9 C :    0.077351
  10 C :   -0.153898
  11 C :   -0.014944
  12 N :   -0.064213
  13 C :   -0.025483
  14 N :   -0.058707
  15 C :    0.044376
  16 C :   -0.178180
  17 C :   -0.001556
  18 C :   -0.041909
  19 C :   -0.162571
  20 S :    0.459320
  21 C :   -0.209914
  22 C :   -0.019707
  23 C :   -0.035967
  24 C :   -0.023056
  25 C :   -0.022561
  26 C :   -0.046465
  27 C :   -0.155789
  28 S :    0.469371
  29 C :   -0.060555
  30 C :    0.033218
  31 O :   -0.122586
  32 C :    0.078822
  33 C :    0.030359
  34 O :   -0.123975
  35 C :    0.079144
  36 C :   -0.057300
  37 C :   -0.042389
  38 C :   -0.042066
  39 N :   -0.022367
  40 O :    0.075032
  41 N :   -0.021489
  42 C :   -0.159125
  43 C :   -0.044285
  44 C :   -0.022515
  45 C :   -0.204857
  46 S :    0.470108
  47 C :   -0.159066
  48 C :   -0.038570
  49 C :   -0.035493
  50 C :   -0.024215
  51 C :   -0.022256
  52 C :   -0.004345
  53 C :   -0.181961
  54 S :    0.474625
  55 C :    0.053231
  56 C :   -0.112361
  57 C :    0.078313
  58 O :   -0.144036
  59 C :   -0.116409
  60 C :   -0.274138
  61 S :    0.463065
  62 C :   -0.154674
  63 C :   -0.056064
  64 C :    0.061324
  65 C :   -0.151841
  66 C :   -0.017680
  67 N :   -0.061269
  68 C :   -0.036109
  69 N :   -0.055135
  70 Cl:    0.186266
  71 H :    0.036464
  72 H :    0.042279
  73 H :    0.035160
  74 H :    0.029407
  75 H :    0.026114
  76 H :    0.028299
  77 H :    0.029888
  78 H :    0.028410
  79 H :    0.025972
  80 H :    0.032124
  81 H :    0.019274
  82 H :    0.030194
  83 H :    0.019187
  84 H :    0.019139
  85 H :    0.020381
  86 H :    0.030261
  87 H :    0.031984
  88 H :    0.029684
  89 H :    0.024711
  90 H :    0.027079
  91 H :    0.035091
  92 H :    0.025903
  93 H :    0.025131
  94 H :    0.037433
  95 H :    0.051597
  96 H :    0.036252

  Mayer bond orders larger than 0.100000
B(  0-C ,  1-C ) :   1.5538 B(  0-C ,  5-C ) :   1.2234 B(  0-C ,  9-C ) :   0.9828
B(  1-C ,  2-S ) :   1.1545 B(  1-C , 71-H ) :   0.9531 B(  2-S ,  3-C ) :   1.1426
B(  3-C ,  4-Cl) :   1.1183 B(  3-C ,  5-C ) :   1.4834 B(  5-C ,  6-C ) :   0.9609
B(  6-C ,  7-O ) :   2.1558 B(  6-C ,  8-C ) :   0.9491 B(  8-C ,  9-C ) :   1.1179
B(  8-C , 15-C ) :   1.5378 B(  9-C , 10-C ) :   1.6062 B( 10-C , 11-C ) :   1.1591
B( 10-C , 13-C ) :   1.1394 B( 11-C , 12-N ) :   2.9851 B( 13-C , 14-N ) :   2.9555
B( 15-C , 16-C ) :   1.2757 B( 15-C , 72-H ) :   0.9059 B( 16-C , 17-C ) :   1.3560
B( 16-C , 20-S ) :   1.0668 B( 17-C , 18-C ) :   1.3583 B( 17-C , 73-H ) :   0.9809
B( 18-C , 19-C ) :   1.4417 B( 18-C , 23-C ) :   0.9322 B( 19-C , 20-S ) :   1.1316
B( 19-C , 21-C ) :   1.1926 B( 21-C , 22-C ) :   1.4968 B( 21-C , 28-S ) :   1.0421
B( 22-C , 23-C ) :   0.9407 B( 22-C , 26-C ) :   1.2953 B( 23-C , 24-C ) :   1.0360
B( 23-C , 25-C ) :   1.0355 B( 24-C , 74-H ) :   0.9637 B( 24-C , 75-H ) :   0.9647
B( 24-C , 76-H ) :   0.9651 B( 25-C , 77-H ) :   0.9638 B( 25-C , 78-H ) :   0.9650
B( 25-C , 79-H ) :   0.9646 B( 26-C , 27-C ) :   1.4494 B( 26-C , 80-H ) :   0.9906
B( 27-C , 28-S ) :   1.1055 B( 27-C , 29-C ) :   1.1541 B( 29-C , 30-C ) :   1.4287
B( 29-C , 36-C ) :   0.1135 B( 29-C , 38-C ) :   1.1187 B( 30-C , 31-O ) :   1.1210
B( 30-C , 33-C ) :   1.1609 B( 31-O , 32-C ) :   0.8940 B( 32-C , 81-H ) :   0.9680
B( 32-C , 82-H ) :   0.9822 B( 32-C , 83-H ) :   0.9688 B( 33-C , 34-O ) :   1.1197
B( 33-C , 36-C ) :   1.4277 B( 34-O , 35-C ) :   0.8927 B( 35-C , 84-H ) :   0.9690
B( 35-C , 85-H ) :   0.9682 B( 35-C , 86-H ) :   0.9823 B( 36-C , 37-C ) :   1.1165
B( 36-C , 42-C ) :   1.1572 B( 37-C , 38-C ) :   1.1321 B( 37-C , 41-N ) :   1.6081
B( 38-C , 39-N ) :   1.6071 B( 39-N , 40-O ) :   1.0586 B( 39-N , 41-N ) :   0.1757
B( 40-O , 41-N ) :   1.0580 B( 42-C , 43-C ) :   1.4492 B( 42-C , 46-S ) :   1.1016
B( 43-C , 44-C ) :   1.2983 B( 43-C , 87-H ) :   0.9893 B( 44-C , 45-C ) :   1.4947
B( 44-C , 49-C ) :   0.9429 B( 45-C , 46-S ) :   1.0464 B( 45-C , 47-C ) :   1.2004
B( 47-C , 48-C ) :   1.4691 B( 47-C , 54-S ) :   1.1181 B( 48-C , 49-C ) :   0.9331
B( 48-C , 52-C ) :   1.3508 B( 49-C , 50-C ) :   1.0368 B( 49-C , 51-C ) :   1.0316
B( 50-C , 88-H ) :   0.9640 B( 50-C , 89-H ) :   0.9640 B( 50-C , 90-H ) :   0.9653
B( 51-C , 91-H ) :   0.9638 B( 51-C , 92-H ) :   0.9654 B( 51-C , 93-H ) :   0.9646
B( 52-C , 53-C ) :   1.3577 B( 52-C , 94-H ) :   1.0097 B( 53-C , 54-S ) :   1.0862
B( 53-C , 55-C ) :   1.1854 B( 55-C , 56-C ) :   1.5867 B( 55-C , 95-H ) :   0.9471
B( 56-C , 57-C ) :   0.9521 B( 56-C , 64-C ) :   1.0621 B( 57-C , 58-O ) :   2.2722
B( 57-C , 59-C ) :   0.9227 B( 59-C , 60-C ) :   1.4927 B( 59-C , 63-C ) :   1.2232
B( 60-C , 61-S ) :   1.1445 B( 60-C , 70-Cl) :   1.1231 B( 61-S , 62-C ) :   1.1522
B( 62-C , 63-C ) :   1.5599 B( 62-C , 96-H ) :   0.9566 B( 63-C , 64-C ) :   1.0075
B( 64-C , 65-C ) :   1.6417 B( 65-C , 66-C ) :   1.1412 B( 65-C , 68-C ) :   1.1521
B( 66-C , 67-N ) :   2.9973 B( 68-C , 69-N ) :   3.0222

-----------------------------------------------------------------------------
         ABSORPTION SPECTRUM VIA TRANSITION ELECTRIC DIPOLE MOMENTS
-----------------------------------------------------------------------------
State   Energy  Wavelength   fosc         T2         TX        TY        TZ
        (cm-1)    (nm)                  (au**2)     (au)      (au)      (au)
-----------------------------------------------------------------------------
   0   14101.8    709.1   2.444097829  57.05837   7.29480  -1.65244   1.05533
   1   18392.3    543.7   0.470282954   8.41781  -1.52655  -0.78944  -2.33758
   2   21644.5    462.0   0.051442233   0.78243  -0.68309   0.38495  -0.40943
   3   22104.5    452.4   0.021880780   0.32588   0.41405  -0.33042   0.21276
   4   26305.9    380.1   0.035747779   0.44738   0.46956   0.47410  -0.04597
   5   27379.2    365.2   0.046248168   0.55610  -0.68035   0.01204  -0.30508
   6   27855.9    359.0   0.050323621   0.59474  -0.42278   0.12862   0.63203
   7   28575.8    349.9   0.069596705   0.80180   0.63229   0.41439   0.47989
   8   28992.2    344.9   0.317978694   3.61071  -1.86271  -0.00413   0.37549
   9   29623.8    337.6   0.006118510   0.06800  -0.21110   0.08111   0.12982
  10   29956.2    333.8   0.013443725   0.14774  -0.25506   0.00828   0.28744
  11   30023.6    333.1   0.008620641   0.09453  -0.22114   0.03767   0.21025
  12   30514.7    327.7   0.132575934   1.43031   1.13278  -0.27975  -0.26242
  13   32225.4    310.3   0.086901295   0.88778   0.90268  -0.15733  -0.21953
  14   32482.7    307.9   0.061229076   0.62056  -0.65731   0.17394  -0.39780
  15   32712.6    305.7   0.146705120   1.47640   0.84817   0.34935   0.79685
  16   33150.8    301.7   0.047824959   0.47494  -0.40816   0.06130   0.55189
  17   33279.3    300.5   0.031335266   0.30998   0.10472   0.25715   0.48258
  18   33560.4    298.0   0.229821539   2.25444  -1.07833   0.17240   1.03050
  19   33735.5    296.4   0.021507919   0.20989  -0.25085   0.04096  -0.38116
  20   34418.6    290.5   0.043995912   0.42082   0.32027   0.30412   0.47514
  21   34932.5    286.3   0.038786456   0.36553  -0.40779  -0.25080  -0.36925
  22   35458.5    282.0   0.034705306   0.32222   0.02845  -0.02502  -0.56638
  23   35848.2    279.0   0.192520268   1.76801   1.07983   0.34877  -0.69306
  24   36190.3    276.3   0.017997174   0.16371  -0.27264   0.07507   0.28939
  25   37083.0    269.7   0.065420132   0.58078  -0.23771   0.48307   0.53936
  26   37334.1    267.9   0.029551195   0.26058  -0.25782   0.07760   0.43369
  27   37463.2    266.9   0.088805132   0.78038   0.83949   0.05525  -0.26943
  28   37744.3    264.9   0.116782984   1.01860   0.72719   0.00521  -0.69983
  29   37872.0    264.0   0.248347635   2.15883  -1.27803   0.04583   0.72344
  30   38171.2    262.0   0.221139106   1.90724  -0.92754   0.26567   0.98809
  31   38224.8    261.6   0.030057994   0.25887  -0.25346  -0.39709  -0.19223
  32   38860.3    257.3   0.113432740   0.96096  -0.60404  -0.11581   0.76334
  33   39150.4    255.4   0.070017987   0.58877  -0.62983  -0.09262   0.42838
  34   39377.6    254.0   0.074189747   0.62025   0.51341   0.08054  -0.59176
  35   39475.8    253.3   0.020142460   0.16798  -0.27617  -0.20839  -0.21974
  36   39700.9    251.9   0.077257496   0.64064   0.38863   0.00936  -0.69966
  37   39956.0    250.3   0.024620002   0.20285  -0.16377  -0.21731  -0.35890

FINAL SINGLE POINT ENERGY     -6006.741141343649

DIPOLE MOMENT
-------------
                                X             Y             Z
Electronic contribution:      1.99060      -7.30298     -36.34802
Nuclear contribution   :     -1.13327       8.64181      37.83260
                        -----------------------------------------
Total Dipole Moment    :      0.85733       1.33884       1.48457
                        -----------------------------------------
Magnitude (a.u.)       :      2.17519
Magnitude (Debye)      :      5.52889

Rotational constants in cm-1:     0.002387     0.000173     0.000164
Rotational constants in MHz :    71.568837     5.197746     4.918867

                             ****ORCA TERMINATED NORMALLY****
TOTAL RUN TIME: 0 days 0 hours 21 minutes 9 seconds 56 msec
