                         Program Version 4.2.0 -  RELEASE  -
|  1> # ORCA input file
|  2> # SCF done       -200.426037425011          0.000717797259
|  3> ! CAM-B3LYP def2-SVP def2/J RIJCOSX Grid4 TightSCF
|  4> %maxcore 5000
|  5> %tddft
|  6>     Mode sTDDFT
|  7>     Ethresh 5.0
|  8>     maxcore 5000
|  9> end
| 10>
| 11> %pal
| 12>   nprocs 6
| 13>   end
| 14> * xyz 0 1
| 15>    C       -0.82535        -2.81650        -0.03508
| 16>    C       -1.40444        -3.97636        -0.48609
| 17>    C       -0.88442        -5.23234        -0.11074
| 18>    N       -0.46411        -6.25358         0.20082
| 19>    C       -2.53005        -4.05007        -1.32383
| 20>    N       -3.44490        -4.17679        -2.00714
| 21>    C       -1.20927        -1.45170        -0.28779
| 22>    C       -0.37808        -0.52219         0.37116
| 23>    C       -0.62047         0.84189         0.22741
| 24>    C       -1.67133         1.26549        -0.56044
| 25>    C       -2.48913         0.34684        -1.21066
| 26>    C       -2.26681        -1.00916        -1.08025
| 27>    C        0.67452        -1.13151         1.14610
| 28>    S        0.57504        -2.88464         1.00615
| 29>    C        1.61240        -0.46906         1.87402
| 30>    C        2.67992        -0.99855         2.63338
| 31>    C        3.05478        -2.30343         2.90435
| 32>    C        4.21865        -2.41204         3.67086
| 33>    C        4.70710        -3.70936         4.16064
| 34>    C        4.94433        -4.79307         3.30723
| 35>    C        5.26761        -6.03961         3.84803
| 36>    C        5.39389        -6.20041         5.20759
| 37>    C        5.20206        -5.12822         6.06657
| 38>    C        4.84471        -3.89360         5.55128
| 39>    O        4.59356        -2.78924         6.32044
| 40>    C        4.73063        -2.89102         7.71562
| 41>    O        4.88605        -4.75401         1.95102
| 42>    C        5.30716        -3.59942         1.25297
| 43>    C        4.74991        -1.16860         4.01136
| 44>    S        3.77667         0.12213         3.40079
| 45>    C        5.88882        -0.88916         4.82400
| 46>    C        7.00116        -1.74794         4.91590
| 47>    C        8.01085        -1.56964         5.91856
| 48>    N        8.99397        -2.48627         6.03161
| 49>    C        9.04637        -3.47393         5.19988
| 50>    C        8.11622        -3.57788         4.13370
| 51>    N        7.13412        -2.74565         4.01349
| 52>    F        8.24663        -4.52251         3.20370
| 53>    F       10.01270        -4.37506         5.36075
| 54>    C        8.01671        -0.47738         6.81469
| 55>    C        6.96793         0.45542         6.63805
| 56>    C        5.93225         0.25126         5.65120
| 57>    N        5.03423         1.23671         5.66141
| 58>    S        5.44789         2.31144         6.77762
| 59>    N        6.77331         1.58664         7.31757
| 60>    C        9.01725        -0.33550         7.81429
| 61>    C        9.07470         0.61833         8.81656
| 62>    C       10.19887         0.51919         9.63557
| 63>    C       10.37226         1.31889        10.85419
| 64>    C       10.59190         0.67686        12.08185
| 65>    C       10.77733         1.43110        13.23294
| 66>    C       10.74140         2.81211        13.15753
| 67>    C       10.51631         3.46217        11.96027
| 68>    C       10.32537         2.72110        10.79820
| 69>    O       10.14284         3.25823         9.56785
| 70>    C       10.30756         4.65209         9.41445
| 71>    O       10.60722        -0.68804        12.04465
| 72>    C       10.83895        -1.39275        13.23899
| 73>    C       11.05067        -0.51297         9.23758
| 74>    S       10.37669        -1.41068         7.90347
| 75>    C       12.32013        -0.90154         9.73612
| 76>    C       13.27525        -0.08965        10.25975
| 77>    C       14.53618        -0.48120        10.83823
| 78>    C       15.32885         0.60770        11.26071
| 79>    C       14.69754         1.87760        11.01104
| 80>    C       15.12051         3.14938        11.32274
| 81>    C       16.33586         3.47566        11.94338
| 82>    N       17.31467         3.79565        12.45340
| 83>    C       14.27807         4.23854        11.02804
| 84>    N       13.56100         5.10259        10.78584
| 85>    S       13.15657         1.66542        10.23223
| 86>    C       16.57127         0.38512        11.85036
| 87>    C       17.01352        -0.91240        12.01688
| 88>    C       16.23072        -1.98733        11.60760
| 89>    C       14.99664        -1.78191        11.02329
| 90>    H        0.00709         1.56381         0.72577
| 91>    H       -1.86009         2.32226        -0.67392
| 92>    H       -3.30564         0.69542        -1.82365
| 93>    H       -2.90353        -1.71548        -1.58682
| 94>    H        1.55661         0.61144         1.86889
| 95>    H        2.49913        -3.16756         2.58722
| 96>    H        5.43038        -6.85818         3.16661
| 97>    H        5.66043        -7.16347         5.61502
| 98>    H        5.31929        -5.27259         7.12811
| 99>    H        5.75827        -3.13809         8.00387
|100>    H        4.04429        -3.63230         8.13622
|101>    H        4.47776        -1.90581         8.10586
|102>    H        5.98173        -2.99192         1.85726
|103>    H        4.45163        -2.99554         0.93522
|104>    H        5.83554        -3.95855         0.36790
|105>    H        8.30868         1.35905         8.94822
|106>    H       10.95339         0.95716        14.18455
|107>    H       10.89625         3.39326        14.05387
|108>    H       10.50737         4.53843        11.93609
|109>    H        9.52490         5.20794         9.94000
|110>    H       10.22198         4.83718         8.34507
|111>    H       11.29135         4.97748         9.76522
|112>    H       10.06803        -1.18557        13.98775
|113>    H       11.82491        -1.16380        13.65724
|114>    H       10.80067        -2.44663        12.96715
|115>    H       12.56470        -1.95030         9.62471
|116>    H       17.17981         1.21506        12.17096
|117>    H       17.97586        -1.09234        12.47041
|118>    H       16.59276        -2.99453        11.74851
|119>    H       14.39543        -2.62110        10.71041
|120> *
|121>
|122>                          ****END OF INPUT****

CARTESIAN COORDINATES (ANGSTROEM)
---------------------------------
  C     -0.825350   -2.816500   -0.035080
  C     -1.404440   -3.976360   -0.486090
  C     -0.884420   -5.232340   -0.110740
  N     -0.464110   -6.253580    0.200820
  C     -2.530050   -4.050070   -1.323830
  N     -3.444900   -4.176790   -2.007140
  C     -1.209270   -1.451700   -0.287790
  C     -0.378080   -0.522190    0.371160
  C     -0.620470    0.841890    0.227410
  C     -1.671330    1.265490   -0.560440
  C     -2.489130    0.346840   -1.210660
  C     -2.266810   -1.009160   -1.080250
  C      0.674520   -1.131510    1.146100
  S      0.575040   -2.884640    1.006150
  C      1.612400   -0.469060    1.874020
  C      2.679920   -0.998550    2.633380
  C      3.054780   -2.303430    2.904350
  C      4.218650   -2.412040    3.670860
  C      4.707100   -3.709360    4.160640
  C      4.944330   -4.793070    3.307230
  C      5.267610   -6.039610    3.848030
  C      5.393890   -6.200410    5.207590
  C      5.202060   -5.128220    6.066570
  C      4.844710   -3.893600    5.551280
  O      4.593560   -2.789240    6.320440
  C      4.730630   -2.891020    7.715620
  O      4.886050   -4.754010    1.951020
  C      5.307160   -3.599420    1.252970
  C      4.749910   -1.168600    4.011360
  S      3.776670    0.122130    3.400790
  C      5.888820   -0.889160    4.824000
  C      7.001160   -1.747940    4.915900
  C      8.010850   -1.569640    5.918560
  N      8.993970   -2.486270    6.031610
  C      9.046370   -3.473930    5.199880
  C      8.116220   -3.577880    4.133700
  N      7.134120   -2.745650    4.013490
  F      8.246630   -4.522510    3.203700
  F     10.012700   -4.375060    5.360750
  C      8.016710   -0.477380    6.814690
  C      6.967930    0.455420    6.638050
  C      5.932250    0.251260    5.651200
  N      5.034230    1.236710    5.661410
  S      5.447890    2.311440    6.777620
  N      6.773310    1.586640    7.317570
  C      9.017250   -0.335500    7.814290
  C      9.074700    0.618330    8.816560
  C     10.198870    0.519190    9.635570
  C     10.372260    1.318890   10.854190
  C     10.591900    0.676860   12.081850
  C     10.777330    1.431100   13.232940
  C     10.741400    2.812110   13.157530
  C     10.516310    3.462170   11.960270
  C     10.325370    2.721100   10.798200
  O     10.142840    3.258230    9.567850
  C     10.307560    4.652090    9.414450
  O     10.607220   -0.688040   12.044650
  C     10.838950   -1.392750   13.238990
  C     11.050670   -0.512970    9.237580
  S     10.376690   -1.410680    7.903470
  C     12.320130   -0.901540    9.736120
  C     13.275250   -0.089650   10.259750
  C     14.536180   -0.481200   10.838230
  C     15.328850    0.607700   11.260710
  C     14.697540    1.877600   11.011040
  C     15.120510    3.149380   11.322740
  C     16.335860    3.475660   11.943380
  N     17.314670    3.795650   12.453400
  C     14.278070    4.238540   11.028040
  N     13.561000    5.102590   10.785840
  S     13.156570    1.665420   10.232230
  C     16.571270    0.385120   11.850360
  C     17.013520   -0.912400   12.016880
  C     16.230720   -1.987330   11.607600
  C     14.996640   -1.781910   11.023290
  H      0.007090    1.563810    0.725770
  H     -1.860090    2.322260   -0.673920
  H     -3.305640    0.695420   -1.823650
  H     -2.903530   -1.715480   -1.586820
  H      1.556610    0.611440    1.868890
  H      2.499130   -3.167560    2.587220
  H      5.430380   -6.858180    3.166610
  H      5.660430   -7.163470    5.615020
  H      5.319290   -5.272590    7.128110
  H      5.758270   -3.138090    8.003870
  H      4.044290   -3.632300    8.136220
  H      4.477760   -1.905810    8.105860
  H      5.981730   -2.991920    1.857260
  H      4.451630   -2.995540    0.935220
  H      5.835540   -3.958550    0.367900
  H      8.308680    1.359050    8.948220
  H     10.953390    0.957160   14.184550
  H     10.896250    3.393260   14.053870
  H     10.507370    4.538430   11.936090
  H      9.524900    5.207940    9.940000
  H     10.221980    4.837180    8.345070
  H     11.291350    4.977480    9.765220
  H     10.068030   -1.185570   13.987750
  H     11.824910   -1.163800   13.657240
  H     10.800670   -2.446630   12.967150
  H     12.564700   -1.950300    9.624710
  H     17.179810    1.215060   12.170960
  H     17.975860   -1.092340   12.470410
  H     16.592760   -2.994530   11.748510
  H     14.395430   -2.621100   10.710410

 Total Charge           Charge          ....    0
 Multiplicity           Mult            ....    1
 Number of Electrons    NEL             ....  552
 Basis Dimension        Dim             .... 1220

ORBITAL ENERGIES
----------------

  NO   OCC          E(Eh)            E(eV)
   0   2.0000     -89.042036     -2422.9570
   1   2.0000     -88.971391     -2421.0346
   2   2.0000     -88.963880     -2420.8302
   3   2.0000     -88.961330     -2420.7609
   4   2.0000     -88.951751     -2420.5002
   5   2.0000     -24.815970      -675.2769
   6   2.0000     -24.812969      -675.1952
   7   2.0000     -19.249356      -523.8016
   8   2.0000     -19.245952      -523.7090
   9   2.0000     -19.240079      -523.5492
  10   2.0000     -19.230545      -523.2897
  11   2.0000     -14.454892      -393.3376
  12   2.0000     -14.453178      -393.2910
  13   2.0000     -14.451123      -393.2351
  14   2.0000     -14.450978      -393.2311
  15   2.0000     -14.408493      -392.0750
  16   2.0000     -14.408350      -392.0711
  17   2.0000     -14.405341      -391.9893
  18   2.0000     -14.404522      -391.9670
  19   2.0000     -10.431359      -283.8517
  20   2.0000     -10.426584      -283.7218
  21   2.0000     -10.355347      -281.7833
  22   2.0000     -10.351113      -281.6681
  23   2.0000     -10.342712      -281.4395
  24   2.0000     -10.342429      -281.4318
  25   2.0000     -10.339642      -281.3560
  26   2.0000     -10.338149      -281.3153
  27   2.0000     -10.335824      -281.2521
  28   2.0000     -10.332910      -281.1728
  29   2.0000     -10.331503      -281.1345
  30   2.0000     -10.330392      -281.1043
  31   2.0000     -10.329138      -281.0701
  32   2.0000     -10.327716      -281.0314
  33   2.0000     -10.327167      -281.0165
  34   2.0000     -10.325254      -280.9644
  35   2.0000     -10.324249      -280.9371
  36   2.0000     -10.317993      -280.7669
  37   2.0000     -10.315261      -280.6925
  38   2.0000     -10.312231      -280.6101
  39   2.0000     -10.311911      -280.6014
  40   2.0000     -10.311547      -280.5915
  41   2.0000     -10.311216      -280.5824
  42   2.0000     -10.310034      -280.5503
  43   2.0000     -10.309825      -280.5446
  44   2.0000     -10.308669      -280.5131
  45   2.0000     -10.308662      -280.5130
  46   2.0000     -10.308010      -280.4952
  47   2.0000     -10.306151      -280.4446
  48   2.0000     -10.306096      -280.4431
  49   2.0000     -10.305313      -280.4218
  50   2.0000     -10.305110      -280.4163
  51   2.0000     -10.302965      -280.3579
  52   2.0000     -10.302793      -280.3533
  53   2.0000     -10.302461      -280.3442
  54   2.0000     -10.297590      -280.2117
  55   2.0000     -10.294902      -280.1385
  56   2.0000     -10.294315      -280.1225
  57   2.0000     -10.293785      -280.1081
  58   2.0000     -10.293468      -280.0995
  59   2.0000     -10.292719      -280.0791
  60   2.0000     -10.292366      -280.0695
  61   2.0000     -10.289900      -280.0024
  62   2.0000     -10.288149      -279.9548
  63   2.0000     -10.287156      -279.9278
  64   2.0000     -10.280922      -279.7581
  65   2.0000     -10.280831      -279.7556
  66   2.0000     -10.275659      -279.6149
  67   2.0000     -10.272014      -279.5157
  68   2.0000     -10.270631      -279.4781
  69   2.0000     -10.269455      -279.4461
  70   2.0000     -10.268622      -279.4234
  71   2.0000     -10.262427      -279.2548
  72   2.0000     -10.260774      -279.2099
  73   2.0000     -10.256906      -279.1046
  74   2.0000     -10.253833      -279.0210
  75   2.0000      -8.133409      -221.3213
  76   2.0000      -8.066520      -219.5012
  77   2.0000      -8.058612      -219.2860
  78   2.0000      -8.056325      -219.2238
  79   2.0000      -8.045946      -218.9413
  80   2.0000      -6.104488      -166.1116
  81   2.0000      -6.096703      -165.8997
  82   2.0000      -6.096182      -165.8855
  83   2.0000      -6.036290      -164.2558
  84   2.0000      -6.032027      -164.1398
  85   2.0000      -6.028400      -164.0411
  86   2.0000      -6.027628      -164.0201
  87   2.0000      -6.025573      -163.9642
  88   2.0000      -6.024007      -163.9216
  89   2.0000      -6.021394      -163.8505
  90   2.0000      -6.019786      -163.8067
  91   2.0000      -6.018534      -163.7726
  92   2.0000      -6.015397      -163.6873
  93   2.0000      -6.010984      -163.5672
  94   2.0000      -6.008015      -163.4864
  95   2.0000      -1.342039       -36.5187
  96   2.0000      -1.327602       -36.1259
  97   2.0000      -1.152773       -31.3685
  98   2.0000      -1.149897       -31.2903
  99   2.0000      -1.144237       -31.1363
 100   2.0000      -1.139586       -31.0097
 101   2.0000      -1.135164       -30.8894
 102   2.0000      -1.113197       -30.2916
 103   2.0000      -1.039369       -28.2827
 104   2.0000      -1.021173       -27.7875
 105   2.0000      -1.018626       -27.7182
 106   2.0000      -1.001886       -27.2627
 107   2.0000      -0.997368       -27.1398
 108   2.0000      -0.996654       -27.1203
 109   2.0000      -0.992877       -27.0176
 110   2.0000      -0.985674       -26.8215
 111   2.0000      -0.984522       -26.7902
 112   2.0000      -0.982297       -26.7296
 113   2.0000      -0.965370       -26.2691
 114   2.0000      -0.949202       -25.8291
 115   2.0000      -0.947109       -25.7722
 116   2.0000      -0.943190       -25.6655
 117   2.0000      -0.941227       -25.6121
 118   2.0000      -0.926295       -25.2058
 119   2.0000      -0.921715       -25.0811
 120   2.0000      -0.897185       -24.4136
 121   2.0000      -0.885479       -24.0951
 122   2.0000      -0.880185       -23.9510
 123   2.0000      -0.870157       -23.6782
 124   2.0000      -0.867896       -23.6167
 125   2.0000      -0.866125       -23.5685
 126   2.0000      -0.857259       -23.3272
 127   2.0000      -0.851107       -23.1598
 128   2.0000      -0.846120       -23.0241
 129   2.0000      -0.842527       -22.9263
 130   2.0000      -0.840413       -22.8688
 131   2.0000      -0.838381       -22.8135
 132   2.0000      -0.826599       -22.4929
 133   2.0000      -0.817456       -22.2441
 134   2.0000      -0.815681       -22.1958
 135   2.0000      -0.806483       -21.9455
 136   2.0000      -0.794544       -21.6206
 137   2.0000      -0.785738       -21.3810
 138   2.0000      -0.780745       -21.2451
 139   2.0000      -0.768346       -20.9078
 140   2.0000      -0.768235       -20.9047
 141   2.0000      -0.764811       -20.8116
 142   2.0000      -0.761190       -20.7130
 143   2.0000      -0.747868       -20.3505
 144   2.0000      -0.743732       -20.2380
 145   2.0000      -0.725394       -19.7390
 146   2.0000      -0.723080       -19.6760
 147   2.0000      -0.715788       -19.4776
 148   2.0000      -0.701408       -19.0863
 149   2.0000      -0.699069       -19.0226
 150   2.0000      -0.698120       -18.9968
 151   2.0000      -0.696272       -18.9465
 152   2.0000      -0.690539       -18.7905
 153   2.0000      -0.679815       -18.4987
 154   2.0000      -0.676605       -18.4114
 155   2.0000      -0.673581       -18.3291
 156   2.0000      -0.668768       -18.1981
 157   2.0000      -0.664189       -18.0735
 158   2.0000      -0.663006       -18.0413
 159   2.0000      -0.652776       -17.7629
 160   2.0000      -0.652273       -17.7493
 161   2.0000      -0.646973       -17.6050
 162   2.0000      -0.636417       -17.3178
 163   2.0000      -0.632044       -17.1988
 164   2.0000      -0.629763       -17.1367
 165   2.0000      -0.629124       -17.1193
 166   2.0000      -0.621277       -16.9058
 167   2.0000      -0.617624       -16.8064
 168   2.0000      -0.615270       -16.7423
 169   2.0000      -0.608763       -16.5653
 170   2.0000      -0.603611       -16.4251
 171   2.0000      -0.589064       -16.0292
 172   2.0000      -0.586490       -15.9592
 173   2.0000      -0.585289       -15.9265
 174   2.0000      -0.583453       -15.8766
 175   2.0000      -0.578013       -15.7285
 176   2.0000      -0.574337       -15.6285
 177   2.0000      -0.572299       -15.5730
 178   2.0000      -0.570848       -15.5336
 179   2.0000      -0.568005       -15.4562
 180   2.0000      -0.567392       -15.4395
 181   2.0000      -0.565702       -15.3935
 182   2.0000      -0.564897       -15.3716
 183   2.0000      -0.561955       -15.2916
 184   2.0000      -0.557146       -15.1607
 185   2.0000      -0.556653       -15.1473
 186   2.0000      -0.550902       -14.9908
 187   2.0000      -0.547301       -14.8928
 188   2.0000      -0.545065       -14.8320
 189   2.0000      -0.538677       -14.6581
 190   2.0000      -0.536834       -14.6080
 191   2.0000      -0.534828       -14.5534
 192   2.0000      -0.533658       -14.5216
 193   2.0000      -0.531469       -14.4620
 194   2.0000      -0.529673       -14.4131
 195   2.0000      -0.527134       -14.3440
 196   2.0000      -0.524083       -14.2610
 197   2.0000      -0.521977       -14.2037
 198   2.0000      -0.520203       -14.1555
 199   2.0000      -0.520060       -14.1515
 200   2.0000      -0.515602       -14.0302
 201   2.0000      -0.514791       -14.0082
 202   2.0000      -0.510840       -13.9007
 203   2.0000      -0.507068       -13.7980
 204   2.0000      -0.504497       -13.7281
 205   2.0000      -0.501087       -13.6353
 206   2.0000      -0.497173       -13.5288
 207   2.0000      -0.494146       -13.4464
 208   2.0000      -0.488969       -13.3055
 209   2.0000      -0.486477       -13.2377
 210   2.0000      -0.485464       -13.2102
 211   2.0000      -0.483458       -13.1556
 212   2.0000      -0.482306       -13.1242
 213   2.0000      -0.479754       -13.0548
 214   2.0000      -0.478934       -13.0325
 215   2.0000      -0.475989       -12.9523
 216   2.0000      -0.471427       -12.8282
 217   2.0000      -0.464380       -12.6364
 218   2.0000      -0.459777       -12.5112
 219   2.0000      -0.458024       -12.4635
 220   2.0000      -0.455756       -12.4017
 221   2.0000      -0.452433       -12.3113
 222   2.0000      -0.450243       -12.2517
 223   2.0000      -0.449736       -12.2379
 224   2.0000      -0.448482       -12.2038
 225   2.0000      -0.448261       -12.1978
 226   2.0000      -0.446631       -12.1534
 227   2.0000      -0.445081       -12.1113
 228   2.0000      -0.443447       -12.0668
 229   2.0000      -0.441457       -12.0127
 230   2.0000      -0.438387       -11.9291
 231   2.0000      -0.436974       -11.8907
 232   2.0000      -0.435673       -11.8553
 233   2.0000      -0.434815       -11.8319
 234   2.0000      -0.432426       -11.7669
 235   2.0000      -0.431102       -11.7309
 236   2.0000      -0.428883       -11.6705
 237   2.0000      -0.427072       -11.6212
 238   2.0000      -0.422708       -11.5025
 239   2.0000      -0.421083       -11.4583
 240   2.0000      -0.420490       -11.4421
 241   2.0000      -0.418596       -11.3906
 242   2.0000      -0.417655       -11.3650
 243   2.0000      -0.416570       -11.3354
 244   2.0000      -0.411891       -11.2081
 245   2.0000      -0.411453       -11.1962
 246   2.0000      -0.408706       -11.1214
 247   2.0000      -0.406901       -11.0723
 248   2.0000      -0.403665       -10.9843
 249   2.0000      -0.402917       -10.9639
 250   2.0000      -0.402267       -10.9463
 251   2.0000      -0.400899       -10.9090
 252   2.0000      -0.397977       -10.8295
 253   2.0000      -0.394710       -10.7406
 254   2.0000      -0.391125       -10.6431
 255   2.0000      -0.384548       -10.4641
 256   2.0000      -0.377918       -10.2837
 257   2.0000      -0.375116       -10.2074
 258   2.0000      -0.369674       -10.0593
 259   2.0000      -0.359712        -9.7883
 260   2.0000      -0.355390        -9.6707
 261   2.0000      -0.343075        -9.3355
 262   2.0000      -0.339612        -9.2413
 263   2.0000      -0.338163        -9.2019
 264   2.0000      -0.336091        -9.1455
 265   2.0000      -0.326716        -8.8904
 266   2.0000      -0.324976        -8.8430
 267   2.0000      -0.321571        -8.7504
 268   2.0000      -0.314347        -8.5538
 269   2.0000      -0.292135        -7.9494
 270   2.0000      -0.285106        -7.7581
 271   2.0000      -0.283355        -7.7105
 272   2.0000      -0.280787        -7.6406
 273   2.0000      -0.273258        -7.4357
 274   2.0000      -0.263304        -7.1649
 275   2.0000      -0.235432        -6.4064
 276   0.0000      -0.112655        -3.0655
 277   0.0000      -0.075509        -2.0547
 278   0.0000      -0.070294        -1.9128
 279   0.0000      -0.030837        -0.8391
 280   0.0000      -0.026591        -0.7236

MULLIKEN ATOMIC CHARGES
-----------------------
   0 C :    0.090724
   1 C :   -0.291253
   2 C :   -0.211644
   3 N :    0.156785
   4 C :   -0.175979
   5 N :    0.151832
   6 C :    0.035897
   7 C :    0.152295
   8 C :   -0.055512
   9 C :    0.047826
  10 C :    0.028310
  11 C :   -0.020574
  12 C :   -0.042544
  13 S :    0.111143
  14 C :    0.034718
  15 C :   -0.078940
  16 C :   -0.081465
  17 C :    0.094919
  18 C :   -0.031067
  19 C :    0.151982
  20 C :   -0.022950
  21 C :    0.042117
  22 C :   -0.124380
  23 C :    0.200645
  24 O :   -0.319849
  25 C :    0.179574
  26 O :   -0.318871
  27 C :    0.203711
  28 C :   -0.210366
  29 S :    0.175064
  30 C :    0.177052
  31 C :   -0.102034
  32 C :   -0.066001
  33 N :   -0.032249
  34 C :    0.151950
  35 C :    0.162464
  36 N :    0.014419
  37 F :   -0.145313
  38 F :   -0.139941
  39 C :    0.203978
  40 C :   -0.025889
  41 C :   -0.027282
  42 N :   -0.293238
  43 S :    0.538201
  44 N :   -0.280458
  45 C :   -0.188023
  46 C :   -0.014794
  47 C :    0.150817
  48 C :   -0.135389
  49 C :    0.233874
  50 C :   -0.114076
  51 C :    0.046033
  52 C :   -0.094988
  53 C :    0.229759
  54 O :   -0.306787
  55 C :    0.169315
  56 O :   -0.311571
  57 C :    0.180789
  58 C :   -0.117111
  59 S :    0.149650
  60 C :    0.000168
  61 C :   -0.043587
  62 C :    0.149645
  63 C :    0.034674
  64 C :    0.079114
  65 C :   -0.293348
  66 C :   -0.179969
  67 N :    0.148676
  68 C :   -0.174184
  69 N :    0.117455
  70 S :    0.150361
  71 C :   -0.026405
  72 C :    0.030220
  73 C :    0.047471
  74 C :   -0.058377
  75 H :   -0.016500
  76 H :   -0.002444
  77 H :   -0.001473
  78 H :    0.006484
  79 H :   -0.014918
  80 H :    0.014859
  81 H :   -0.023581
  82 H :   -0.013645
  83 H :   -0.036358
  84 H :    0.023826
  85 H :    0.028156
  86 H :    0.034442
  87 H :    0.034144
  88 H :    0.015043
  89 H :    0.025576
  90 H :   -0.009237
  91 H :   -0.039017
  92 H :   -0.011324
  93 H :   -0.024092
  94 H :    0.015952
  95 H :    0.029793
  96 H :    0.041685
  97 H :    0.024956
  98 H :    0.022602
  99 H :    0.032847
 100 H :   -0.004445
 101 H :    0.005860
 102 H :   -0.003353
 103 H :   -0.004101
 104 H :   -0.018955
Sum of atomic charges:   -0.0000000

LOEWDIN ATOMIC CHARGES
----------------------
   0 C :   -0.063572
   1 C :   -0.170644
   2 C :   -0.039556
   3 N :   -0.043823
   4 C :   -0.022828
   5 N :   -0.056376
   6 C :   -0.052584
   7 C :   -0.013300
   8 C :   -0.014716
   9 C :    0.002396
  10 C :   -0.016462
  11 C :    0.010580
  12 C :   -0.153557
  13 S :    0.441216
  14 C :   -0.042115
  15 C :   -0.182462
  16 C :   -0.043399
  17 C :   -0.029793
  18 C :   -0.085848
  19 C :    0.069423
  20 C :   -0.058174
  21 C :   -0.008534
  22 C :   -0.102849
  23 C :    0.059401
  24 O :   -0.097553
  25 C :    0.074996
  26 O :   -0.106828
  27 C :    0.075878
  28 C :   -0.157321
  29 S :    0.479553
  30 C :   -0.042209
  31 C :   -0.007706
  32 C :   -0.018837
  33 N :   -0.056040
  34 C :    0.065264
  35 C :    0.058896
  36 N :   -0.017751
  37 F :   -0.028120
  38 F :   -0.029042
  39 C :   -0.037213
  40 C :   -0.041186
  41 C :   -0.046285
  42 N :   -0.296974
  43 S :    0.667116
  44 N :   -0.275126
  45 C :   -0.172961
  46 C :   -0.012629
  47 C :   -0.040739
  48 C :   -0.106736
  49 C :    0.066731
  50 C :   -0.097680
  51 C :    0.002618
  52 C :   -0.086734
  53 C :    0.062155
  54 O :   -0.094849
  55 C :    0.074794
  56 O :   -0.097246
  57 C :    0.075154
  58 C :   -0.177479
  59 S :    0.466710
  60 C :   -0.031194
  61 C :   -0.153292
  62 C :   -0.013155
  63 C :   -0.052973
  64 C :   -0.063178
  65 C :   -0.185622
  66 C :   -0.026048
  67 N :   -0.063555
  68 C :   -0.021719
  69 N :   -0.066369
  70 S :    0.490223
  71 C :    0.009350
  72 C :   -0.018283
  73 C :    0.000407
  74 C :   -0.016199
  75 H :    0.030419
  76 H :    0.034633
  77 H :    0.035307
  78 H :    0.041330
  79 H :    0.034766
  80 H :    0.022953
  81 H :    0.032747
  82 H :    0.030683
  83 H :    0.025774
  84 H :    0.013458
  85 H :    0.017481
  86 H :    0.027048
  87 H :    0.015865
  88 H :    0.011408
  89 H :    0.021580
  90 H :    0.029812
  91 H :    0.025349
  92 H :    0.031734
  93 H :    0.031077
  94 H :    0.012502
  95 H :    0.026489
  96 H :    0.020053
  97 H :    0.015693
  98 H :    0.014721
  99 H :    0.026818
 100 H :    0.035237
 101 H :    0.041065
 102 H :    0.034512
 103 H :    0.033823
 104 H :    0.030231

  Mayer bond orders larger than 0.100000
B(  0-C ,  1-C ) :   1.6193 B(  0-C ,  6-C ) :   1.0844 B(  0-C , 13-S ) :   1.1028
B(  1-C ,  2-C ) :   1.1352 B(  1-C ,  4-C ) :   1.1705 B(  2-C ,  3-N ) :   3.0349
B(  4-C ,  5-N ) :   2.9682 B(  6-C ,  7-C ) :   1.3203 B(  6-C , 11-C ) :   1.3388
B(  7-C ,  8-C ) :   1.3477 B(  7-C , 12-C ) :   1.0635 B(  8-C ,  9-C ) :   1.4184
B(  8-C , 75-H ) :   0.9901 B(  9-C , 10-C ) :   1.3410 B(  9-C , 76-H ) :   0.9867
B( 10-C , 11-C ) :   1.4185 B( 10-C , 77-H ) :   0.9872 B( 11-C , 78-H ) :   0.9813
B( 12-C , 13-S ) :   0.9928 B( 12-C , 14-C ) :   1.6996 B( 14-C , 15-C ) :   1.1488
B( 14-C , 79-H ) :   0.9400 B( 15-C , 16-C ) :   1.4179 B( 15-C , 28-C ) :   0.1009
B( 15-C , 29-S ) :   1.1036 B( 16-C , 17-C ) :   1.3284 B( 16-C , 80-H ) :   0.9895
B( 17-C , 18-C ) :   0.9154 B( 17-C , 28-C ) :   1.4818 B( 18-C , 19-C ) :   1.3699
B( 18-C , 23-C ) :   1.3604 B( 19-C , 20-C ) :   1.3508 B( 19-C , 26-O ) :   1.1723
B( 20-C , 21-C ) :   1.3867 B( 20-C , 81-H ) :   0.9979 B( 21-C , 22-C ) :   1.3063
B( 21-C , 82-H ) :   0.9921 B( 22-C , 23-C ) :   1.3436 B( 22-C , 83-H ) :   1.0052
B( 23-C , 24-O ) :   1.1469 B( 24-O , 25-C ) :   0.9634 B( 25-C , 84-H ) :   0.9666
B( 25-C , 85-H ) :   0.9685 B( 25-C , 86-H ) :   0.9780 B( 26-O , 27-C ) :   0.9372
B( 27-C , 87-H ) :   0.9563 B( 27-C , 88-H ) :   0.9639 B( 27-C , 89-H ) :   0.9746
B( 28-C , 29-S ) :   1.1575 B( 28-C , 30-C ) :   1.0906 B( 30-C , 31-C ) :   1.3268
B( 30-C , 39-C ) :   0.1314 B( 30-C , 41-C ) :   1.2280 B( 31-C , 32-C ) :   1.1104
B( 31-C , 36-N ) :   1.4248 B( 32-C , 33-N ) :   1.3781 B( 32-C , 39-C ) :   1.2926
B( 33-N , 34-C ) :   1.6665 B( 34-C , 35-C ) :   1.1058 B( 34-C , 38-F ) :   1.1847
B( 35-C , 36-N ) :   1.6447 B( 35-C , 37-F ) :   1.1498 B( 39-C , 40-C ) :   1.1975
B( 39-C , 45-C ) :   1.1576 B( 40-C , 41-C ) :   1.1189 B( 40-C , 44-N ) :   1.5149
B( 41-C , 42-N ) :   1.4967 B( 42-N , 43-S ) :   1.2753 B( 42-N , 44-N ) :   0.1549
B( 43-S , 44-N ) :   1.2798 B( 45-C , 46-C ) :   1.4463 B( 45-C , 59-S ) :   1.1151
B( 46-C , 47-C ) :   1.2933 B( 46-C , 90-H ) :   0.9906 B( 47-C , 48-C ) :   0.9159
B( 47-C , 58-C ) :   1.4651 B( 48-C , 49-C ) :   1.4118 B( 48-C , 53-C ) :   1.3829
B( 49-C , 50-C ) :   1.3068 B( 49-C , 56-O ) :   1.1621 B( 50-C , 51-C ) :   1.3450
B( 50-C , 91-H ) :   1.0036 B( 51-C , 52-C ) :   1.3607 B( 51-C , 92-H ) :   0.9897
B( 52-C , 53-C ) :   1.3000 B( 52-C , 93-H ) :   1.0023 B( 53-C , 54-O ) :   1.2026
B( 54-O , 55-C ) :   0.9450 B( 55-C , 94-H ) :   0.9678 B( 55-C , 95-H ) :   0.9766
B( 55-C , 96-H ) :   0.9613 B( 56-O , 57-C ) :   0.9641 B( 57-C , 97-H ) :   0.9688
B( 57-C , 98-H ) :   0.9687 B( 57-C , 99-H ) :   0.9788 B( 58-C , 59-S ) :   1.0758
B( 58-C , 60-C ) :   1.1156 B( 60-C , 61-C ) :   1.7175 B( 60-C ,100-H ) :   0.9408
B( 61-C , 62-C ) :   1.0570 B( 61-C , 70-S ) :   1.0045 B( 62-C , 63-C ) :   1.3228
B( 62-C , 74-C ) :   1.3516 B( 63-C , 64-C ) :   1.0825 B( 63-C , 71-C ) :   1.3398
B( 64-C , 65-C ) :   1.5837 B( 64-C , 70-S ) :   1.1377 B( 65-C , 66-C ) :   1.1698
B( 65-C , 68-C ) :   1.1510 B( 66-C , 67-N ) :   2.9725 B( 68-C , 69-N ) :   2.9448
B( 71-C , 72-C ) :   1.4114 B( 71-C ,101-H ) :   0.9834 B( 72-C , 73-C ) :   1.3458
B( 72-C ,102-H ) :   0.9870 B( 73-C , 74-C ) :   1.4074 B( 73-C ,103-H ) :   0.9870
B( 74-C ,104-H ) :   0.9924

-----------------------------------------------------------------------------
         ABSORPTION SPECTRUM VIA TRANSITION ELECTRIC DIPOLE MOMENTS
-----------------------------------------------------------------------------
State   Energy  Wavelength   fosc         T2         TX        TY        TZ
        (cm-1)    (nm)                  (au**2)     (au)      (au)      (au)
-----------------------------------------------------------------------------
   0   11320.8    883.3   0.938787610  27.30016   4.06567   1.02982   3.11608
   1   17530.1    570.4   0.046874577   0.88029   0.74159   0.27503   0.50468
   2   19071.9    524.3   0.002733626   0.04719  -0.14614   0.01975  -0.15950
   3   19493.4    513.0   0.023145700   0.39089   0.20529   0.43403   0.40046
   4   20383.3    490.6   0.128999937   2.08349  -1.19551  -0.15949  -0.79297
   5   21124.0    473.4   0.944832113  14.72494  -3.12525  -1.11093  -1.92966
   6   21477.6    465.6   0.020898823   0.32034  -0.20813   0.22255  -0.47696
   7   22848.7    437.7   0.007759415   0.11180  -0.30594  -0.08855  -0.10179
   8   24909.4    401.5   0.041945767   0.55437   0.61774   0.36918   0.19099
   9   25370.4    394.2   0.214021103   2.77718   1.17746   0.90793   0.75262
  10   27212.8    367.5   0.003121873   0.03777   0.11076  -0.07649   0.14017
  11   27676.3    361.3   0.002801475   0.03332   0.01865  -0.18159   0.00088
  12   27953.3    357.7   0.001751392   0.02063   0.13910   0.00673   0.03512
  13   28212.2    354.5   0.091576201   1.06862   0.28738   0.97871   0.16781
  14   28820.9    347.0   0.011492855   0.13128   0.19045  -0.02833   0.30693
  15   29358.3    340.6   0.064979989   0.72866   0.59684  -0.27893   0.54281
  16   29651.5    337.3   0.114286770   1.26889  -0.83634   0.64000  -0.39978
  17   29837.1    335.2   0.090969459   1.00372  -0.30017  -0.62262  -0.72523
  18   30256.2    330.5   0.044864142   0.48816   0.66953   0.18075  -0.08493
  19   30686.2    325.9   0.238995460   2.56402   1.36511   0.52117   0.65488
  20   30943.1    323.2   0.087985717   0.93610  -0.23573   0.87137   0.34820
  21   31665.3    315.8   0.000530990   0.00552   0.00577  -0.03142  -0.06708
  22   31971.0    312.8   0.024424168   0.25150   0.35409  -0.11006   0.33765
  23   32905.5    303.9   0.243682920   2.43799  -1.01016   1.01238  -0.62663
  24   33414.4    299.3   0.016952899   0.16703   0.32374  -0.14897   0.20007
  25   34276.3    291.7   0.010395993   0.09985   0.18803  -0.20613   0.14834
  26   34565.4    289.3   0.008013862   0.07633  -0.05270  -0.26587  -0.05348
  27   34651.8    288.6   0.001165273   0.01107  -0.00390   0.08358  -0.06380
  28   34912.6    286.4   0.105566224   0.99545   0.23545   0.96661  -0.07541
  29   35046.6    285.3   0.007554305   0.07096  -0.03750  -0.25478   0.06814
  30   35092.6    285.0   0.065289254   0.61249   0.18048   0.76030  -0.04316
  31   35269.0    283.5   0.061893286   0.57773   0.20899  -0.71419  -0.15486
  32   35376.8    282.7   0.023415704   0.21790   0.00983   0.44353   0.14520
  33   35507.4    281.6   0.175092503   1.62339   0.22819  -1.21356  -0.31400
  34   35864.1    278.8   0.131603392   1.20804   0.31839   1.05195  -0.00871
  35   36542.7    273.7   0.249840156   2.25080  -0.51126   1.35855   0.37916
  36   36744.2    272.2   0.002751647   0.02465  -0.10932   0.07310  -0.08579
  37   36848.8    271.4   0.218786275   1.95467   0.41869  -1.06333  -0.80542
  38   37262.6    268.4   0.237261180   2.09618   0.62356  -1.06070  -0.76307
  39   37410.2    267.3   0.037838857   0.33298  -0.17667   0.54691  -0.05156
  40   37682.1    265.4   0.030821386   0.26927  -0.13915   0.03682   0.49855
  41   37873.3    264.0   0.022564663   0.19614   0.26201  -0.35689   0.01092
  42   37961.7    263.4   0.002564842   0.02224   0.01619  -0.14826  -0.00090
  43   38136.4    262.2   0.078086844   0.67408  -0.22201   0.76783   0.18771
  44   38549.7    259.4   0.020277535   0.17317   0.08903   0.30954  -0.26350
  45   38658.0    258.7   0.023627462   0.20121   0.27384  -0.32292  -0.14815
  46   38817.8    257.6   0.044340971   0.37605  -0.41450  -0.31872  -0.32041
  47   39077.5    255.9   0.015538478   0.13091  -0.14472  -0.13301  -0.30376
  48   39192.6    255.2   0.147060866   1.23529  -0.46885   1.00283   0.09896
  49   39452.3    253.5   0.169471405   1.41417   0.75635  -0.90777   0.13434
  50   39699.6    251.9   0.022501786   0.18660   0.10942   0.13763   0.39456
  51   39808.6    251.2   0.069373229   0.57371  -0.56314  -0.00325  -0.50653
  52   40042.9    249.7   0.015220965   0.12514  -0.20084   0.23950   0.16566
  53   40135.7    249.2   0.031895147   0.26162  -0.03431   0.48746   0.15107
  54   40278.3    248.3   0.116278441   0.95039  -0.16703   0.95351  -0.11535

FINAL SINGLE POINT ENERGY     -5077.001937081503

DIPOLE MOMENT
-------------
                                X             Y             Z
Electronic contribution:     -4.98918      -6.60679     -31.69300
Nuclear contribution   :      5.36132       7.54856      33.69535
                        -----------------------------------------
Total Dipole Moment    :      0.37214       0.94177       2.00235
                        -----------------------------------------
Magnitude (a.u.)       :      2.24384
Magnitude (Debye)      :      5.70338

Rotational constants in cm-1:     0.002207     0.000315     0.000291
Rotational constants in MHz :    66.156902     9.438214     8.728637

                             ****ORCA TERMINATED NORMALLY****
TOTAL RUN TIME: 0 days 0 hours 13 minutes 18 seconds 709 msec
