                         Program Version 4.2.0 -  RELEASE  -
|  1> # ORCA input file
|  2> # SCF done       -141.745583120918          0.000468228449
|  3> ! CAM-B3LYP def2-SVP def2/J RIJCOSX Grid4 TightSCF
|  4> %maxcore 5000
|  5> %tddft
|  6>     Mode sTDDFT
|  7>     Ethresh 5.0
|  8>     maxcore 5000
|  9> end
| 10>
| 11> %pal
| 12>   nprocs 6
| 13>   end
| 14> * xyz 0 1
| 15>    C       -0.01143        -0.22864        -3.92948
| 16>    C       -0.31797        -0.54053        -2.60116
| 17>    C        0.54262        -0.11487        -1.58678
| 18>    C        1.69370         0.61245        -1.89506
| 19>    C        1.97183         0.91244        -3.20962
| 20>    C        1.11934         0.49341        -4.23016
| 21>    O        0.30457        -0.40640        -0.28896
| 22>    C       -0.82893        -1.03697         0.07484
| 23>    C       -0.85381        -1.25625         1.55253
| 24>    C       -1.77819        -1.44506        -0.82067
| 25>    C       -1.51107        -1.31340        -2.25925
| 26>    O       -2.22796        -1.82687        -3.10745
| 27>    C       -3.03225        -2.06736        -0.46890
| 28>    C       -3.71874        -2.03828         0.72492
| 29>    C       -4.90651        -2.77090         0.66000
| 30>    C       -5.13452        -3.36969        -0.58013
| 31>    S       -3.88215        -2.97379        -1.70585
| 32>    C       -6.32342        -4.10059        -0.63667
| 33>    C       -7.00777        -4.07123         0.55918
| 34>    S       -6.17350        -3.11748         1.77725
| 35>    C       -8.25489        -4.71652         0.83889
| 36>    C       -8.92564        -4.63864         2.05227
| 37>    F       -8.39865        -3.92111         3.06406
| 38>    C      -10.15084        -5.26665         2.31345
| 39>    F      -10.66370        -5.08136         3.54550
| 40>    C      -10.83906        -6.04233         1.39064
| 41>    C      -10.17869        -6.14693         0.13942
| 42>    C       -8.93070        -5.50640        -0.12687
| 43>    N       -8.59315        -5.80900        -1.38831
| 44>    N       -9.56589        -6.56317        -1.81764
| 45>    N      -10.53204        -6.80354        -0.97460
| 46>    C       -9.56975        -7.09750        -3.14491
| 47>    C      -12.09506        -6.68198         1.64716
| 48>    C      -12.81327        -7.44639         0.75307
| 49>    C      -13.99961        -7.91679         1.31779
| 50>    C      -14.20068        -7.52385         2.64120
| 51>    S      -12.89834        -6.54829         3.20375
| 52>    C      -15.39609        -7.99550         3.20273
| 53>    C      -16.12677        -8.73745         2.31394
| 54>    S      -15.31817        -8.88038         0.75486
| 55>    C      -17.37164        -9.42779         2.59580
| 56>    C      -18.36294        -9.58141         1.67393
| 57>    O      -19.50682       -10.24960         1.91239
| 58>    C      -19.71201       -10.83439         3.11569
| 59>    C      -20.89917       -11.54458         3.29954
| 60>    C      -21.14476       -12.15151         4.51111
| 61>    C      -20.22001       -12.06075         5.54917
| 62>    C      -19.05116       -11.35831         5.36919
| 63>    C      -18.77944       -10.73327         4.14885
| 64>    C      -17.53177        -9.97946         3.95519
| 65>    O      -16.71213        -9.84449         4.84662
| 66>    C      -18.35417        -9.02116         0.28775
| 67>    H       -0.68993        -0.57102        -4.69581
| 68>    H        2.34245         0.92623        -1.09261
| 69>    H        2.85965         1.47713        -3.45062
| 70>    H        1.35172         0.73632        -5.25553
| 71>    H        0.16560        -1.19958         1.92858
| 72>    H       -1.28052        -2.22716         1.78959
| 73>    H       -1.43855        -0.48323         2.04969
| 74>    H       -3.41864        -1.48840         1.59421
| 75>    H       -6.68360        -4.63295        -1.49575
| 76>    H       -8.66622        -6.75859        -3.64564
| 77>    H      -10.45153        -6.74783        -3.68276
| 78>    H       -9.59204        -8.18700        -3.10557
| 79>    H      -12.47846        -7.64001        -0.24771
| 80>    H      -15.71016        -7.80432         4.21090
| 81>    H      -21.60192       -11.60377         2.48344
| 82>    H      -22.06202       -12.70214         4.65511
| 83>    H      -20.42443       -12.54200         6.49315
| 84>    H      -18.31494       -11.26702         6.15319
| 85>    H      -17.77663        -9.66089        -0.37787
| 86>    H      -17.91472        -8.02794         0.27094
| 87>    H      -19.37704        -8.97822        -0.07866
| 88> *
| 89>
| 90>                          ****END OF INPUT****

CARTESIAN COORDINATES (ANGSTROEM)
---------------------------------
  C     -0.011430   -0.228640   -3.929480
  C     -0.317970   -0.540530   -2.601160
  C      0.542620   -0.114870   -1.586780
  C      1.693700    0.612450   -1.895060
  C      1.971830    0.912440   -3.209620
  C      1.119340    0.493410   -4.230160
  O      0.304570   -0.406400   -0.288960
  C     -0.828930   -1.036970    0.074840
  C     -0.853810   -1.256250    1.552530
  C     -1.778190   -1.445060   -0.820670
  C     -1.511070   -1.313400   -2.259250
  O     -2.227960   -1.826870   -3.107450
  C     -3.032250   -2.067360   -0.468900
  C     -3.718740   -2.038280    0.724920
  C     -4.906510   -2.770900    0.660000
  C     -5.134520   -3.369690   -0.580130
  S     -3.882150   -2.973790   -1.705850
  C     -6.323420   -4.100590   -0.636670
  C     -7.007770   -4.071230    0.559180
  S     -6.173500   -3.117480    1.777250
  C     -8.254890   -4.716520    0.838890
  C     -8.925640   -4.638640    2.052270
  F     -8.398650   -3.921110    3.064060
  C    -10.150840   -5.266650    2.313450
  F    -10.663700   -5.081360    3.545500
  C    -10.839060   -6.042330    1.390640
  C    -10.178690   -6.146930    0.139420
  C     -8.930700   -5.506400   -0.126870
  N     -8.593150   -5.809000   -1.388310
  N     -9.565890   -6.563170   -1.817640
  N    -10.532040   -6.803540   -0.974600
  C     -9.569750   -7.097500   -3.144910
  C    -12.095060   -6.681980    1.647160
  C    -12.813270   -7.446390    0.753070
  C    -13.999610   -7.916790    1.317790
  C    -14.200680   -7.523850    2.641200
  S    -12.898340   -6.548290    3.203750
  C    -15.396090   -7.995500    3.202730
  C    -16.126770   -8.737450    2.313940
  S    -15.318170   -8.880380    0.754860
  C    -17.371640   -9.427790    2.595800
  C    -18.362940   -9.581410    1.673930
  O    -19.506820  -10.249600    1.912390
  C    -19.712010  -10.834390    3.115690
  C    -20.899170  -11.544580    3.299540
  C    -21.144760  -12.151510    4.511110
  C    -20.220010  -12.060750    5.549170
  C    -19.051160  -11.358310    5.369190
  C    -18.779440  -10.733270    4.148850
  C    -17.531770   -9.979460    3.955190
  O    -16.712130   -9.844490    4.846620
  C    -18.354170   -9.021160    0.287750
  H     -0.689930   -0.571020   -4.695810
  H      2.342450    0.926230   -1.092610
  H      2.859650    1.477130   -3.450620
  H      1.351720    0.736320   -5.255530
  H      0.165600   -1.199580    1.928580
  H     -1.280520   -2.227160    1.789590
  H     -1.438550   -0.483230    2.049690
  H     -3.418640   -1.488400    1.594210
  H     -6.683600   -4.632950   -1.495750
  H     -8.666220   -6.758590   -3.645640
  H    -10.451530   -6.747830   -3.682760
  H     -9.592040   -8.187000   -3.105570
  H    -12.478460   -7.640010   -0.247710
  H    -15.710160   -7.804320    4.210900
  H    -21.601920  -11.603770    2.483440
  H    -22.062020  -12.702140    4.655110
  H    -20.424430  -12.542000    6.493150
  H    -18.314940  -11.267020    6.153190
  H    -17.776630   -9.660890   -0.377870
  H    -17.914720   -8.027940    0.270940
  H    -19.377040   -8.978220   -0.078660

 Total Charge           Charge          ....    0
 Multiplicity           Mult            ....    1
 Number of Electrons    NEL             ....  390
 Basis Dimension        Dim             ....  849

ORBITAL ENERGIES
----------------

  NO   OCC          E(Eh)            E(eV)
   0   2.0000     -88.940978     -2420.2070
   1   2.0000     -88.938814     -2420.1482
   2   2.0000     -88.935736     -2420.0644
   3   2.0000     -88.932235     -2419.9691
   4   2.0000     -24.785399      -674.4450
   5   2.0000     -24.784515      -674.4210
   6   2.0000     -19.299571      -525.1680
   7   2.0000     -19.293248      -524.9960
   8   2.0000     -19.192319      -522.2496
   9   2.0000     -19.180811      -521.9364
  10   2.0000     -14.539816      -395.6485
  11   2.0000     -14.442734      -393.0068
  12   2.0000     -14.441359      -392.9694
  13   2.0000     -10.365554      -282.0611
  14   2.0000     -10.361374      -281.9473
  15   2.0000     -10.360318      -281.9186
  16   2.0000     -10.359237      -281.8892
  17   2.0000     -10.352960      -281.7184
  18   2.0000     -10.352721      -281.7119
  19   2.0000     -10.346792      -281.5505
  20   2.0000     -10.345819      -281.5240
  21   2.0000     -10.322569      -280.8914
  22   2.0000     -10.306013      -280.4409
  23   2.0000     -10.304842      -280.4090
  24   2.0000     -10.297748      -280.2160
  25   2.0000     -10.297308      -280.2040
  26   2.0000     -10.294783      -280.1353
  27   2.0000     -10.293679      -280.1052
  28   2.0000     -10.292096      -280.0622
  29   2.0000     -10.291527      -280.0467
  30   2.0000     -10.287372      -279.9336
  31   2.0000     -10.285261      -279.8762
  32   2.0000     -10.283659      -279.8326
  33   2.0000     -10.282681      -279.8060
  34   2.0000     -10.282234      -279.7938
  35   2.0000     -10.281801      -279.7820
  36   2.0000     -10.281349      -279.7697
  37   2.0000     -10.279512      -279.7198
  38   2.0000     -10.279003      -279.7059
  39   2.0000     -10.278675      -279.6970
  40   2.0000     -10.277644      -279.6689
  41   2.0000     -10.277183      -279.6564
  42   2.0000     -10.276194      -279.6295
  43   2.0000     -10.275357      -279.6067
  44   2.0000     -10.275330      -279.6059
  45   2.0000     -10.274503      -279.5834
  46   2.0000     -10.271878      -279.5120
  47   2.0000     -10.266971      -279.3785
  48   2.0000     -10.265414      -279.3361
  49   2.0000     -10.263188      -279.2755
  50   2.0000     -10.260927      -279.2140
  51   2.0000     -10.259661      -279.1796
  52   2.0000      -8.036162      -218.6751
  53   2.0000      -8.033762      -218.6098
  54   2.0000      -8.030670      -218.5256
  55   2.0000      -8.025712      -218.3907
  56   2.0000      -6.005743      -163.4246
  57   2.0000      -6.003338      -163.3591
  58   2.0000      -6.001728      -163.3153
  59   2.0000      -6.000290      -163.2762
  60   2.0000      -5.999164      -163.2456
  61   2.0000      -5.997659      -163.2046
  62   2.0000      -5.996122      -163.1628
  63   2.0000      -5.995499      -163.1458
  64   2.0000      -5.995315      -163.1408
  65   2.0000      -5.992171      -163.0553
  66   2.0000      -5.990869      -163.0198
  67   2.0000      -5.987393      -162.9253
  68   2.0000      -1.307771       -35.5863
  69   2.0000      -1.289603       -35.0919
  70   2.0000      -1.218637       -33.1608
  71   2.0000      -1.213287       -33.0152
  72   2.0000      -1.207071       -32.8461
  73   2.0000      -1.113736       -30.3063
  74   2.0000      -1.100897       -29.9569
  75   2.0000      -0.994503       -27.0618
  76   2.0000      -0.991985       -26.9933
  77   2.0000      -0.984814       -26.7982
  78   2.0000      -0.978374       -26.6229
  79   2.0000      -0.964253       -26.2387
  80   2.0000      -0.958748       -26.0888
  81   2.0000      -0.937979       -25.5237
  82   2.0000      -0.935917       -25.4676
  83   2.0000      -0.920485       -25.0477
  84   2.0000      -0.907648       -24.6984
  85   2.0000      -0.900052       -24.4917
  86   2.0000      -0.874200       -23.7882
  87   2.0000      -0.869624       -23.6637
  88   2.0000      -0.865693       -23.5567
  89   2.0000      -0.848259       -23.0823
  90   2.0000      -0.844947       -22.9922
  91   2.0000      -0.838474       -22.8160
  92   2.0000      -0.833537       -22.6817
  93   2.0000      -0.818351       -22.2685
  94   2.0000      -0.814287       -22.1579
  95   2.0000      -0.808476       -21.9997
  96   2.0000      -0.792215       -21.5573
  97   2.0000      -0.780186       -21.2300
  98   2.0000      -0.777032       -21.1441
  99   2.0000      -0.770773       -20.9738
 100   2.0000      -0.752781       -20.4842
 101   2.0000      -0.732853       -19.9419
 102   2.0000      -0.729170       -19.8417
 103   2.0000      -0.723673       -19.6921
 104   2.0000      -0.716966       -19.5096
 105   2.0000      -0.712420       -19.3859
 106   2.0000      -0.690479       -18.7889
 107   2.0000      -0.684843       -18.6355
 108   2.0000      -0.678448       -18.4615
 109   2.0000      -0.665807       -18.1175
 110   2.0000      -0.654370       -17.8063
 111   2.0000      -0.651294       -17.7226
 112   2.0000      -0.642606       -17.4862
 113   2.0000      -0.638931       -17.3862
 114   2.0000      -0.632499       -17.2112
 115   2.0000      -0.627503       -17.0752
 116   2.0000      -0.624940       -17.0055
 117   2.0000      -0.612078       -16.6555
 118   2.0000      -0.607728       -16.5371
 119   2.0000      -0.604358       -16.4454
 120   2.0000      -0.597472       -16.2580
 121   2.0000      -0.591993       -16.1089
 122   2.0000      -0.586764       -15.9666
 123   2.0000      -0.583358       -15.8740
 124   2.0000      -0.579413       -15.7666
 125   2.0000      -0.574523       -15.6336
 126   2.0000      -0.571216       -15.5436
 127   2.0000      -0.567716       -15.4483
 128   2.0000      -0.562989       -15.3197
 129   2.0000      -0.559072       -15.2131
 130   2.0000      -0.554542       -15.0899
 131   2.0000      -0.547812       -14.9067
 132   2.0000      -0.545838       -14.8530
 133   2.0000      -0.537173       -14.6172
 134   2.0000      -0.532915       -14.5013
 135   2.0000      -0.525439       -14.2979
 136   2.0000      -0.522127       -14.2078
 137   2.0000      -0.519769       -14.1436
 138   2.0000      -0.514527       -14.0010
 139   2.0000      -0.513859       -13.9828
 140   2.0000      -0.511609       -13.9216
 141   2.0000      -0.509723       -13.8703
 142   2.0000      -0.505538       -13.7564
 143   2.0000      -0.505006       -13.7419
 144   2.0000      -0.504543       -13.7293
 145   2.0000      -0.499163       -13.5829
 146   2.0000      -0.498705       -13.5705
 147   2.0000      -0.491178       -13.3656
 148   2.0000      -0.487953       -13.2779
 149   2.0000      -0.486782       -13.2460
 150   2.0000      -0.484454       -13.1827
 151   2.0000      -0.483384       -13.1536
 152   2.0000      -0.479607       -13.0508
 153   2.0000      -0.476946       -12.9784
 154   2.0000      -0.473704       -12.8901
 155   2.0000      -0.473602       -12.8874
 156   2.0000      -0.468506       -12.7487
 157   2.0000      -0.464738       -12.6462
 158   2.0000      -0.461223       -12.5505
 159   2.0000      -0.456142       -12.4123
 160   2.0000      -0.454630       -12.3711
 161   2.0000      -0.448083       -12.1930
 162   2.0000      -0.446836       -12.1590
 163   2.0000      -0.444723       -12.1015
 164   2.0000      -0.441763       -12.0210
 165   2.0000      -0.438111       -11.9216
 166   2.0000      -0.436892       -11.8884
 167   2.0000      -0.433555       -11.7976
 168   2.0000      -0.424753       -11.5581
 169   2.0000      -0.422565       -11.4986
 170   2.0000      -0.419132       -11.4052
 171   2.0000      -0.417620       -11.3640
 172   2.0000      -0.414005       -11.2656
 173   2.0000      -0.392980       -10.6935
 174   2.0000      -0.389334       -10.5943
 175   2.0000      -0.386020       -10.5041
 176   2.0000      -0.384235       -10.4556
 177   2.0000      -0.383642       -10.4394
 178   2.0000      -0.370114       -10.0713
 179   2.0000      -0.350419        -9.5354
 180   2.0000      -0.346119        -9.4184
 181   2.0000      -0.339465        -9.2373
 182   2.0000      -0.334275        -9.0961
 183   2.0000      -0.332945        -9.0599
 184   2.0000      -0.327151        -8.9022
 185   2.0000      -0.318924        -8.6784
 186   2.0000      -0.314871        -8.5681
 187   2.0000      -0.314560        -8.5596
 188   2.0000      -0.314421        -8.5558
 189   2.0000      -0.308172        -8.3858
 190   2.0000      -0.293185        -7.9780
 191   2.0000      -0.275791        -7.5047
 192   2.0000      -0.269838        -7.3427
 193   2.0000      -0.254401        -6.9226
 194   2.0000      -0.223206        -6.0738
 195   0.0000      -0.050541        -1.3753
 196   0.0000      -0.022745        -0.6189
 197   0.0000      -0.015270        -0.4155
 198   0.0000      -0.005462        -0.1486
 199   0.0000       0.004821         0.1312

MULLIKEN ATOMIC CHARGES
-----------------------
   0 C :   -0.003677
   1 C :   -0.046755
   2 C :    0.176134
   3 C :   -0.029971
   4 C :    0.039561
   5 C :    0.035701
   6 O :   -0.199030
   7 C :   -0.064413
   8 C :    0.092303
   9 C :    0.024340
  10 C :    0.157114
  11 O :   -0.213613
  12 C :   -0.101632
  13 C :   -0.066545
  14 C :   -0.011864
  15 C :    0.006399
  16 S :    0.168857
  17 C :   -0.062714
  18 C :   -0.140178
  19 S :    0.131037
  20 C :    0.118201
  21 C :    0.106340
  22 F :   -0.180655
  23 C :    0.109278
  24 F :   -0.178973
  25 C :    0.109829
  26 C :   -0.041914
  27 C :   -0.046981
  28 N :   -0.064520
  29 N :   -0.060558
  30 N :   -0.076923
  31 C :    0.145229
  32 C :   -0.142340
  33 C :   -0.050514
  34 C :   -0.004039
  35 C :   -0.014794
  36 S :    0.146888
  37 C :    0.010644
  38 C :   -0.151334
  39 S :    0.092203
  40 C :    0.009271
  41 C :   -0.061209
  42 O :   -0.205025
  43 C :    0.180394
  44 C :   -0.032572
  45 C :    0.038741
  46 C :    0.039480
  47 C :   -0.010816
  48 C :   -0.057791
  49 C :    0.156652
  50 O :   -0.188973
  51 C :    0.099549
  52 H :    0.001285
  53 H :   -0.014938
  54 H :   -0.002300
  55 H :   -0.007987
  56 H :    0.031637
  57 H :    0.053589
  58 H :    0.055391
  59 H :   -0.038576
  60 H :   -0.013582
  61 H :    0.054470
  62 H :    0.053415
  63 H :    0.055340
  64 H :   -0.014809
  65 H :   -0.004277
  66 H :   -0.016488
  67 H :   -0.004548
  68 H :   -0.010189
  69 H :    0.000627
  70 H :    0.053674
  71 H :    0.053862
  72 H :    0.030581
Sum of atomic charges:   -0.0000000

LOEWDIN ATOMIC CHARGES
----------------------
   0 C :    0.022951
   1 C :   -0.085216
   2 C :    0.062852
   3 C :   -0.039093
   4 C :    0.000909
   5 C :   -0.029757
   6 O :    0.002059
   7 C :    0.089530
   8 C :   -0.051888
   9 C :   -0.126265
  10 C :    0.072814
  11 O :   -0.190899
  12 C :   -0.157119
  13 C :   -0.084244
  14 C :   -0.206990
  15 C :   -0.217540
  16 S :    0.462828
  17 C :   -0.055597
  18 C :   -0.168872
  19 S :    0.413134
  20 C :   -0.062372
  21 C :    0.053791
  22 F :   -0.055480
  23 C :    0.057132
  24 F :   -0.054153
  25 C :   -0.067165
  26 C :   -0.040009
  27 C :   -0.043899
  28 N :   -0.081074
  29 N :    0.152719
  30 N :   -0.088835
  31 C :    0.033702
  32 C :   -0.166849
  33 C :   -0.059527
  34 C :   -0.206753
  35 C :   -0.205470
  36 S :    0.430444
  37 C :   -0.047543
  38 C :   -0.158464
  39 S :    0.406891
  40 C :   -0.131988
  41 C :    0.082779
  42 O :   -0.002045
  43 C :    0.062085
  44 C :   -0.040518
  45 C :   -0.001129
  46 C :   -0.031116
  47 C :    0.021968
  48 C :   -0.085914
  49 C :    0.075876
  50 O :   -0.176452
  51 C :   -0.062474
  52 H :    0.039589
  53 H :    0.036027
  54 H :    0.033815
  55 H :    0.031464
  56 H :    0.041467
  57 H :    0.047516
  58 H :    0.046557
  59 H :    0.024501
  60 H :    0.027741
  61 H :    0.043066
  62 H :    0.040847
  63 H :    0.041405
  64 H :    0.027651
  65 H :    0.035270
  66 H :    0.035125
  67 H :    0.032885
  68 H :    0.030638
  69 H :    0.038593
  70 H :    0.042132
  71 H :    0.042009
  72 H :    0.039947

  Mayer bond orders larger than 0.100000
B(  0-C ,  1-C ) :   1.3295 B(  0-C ,  5-C ) :   1.4073 B(  0-C , 52-H ) :   0.9989
B(  1-C ,  2-C ) :   1.3348 B(  1-C , 10-C ) :   1.0105 B(  2-C ,  3-C ) :   1.3449
B(  2-C ,  6-O ) :   1.0935 B(  3-C ,  4-C ) :   1.4193 B(  3-C , 53-H ) :   0.9949
B(  4-C ,  5-C ) :   1.3216 B(  4-C , 54-H ) :   0.9902 B(  5-C , 55-H ) :   0.9941
B(  6-O ,  7-C ) :   1.1402 B(  7-C ,  8-C ) :   1.1146 B(  7-C ,  9-C ) :   1.5432
B(  8-C , 56-H ) :   0.9356 B(  8-C , 57-H ) :   0.9441 B(  8-C , 58-H ) :   0.9342
B(  9-C , 10-C ) :   0.9942 B(  9-C , 12-C ) :   1.0834 B( 10-C , 11-O ) :   2.0891
B( 12-C , 13-C ) :   1.5021 B( 12-C , 16-S ) :   1.1291 B( 13-C , 14-C ) :   1.2512
B( 13-C , 59-H ) :   0.9995 B( 14-C , 15-C ) :   1.4248 B( 14-C , 19-S ) :   1.0445
B( 15-C , 16-S ) :   1.0192 B( 15-C , 17-C ) :   1.2148 B( 17-C , 18-C ) :   1.5405
B( 17-C , 60-H ) :   0.9887 B( 18-C , 19-S ) :   1.0796 B( 18-C , 20-C ) :   1.1494
B( 20-C , 21-C ) :   1.3659 B( 20-C , 25-C ) :   0.1263 B( 20-C , 27-C ) :   1.1673
B( 21-C , 22-F ) :   1.1304 B( 21-C , 23-C ) :   1.1983 B( 23-C , 24-F ) :   1.1333
B( 23-C , 25-C ) :   1.3667 B( 25-C , 26-C ) :   1.1670 B( 25-C , 32-C ) :   1.1492
B( 26-C , 27-C ) :   1.2214 B( 26-C , 30-N ) :   1.4756 B( 27-C , 28-N ) :   1.4792
B( 28-N , 29-N ) :   1.2331 B( 28-N , 30-N ) :   0.1627 B( 29-N , 30-N ) :   1.2117
B( 29-N , 31-C ) :   0.9542 B( 31-C , 61-H ) :   0.9672 B( 31-C , 62-H ) :   0.9701
B( 31-C , 63-H ) :   0.9699 B( 32-C , 33-C ) :   1.5357 B( 32-C , 36-S ) :   1.0903
B( 33-C , 34-C ) :   1.2154 B( 33-C , 64-H ) :   0.9874 B( 34-C , 35-C ) :   1.4325
B( 34-C , 39-S ) :   1.0615 B( 35-C , 36-S ) :   1.0519 B( 35-C , 37-C ) :   1.2184
B( 37-C , 38-C ) :   1.5854 B( 37-C , 65-H ) :   1.0014 B( 38-C , 39-S ) :   1.0888
B( 38-C , 40-C ) :   1.0121 B( 40-C , 41-C ) :   1.5614 B( 40-C , 49-C ) :   1.0143
B( 41-C , 42-O ) :   1.1391 B( 41-C , 51-C ) :   1.1117 B( 42-O , 43-C ) :   1.0853
B( 43-C , 44-C ) :   1.3512 B( 43-C , 48-C ) :   1.3322 B( 44-C , 45-C ) :   1.4166
B( 44-C , 66-H ) :   0.9938 B( 45-C , 46-C ) :   1.3248 B( 45-C , 67-H ) :   0.9896
B( 46-C , 47-C ) :   1.4037 B( 46-C , 68-H ) :   0.9935 B( 47-C , 48-C ) :   1.3385
B( 47-C , 69-H ) :   0.9964 B( 48-C , 49-C ) :   0.9827 B( 49-C , 50-O ) :   2.1666
B( 51-C , 70-H ) :   0.9371 B( 51-C , 71-H ) :   0.9425 B( 51-C , 72-H ) :   0.9347

-----------------------------------------------------------------------------
         ABSORPTION SPECTRUM VIA TRANSITION ELECTRIC DIPOLE MOMENTS
-----------------------------------------------------------------------------
State   Energy  Wavelength   fosc         T2         TX        TY        TZ
        (cm-1)    (nm)                  (au**2)     (au)      (au)      (au)
-----------------------------------------------------------------------------
   0   22142.7    451.6   2.082459884  30.96154  -4.86692  -2.48889   1.03925
   1   29233.8    342.1   0.006845831   0.07709  -0.11168  -0.18489  -0.17446
   2   29520.2    338.8   0.032842888   0.36627   0.26906   0.11517   0.52972
   3   31475.1    317.7   0.057341617   0.59976  -0.44845  -0.30036  -0.55537
   4   31566.8    316.8   0.024033335   0.25064   0.25099  -0.14512   0.40816
   5   32780.5    305.1   0.084697391   0.85061   0.43097  -0.05437  -0.81358
   6   33216.3    301.1   0.090085548   0.89285  -0.81040  -0.43319   0.22013
   7   34295.5    291.6   0.555323534   5.33071   1.87451   1.07627  -0.81153
   8   34475.2    290.1   0.002937804   0.02805   0.06641   0.01064   0.15340
   9   35123.7    284.7   0.002391383   0.02241  -0.11797  -0.04489   0.08051
  10   37742.0    265.0   0.009040927   0.07886   0.25916   0.07040  -0.08209
  11   39006.3    256.4   0.086963664   0.73397   0.68418   0.51032   0.07370
  12   39195.7    255.1   0.011908938   0.10003   0.26664   0.09296  -0.14244
  13   39662.7    252.1   0.213587852   1.77284  -0.11982  -0.43110  -1.25405
  14   39799.8    251.3   0.036486074   0.30180   0.50644   0.04848  -0.20728
  15   40029.9    249.8   0.083453791   0.68634   0.35579  -0.33313  -0.66990

FINAL SINGLE POINT ENERGY     -3753.277071444363

DIPOLE MOMENT
-------------
                                X             Y             Z
Electronic contribution:      0.81085       5.72916      15.09775
Nuclear contribution   :     -0.40671      -5.61468     -16.70140
                        -----------------------------------------
Total Dipole Moment    :      0.40414       0.11449      -1.60365
                        -----------------------------------------
Magnitude (a.u.)       :      1.65775
Magnitude (Debye)      :      4.21366

Rotational constants in cm-1:     0.007842     0.000354     0.000341
Rotational constants in MHz :   235.106545    10.625509    10.233309

                             ****ORCA TERMINATED NORMALLY****
TOTAL RUN TIME: 0 days 0 hours 4 minutes 55 seconds 924 msec
