                         Program Version 4.2.0 -  RELEASE  -
|  1> # ORCA input file
|  2> # SCF done       -151.196598758390          0.000982881754
|  3> ! CAM-B3LYP def2-SVP def2/J RIJCOSX Grid4 TightSCF
|  4> %maxcore 5000
|  5> %tddft
|  6>     Mode sTDDFT
|  7>     Ethresh 5.0
|  8>     maxcore 5000
|  9> end
| 10>
| 11> %pal
| 12>   nprocs 6
| 13>   end
| 14> * xyz 0 1
| 15>    C        9.67537        -4.15768         6.58014
| 16>    C        9.32280        -5.16086         7.44431
| 17>    C        9.62763        -5.21565         8.81614
| 18>    N        9.84358        -5.31985         9.93890
| 19>    C        8.58606        -6.26421         6.96399
| 20>    N        7.98671        -7.16319         6.57978
| 21>    N       10.37793        -3.02866         6.85479
| 22>    C       10.88839        -2.68930         8.16131
| 23>    C       10.60176        -2.17008         5.78508
| 24>    O       11.21237        -1.13110         5.88497
| 25>    C       10.00354        -2.70784         4.56530
| 26>    S        9.21726        -4.23566         4.88996
| 27>    C       10.09729        -2.05199         3.38102
| 28>    C        9.58620        -2.43735         2.12379
| 29>    C        8.84777        -3.55141         1.76167
| 30>    C        8.55024        -3.55930         0.40298
| 31>    C        9.05765        -2.45189        -0.29689
| 32>    S        9.90838        -1.38578         0.74826
| 33>    C        8.75088        -2.50464        -1.65848
| 34>    C        8.01182        -3.64507        -1.99461
| 35>    S        7.68338        -4.66734        -0.62389
| 36>    C        7.70254        -3.73673        -3.35246
| 37>    C        8.19897        -2.67512        -4.07454
| 38>    S        9.06293        -1.53379        -3.04462
| 39>    C        8.12317        -2.41998        -5.48710
| 40>    C        8.75151        -1.30877        -6.03141
| 41>    C        8.75119        -1.04488        -7.39072
| 42>    C        8.12236        -1.87258        -8.31020
| 43>    C        7.42657        -3.00933        -7.79292
| 44>    N        6.75696        -3.82276        -8.62909
| 45>    C        6.12394        -4.85372        -8.13761
| 46>    C        6.13154        -5.12599        -6.76094
| 47>    N        6.76687        -4.35493        -5.92010
| 48>    C        7.42801        -3.28209        -6.39082
| 49>    C        8.19477        -1.58087        -9.71559
| 50>    C        7.74697        -2.32757       -10.78296
| 51>    C        8.03119        -1.72219       -12.00682
| 52>    C        8.70011        -0.49741       -11.89410
| 53>    S        8.98096        -0.09453       -10.24490
| 54>    C        8.98049         0.08223       -13.13487
| 55>    C        8.51913        -0.71771       -14.19569
| 56>    S        7.73564        -2.18106       -13.66086
| 57>    C        8.78587        -0.17760       -15.44176
| 58>    C        9.45101         1.04353       -15.35721
| 59>    S        9.74609         1.51999       -13.69060
| 60>    C        9.82444         1.77459       -16.50080
| 61>    C       10.46121         2.97404       -16.61106
| 62>    C       10.93655         3.84673       -15.55726
| 63>    O       10.85622         3.65637       -14.35832
| 64>    N       11.52358         4.98494       -16.08854
| 65>    C       11.54955         5.07276       -17.44599
| 66>    C       12.06781         6.08653       -18.21010
| 67>    C       12.68555         7.25399       -17.72856
| 68>    N       13.19799         8.22741       -17.40028
| 69>    C       12.00048         5.99920       -19.61668
| 70>    N       11.94867         5.93531       -20.76058
| 71>    S       10.80782         3.67457       -18.18601
| 72>    C       12.06126         5.99076       -15.20393
| 73>    H       11.58979        -3.44670         8.51223
| 74>    H       10.07574        -2.59161         8.88160
| 75>    H       11.40262        -1.73345         8.05627
| 76>    H       10.64229        -1.11583         3.42044
| 77>    H        8.53974        -4.31967         2.44591
| 78>    H        7.14645        -4.53425        -3.80574
| 79>    H        9.27336        -0.62839        -5.37408
| 80>    H        9.27304        -0.16872        -7.74702
| 81>    H        5.59445        -5.48014        -8.84263
| 82>    H        5.61170        -5.97705        -6.34227
| 83>    H        7.24064        -3.26544       -10.66177
| 84>    H        8.51737        -0.63504       -16.37647
| 85>    H        9.55491         1.29627       -17.43597
| 86>    H       11.88835         5.63836       -14.18661
| 87>    H       11.55684         6.94587       -15.35231
| 88>    H       13.13092         6.12069       -15.37038
| 89> *
| 90>
| 91>                          ****END OF INPUT****

CARTESIAN COORDINATES (ANGSTROEM)
---------------------------------
  C      9.675370   -4.157680    6.580140
  C      9.322800   -5.160860    7.444310
  C      9.627630   -5.215650    8.816140
  N      9.843580   -5.319850    9.938900
  C      8.586060   -6.264210    6.963990
  N      7.986710   -7.163190    6.579780
  N     10.377930   -3.028660    6.854790
  C     10.888390   -2.689300    8.161310
  C     10.601760   -2.170080    5.785080
  O     11.212370   -1.131100    5.884970
  C     10.003540   -2.707840    4.565300
  S      9.217260   -4.235660    4.889960
  C     10.097290   -2.051990    3.381020
  C      9.586200   -2.437350    2.123790
  C      8.847770   -3.551410    1.761670
  C      8.550240   -3.559300    0.402980
  C      9.057650   -2.451890   -0.296890
  S      9.908380   -1.385780    0.748260
  C      8.750880   -2.504640   -1.658480
  C      8.011820   -3.645070   -1.994610
  S      7.683380   -4.667340   -0.623890
  C      7.702540   -3.736730   -3.352460
  C      8.198970   -2.675120   -4.074540
  S      9.062930   -1.533790   -3.044620
  C      8.123170   -2.419980   -5.487100
  C      8.751510   -1.308770   -6.031410
  C      8.751190   -1.044880   -7.390720
  C      8.122360   -1.872580   -8.310200
  C      7.426570   -3.009330   -7.792920
  N      6.756960   -3.822760   -8.629090
  C      6.123940   -4.853720   -8.137610
  C      6.131540   -5.125990   -6.760940
  N      6.766870   -4.354930   -5.920100
  C      7.428010   -3.282090   -6.390820
  C      8.194770   -1.580870   -9.715590
  C      7.746970   -2.327570  -10.782960
  C      8.031190   -1.722190  -12.006820
  C      8.700110   -0.497410  -11.894100
  S      8.980960   -0.094530  -10.244900
  C      8.980490    0.082230  -13.134870
  C      8.519130   -0.717710  -14.195690
  S      7.735640   -2.181060  -13.660860
  C      8.785870   -0.177600  -15.441760
  C      9.451010    1.043530  -15.357210
  S      9.746090    1.519990  -13.690600
  C      9.824440    1.774590  -16.500800
  C     10.461210    2.974040  -16.611060
  C     10.936550    3.846730  -15.557260
  O     10.856220    3.656370  -14.358320
  N     11.523580    4.984940  -16.088540
  C     11.549550    5.072760  -17.445990
  C     12.067810    6.086530  -18.210100
  C     12.685550    7.253990  -17.728560
  N     13.197990    8.227410  -17.400280
  C     12.000480    5.999200  -19.616680
  N     11.948670    5.935310  -20.760580
  S     10.807820    3.674570  -18.186010
  C     12.061260    5.990760  -15.203930
  H     11.589790   -3.446700    8.512230
  H     10.075740   -2.591610    8.881600
  H     11.402620   -1.733450    8.056270
  H     10.642290   -1.115830    3.420440
  H      8.539740   -4.319670    2.445910
  H      7.146450   -4.534250   -3.805740
  H      9.273360   -0.628390   -5.374080
  H      9.273040   -0.168720   -7.747020
  H      5.594450   -5.480140   -8.842630
  H      5.611700   -5.977050   -6.342270
  H      7.240640   -3.265440  -10.661770
  H      8.517370   -0.635040  -16.376470
  H      9.554910    1.296270  -17.435970
  H     11.888350    5.638360  -14.186610
  H     11.556840    6.945870  -15.352310
  H     13.130920    6.120690  -15.370380

 Total Charge           Charge          ....    0
 Multiplicity           Mult            ....    1
 Number of Electrons    NEL             ....  456
 Basis Dimension        Dim             ....  924

ORBITAL ENERGIES
----------------

  NO   OCC          E(Eh)            E(eV)
   0   2.0000     -88.989325     -2421.5226
   1   2.0000     -88.984826     -2421.4002
   2   2.0000     -88.980263     -2421.2761
   3   2.0000     -88.972417     -2421.0625
   4   2.0000     -88.971660     -2421.0419
   5   2.0000     -88.971500     -2421.0376
   6   2.0000     -88.970215     -2421.0026
   7   2.0000     -88.967713     -2420.9346
   8   2.0000     -19.229175      -523.2525
   9   2.0000     -19.222346      -523.0666
  10   2.0000     -14.501758      -394.6129
  11   2.0000     -14.500235      -394.5714
  12   2.0000     -14.442242      -392.9934
  13   2.0000     -14.442080      -392.9890
  14   2.0000     -14.409485      -392.1020
  15   2.0000     -14.409271      -392.0962
  16   2.0000     -14.406518      -392.0213
  17   2.0000     -14.406250      -392.0140
  18   2.0000     -10.415654      -283.4244
  19   2.0000     -10.410793      -283.2921
  20   2.0000     -10.401939      -283.0512
  21   2.0000     -10.400223      -283.0044
  22   2.0000     -10.340673      -281.3840
  23   2.0000     -10.338274      -281.3187
  24   2.0000     -10.337920      -281.3091
  25   2.0000     -10.336836      -281.2796
  26   2.0000     -10.336743      -281.2771
  27   2.0000     -10.336415      -281.2682
  28   2.0000     -10.334144      -281.2064
  29   2.0000     -10.332040      -281.1491
  30   2.0000     -10.330344      -281.1030
  31   2.0000     -10.328119      -281.0424
  32   2.0000     -10.327816      -281.0342
  33   2.0000     -10.324937      -280.9558
  34   2.0000     -10.324818      -280.9526
  35   2.0000     -10.322274      -280.8833
  36   2.0000     -10.321764      -280.8695
  37   2.0000     -10.321559      -280.8639
  38   2.0000     -10.320213      -280.8273
  39   2.0000     -10.320179      -280.8263
  40   2.0000     -10.319742      -280.8145
  41   2.0000     -10.317408      -280.7510
  42   2.0000     -10.316276      -280.7201
  43   2.0000     -10.315750      -280.7058
  44   2.0000     -10.315598      -280.7017
  45   2.0000     -10.314220      -280.6642
  46   2.0000     -10.313622      -280.6479
  47   2.0000     -10.313230      -280.6373
  48   2.0000     -10.313223      -280.6371
  49   2.0000     -10.312548      -280.6187
  50   2.0000     -10.312392      -280.6145
  51   2.0000     -10.310166      -280.5539
  52   2.0000     -10.309884      -280.5462
  53   2.0000     -10.306615      -280.4573
  54   2.0000     -10.301451      -280.3167
  55   2.0000     -10.300839      -280.3001
  56   2.0000     -10.287717      -279.9430
  57   2.0000     -10.286423      -279.9078
  58   2.0000      -8.084860      -220.0002
  59   2.0000      -8.081020      -219.8957
  60   2.0000      -8.075483      -219.7451
  61   2.0000      -8.067462      -219.5268
  62   2.0000      -8.066661      -219.5050
  63   2.0000      -8.065185      -219.4649
  64   2.0000      -8.065059      -219.4614
  65   2.0000      -8.062910      -219.4029
  66   2.0000      -6.054788      -164.7592
  67   2.0000      -6.050955      -164.6549
  68   2.0000      -6.050708      -164.6481
  69   2.0000      -6.047033      -164.5481
  70   2.0000      -6.045324      -164.5016
  71   2.0000      -6.044961      -164.4917
  72   2.0000      -6.041200      -164.3894
  73   2.0000      -6.040957      -164.3828
  74   2.0000      -6.037107      -164.2780
  75   2.0000      -6.037060      -164.2767
  76   2.0000      -6.036391      -164.2585
  77   2.0000      -6.034731      -164.2134
  78   2.0000      -6.034711      -164.2128
  79   2.0000      -6.032970      -164.1655
  80   2.0000      -6.032667      -164.1572
  81   2.0000      -6.032534      -164.1536
  82   2.0000      -6.030677      -164.1031
  83   2.0000      -6.030273      -164.0921
  84   2.0000      -6.028973      -164.0567
  85   2.0000      -6.028841      -164.0531
  86   2.0000      -6.027633      -164.0202
  87   2.0000      -6.026772      -163.9968
  88   2.0000      -6.026716      -163.9953
  89   2.0000      -6.023815      -163.9163
  90   2.0000      -1.175014       -31.9738
  91   2.0000      -1.169762       -31.8308
  92   2.0000      -1.102483       -30.0001
  93   2.0000      -1.100226       -29.9387
  94   2.0000      -1.099651       -29.9230
  95   2.0000      -1.034319       -28.1453
  96   2.0000      -1.029539       -28.0152
  97   2.0000      -1.022192       -27.8153
  98   2.0000      -1.005843       -27.3704
  99   2.0000      -1.003189       -27.2982
 100   2.0000      -0.998351       -27.1665
 101   2.0000      -0.993092       -27.0234
 102   2.0000      -0.989254       -26.9190
 103   2.0000      -0.986566       -26.8458
 104   2.0000      -0.975693       -26.5500
 105   2.0000      -0.968373       -26.3508
 106   2.0000      -0.964509       -26.2456
 107   2.0000      -0.942982       -25.6598
 108   2.0000      -0.934973       -25.4419
 109   2.0000      -0.927323       -25.2337
 110   2.0000      -0.925064       -25.1723
 111   2.0000      -0.893344       -24.3091
 112   2.0000      -0.887994       -24.1636
 113   2.0000      -0.886497       -24.1228
 114   2.0000      -0.877841       -23.8873
 115   2.0000      -0.865267       -23.5451
 116   2.0000      -0.853810       -23.2333
 117   2.0000      -0.848454       -23.0876
 118   2.0000      -0.844071       -22.9683
 119   2.0000      -0.827407       -22.5149
 120   2.0000      -0.826745       -22.4969
 121   2.0000      -0.815783       -22.1986
 122   2.0000      -0.809255       -22.0210
 123   2.0000      -0.802597       -21.8398
 124   2.0000      -0.796920       -21.6853
 125   2.0000      -0.786765       -21.4090
 126   2.0000      -0.773994       -21.0614
 127   2.0000      -0.770593       -20.9689
 128   2.0000      -0.760623       -20.6976
 129   2.0000      -0.748225       -20.3602
 130   2.0000      -0.728347       -19.8193
 131   2.0000      -0.710106       -19.3230
 132   2.0000      -0.700517       -19.0620
 133   2.0000      -0.696865       -18.9627
 134   2.0000      -0.682158       -18.5625
 135   2.0000      -0.672194       -18.2913
 136   2.0000      -0.667868       -18.1736
 137   2.0000      -0.662255       -18.0209
 138   2.0000      -0.657682       -17.8964
 139   2.0000      -0.650502       -17.7011
 140   2.0000      -0.647413       -17.6170
 141   2.0000      -0.643598       -17.5132
 142   2.0000      -0.642819       -17.4920
 143   2.0000      -0.637164       -17.3381
 144   2.0000      -0.634780       -17.2732
 145   2.0000      -0.630934       -17.1686
 146   2.0000      -0.615607       -16.7515
 147   2.0000      -0.611816       -16.6484
 148   2.0000      -0.600401       -16.3377
 149   2.0000      -0.598675       -16.2908
 150   2.0000      -0.595086       -16.1931
 151   2.0000      -0.588901       -16.0248
 152   2.0000      -0.584828       -15.9140
 153   2.0000      -0.579044       -15.7566
 154   2.0000      -0.573162       -15.5965
 155   2.0000      -0.565935       -15.3999
 156   2.0000      -0.564300       -15.3554
 157   2.0000      -0.551334       -15.0026
 158   2.0000      -0.549820       -14.9614
 159   2.0000      -0.545724       -14.8499
 160   2.0000      -0.543378       -14.7861
 161   2.0000      -0.540914       -14.7190
 162   2.0000      -0.537982       -14.6392
 163   2.0000      -0.532111       -14.4795
 164   2.0000      -0.528508       -14.3814
 165   2.0000      -0.526404       -14.3242
 166   2.0000      -0.519884       -14.1468
 167   2.0000      -0.515917       -14.0388
 168   2.0000      -0.515429       -14.0255
 169   2.0000      -0.513205       -13.9650
 170   2.0000      -0.509638       -13.8680
 171   2.0000      -0.503933       -13.7127
 172   2.0000      -0.503857       -13.7107
 173   2.0000      -0.502641       -13.6776
 174   2.0000      -0.498046       -13.5525
 175   2.0000      -0.497655       -13.5419
 176   2.0000      -0.491543       -13.3756
 177   2.0000      -0.488835       -13.3019
 178   2.0000      -0.488315       -13.2877
 179   2.0000      -0.484906       -13.1950
 180   2.0000      -0.477135       -12.9835
 181   2.0000      -0.474859       -12.9216
 182   2.0000      -0.471701       -12.8356
 183   2.0000      -0.467481       -12.7208
 184   2.0000      -0.466594       -12.6967
 185   2.0000      -0.461274       -12.5519
 186   2.0000      -0.461167       -12.5490
 187   2.0000      -0.456709       -12.4277
 188   2.0000      -0.452459       -12.3120
 189   2.0000      -0.450525       -12.2594
 190   2.0000      -0.445585       -12.1250
 191   2.0000      -0.443171       -12.0593
 192   2.0000      -0.443051       -12.0560
 193   2.0000      -0.440764       -11.9938
 194   2.0000      -0.438819       -11.9409
 195   2.0000      -0.436101       -11.8669
 196   2.0000      -0.434254       -11.8167
 197   2.0000      -0.427857       -11.6426
 198   2.0000      -0.425742       -11.5850
 199   2.0000      -0.425568       -11.5803
 200   2.0000      -0.425140       -11.5686
 201   2.0000      -0.422615       -11.4999
 202   2.0000      -0.422573       -11.4988
 203   2.0000      -0.420553       -11.4438
 204   2.0000      -0.420026       -11.4295
 205   2.0000      -0.417226       -11.3533
 206   2.0000      -0.408080       -11.1044
 207   2.0000      -0.406728       -11.0676
 208   2.0000      -0.405420       -11.0320
 209   2.0000      -0.402004       -10.9391
 210   2.0000      -0.396207       -10.7813
 211   2.0000      -0.384497       -10.4627
 212   2.0000      -0.374501       -10.1907
 213   2.0000      -0.373651       -10.1676
 214   2.0000      -0.366348        -9.9688
 215   2.0000      -0.356846        -9.7103
 216   2.0000      -0.351586        -9.5671
 217   2.0000      -0.346819        -9.4374
 218   2.0000      -0.342620        -9.3232
 219   2.0000      -0.339493        -9.2381
 220   2.0000      -0.335897        -9.1402
 221   2.0000      -0.324728        -8.8363
 222   2.0000      -0.309624        -8.4253
 223   2.0000      -0.299628        -8.1533
 224   2.0000      -0.295183        -8.0323
 225   2.0000      -0.291143        -7.9224
 226   2.0000      -0.268390        -7.3033
 227   2.0000      -0.246606        -6.7105
 228   0.0000      -0.095501        -2.5987
 229   0.0000      -0.079390        -2.1603
 230   0.0000      -0.064584        -1.7574
 231   0.0000      -0.026131        -0.7111
 232   0.0000      -0.022829        -0.6212

MULLIKEN ATOMIC CHARGES
-----------------------
   0 C :    0.158150
   1 C :   -0.316812
   2 C :   -0.194654
   3 N :    0.172772
   4 C :   -0.212362
   5 N :    0.144643
   6 N :   -0.238019
   7 C :    0.115253
   8 C :    0.213942
   9 O :   -0.177847
  10 C :   -0.150715
  11 S :    0.111857
  12 C :    0.064787
  13 C :   -0.102630
  14 C :   -0.023636
  15 C :   -0.043215
  16 C :   -0.068594
  17 S :    0.168648
  18 C :   -0.063210
  19 C :   -0.009989
  20 S :    0.170895
  21 C :   -0.045545
  22 C :   -0.106615
  23 S :    0.117537
  24 C :    0.173670
  25 C :   -0.067701
  26 C :   -0.067260
  27 C :    0.168027
  28 C :   -0.045946
  29 N :   -0.028897
  30 C :    0.038303
  31 C :    0.038378
  32 N :   -0.032963
  33 C :   -0.049138
  34 C :   -0.109496
  35 C :   -0.043339
  36 C :   -0.008976
  37 C :   -0.066337
  38 S :    0.122808
  39 C :   -0.060545
  40 C :   -0.002319
  41 S :    0.157671
  42 C :   -0.047307
  43 C :   -0.060075
  44 S :    0.202478
  45 C :    0.038605
  46 C :   -0.174814
  47 C :    0.243080
  48 O :   -0.209269
  49 N :   -0.237607
  50 C :    0.124485
  51 C :   -0.304862
  52 C :   -0.193347
  53 N :    0.167870
  54 C :   -0.221141
  55 N :    0.142623
  56 S :    0.153610
  57 C :    0.117075
  58 H :    0.065235
  59 H :    0.064923
  60 H :    0.067233
  61 H :    0.026811
  62 H :    0.008067
  63 H :    0.000219
  64 H :   -0.000407
  65 H :    0.000430
  66 H :    0.015595
  67 H :    0.015982
  68 H :   -0.002481
  69 H :   -0.008876
  70 H :    0.007469
  71 H :    0.067041
  72 H :    0.064828
  73 H :    0.065948
Sum of atomic charges:    0.0000000

LOEWDIN ATOMIC CHARGES
----------------------
   0 C :   -0.027008
   1 C :   -0.208422
   2 C :   -0.033813
   3 N :   -0.058817
   4 C :   -0.040942
   5 N :   -0.050569
   6 N :   -0.007307
   7 C :    0.038799
   8 C :    0.070290
   9 O :   -0.169461
  10 C :   -0.222416
  11 S :    0.427560
  12 C :   -0.000559
  13 C :   -0.180818
  14 C :   -0.048878
  15 C :   -0.192343
  16 C :   -0.203841
  17 S :    0.442935
  18 C :   -0.219798
  19 C :   -0.184280
  20 S :    0.416151
  21 C :   -0.054455
  22 C :   -0.145852
  23 S :    0.424123
  24 C :   -0.034910
  25 C :   -0.014909
  26 C :   -0.015250
  27 C :   -0.033290
  28 C :    0.002309
  29 N :   -0.026008
  30 C :    0.009723
  31 C :    0.010149
  32 N :   -0.026499
  33 C :    0.002593
  34 C :   -0.147209
  35 C :   -0.054532
  36 C :   -0.183151
  37 C :   -0.219492
  38 S :    0.427127
  39 C :   -0.207294
  40 C :   -0.197094
  41 S :    0.402788
  42 C :   -0.038540
  43 C :   -0.181195
  44 S :    0.488836
  45 C :    0.008281
  46 C :   -0.234116
  47 C :    0.070033
  48 O :   -0.187534
  49 N :   -0.003055
  50 C :   -0.031780
  51 C :   -0.213162
  52 C :   -0.034635
  53 N :   -0.062942
  54 C :   -0.040954
  55 N :   -0.051755
  56 S :    0.424838
  57 C :    0.038759
  58 H :    0.040768
  59 H :    0.040708
  60 H :    0.044198
  61 H :    0.050303
  62 H :    0.026914
  63 H :    0.032589
  64 H :    0.025383
  65 H :    0.025842
  66 H :    0.028143
  67 H :    0.028302
  68 H :    0.031926
  69 H :    0.035633
  70 H :    0.047155
  71 H :    0.043401
  72 H :    0.041049
  73 H :    0.041277

  Mayer bond orders larger than 0.100000
B(  0-C ,  1-C ) :   1.5738 B(  0-C ,  6-N ) :   1.2048 B(  0-C , 11-S ) :   1.0747
B(  1-C ,  2-C ) :   1.1675 B(  1-C ,  4-C ) :   1.1470 B(  2-C ,  3-N ) :   3.0132
B(  4-C ,  5-N ) :   3.0326 B(  6-N ,  7-C ) :   0.9346 B(  6-N ,  8-C ) :   1.0409
B(  7-C , 58-H ) :   0.9690 B(  7-C , 59-H ) :   0.9693 B(  7-C , 60-H ) :   0.9439
B(  8-C ,  9-O ) :   2.1587 B(  8-C , 10-C ) :   0.9700 B( 10-C , 11-S ) :   0.9939
B( 10-C , 12-C ) :   1.7285 B( 12-C , 13-C ) :   1.1453 B( 12-C , 61-H ) :   0.9414
B( 13-C , 14-C ) :   1.4709 B( 13-C , 17-S ) :   1.0759 B( 14-C , 15-C ) :   1.3204
B( 14-C , 62-H ) :   0.9798 B( 15-C , 16-C ) :   1.4345 B( 15-C , 20-S ) :   1.0523
B( 16-C , 17-S ) :   1.0922 B( 16-C , 18-C ) :   1.3045 B( 18-C , 19-C ) :   1.4588
B( 18-C , 23-S ) :   1.0694 B( 19-C , 20-S ) :   1.0526 B( 19-C , 21-C ) :   1.2130
B( 21-C , 22-C ) :   1.5469 B( 21-C , 63-H ) :   0.9858 B( 22-C , 23-S ) :   1.0833
B( 22-C , 24-C ) :   1.1219 B( 24-C , 25-C ) :   1.3888 B( 24-C , 27-C ) :   0.1178
B( 24-C , 33-C ) :   1.2132 B( 25-C , 26-C ) :   1.3035 B( 25-C , 64-H ) :   0.9850
B( 26-C , 27-C ) :   1.3920 B( 26-C , 65-H ) :   0.9840 B( 27-C , 28-C ) :   1.2144
B( 27-C , 34-C ) :   1.1217 B( 28-C , 29-N ) :   1.4743 B( 28-C , 33-C ) :   1.2288
B( 29-N , 30-C ) :   1.6327 B( 30-C , 31-C ) :   1.2407 B( 30-C , 66-H ) :   0.9743
B( 31-C , 32-N ) :   1.6322 B( 31-C , 67-H ) :   0.9741 B( 32-N , 33-C ) :   1.4746
B( 34-C , 35-C ) :   1.5406 B( 34-C , 38-S ) :   1.0865 B( 35-C , 36-C ) :   1.2205
B( 35-C , 68-H ) :   0.9867 B( 36-C , 37-C ) :   1.4513 B( 36-C , 41-S ) :   1.0506
B( 37-C , 38-S ) :   1.0715 B( 37-C , 39-C ) :   1.3078 B( 39-C , 40-C ) :   1.4006
B( 39-C , 44-S ) :   1.0603 B( 40-C , 41-S ) :   1.0380 B( 40-C , 42-C ) :   1.3151
B( 42-C , 43-C ) :   1.4002 B( 42-C , 69-H ) :   1.0102 B( 43-C , 44-S ) :   1.0830
B( 43-C , 45-C ) :   1.2541 B( 45-C , 46-C ) :   1.6205 B( 45-C , 70-H ) :   0.9526
B( 46-C , 47-C ) :   1.0019 B( 46-C , 56-S ) :   1.0011 B( 47-C , 48-O ) :   2.0448
B( 47-C , 49-N ) :   1.0691 B( 49-N , 50-C ) :   1.2000 B( 49-N , 57-C ) :   0.9341
B( 50-C , 51-C ) :   1.5496 B( 50-C , 56-S ) :   1.0969 B( 51-C , 52-C ) :   1.1681
B( 51-C , 54-C ) :   1.1489 B( 52-C , 53-N ) :   3.0110 B( 54-C , 55-N ) :   3.0338
B( 57-C , 71-H ) :   0.9440 B( 57-C , 72-H ) :   0.9689 B( 57-C , 73-H ) :   0.9690

-----------------------------------------------------------------------------
         ABSORPTION SPECTRUM VIA TRANSITION ELECTRIC DIPOLE MOMENTS
-----------------------------------------------------------------------------
State   Energy  Wavelength   fosc         T2         TX        TY        TZ
        (cm-1)    (nm)                  (au**2)     (au)      (au)      (au)
-----------------------------------------------------------------------------
   0   18169.0    550.4   2.632983815  47.70825  -0.49922  -2.36234   6.47135
   1   22709.2    440.3   0.608284412   8.81820   1.75525   2.03293   1.26668
   2   24599.7    406.5   0.508791509   6.80904  -0.21021  -1.24067   2.28595
   3   25810.7    387.4   0.002979173   0.03800   0.14269   0.12785  -0.03595
   4   27390.5    365.1   0.038825792   0.46665  -0.17702  -0.25134  -0.61004
   5   28561.9    350.1   0.153056931   1.76418  -0.50151  -1.13922   0.46350
   6   28908.2    345.9   0.004619597   0.05261  -0.21553   0.04896   0.06132
   7   30019.1    333.1   0.163941243   1.79790  -0.49189  -1.20653   0.31659
   8   31203.5    320.5   0.015875329   0.16749   0.15525   0.08337   0.36938
   9   31913.9    313.3   0.007382293   0.07615  -0.09625  -0.21753   0.13990
  10   32074.9    311.8   0.142773186   1.46540  -0.02120  -0.22184   1.18985
  11   32624.5    306.5   0.007812422   0.07883   0.01118   0.10054  -0.26192
  12   33122.7    301.9   0.011634028   0.11563   0.06469   0.20099  -0.26656
  13   33909.1    294.9   0.041845606   0.40627   0.20907   0.39160   0.45739
  14   34225.2    292.2   0.255067454   2.45349   0.26708   0.23958   1.52472
  15   35719.6    280.0   0.108174367   0.99700  -0.42069  -0.79702   0.42985
  16   36049.5    277.4   0.027076454   0.24727   0.24701   0.30075  -0.30953
  17   37650.9    265.6   0.111074578   0.97122  -0.45971  -0.62635  -0.60627
  18   37953.2    263.5   0.004723582   0.04097  -0.12485  -0.14050   0.07514
  19   38521.0    259.6   0.036507547   0.31200   0.21772   0.45558  -0.23885
  20   38734.3    258.2   0.124452264   1.05775   0.34563   0.83974  -0.48283
  21   39220.4    255.0   0.005629889   0.04726   0.04746   0.00853   0.21197
  22   39696.5    251.9   0.207575139   1.72147  -0.69577  -1.08445   0.24766
  23   39848.7    250.9   0.008163615   0.06744   0.15983   0.20381  -0.01902
  24   39979.0    250.1   0.075029822   0.61784   0.40970   0.50923   0.43667

FINAL SINGLE POINT ENERGY     -5304.214391256190

DIPOLE MOMENT
-------------
                                X             Y             Z
Electronic contribution:     -3.03689      -2.92900     -10.21720
Nuclear contribution   :      1.71592       1.48434       9.35946
                        -----------------------------------------
Total Dipole Moment    :     -1.32097      -1.44466      -0.85774
                        -----------------------------------------
Magnitude (a.u.)       :      2.13722
Magnitude (Debye)      :      5.43239

Rotational constants in cm-1:     0.002827     0.000217     0.000202
Rotational constants in MHz :    84.745187     6.506576     6.051993

                             ****ORCA TERMINATED NORMALLY****
TOTAL RUN TIME: 0 days 0 hours 5 minutes 51 seconds 411 msec
