                         Program Version 4.2.0 -  RELEASE  -
|  1> # ORCA input file
|  2> # SCF done       -154.962319369614          0.000475803870
|  3> ! CAM-B3LYP def2-SVP def2/J RIJCOSX Grid4 TightSCF
|  4> %maxcore 5000
|  5> %tddft
|  6>     Mode sTDDFT
|  7>     Ethresh 5.0
|  8>     maxcore 5000
|  9> end
| 10>
| 11> %pal
| 12>   nprocs 6
| 13>   end
| 14> * xyz 0 1
| 15>    C       -2.68092        -5.87533        -3.63705
| 16>    C       -1.43068        -5.73883        -4.11065
| 17>    O       -1.10314        -5.99255        -5.43418
| 18>    C       -2.16918        -6.33416        -6.21622
| 19>    C       -3.49206        -6.46831        -5.69355
| 20>    C       -4.39699        -6.82011        -6.63980
| 21>    S       -3.65374        -6.99377        -8.18484
| 22>    C       -2.10441        -6.58427        -7.54581
| 23>    O       -3.77350        -6.24550        -4.37478
| 24>    C       -0.31613        -5.35728        -3.27186
| 25>    C       -0.14400        -5.70733        -1.96480
| 26>    C        1.15235        -5.23985        -1.53348
| 27>    C        1.67037        -5.39549        -0.24355
| 28>    N        2.10600        -5.53997         0.80967
| 29>    C        1.78865        -4.64677        -2.59602
| 30>    C        0.89636        -4.66163        -3.71668
| 31>    C        1.08272        -3.97288        -4.90066
| 32>    C        2.37666        -3.48257        -5.44383
| 33>    C        2.08153        -2.56440        -6.42650
| 34>    C        0.66273        -2.50232        -6.57631
| 35>    C        0.06619        -3.38151        -5.68843
| 36>    C       -0.01257        -1.67446        -7.48238
| 37>    N       -0.56389        -0.99858        -8.22909
| 38>    C        3.66942        -3.96713        -5.15571
| 39>    C        3.95824        -5.16773        -4.57152
| 40>    C        5.25318        -5.61786        -4.25081
| 41>    N        5.45603        -6.88598        -3.74296
| 42>    C        6.78064        -7.05176        -3.49804
| 43>    C        7.72967        -7.94570        -3.03650
| 44>    C        8.96747        -7.27558        -3.11168
| 45>    N        8.76457        -6.00380        -3.60931
| 46>    C        7.44032        -5.83961        -3.86252
| 47>    C        6.49242        -4.94900        -4.33158
| 48>    C       10.26286        -7.72411        -2.78279
| 49>    C       10.55342        -8.96596        -2.29824
| 50>    C       11.83558        -9.46724        -1.98360
| 51>    C       12.06665       -10.52085        -1.12640
| 52>    C       13.47052       -10.60823        -0.87686
| 53>    C       14.08279       -11.57226        -0.06588
| 54>    N       14.58119       -12.36139         0.60306
| 55>    C       14.12005        -9.59767        -1.56254
| 56>    C       13.15621        -8.88848        -2.32712
| 57>    C       13.44387        -8.00776        -3.35454
| 58>    C       14.67707        -7.21338        -3.53069
| 59>    C       14.66900        -6.72705        -4.81244
| 60>    C       13.45999        -7.15395        -5.45876
| 61>    C       12.70594        -7.88831        -4.56692
| 62>    C       13.10392        -6.85358        -6.77819
| 63>    N       12.80064        -6.58916        -7.85426
| 64>    C       15.62745        -6.85214        -2.53248
| 65>    C       15.40820        -6.88366        -1.19893
| 66>    C       16.34388        -6.54031        -0.17001
| 67>    C       17.64906        -6.24356        -0.35184
| 68>    O       18.53627        -5.93453         0.63448
| 69>    C       18.00020        -5.96539         1.89221
| 70>    C       16.62487        -6.28036         2.11426
| 71>    C       16.29117        -6.25848         3.42701
| 72>    S       17.64720        -5.85424         4.41425
| 73>    C       18.67597        -5.71278         3.04058
| 74>    O       15.76692        -6.56482         1.09215
| 75>    H       -2.93601        -5.66636        -2.61353
| 76>    H       -5.44681        -6.98457        -6.51623
| 77>    H       -1.24356        -6.55264        -8.18004
| 78>    H       -0.82471        -6.25950        -1.34535
| 79>    H        2.73798        -4.14844        -2.56365
| 80>    H        2.78486        -2.02523        -7.03309
| 81>    H       -0.99068        -3.48113        -5.53618
| 82>    H        4.48798        -3.35351        -5.50893
| 83>    H        3.14701        -5.84661        -4.34344
| 84>    H        4.72398        -7.55522        -3.57738
| 85>    H        7.57884        -8.94493        -2.68301
| 86>    H        9.49732        -5.33611        -3.77840
| 87>    H        6.64118        -3.94909        -4.68446
| 88>    H       11.06420        -7.01211        -2.92857
| 89>    H        9.73177        -9.62887        -2.05989
| 90>    H       11.32495       -11.15155        -0.67310
| 91>    H       15.18277        -9.46193        -1.61926
| 92>    H       15.41055        -6.09610        -5.26570
| 93>    H       11.79224        -8.40384        -4.79365
| 94>    H       16.56028        -6.45700        -2.91260
| 95>    H       14.44020        -7.17566        -0.81689
| 96>    H       18.11134        -6.22840        -1.32263
| 97>    H       15.33658        -6.45681         3.86703
| 98>    H       19.70827        -5.45568         3.15346
| 99> *
|100>
|101>                          ****END OF INPUT****

CARTESIAN COORDINATES (ANGSTROEM)
---------------------------------
  C     -2.680920   -5.875330   -3.637050
  C     -1.430680   -5.738830   -4.110650
  O     -1.103140   -5.992550   -5.434180
  C     -2.169180   -6.334160   -6.216220
  C     -3.492060   -6.468310   -5.693550
  C     -4.396990   -6.820110   -6.639800
  S     -3.653740   -6.993770   -8.184840
  C     -2.104410   -6.584270   -7.545810
  O     -3.773500   -6.245500   -4.374780
  C     -0.316130   -5.357280   -3.271860
  C     -0.144000   -5.707330   -1.964800
  C      1.152350   -5.239850   -1.533480
  C      1.670370   -5.395490   -0.243550
  N      2.106000   -5.539970    0.809670
  C      1.788650   -4.646770   -2.596020
  C      0.896360   -4.661630   -3.716680
  C      1.082720   -3.972880   -4.900660
  C      2.376660   -3.482570   -5.443830
  C      2.081530   -2.564400   -6.426500
  C      0.662730   -2.502320   -6.576310
  C      0.066190   -3.381510   -5.688430
  C     -0.012570   -1.674460   -7.482380
  N     -0.563890   -0.998580   -8.229090
  C      3.669420   -3.967130   -5.155710
  C      3.958240   -5.167730   -4.571520
  C      5.253180   -5.617860   -4.250810
  N      5.456030   -6.885980   -3.742960
  C      6.780640   -7.051760   -3.498040
  C      7.729670   -7.945700   -3.036500
  C      8.967470   -7.275580   -3.111680
  N      8.764570   -6.003800   -3.609310
  C      7.440320   -5.839610   -3.862520
  C      6.492420   -4.949000   -4.331580
  C     10.262860   -7.724110   -2.782790
  C     10.553420   -8.965960   -2.298240
  C     11.835580   -9.467240   -1.983600
  C     12.066650  -10.520850   -1.126400
  C     13.470520  -10.608230   -0.876860
  C     14.082790  -11.572260   -0.065880
  N     14.581190  -12.361390    0.603060
  C     14.120050   -9.597670   -1.562540
  C     13.156210   -8.888480   -2.327120
  C     13.443870   -8.007760   -3.354540
  C     14.677070   -7.213380   -3.530690
  C     14.669000   -6.727050   -4.812440
  C     13.459990   -7.153950   -5.458760
  C     12.705940   -7.888310   -4.566920
  C     13.103920   -6.853580   -6.778190
  N     12.800640   -6.589160   -7.854260
  C     15.627450   -6.852140   -2.532480
  C     15.408200   -6.883660   -1.198930
  C     16.343880   -6.540310   -0.170010
  C     17.649060   -6.243560   -0.351840
  O     18.536270   -5.934530    0.634480
  C     18.000200   -5.965390    1.892210
  C     16.624870   -6.280360    2.114260
  C     16.291170   -6.258480    3.427010
  S     17.647200   -5.854240    4.414250
  C     18.675970   -5.712780    3.040580
  O     15.766920   -6.564820    1.092150
  H     -2.936010   -5.666360   -2.613530
  H     -5.446810   -6.984570   -6.516230
  H     -1.243560   -6.552640   -8.180040
  H     -0.824710   -6.259500   -1.345350
  H      2.737980   -4.148440   -2.563650
  H      2.784860   -2.025230   -7.033090
  H     -0.990680   -3.481130   -5.536180
  H      4.487980   -3.353510   -5.508930
  H      3.147010   -5.846610   -4.343440
  H      4.723980   -7.555220   -3.577380
  H      7.578840   -8.944930   -2.683010
  H      9.497320   -5.336110   -3.778400
  H      6.641180   -3.949090   -4.684460
  H     11.064200   -7.012110   -2.928570
  H      9.731770   -9.628870   -2.059890
  H     11.324950  -11.151550   -0.673100
  H     15.182770   -9.461930   -1.619260
  H     15.410550   -6.096100   -5.265700
  H     11.792240   -8.403840   -4.793650
  H     16.560280   -6.457000   -2.912600
  H     14.440200   -7.175660   -0.816890
  H     18.111340   -6.228400   -1.322630
  H     15.336580   -6.456810    3.867030
  H     19.708270   -5.455680    3.153460

 Total Charge           Charge          ....    0
 Multiplicity           Mult            ....    1
 Number of Electrons    NEL             ....  418
 Basis Dimension        Dim             ....  968

ORBITAL ENERGIES
----------------

  NO   OCC          E(Eh)            E(eV)
   0   2.0000     -88.958359     -2420.6800
   1   2.0000     -88.957995     -2420.6701
   2   2.0000     -19.279766      -524.6291
   3   2.0000     -19.275233      -524.5058
   4   2.0000     -19.275115      -524.5025
   5   2.0000     -19.271120      -524.3938
   6   2.0000     -14.474736      -393.8776
   7   2.0000     -14.474577      -393.8733
   8   2.0000     -14.411793      -392.1648
   9   2.0000     -14.410573      -392.1316
  10   2.0000     -14.410568      -392.1315
  11   2.0000     -14.407065      -392.0362
  12   2.0000     -10.346978      -281.5556
  13   2.0000     -10.345155      -281.5060
  14   2.0000     -10.342931      -281.4454
  15   2.0000     -10.341551      -281.4079
  16   2.0000     -10.341450      -281.4052
  17   2.0000     -10.341045      -281.3941
  18   2.0000     -10.340801      -281.3875
  19   2.0000     -10.338166      -281.3158
  20   2.0000     -10.327367      -281.0220
  21   2.0000     -10.325637      -280.9749
  22   2.0000     -10.324809      -280.9523
  23   2.0000     -10.324690      -280.9491
  24   2.0000     -10.323393      -280.9138
  25   2.0000     -10.321163      -280.8531
  26   2.0000     -10.321134      -280.8523
  27   2.0000     -10.320369      -280.8315
  28   2.0000     -10.320232      -280.8278
  29   2.0000     -10.314304      -280.6665
  30   2.0000     -10.313531      -280.6454
  31   2.0000     -10.312923      -280.6289
  32   2.0000     -10.310806      -280.5713
  33   2.0000     -10.308801      -280.5167
  34   2.0000     -10.308380      -280.5053
  35   2.0000     -10.307007      -280.4679
  36   2.0000     -10.301797      -280.3261
  37   2.0000     -10.300683      -280.2958
  38   2.0000     -10.300342      -280.2866
  39   2.0000     -10.299971      -280.2765
  40   2.0000     -10.299352      -280.2596
  41   2.0000     -10.298845      -280.2458
  42   2.0000     -10.297392      -280.2063
  43   2.0000     -10.296885      -280.1925
  44   2.0000     -10.296814      -280.1906
  45   2.0000     -10.296691      -280.1872
  46   2.0000     -10.296473      -280.1813
  47   2.0000     -10.296142      -280.1723
  48   2.0000     -10.295930      -280.1665
  49   2.0000     -10.295451      -280.1535
  50   2.0000     -10.295076      -280.1432
  51   2.0000     -10.294990      -280.1409
  52   2.0000     -10.293732      -280.1067
  53   2.0000     -10.292012      -280.0599
  54   2.0000     -10.291965      -280.0586
  55   2.0000     -10.288162      -279.9551
  56   2.0000     -10.287574      -279.9391
  57   2.0000     -10.284037      -279.8429
  58   2.0000     -10.283244      -279.8213
  59   2.0000     -10.281906      -279.7849
  60   2.0000      -8.054118      -219.1637
  61   2.0000      -8.053820      -219.1556
  62   2.0000      -6.023627      -163.9112
  63   2.0000      -6.023331      -163.9032
  64   2.0000      -6.019456      -163.7977
  65   2.0000      -6.019150      -163.7894
  66   2.0000      -6.015802      -163.6983
  67   2.0000      -6.015486      -163.6897
  68   2.0000      -1.202298       -32.7162
  69   2.0000      -1.201044       -32.6821
  70   2.0000      -1.164399       -31.6849
  71   2.0000      -1.164261       -31.6812
  72   2.0000      -1.107190       -30.1282
  73   2.0000      -1.070765       -29.1370
  74   2.0000      -1.015004       -27.6197
  75   2.0000      -1.012446       -27.5501
  76   2.0000      -1.001362       -27.2484
  77   2.0000      -0.999570       -27.1997
  78   2.0000      -0.989399       -26.9229
  79   2.0000      -0.987638       -26.8750
  80   2.0000      -0.985851       -26.8264
  81   2.0000      -0.984715       -26.7955
  82   2.0000      -0.978205       -26.6183
  83   2.0000      -0.975682       -26.5497
  84   2.0000      -0.922924       -25.1140
  85   2.0000      -0.919301       -25.0154
  86   2.0000      -0.916789       -24.9471
  87   2.0000      -0.894778       -24.3482
  88   2.0000      -0.883927       -24.0529
  89   2.0000      -0.882314       -24.0090
  90   2.0000      -0.879030       -23.9196
  91   2.0000      -0.874034       -23.7837
  92   2.0000      -0.867415       -23.6036
  93   2.0000      -0.848946       -23.1010
  94   2.0000      -0.840141       -22.8614
  95   2.0000      -0.839266       -22.8376
  96   2.0000      -0.829212       -22.5640
  97   2.0000      -0.824445       -22.4343
  98   2.0000      -0.820007       -22.3135
  99   2.0000      -0.802251       -21.8304
 100   2.0000      -0.802028       -21.8243
 101   2.0000      -0.798090       -21.7171
 102   2.0000      -0.796813       -21.6824
 103   2.0000      -0.783462       -21.3191
 104   2.0000      -0.755984       -20.5714
 105   2.0000      -0.752412       -20.4742
 106   2.0000      -0.743282       -20.2257
 107   2.0000      -0.722147       -19.6506
 108   2.0000      -0.719278       -19.5725
 109   2.0000      -0.711781       -19.3685
 110   2.0000      -0.705460       -19.1965
 111   2.0000      -0.701886       -19.0993
 112   2.0000      -0.699191       -19.0260
 113   2.0000      -0.697305       -18.9746
 114   2.0000      -0.690866       -18.7994
 115   2.0000      -0.684183       -18.6176
 116   2.0000      -0.675697       -18.3867
 117   2.0000      -0.673793       -18.3348
 118   2.0000      -0.668298       -18.1853
 119   2.0000      -0.665036       -18.0966
 120   2.0000      -0.649463       -17.6728
 121   2.0000      -0.643390       -17.5075
 122   2.0000      -0.636495       -17.3199
 123   2.0000      -0.634483       -17.2652
 124   2.0000      -0.622803       -16.9473
 125   2.0000      -0.610878       -16.6228
 126   2.0000      -0.602677       -16.3997
 127   2.0000      -0.601743       -16.3743
 128   2.0000      -0.595654       -16.2086
 129   2.0000      -0.594515       -16.1776
 130   2.0000      -0.592440       -16.1211
 131   2.0000      -0.584585       -15.9074
 132   2.0000      -0.582018       -15.8375
 133   2.0000      -0.571665       -15.5558
 134   2.0000      -0.568091       -15.4585
 135   2.0000      -0.565967       -15.4008
 136   2.0000      -0.565060       -15.3761
 137   2.0000      -0.551942       -15.0191
 138   2.0000      -0.549618       -14.9559
 139   2.0000      -0.542469       -14.7613
 140   2.0000      -0.540450       -14.7064
 141   2.0000      -0.537755       -14.6331
 142   2.0000      -0.533593       -14.5198
 143   2.0000      -0.531504       -14.4630
 144   2.0000      -0.521209       -14.1828
 145   2.0000      -0.520479       -14.1629
 146   2.0000      -0.517349       -14.0778
 147   2.0000      -0.515851       -14.0370
 148   2.0000      -0.514577       -14.0023
 149   2.0000      -0.512814       -13.9544
 150   2.0000      -0.510008       -13.8780
 151   2.0000      -0.508687       -13.8421
 152   2.0000      -0.505816       -13.7639
 153   2.0000      -0.505009       -13.7420
 154   2.0000      -0.502863       -13.6836
 155   2.0000      -0.500513       -13.6197
 156   2.0000      -0.499051       -13.5799
 157   2.0000      -0.497318       -13.5327
 158   2.0000      -0.496319       -13.5055
 159   2.0000      -0.494556       -13.4576
 160   2.0000      -0.493833       -13.4379
 161   2.0000      -0.492456       -13.4004
 162   2.0000      -0.491072       -13.3627
 163   2.0000      -0.487653       -13.2697
 164   2.0000      -0.484893       -13.1946
 165   2.0000      -0.482041       -13.1170
 166   2.0000      -0.478753       -13.0275
 167   2.0000      -0.478010       -13.0073
 168   2.0000      -0.475280       -12.9330
 169   2.0000      -0.465026       -12.6540
 170   2.0000      -0.461900       -12.5689
 171   2.0000      -0.459464       -12.5026
 172   2.0000      -0.457049       -12.4369
 173   2.0000      -0.447191       -12.1687
 174   2.0000      -0.446113       -12.1393
 175   2.0000      -0.441179       -12.0051
 176   2.0000      -0.439859       -11.9692
 177   2.0000      -0.438916       -11.9435
 178   2.0000      -0.438310       -11.9270
 179   2.0000      -0.437676       -11.9098
 180   2.0000      -0.436006       -11.8643
 181   2.0000      -0.433020       -11.7831
 182   2.0000      -0.432577       -11.7710
 183   2.0000      -0.430078       -11.7030
 184   2.0000      -0.421502       -11.4696
 185   2.0000      -0.420287       -11.4366
 186   2.0000      -0.419529       -11.4160
 187   2.0000      -0.411600       -11.2002
 188   2.0000      -0.409516       -11.1435
 189   2.0000      -0.408835       -11.1250
 190   2.0000      -0.406333       -11.0569
 191   2.0000      -0.401330       -10.9207
 192   2.0000      -0.393351       -10.7036
 193   2.0000      -0.386551       -10.5186
 194   2.0000      -0.359260        -9.7760
 195   2.0000      -0.356243        -9.6939
 196   2.0000      -0.344316        -9.3693
 197   2.0000      -0.329386        -8.9631
 198   2.0000      -0.324831        -8.8391
 199   2.0000      -0.316430        -8.6105
 200   2.0000      -0.310804        -8.4574
 201   2.0000      -0.308512        -8.3950
 202   2.0000      -0.305384        -8.3099
 203   2.0000      -0.302290        -8.2257
 204   2.0000      -0.292396        -7.9565
 205   2.0000      -0.278552        -7.5798
 206   2.0000      -0.258755        -7.0411
 207   2.0000      -0.252066        -6.8591
 208   2.0000      -0.225635        -6.1398
 209   0.0000      -0.131562        -3.5800
 210   0.0000      -0.120746        -3.2857
 211   0.0000      -0.051599        -1.4041
 212   0.0000      -0.029914        -0.8140
 213   0.0000      -0.008673        -0.2360

MULLIKEN ATOMIC CHARGES
-----------------------
   0 C :    0.100769
   1 C :    0.110214
   2 O :   -0.269911
   3 C :    0.231302
   4 C :    0.200422
   5 C :   -0.167552
   6 S :    0.113381
   7 C :   -0.176433
   8 O :   -0.240083
   9 C :    0.067634
  10 C :   -0.016693
  11 C :   -0.120721
  12 C :   -0.132600
  13 N :    0.133788
  14 C :   -0.044620
  15 C :    0.033486
  16 C :    0.067147
  17 C :    0.092038
  18 C :   -0.034695
  19 C :   -0.099155
  20 C :   -0.019934
  21 C :   -0.125198
  22 N :    0.140145
  23 C :   -0.026350
  24 C :   -0.007291
  25 C :    0.090943
  26 N :   -0.029150
  27 C :    0.129141
  28 C :   -0.166045
  29 C :    0.092911
  30 N :   -0.030935
  31 C :    0.128359
  32 C :   -0.162875
  33 C :   -0.005854
  34 C :   -0.023236
  35 C :    0.095177
  36 C :   -0.029415
  37 C :   -0.088893
  38 C :   -0.127249
  39 N :    0.138767
  40 C :   -0.038762
  41 C :    0.037309
  42 C :    0.036837
  43 C :    0.077370
  44 C :   -0.021855
  45 C :   -0.109688
  46 C :   -0.051479
  47 C :   -0.126591
  48 N :    0.136163
  49 C :    0.003456
  50 C :   -0.001133
  51 C :    0.158833
  52 C :    0.085860
  53 O :   -0.233427
  54 C :    0.193720
  55 C :    0.228818
  56 C :   -0.172728
  57 S :    0.111552
  58 C :   -0.163431
  59 O :   -0.262524
  60 H :    0.015044
  61 H :    0.027769
  62 H :    0.026347
  63 H :   -0.010821
  64 H :    0.013575
  65 H :   -0.015750
  66 H :   -0.002754
  67 H :   -0.009986
  68 H :    0.002334
  69 H :    0.128091
  70 H :   -0.026425
  71 H :    0.128267
  72 H :   -0.026024
  73 H :   -0.004580
  74 H :   -0.012879
  75 H :   -0.014255
  76 H :    0.007136
  77 H :   -0.014527
  78 H :    0.009416
  79 H :   -0.015352
  80 H :    0.018840
  81 H :    0.015053
  82 H :    0.025422
  83 H :    0.027024
Sum of atomic charges:   -0.0000000

LOEWDIN ATOMIC CHARGES
----------------------
   0 C :    0.025357
   1 C :    0.003092
   2 O :   -0.064961
   3 C :   -0.009341
   4 C :   -0.007731
   5 C :   -0.207551
   6 S :    0.438835
   7 C :   -0.208149
   8 O :   -0.057246
   9 C :   -0.043336
  10 C :    0.012115
  11 C :   -0.078606
  12 C :   -0.034475
  13 N :   -0.056065
  14 C :    0.000164
  15 C :    0.023061
  16 C :    0.053623
  17 C :   -0.017066
  18 C :   -0.028478
  19 C :   -0.040047
  20 C :   -0.017802
  21 C :   -0.027487
  22 N :   -0.041681
  23 C :   -0.014342
  24 C :   -0.020222
  25 C :    0.001190
  26 N :    0.074285
  27 C :   -0.006775
  28 C :   -0.084534
  29 C :    0.006167
  30 N :    0.073301
  31 C :   -0.009582
  32 C :   -0.079960
  33 C :   -0.027106
  34 C :   -0.012629
  35 C :   -0.025331
  36 C :   -0.017776
  37 C :   -0.048227
  38 C :   -0.028626
  39 N :   -0.043191
  40 C :   -0.017299
  41 C :    0.044100
  42 C :    0.030053
  43 C :   -0.029226
  44 C :   -0.009144
  45 C :   -0.064020
  46 C :   -0.013735
  47 C :   -0.032432
  48 N :   -0.050461
  49 C :   -0.019382
  50 C :   -0.017055
  51 C :    0.001961
  52 C :    0.033819
  53 O :   -0.048766
  54 C :   -0.008814
  55 C :   -0.004741
  56 C :   -0.208628
  57 S :    0.437894
  58 C :   -0.206674
  59 O :   -0.069809
  60 H :    0.033859
  61 H :    0.030326
  62 H :    0.029905
  63 H :    0.031635
  64 H :    0.036663
  65 H :    0.030044
  66 H :    0.033149
  67 H :    0.035809
  68 H :    0.033811
  69 H :    0.093597
  70 H :    0.026664
  71 H :    0.093363
  72 H :    0.027118
  73 H :    0.031490
  74 H :    0.035542
  75 H :    0.030933
  76 H :    0.035679
  77 H :    0.031046
  78 H :    0.035884
  79 H :    0.032040
  80 H :    0.039600
  81 H :    0.031503
  82 H :    0.029709
  83 H :    0.030122

  Mayer bond orders larger than 0.100000
B(  0-C ,  1-C ) :   1.7065 B(  0-C ,  8-O ) :   1.0496 B(  0-C , 60-H ) :   0.9843
B(  1-C ,  2-O ) :   1.0506 B(  1-C ,  9-C ) :   0.9799 B(  2-O ,  3-C ) :   1.0398
B(  3-C ,  4-C ) :   1.1941 B(  3-C ,  7-C ) :   1.5789 B(  4-C ,  5-C ) :   1.5799
B(  4-C ,  8-O ) :   1.0629 B(  5-C ,  6-S ) :   1.1437 B(  5-C , 61-H ) :   0.9724
B(  6-S ,  7-C ) :   1.1412 B(  7-C , 62-H ) :   0.9721 B(  9-C , 10-C ) :   1.6390
B(  9-C , 15-C ) :   1.0830 B( 10-C , 11-C ) :   1.1046 B( 10-C , 63-H ) :   1.0155
B( 11-C , 12-C ) :   1.0611 B( 11-C , 14-C ) :   1.6049 B( 12-C , 13-N ) :   3.0394
B( 14-C , 15-C ) :   1.0994 B( 14-C , 64-H ) :   1.0124 B( 15-C , 16-C ) :   1.4308
B( 16-C , 17-C ) :   1.0108 B( 16-C , 20-C ) :   1.1700 B( 17-C , 18-C ) :   1.5101
B( 17-C , 23-C ) :   1.1841 B( 18-C , 19-C ) :   1.1456 B( 18-C , 65-H ) :   1.0234
B( 19-C , 20-C ) :   1.5428 B( 19-C , 21-C ) :   1.0599 B( 20-C , 66-H ) :   1.0171
B( 21-C , 22-N ) :   3.0394 B( 23-C , 24-C ) :   1.5660 B( 23-C , 67-H ) :   0.9694
B( 24-C , 25-C ) :   1.1592 B( 24-C , 68-H ) :   0.9530 B( 25-C , 26-N ) :   1.1680
B( 25-C , 32-C ) :   1.3628 B( 26-N , 27-C ) :   1.1753 B( 26-N , 69-H ) :   0.9348
B( 27-C , 28-C ) :   1.2853 B( 27-C , 31-C ) :   1.2724 B( 28-C , 29-C ) :   1.3702
B( 28-C , 70-H ) :   1.0294 B( 29-C , 30-N ) :   1.1727 B( 29-C , 33-C ) :   1.1486
B( 30-N , 31-C ) :   1.1695 B( 30-N , 71-H ) :   0.9345 B( 31-C , 32-C ) :   1.2910
B( 32-C , 72-H ) :   1.0296 B( 33-C , 34-C ) :   1.5871 B( 33-C , 73-H ) :   0.9543
B( 34-C , 35-C ) :   1.1706 B( 34-C , 74-H ) :   0.9679 B( 35-C , 36-C ) :   1.5159
B( 35-C , 41-C ) :   1.0202 B( 36-C , 37-C ) :   1.1399 B( 36-C , 75-H ) :   1.0222
B( 37-C , 38-C ) :   1.0605 B( 37-C , 40-C ) :   1.5460 B( 38-C , 39-N ) :   3.0395
B( 40-C , 41-C ) :   1.1611 B( 40-C , 76-H ) :   1.0149 B( 41-C , 42-C ) :   1.4237
B( 42-C , 43-C ) :   1.0461 B( 42-C , 46-C ) :   1.1362 B( 43-C , 44-C ) :   1.5514
B( 43-C , 49-C ) :   1.1413 B( 44-C , 45-C ) :   1.1221 B( 44-C , 77-H ) :   1.0225
B( 45-C , 46-C ) :   1.5658 B( 45-C , 47-C ) :   1.0623 B( 46-C , 78-H ) :   1.0176
B( 47-C , 48-N ) :   3.0387 B( 49-C , 50-C ) :   1.6677 B( 49-C , 79-H ) :   0.9562
B( 50-C , 51-C ) :   1.1020 B( 50-C , 80-H ) :   0.9592 B( 51-C , 52-C ) :   1.6698
B( 51-C , 59-O ) :   1.0370 B( 52-C , 53-O ) :   1.0700 B( 52-C , 81-H ) :   0.9770
B( 53-O , 54-C ) :   1.0526 B( 54-C , 55-C ) :   1.1939 B( 54-C , 58-C ) :   1.5821
B( 55-C , 56-C ) :   1.5833 B( 55-C , 59-O ) :   1.0575 B( 56-C , 57-S ) :   1.1389
B( 56-C , 82-H ) :   0.9715 B( 57-S , 58-C ) :   1.1453 B( 58-C , 83-H ) :   0.9725

-----------------------------------------------------------------------------
         ABSORPTION SPECTRUM VIA TRANSITION ELECTRIC DIPOLE MOMENTS
-----------------------------------------------------------------------------
State   Energy  Wavelength   fosc         T2         TX        TY        TZ
        (cm-1)    (nm)                  (au**2)     (au)      (au)      (au)
-----------------------------------------------------------------------------
   0    5310.7   1883.0   0.306956214  19.02846   4.25912  -0.86833   0.36652
   1    7413.1   1349.0   0.023402501   1.03929  -0.86026   0.49339   0.23623
   2   10089.9    991.1   0.001324450   0.04321  -0.13150  -0.15784   0.03176
   3   10178.1    982.5   0.035214921   1.13903  -0.16165  -0.92083  -0.51475
   4   16630.1    601.3   0.004306493   0.08525  -0.17514  -0.04732  -0.22878
   5   17653.6    566.5   0.289009876   5.38959   1.72481  -1.11777   1.07946
   6   18684.1    535.2   0.118866504   2.09442  -1.14207   0.86219  -0.21612
   7   19892.2    502.7   0.010869337   0.17989  -0.39397   0.15565   0.02120
   8   20577.7    486.0   0.053789070   0.86054  -0.77342   0.30499  -0.41151
   9   21085.8    474.3   0.005947921   0.09286  -0.28538   0.07410  -0.07700
  10   22888.3    436.9   0.541857682   7.79378   2.37723  -1.40257   0.41877
  11   23280.6    429.5   0.226798868   3.20717   1.70920  -0.52740   0.08743
  12   23726.2    421.5   0.033952485   0.47111  -0.56785   0.09938  -0.37252
  13   24389.0    410.0   0.000962428   0.01299  -0.00010  -0.09170   0.06769
  14   25473.9    392.6   0.038013668   0.49127   0.38688   0.06322   0.58103
  15   25754.9    388.3   0.164815736   2.10676  -0.08348   1.16619  -0.86012
  16   26844.7    372.5   0.083845790   1.02825  -0.42431  -0.91417   0.11178
  17   27539.6    363.1   0.000751211   0.00898   0.06997   0.02942   0.05673
  18   27722.4    360.7   0.149571671   1.77621   0.56855   0.93278  -0.76347
  19   29214.7    342.3   0.102375787   1.15364   0.46192  -0.45427   0.85669
  20   29510.9    338.9   0.029864758   0.33316  -0.29491  -0.42159  -0.26162
  21   29717.5    336.5   1.033051161  11.44419   1.28725  -1.45771   2.76808
  22   30090.9    332.3   0.408382078   4.46793   0.24367  -1.45780   1.51108
  23   30559.8    327.2   0.131323497   1.41471  -0.27037   0.79636  -0.84108
  24   31558.6    316.9   0.060521942   0.63135  -0.65976  -0.42255   0.13237
  25   32402.0    308.6   0.002135720   0.02170  -0.06824  -0.00373  -0.13049
  26   32612.0    306.6   0.020966785   0.21166   0.09495   0.18539   0.41021
  27   32793.3    304.9   0.008881168   0.08916  -0.14320   0.13182  -0.22644
  28   32849.3    304.4   0.107732948   1.07969   0.41924  -0.46523   0.82915
  29   33483.8    298.7   0.000360615   0.00355  -0.00741   0.01571   0.05696
  30   33630.9    297.3   0.006454055   0.06318  -0.02742   0.09481  -0.23116
  31   34305.6    291.5   0.008097732   0.07771  -0.11020   0.23966  -0.09016
  32   35141.4    284.6   0.009095854   0.08521   0.06338  -0.00194   0.28494
  33   35922.9    278.4   0.053570671   0.49094   0.08898   0.02325   0.69461
  34   36463.5    274.2   0.015650137   0.14130  -0.36893   0.07070   0.01362
  35   37724.6    265.1   0.117891247   1.02880  -0.41848  -0.76305  -0.52100
  36   37970.2    263.4   0.111525782   0.96696  -0.58795   0.35302  -0.70474
  37   38715.4    258.3   0.138679036   1.17924   0.27203  -0.63006   0.84159
  38   39303.8    254.4   0.128375291   1.07528   0.10767  -0.60831   0.83285
  39   39556.8    252.8   0.183254943   1.52514   0.90362  -0.08596   0.83739
  40   39730.2    251.7   0.032981473   0.27329  -0.20964   0.05283  -0.47597
  41   40079.1    249.5   0.017438819   0.14324   0.02312   0.23302  -0.29734

FINAL SINGLE POINT ENERGY     -3265.636774061682

DIPOLE MOMENT
-------------
                                X             Y             Z
Electronic contribution:     -8.88726       0.70662       1.71365
Nuclear contribution   :      9.39304      -0.71332      -1.49770
                        -----------------------------------------
Total Dipole Moment    :      0.50578      -0.00669       0.21595
                        -----------------------------------------
Magnitude (a.u.)       :      0.54999
Magnitude (Debye)      :      1.39797

Rotational constants in cm-1:     0.002424     0.000317     0.000309
Rotational constants in MHz :    72.667055     9.490537     9.257787

                             ****ORCA TERMINATED NORMALLY****
TOTAL RUN TIME: 0 days 0 hours 12 minutes 31 seconds 377 msec
