                         Program Version 4.2.0 -  RELEASE  -
|  1> # ORCA input file
|  2> # SCF done       -202.152568226271          0.000410375741
|  3> ! CAM-B3LYP def2-SVP def2/J RIJCOSX Grid4 TightSCF
|  4> %maxcore 5000
|  5> %tddft
|  6>     Mode sTDDFT
|  7>     Ethresh 5.0
|  8>     maxcore 5000
|  9> end
| 10>
| 11> %pal
| 12>   nprocs 6
| 13>   end
| 14> * xyz 0 1
| 15>    C       -4.84970        -2.34009         2.27614
| 16>    S       -4.75682        -3.21167         0.81940
| 17>    C       -3.09815        -3.62940         1.10617
| 18>    C       -2.64953        -3.06586         2.28822
| 19>    C       -3.66374        -2.33402         2.95692
| 20>    C       -3.52057        -1.62195         4.26914
| 21>    F       -4.72492        -1.28815         4.76477
| 22>    F       -2.92437        -2.36870         5.20472
| 23>    F       -2.83272        -0.47575         4.16977
| 24>    C       -1.23007        -3.16911         2.75516
| 25>    F       -0.36131        -3.13354         1.72885
| 26>    F       -0.87151        -2.17870         3.57200
| 27>    F       -0.98745        -4.31841         3.41417
| 28>    C       -2.40658        -4.46226         0.17056
| 29>    C       -1.35307        -5.44103         0.45916
| 30>    N       -0.89962        -6.05246        -0.59660
| 31>    C       -1.59060        -5.54247        -1.64866
| 32>    C       -2.60128        -4.57958        -1.18685
| 33>    C       -3.27817        -3.98986        -2.32118
| 34>    S       -4.40354        -2.78913        -2.30059
| 35>    C       -2.66173        -4.60492        -3.46117
| 36>    C       -1.61723        -5.54768        -3.02296
| 37>    N       -0.95052        -6.05442        -4.09300
| 38>    C       -1.45791        -5.45641        -5.13693
| 39>    C       -2.53246        -4.51776        -4.83271
| 40>    C       -3.26386        -3.71971        -5.77684
| 41>    C       -4.60063        -3.44136        -5.55210
| 42>    C       -5.30231        -2.61220        -6.44259
| 43>    C       -6.62635        -2.16147        -6.45130
| 44>    C       -7.75499        -2.46810        -5.53276
| 45>    C       -8.30941        -3.89794        -5.75460
| 46>    N       -7.30529        -4.90802        -5.49443
| 47>    C       -7.40381        -2.26550        -4.04641
| 48>    N       -6.88527        -0.92751        -3.84251
| 49>    C       -6.74581        -1.26106        -7.57665
| 50>    C       -7.78450        -0.52223        -8.01316
| 51>    C       -7.64407         0.41044        -9.16571
| 52>    C       -6.31349         0.37627        -9.83851
| 53>    C       -5.29148        -0.38800        -9.40563
| 54>    C       -5.45213        -1.20403        -8.26293
| 55>    C       -4.58706        -2.03824        -7.57352
| 56>    C       -3.23584        -2.37534        -7.79951
| 57>    C       -2.59858        -3.20522        -6.93075
| 58>    C       -8.75405         0.19475       -10.16629
| 59>    C      -10.00258         0.64310       -10.00535
| 60>    C      -11.04227         0.47971       -10.97672
| 61>    C      -12.46458         0.63465       -10.68111
| 62>    N      -13.25188         0.49278       -11.71175
| 63>    C      -12.42795         0.25473       -12.76443
| 64>    C      -11.01659         0.20183       -12.32716
| 65>    C      -10.15941         0.03378       -13.47177
| 66>    S       -8.51633        -0.04930       -13.52274
| 67>    C      -11.06376         0.01501       -14.59740
| 68>    C      -12.45549         0.13275       -14.13111
| 69>    N      -13.31257         0.16286       -15.18345
| 70>    C      -12.56723         0.14132       -16.25059
| 71>    C      -11.12914         0.08056       -15.97014
| 72>    C      -10.06757         0.04380       -16.93002
| 73>    S       -8.63875        -0.88288       -16.60461
| 74>    C       -7.97482        -0.49797       -18.12178
| 75>    C       -8.78528         0.32584       -18.85267
| 76>    C       -9.98666         0.64905       -18.17179
| 77>    C      -11.02583         1.59661       -18.68838
| 78>    F      -11.56597         2.33355       -17.70088
| 79>    F      -10.54641         2.46856       -19.57513
| 80>    F      -12.05106         0.96100       -19.28665
| 81>    C       -8.39766         0.78952       -20.22548
| 82>    F       -7.37356         0.06208       -20.70370
| 83>    F       -9.39051         0.66940       -21.11361
| 84>    F       -7.98781         2.06530       -20.25028
| 85>    H       -5.76231        -1.86196         2.57213
| 86>    H       -0.98830        -5.70046         1.43576
| 87>    H       -1.11503        -5.70879        -6.12557
| 88>    H       -5.10616        -3.89367        -4.71608
| 89>    H       -8.56897        -1.77484        -5.76402
| 90>    H       -8.72163        -3.94775        -6.77574
| 91>    H       -9.13088        -4.04592        -5.04967
| 92>    H       -6.66698        -4.99325        -6.27699
| 93>    H       -7.73012        -5.81179        -5.32992
| 94>    H       -6.72065        -3.06175        -3.72474
| 95>    H       -8.32321        -2.35891        -3.46181
| 96>    H       -5.97820        -0.83433        -4.28882
| 97>    H       -6.75837        -0.74902        -2.85307
| 98>    H       -8.75481        -0.55358        -7.53768
| 99>    H       -7.78656         1.42199        -8.74810
|100>    H       -6.21337         0.99973       -10.71344
|101>    H       -4.34180        -0.38142        -9.91933
|102>    H       -2.71939        -1.96480        -8.65412
|103>    H       -1.55983        -3.45869        -7.07901
|104>    H       -8.48384        -0.36135       -11.05117
|105>    H      -10.28822         1.16570        -9.09965
|106>    H      -12.87267         0.83117        -9.70445
|107>    H      -13.01595         0.12441       -17.22692
|108>    H       -7.01849        -0.88331       -18.41538
|109> *
|110>
|111>                          ****END OF INPUT****

CARTESIAN COORDINATES (ANGSTROEM)
---------------------------------
  C     -4.849700   -2.340090    2.276140
  S     -4.756820   -3.211670    0.819400
  C     -3.098150   -3.629400    1.106170
  C     -2.649530   -3.065860    2.288220
  C     -3.663740   -2.334020    2.956920
  C     -3.520570   -1.621950    4.269140
  F     -4.724920   -1.288150    4.764770
  F     -2.924370   -2.368700    5.204720
  F     -2.832720   -0.475750    4.169770
  C     -1.230070   -3.169110    2.755160
  F     -0.361310   -3.133540    1.728850
  F     -0.871510   -2.178700    3.572000
  F     -0.987450   -4.318410    3.414170
  C     -2.406580   -4.462260    0.170560
  C     -1.353070   -5.441030    0.459160
  N     -0.899620   -6.052460   -0.596600
  C     -1.590600   -5.542470   -1.648660
  C     -2.601280   -4.579580   -1.186850
  C     -3.278170   -3.989860   -2.321180
  S     -4.403540   -2.789130   -2.300590
  C     -2.661730   -4.604920   -3.461170
  C     -1.617230   -5.547680   -3.022960
  N     -0.950520   -6.054420   -4.093000
  C     -1.457910   -5.456410   -5.136930
  C     -2.532460   -4.517760   -4.832710
  C     -3.263860   -3.719710   -5.776840
  C     -4.600630   -3.441360   -5.552100
  C     -5.302310   -2.612200   -6.442590
  C     -6.626350   -2.161470   -6.451300
  C     -7.754990   -2.468100   -5.532760
  C     -8.309410   -3.897940   -5.754600
  N     -7.305290   -4.908020   -5.494430
  C     -7.403810   -2.265500   -4.046410
  N     -6.885270   -0.927510   -3.842510
  C     -6.745810   -1.261060   -7.576650
  C     -7.784500   -0.522230   -8.013160
  C     -7.644070    0.410440   -9.165710
  C     -6.313490    0.376270   -9.838510
  C     -5.291480   -0.388000   -9.405630
  C     -5.452130   -1.204030   -8.262930
  C     -4.587060   -2.038240   -7.573520
  C     -3.235840   -2.375340   -7.799510
  C     -2.598580   -3.205220   -6.930750
  C     -8.754050    0.194750  -10.166290
  C    -10.002580    0.643100  -10.005350
  C    -11.042270    0.479710  -10.976720
  C    -12.464580    0.634650  -10.681110
  N    -13.251880    0.492780  -11.711750
  C    -12.427950    0.254730  -12.764430
  C    -11.016590    0.201830  -12.327160
  C    -10.159410    0.033780  -13.471770
  S     -8.516330   -0.049300  -13.522740
  C    -11.063760    0.015010  -14.597400
  C    -12.455490    0.132750  -14.131110
  N    -13.312570    0.162860  -15.183450
  C    -12.567230    0.141320  -16.250590
  C    -11.129140    0.080560  -15.970140
  C    -10.067570    0.043800  -16.930020
  S     -8.638750   -0.882880  -16.604610
  C     -7.974820   -0.497970  -18.121780
  C     -8.785280    0.325840  -18.852670
  C     -9.986660    0.649050  -18.171790
  C    -11.025830    1.596610  -18.688380
  F    -11.565970    2.333550  -17.700880
  F    -10.546410    2.468560  -19.575130
  F    -12.051060    0.961000  -19.286650
  C     -8.397660    0.789520  -20.225480
  F     -7.373560    0.062080  -20.703700
  F     -9.390510    0.669400  -21.113610
  F     -7.987810    2.065300  -20.250280
  H     -5.762310   -1.861960    2.572130
  H     -0.988300   -5.700460    1.435760
  H     -1.115030   -5.708790   -6.125570
  H     -5.106160   -3.893670   -4.716080
  H     -8.568970   -1.774840   -5.764020
  H     -8.721630   -3.947750   -6.775740
  H     -9.130880   -4.045920   -5.049670
  H     -6.666980   -4.993250   -6.276990
  H     -7.730120   -5.811790   -5.329920
  H     -6.720650   -3.061750   -3.724740
  H     -8.323210   -2.358910   -3.461810
  H     -5.978200   -0.834330   -4.288820
  H     -6.758370   -0.749020   -2.853070
  H     -8.754810   -0.553580   -7.537680
  H     -7.786560    1.421990   -8.748100
  H     -6.213370    0.999730  -10.713440
  H     -4.341800   -0.381420   -9.919330
  H     -2.719390   -1.964800   -8.654120
  H     -1.559830   -3.458690   -7.079010
  H     -8.483840   -0.361350  -11.051170
  H    -10.288220    1.165700   -9.099650
  H    -12.872670    0.831170   -9.704450
  H    -13.015950    0.124410  -17.226920
  H     -7.018490   -0.883310  -18.415380

 Total Charge           Charge          ....    0
 Multiplicity           Mult            ....    1
 Number of Electrons    NEL             ....  526
 Basis Dimension        Dim             .... 1116

ORBITAL ENERGIES
----------------

  NO   OCC          E(Eh)            E(eV)
   0   2.0000     -88.991719     -2421.5878
   1   2.0000     -88.984067     -2421.3796
   2   2.0000     -88.915392     -2419.5108
   3   2.0000     -88.903579     -2419.1894
   4   2.0000     -24.812167      -675.1734
   5   2.0000     -24.811563      -675.1570
   6   2.0000     -24.810168      -675.1190
   7   2.0000     -24.805344      -674.9877
   8   2.0000     -24.804883      -674.9752
   9   2.0000     -24.803714      -674.9434
  10   2.0000     -24.803354      -674.9336
  11   2.0000     -24.802574      -674.9124
  12   2.0000     -24.797981      -674.7874
  13   2.0000     -24.797820      -674.7830
  14   2.0000     -24.797235      -674.7671
  15   2.0000     -24.792428      -674.6363
  16   2.0000     -14.428173      -392.6106
  17   2.0000     -14.426019      -392.5519
  18   2.0000     -14.417717      -392.3260
  19   2.0000     -14.415483      -392.2652
  20   2.0000     -14.385749      -391.4561
  21   2.0000     -14.367754      -390.9665
  22   2.0000     -10.535081      -286.6741
  23   2.0000     -10.528203      -286.4870
  24   2.0000     -10.526084      -286.4293
  25   2.0000     -10.520346      -286.2732
  26   2.0000     -10.359743      -281.9029
  27   2.0000     -10.346890      -281.5532
  28   2.0000     -10.346883      -281.5530
  29   2.0000     -10.346869      -281.5526
  30   2.0000     -10.344324      -281.4834
  31   2.0000     -10.344315      -281.4831
  32   2.0000     -10.343254      -281.4542
  33   2.0000     -10.336950      -281.2827
  34   2.0000     -10.336617      -281.2737
  35   2.0000     -10.335628      -281.2467
  36   2.0000     -10.333489      -281.1885
  37   2.0000     -10.331220      -281.1268
  38   2.0000     -10.329256      -281.0733
  39   2.0000     -10.328702      -281.0583
  40   2.0000     -10.325170      -280.9622
  41   2.0000     -10.321821      -280.8710
  42   2.0000     -10.319507      -280.8081
  43   2.0000     -10.319129      -280.7978
  44   2.0000     -10.317645      -280.7574
  45   2.0000     -10.317263      -280.7470
  46   2.0000     -10.313705      -280.6502
  47   2.0000     -10.313608      -280.6475
  48   2.0000     -10.312576      -280.6195
  49   2.0000     -10.307743      -280.4879
  50   2.0000     -10.305514      -280.4273
  51   2.0000     -10.304967      -280.4124
  52   2.0000     -10.302590      -280.3477
  53   2.0000     -10.301271      -280.3118
  54   2.0000     -10.298086      -280.2252
  55   2.0000     -10.292395      -280.0703
  56   2.0000     -10.288805      -279.9726
  57   2.0000     -10.285757      -279.8897
  58   2.0000     -10.280980      -279.7597
  59   2.0000     -10.279008      -279.7060
  60   2.0000     -10.276525      -279.6385
  61   2.0000     -10.276014      -279.6246
  62   2.0000     -10.275609      -279.6135
  63   2.0000     -10.275045      -279.5982
  64   2.0000     -10.272431      -279.5271
  65   2.0000     -10.271409      -279.4993
  66   2.0000     -10.271187      -279.4932
  67   2.0000     -10.269079      -279.4359
  68   2.0000     -10.268600      -279.4228
  69   2.0000     -10.265648      -279.3425
  70   2.0000      -8.087077      -220.0606
  71   2.0000      -8.079406      -219.8518
  72   2.0000      -8.011269      -217.9977
  73   2.0000      -7.998901      -217.6612
  74   2.0000      -6.056134      -164.7958
  75   2.0000      -6.051710      -164.6754
  76   2.0000      -6.049733      -164.6216
  77   2.0000      -6.048465      -164.5871
  78   2.0000      -6.044018      -164.4661
  79   2.0000      -6.042063      -164.4129
  80   2.0000      -5.980096      -162.7267
  81   2.0000      -5.979576      -162.7125
  82   2.0000      -5.970671      -162.4702
  83   2.0000      -5.967796      -162.3920
  84   2.0000      -5.967120      -162.3736
  85   2.0000      -5.958453      -162.1377
  86   2.0000      -1.403665       -38.1957
  87   2.0000      -1.397070       -38.0162
  88   2.0000      -1.392723       -37.8979
  89   2.0000      -1.387291       -37.7501
  90   2.0000      -1.305999       -35.5380
  91   2.0000      -1.302487       -35.4425
  92   2.0000      -1.299517       -35.3617
  93   2.0000      -1.295775       -35.2598
  94   2.0000      -1.295695       -35.2576
  95   2.0000      -1.292385       -35.1676
  96   2.0000      -1.290363       -35.1126
  97   2.0000      -1.286924       -35.0190
  98   2.0000      -1.097682       -29.8695
  99   2.0000      -1.086515       -29.5656
 100   2.0000      -1.078349       -29.3434
 101   2.0000      -1.067310       -29.0430
 102   2.0000      -1.024936       -27.8899
 103   2.0000      -1.017293       -27.6819
 104   2.0000      -0.991357       -26.9762
 105   2.0000      -0.977345       -26.5949
 106   2.0000      -0.968962       -26.3668
 107   2.0000      -0.966040       -26.2873
 108   2.0000      -0.955071       -25.9888
 109   2.0000      -0.947535       -25.7837
 110   2.0000      -0.930717       -25.3261
 111   2.0000      -0.917245       -24.9595
 112   2.0000      -0.910074       -24.7644
 113   2.0000      -0.908237       -24.7144
 114   2.0000      -0.898662       -24.4538
 115   2.0000      -0.891222       -24.2514
 116   2.0000      -0.881438       -23.9851
 117   2.0000      -0.873917       -23.7805
 118   2.0000      -0.868507       -23.6333
 119   2.0000      -0.859039       -23.3756
 120   2.0000      -0.856707       -23.3122
 121   2.0000      -0.848387       -23.0858
 122   2.0000      -0.842290       -22.9199
 123   2.0000      -0.838665       -22.8212
 124   2.0000      -0.832638       -22.6572
 125   2.0000      -0.807703       -21.9787
 126   2.0000      -0.798899       -21.7391
 127   2.0000      -0.791525       -21.5385
 128   2.0000      -0.783070       -21.3084
 129   2.0000      -0.780166       -21.2294
 130   2.0000      -0.775048       -21.0901
 131   2.0000      -0.773773       -21.0554
 132   2.0000      -0.764128       -20.7930
 133   2.0000      -0.753970       -20.5166
 134   2.0000      -0.746446       -20.3118
 135   2.0000      -0.733597       -19.9622
 136   2.0000      -0.722586       -19.6626
 137   2.0000      -0.719841       -19.5879
 138   2.0000      -0.718041       -19.5389
 139   2.0000      -0.713106       -19.4046
 140   2.0000      -0.710051       -19.3215
 141   2.0000      -0.707357       -19.2482
 142   2.0000      -0.700484       -19.0611
 143   2.0000      -0.699579       -19.0365
 144   2.0000      -0.693223       -18.8635
 145   2.0000      -0.690879       -18.7998
 146   2.0000      -0.685604       -18.6562
 147   2.0000      -0.684280       -18.6202
 148   2.0000      -0.681386       -18.5415
 149   2.0000      -0.680500       -18.5173
 150   2.0000      -0.678610       -18.4659
 151   2.0000      -0.675033       -18.3686
 152   2.0000      -0.674803       -18.3623
 153   2.0000      -0.671921       -18.2839
 154   2.0000      -0.669650       -18.2221
 155   2.0000      -0.667510       -18.1639
 156   2.0000      -0.665205       -18.1011
 157   2.0000      -0.650123       -17.6908
 158   2.0000      -0.645197       -17.5567
 159   2.0000      -0.638983       -17.3876
 160   2.0000      -0.623879       -16.9766
 161   2.0000      -0.617060       -16.7911
 162   2.0000      -0.610108       -16.6019
 163   2.0000      -0.607486       -16.5305
 164   2.0000      -0.597598       -16.2615
 165   2.0000      -0.594562       -16.1788
 166   2.0000      -0.588749       -16.0207
 167   2.0000      -0.584230       -15.8977
 168   2.0000      -0.580795       -15.8042
 169   2.0000      -0.577381       -15.7113
 170   2.0000      -0.576459       -15.6862
 171   2.0000      -0.571356       -15.5474
 172   2.0000      -0.568561       -15.4713
 173   2.0000      -0.566285       -15.4094
 174   2.0000      -0.560987       -15.2652
 175   2.0000      -0.559753       -15.2317
 176   2.0000      -0.558881       -15.2079
 177   2.0000      -0.558612       -15.2006
 178   2.0000      -0.557277       -15.1643
 179   2.0000      -0.552850       -15.0438
 180   2.0000      -0.552129       -15.0242
 181   2.0000      -0.550463       -14.9789
 182   2.0000      -0.549034       -14.9400
 183   2.0000      -0.547753       -14.9051
 184   2.0000      -0.544499       -14.8166
 185   2.0000      -0.541341       -14.7306
 186   2.0000      -0.539483       -14.6801
 187   2.0000      -0.538089       -14.6421
 188   2.0000      -0.537616       -14.6293
 189   2.0000      -0.530202       -14.4275
 190   2.0000      -0.527842       -14.3633
 191   2.0000      -0.525505       -14.2997
 192   2.0000      -0.525085       -14.2883
 193   2.0000      -0.522910       -14.2291
 194   2.0000      -0.521315       -14.1857
 195   2.0000      -0.521157       -14.1814
 196   2.0000      -0.515119       -14.0171
 197   2.0000      -0.513281       -13.9671
 198   2.0000      -0.511899       -13.9295
 199   2.0000      -0.510142       -13.8817
 200   2.0000      -0.508380       -13.8337
 201   2.0000      -0.506755       -13.7895
 202   2.0000      -0.506200       -13.7744
 203   2.0000      -0.504836       -13.7373
 204   2.0000      -0.503693       -13.7062
 205   2.0000      -0.502374       -13.6703
 206   2.0000      -0.499673       -13.5968
 207   2.0000      -0.498825       -13.5737
 208   2.0000      -0.496233       -13.5032
 209   2.0000      -0.495886       -13.4937
 210   2.0000      -0.494955       -13.4684
 211   2.0000      -0.491563       -13.3761
 212   2.0000      -0.490039       -13.3346
 213   2.0000      -0.489048       -13.3077
 214   2.0000      -0.487333       -13.2610
 215   2.0000      -0.486336       -13.2339
 216   2.0000      -0.485372       -13.2076
 217   2.0000      -0.484402       -13.1813
 218   2.0000      -0.481779       -13.1099
 219   2.0000      -0.480009       -13.0617
 220   2.0000      -0.477014       -12.9802
 221   2.0000      -0.475938       -12.9509
 222   2.0000      -0.472637       -12.8611
 223   2.0000      -0.465432       -12.6650
 224   2.0000      -0.464979       -12.6527
 225   2.0000      -0.462716       -12.5911
 226   2.0000      -0.455057       -12.3827
 227   2.0000      -0.450309       -12.2535
 228   2.0000      -0.446847       -12.1593
 229   2.0000      -0.445446       -12.1212
 230   2.0000      -0.442927       -12.0527
 231   2.0000      -0.439536       -11.9604
 232   2.0000      -0.438469       -11.9313
 233   2.0000      -0.433289       -11.7904
 234   2.0000      -0.431257       -11.7351
 235   2.0000      -0.425064       -11.5666
 236   2.0000      -0.416818       -11.3422
 237   2.0000      -0.415780       -11.3139
 238   2.0000      -0.403414       -10.9774
 239   2.0000      -0.396593       -10.7918
 240   2.0000      -0.391850       -10.6628
 241   2.0000      -0.383218       -10.4279
 242   2.0000      -0.375295       -10.2123
 243   2.0000      -0.372589       -10.1387
 244   2.0000      -0.367642       -10.0040
 245   2.0000      -0.366054        -9.9608
 246   2.0000      -0.360393        -9.8068
 247   2.0000      -0.359351        -9.7785
 248   2.0000      -0.357518        -9.7286
 249   2.0000      -0.352380        -9.5887
 250   2.0000      -0.349263        -9.5039
 251   2.0000      -0.334714        -9.1080
 252   2.0000      -0.330344        -8.9891
 253   2.0000      -0.319471        -8.6932
 254   2.0000      -0.315479        -8.5846
 255   2.0000      -0.314310        -8.5528
 256   2.0000      -0.304030        -8.2731
 257   2.0000      -0.303556        -8.2602
 258   2.0000      -0.294980        -8.0268
 259   2.0000      -0.290299        -7.8994
 260   2.0000      -0.286387        -7.7930
 261   2.0000      -0.281971        -7.6728
 262   2.0000      -0.227518        -6.1911
 263   0.0000      -0.124537        -3.3888
 264   0.0000      -0.114818        -3.1244
 265   0.0000      -0.094884        -2.5819
 266   0.0000      -0.087816        -2.3896
 267   0.0000      -0.068534        -1.8649

MULLIKEN ATOMIC CHARGES
-----------------------
   0 C :   -0.096530
   1 S :    0.238788
   2 C :   -0.168672
   3 C :   -0.029008
   4 C :   -0.112296
   5 C :    0.530616
   6 F :   -0.163615
   7 F :   -0.157098
   8 F :   -0.156498
   9 C :    0.511977
  10 F :   -0.159018
  11 F :   -0.140451
  12 F :   -0.159392
  13 C :   -0.014510
  14 C :    0.064604
  15 N :   -0.023777
  16 C :    0.011614
  17 C :   -0.035512
  18 C :   -0.000808
  19 S :   -0.142476
  20 C :   -0.019076
  21 C :    0.004864
  22 N :   -0.028041
  23 C :    0.055770
  24 C :    0.010509
  25 C :    0.054994
  26 C :   -0.040434
  27 C :    0.008709
  28 C :   -0.076816
  29 C :    0.029859
  30 C :    0.136672
  31 N :   -0.224818
  32 C :    0.116368
  33 N :   -0.220768
  34 C :    0.091694
  35 C :   -0.090289
  36 C :    0.124246
  37 C :   -0.049189
  38 C :    0.021145
  39 C :    0.015818
  40 C :    0.041508
  41 C :   -0.010735
  42 C :   -0.017612
  43 C :   -0.035357
  44 C :   -0.003983
  45 C :    0.014073
  46 C :    0.062020
  47 N :   -0.026305
  48 C :    0.003965
  49 C :   -0.015160
  50 C :   -0.001162
  51 S :   -0.124059
  52 C :   -0.023334
  53 C :    0.014053
  54 N :   -0.018489
  55 C :    0.069793
  56 C :   -0.018776
  57 C :   -0.169734
  58 S :    0.240893
  59 C :   -0.095400
  60 C :   -0.108773
  61 C :   -0.029351
  62 C :    0.512525
  63 F :   -0.158802
  64 F :   -0.138796
  65 F :   -0.157914
  66 C :    0.534071
  67 F :   -0.163265
  68 F :   -0.157056
  69 F :   -0.156041
  70 H :    0.045168
  71 H :    0.017665
  72 H :    0.010931
  73 H :   -0.017567
  74 H :   -0.031992
  75 H :   -0.016695
  76 H :   -0.006907
  77 H :    0.105799
  78 H :    0.097219
  79 H :    0.005572
  80 H :   -0.020525
  81 H :    0.100267
  82 H :    0.088676
  83 H :   -0.007310
  84 H :    0.055768
  85 H :   -0.007594
  86 H :   -0.034827
  87 H :   -0.035666
  88 H :   -0.029698
  89 H :    0.030748
  90 H :   -0.011446
  91 H :    0.010817
  92 H :    0.021338
  93 H :    0.048309
Sum of atomic charges:   -0.0000000

LOEWDIN ATOMIC CHARGES
----------------------
   0 C :   -0.163111
   1 S :    0.533372
   2 C :   -0.155151
   3 C :   -0.106114
   4 C :   -0.115100
   5 C :    0.158429
   6 F :   -0.061701
   7 F :   -0.053921
   8 F :   -0.058118
   9 C :    0.165068
  10 F :   -0.053948
  11 F :   -0.038350
  12 F :   -0.061338
  13 C :   -0.064720
  14 C :    0.086176
  15 N :   -0.077640
  16 C :    0.031245
  17 C :   -0.034494
  18 C :   -0.139578
  19 S :    0.065974
  20 C :   -0.050119
  21 C :    0.044610
  22 N :   -0.079509
  23 C :    0.090250
  24 C :   -0.018147
  25 C :   -0.045812
  26 C :    0.022457
  27 C :   -0.031783
  28 C :   -0.021489
  29 C :   -0.040525
  30 C :    0.029309
  31 N :   -0.107198
  32 C :    0.023390
  33 N :   -0.120362
  34 C :   -0.017179
  35 C :    0.079601
  36 C :   -0.033592
  37 C :   -0.032178
  38 C :   -0.013782
  39 C :   -0.036458
  40 C :   -0.030918
  41 C :   -0.010226
  42 C :   -0.031717
  43 C :    0.040602
  44 C :   -0.049980
  45 C :   -0.026619
  46 C :    0.089557
  47 N :   -0.075035
  48 C :    0.042242
  49 C :   -0.042205
  50 C :   -0.137255
  51 S :    0.065652
  52 C :   -0.034003
  53 C :    0.037319
  54 N :   -0.074875
  55 C :    0.092673
  56 C :   -0.060533
  57 C :   -0.158054
  58 S :    0.533948
  59 C :   -0.158956
  60 C :   -0.113986
  61 C :   -0.103413
  62 C :    0.164726
  63 F :   -0.053868
  64 F :   -0.037229
  65 F :   -0.060185
  66 C :    0.159189
  67 F :   -0.060691
  68 F :   -0.053453
  69 F :   -0.057344
  70 H :    0.034542
  71 H :    0.023310
  72 H :    0.026448
  73 H :    0.023683
  74 H :    0.023683
  75 H :   -0.000137
  76 H :    0.017183
  77 H :    0.055946
  78 H :    0.057666
  79 H :   -0.010000
  80 H :    0.013575
  81 H :    0.048940
  82 H :    0.049670
  83 H :    0.029611
  84 H :    0.069286
  85 H :    0.026724
  86 H :    0.030615
  87 H :    0.027807
  88 H :    0.024694
  89 H :    0.015123
  90 H :    0.028625
  91 H :    0.027550
  92 H :    0.025550
  93 H :    0.036080

  Mayer bond orders larger than 0.100000
B(  0-C ,  1-S ) :   1.2068 B(  0-C ,  4-C ) :   1.5555 B(  0-C , 70-H ) :   0.9696
B(  1-S ,  2-C ) :   1.2013 B(  2-C ,  3-C ) :   1.5183 B(  2-C , 13-C ) :   1.0697
B(  3-C ,  4-C ) :   1.3027 B(  3-C ,  9-C ) :   0.9428 B(  4-C ,  5-C ) :   0.9468
B(  5-C ,  6-F ) :   1.1585 B(  5-C ,  7-F ) :   1.1587 B(  5-C ,  8-F ) :   1.1819
B(  9-C , 10-F ) :   1.1477 B(  9-C , 11-F ) :   1.1672 B(  9-C , 12-F ) :   1.1488
B( 13-C , 14-C ) :   1.0370 B( 13-C , 17-C ) :   1.5791 B( 14-C , 15-N ) :   1.7165
B( 14-C , 71-H ) :   0.9834 B( 15-N , 16-C ) :   1.2861 B( 16-C , 17-C ) :   1.0628
B( 16-C , 21-C ) :   1.4997 B( 17-C , 18-C ) :   1.0150 B( 18-C , 19-S ) :   1.6767
B( 18-C , 20-C ) :   1.0606 B( 20-C , 21-C ) :   1.0568 B( 20-C , 24-C ) :   1.5355
B( 21-C , 22-N ) :   1.2827 B( 22-N , 23-C ) :   1.7021 B( 23-C , 24-C ) :   1.0441
B( 23-C , 72-H ) :   0.9916 B( 24-C , 25-C ) :   1.0101 B( 25-C , 26-C ) :   1.4957
B( 25-C , 42-C ) :   1.1263 B( 26-C , 27-C ) :   1.1552 B( 26-C , 73-H ) :   0.9835
B( 27-C , 28-C ) :   1.4407 B( 27-C , 40-C ) :   1.1238 B( 28-C , 29-C ) :   1.0506
B( 28-C , 34-C ) :   1.1186 B( 29-C , 30-C ) :   1.0288 B( 29-C , 32-C ) :   1.0255
B( 29-C , 74-H ) :   0.8697 B( 30-C , 31-N ) :   1.1082 B( 30-C , 75-H ) :   0.9414
B( 30-C , 76-H ) :   0.9404 B( 31-N , 77-H ) :   0.9587 B( 31-N , 78-H ) :   0.9696
B( 32-C , 33-N ) :   1.1034 B( 32-C , 79-H ) :   0.9270 B( 32-C , 80-H ) :   0.9352
B( 33-N , 81-H ) :   0.9697 B( 33-N , 82-H ) :   0.9705 B( 34-C , 35-C ) :   1.6698
B( 34-C , 39-C ) :   1.0502 B( 35-C , 36-C ) :   0.9740 B( 35-C , 83-H ) :   0.9639
B( 36-C , 37-C ) :   0.9836 B( 36-C , 43-C ) :   0.9608 B( 36-C , 84-H ) :   0.8570
B( 37-C , 38-C ) :   1.7120 B( 37-C , 85-H ) :   0.9789 B( 38-C , 39-C ) :   1.1301
B( 38-C , 86-H ) :   0.9907 B( 39-C , 40-C ) :   1.4306 B( 40-C , 41-C ) :   1.1470
B( 41-C , 42-C ) :   1.5999 B( 41-C , 87-H ) :   0.9921 B( 42-C , 88-H ) :   0.9856
B( 43-C , 44-C ) :   1.7678 B( 43-C , 89-H ) :   0.9558 B( 44-C , 45-C ) :   1.0877
B( 44-C , 90-H ) :   0.9624 B( 45-C , 46-C ) :   1.0306 B( 45-C , 49-C ) :   1.5183
B( 46-C , 47-N ) :   1.7037 B( 46-C , 91-H ) :   0.9940 B( 47-N , 48-C ) :   1.2840
B( 48-C , 49-C ) :   1.0577 B( 48-C , 53-C ) :   1.5072 B( 49-C , 50-C ) :   1.0558
B( 50-C , 51-S ) :   1.6804 B( 50-C , 52-C ) :   1.0191 B( 52-C , 53-C ) :   1.0591
B( 52-C , 56-C ) :   1.5877 B( 53-C , 54-N ) :   1.2870 B( 54-N , 55-C ) :   1.7168
B( 55-C , 56-C ) :   1.0316 B( 55-C , 92-H ) :   0.9843 B( 56-C , 57-C ) :   1.0652
B( 57-C , 58-S ) :   1.1995 B( 57-C , 61-C ) :   1.5225 B( 58-S , 59-C ) :   1.2090
B( 59-C , 60-C ) :   1.5552 B( 59-C , 93-H ) :   0.9698 B( 60-C , 61-C ) :   1.3038
B( 60-C , 66-C ) :   0.9457 B( 61-C , 62-C ) :   0.9425 B( 62-C , 63-F ) :   1.1457
B( 62-C , 64-F ) :   1.1700 B( 62-C , 65-F ) :   1.1503 B( 66-C , 67-F ) :   1.1587
B( 66-C , 68-F ) :   1.1570 B( 66-C , 69-F ) :   1.1820

-----------------------------------------------------------------------------
         ABSORPTION SPECTRUM VIA TRANSITION ELECTRIC DIPOLE MOMENTS
-----------------------------------------------------------------------------
State   Energy  Wavelength   fosc         T2         TX        TY        TZ
        (cm-1)    (nm)                  (au**2)     (au)      (au)      (au)
-----------------------------------------------------------------------------
   0    9184.8   1088.8   0.076865471   2.75509   1.00865  -0.48042   1.22757
   1   10559.8    947.0   0.006199627   0.19328   0.33589   0.01432   0.28329
   2   13024.1    767.8   0.010122144   0.25586  -0.44517  -0.17334   0.16623
   3   15251.6    655.7   0.002627157   0.05671  -0.06969   0.22522  -0.03358
   4   15500.9    645.1   0.005095051   0.10821  -0.31209   0.07562  -0.07137
   5   15721.9    636.1   0.017024203   0.35648  -0.03643  -0.28545   0.52314
   6   16328.1    612.4   0.170591218   3.43950   0.31715  -0.77403   1.65523
   7   17762.9    563.0   0.000445699   0.00826  -0.03500   0.01039  -0.08323
   8   18048.4    554.1   0.066368812   1.21060   0.38771  -0.44149   0.93025
   9   18787.4    532.3   0.105217193   1.84372  -0.18316   0.00081  -1.34543
  10   18885.6    529.5   0.019562904   0.34102  -0.15623   0.07057  -0.55824
  11   20897.2    478.5   0.025647268   0.40404   0.43668  -0.22410   0.40390
  12   21043.4    475.2   0.013354896   0.20893   0.29599   0.04704  -0.34512
  13   21494.9    465.2   0.014979432   0.22942   0.08382  -0.24773  -0.40128
  14   24025.5    416.2   0.029413646   0.40304   0.07506  -0.05100  -0.62834
  15   24587.6    406.7   0.058578323   0.78433  -0.01915  -0.05228   0.88387
  16   24776.1    403.6   0.114619979   1.52301  -0.38568   0.25783  -1.14358
  17   25073.8    398.8   0.001735216   0.02278   0.10226  -0.05587   0.09594
  18   25210.0    396.7   0.008722651   0.11391   0.18217  -0.27189   0.08245
  19   25383.1    394.0   0.019338523   0.25082  -0.27922  -0.05370  -0.41227
  20   25955.5    385.3   0.089369817   1.13354  -0.50056   0.34398  -0.87445
  21   26230.3    381.2   0.098965765   1.24210  -0.53515   0.14883  -0.96622
  22   26275.2    380.6   0.112590429   1.41069  -0.66716   0.26052  -0.94748
  23   26778.5    373.4   0.001899668   0.02335   0.10552  -0.08429   0.07152
  24   26837.7    372.6   0.009759778   0.11972   0.27780   0.03109   0.20391
  25   27116.0    368.8   0.147480383   1.79054  -0.69322   0.58932  -0.98116
  26   27499.1    363.6   0.030546194   0.36569   0.45346   0.14423  -0.37318
  27   27996.7    357.2   0.693385124   8.15347  -0.31051   0.02074  -2.83842
  28   28190.6    354.7   0.063933804   0.74662  -0.07335   0.28266   0.81323
  29   28886.3    346.2   0.447996470   5.10574  -0.17269   0.00536  -2.25297
  30   29316.5    341.1   0.014594486   0.16389  -0.28196   0.28248  -0.06774
  31   30195.9    331.2   0.023660758   0.25796   0.08930   0.00907   0.49991
  32   30347.1    329.5   0.032211141   0.34943  -0.33628   0.04639   0.48394
  33   30589.9    326.9   0.052999361   0.57039  -0.35143   0.16662   0.64740
  34   31142.6    321.1   0.000261388   0.00276   0.03933  -0.01156  -0.03290
  35   31201.5    320.5   0.018899047   0.19941  -0.13107   0.26187  -0.33712
  36   31487.3    317.6   0.032215648   0.33683  -0.21356   0.14491   0.51982
  37   31588.4    316.6   0.008257424   0.08606   0.12960   0.01591  -0.26270
  38   31787.3    314.6   0.009005668   0.09327  -0.13773   0.05641   0.26668
  39   32134.8    311.2   0.044519574   0.45609   0.04608   0.03128   0.67304
  40   32752.8    305.3   0.000670324   0.00674   0.07314  -0.01128   0.03550
  41   33420.3    299.2   0.003538773   0.03486  -0.18276   0.00157   0.03814
  42   33456.3    298.9   0.020301672   0.19977   0.39517  -0.20873   0.00606
  43   33548.6    298.1   0.000661093   0.00649   0.05907  -0.04743   0.02736
  44   33985.5    294.2   0.012017401   0.11641  -0.24040   0.19826  -0.13896
  45   34149.7    292.8   0.165457366   1.59505  -0.07863   0.07354  -1.25836
  46   34544.2    289.5   0.024108093   0.22975   0.22721  -0.29757   0.29930
  47   34609.2    288.9   0.091004864   0.86566  -0.51538   0.47985   0.60811
  48   34822.9    287.2   0.002892748   0.02735   0.09421   0.12427   0.05504
  49   34889.1    286.6   0.009557506   0.09018  -0.21812   0.17773  -0.10496
  50   34989.2    285.8   0.071028326   0.66830  -0.58475   0.56630  -0.07533
  51   35050.2    285.3   0.010322941   0.09696  -0.00444  -0.00644   0.31128
  52   35344.5    282.9   0.032882275   0.30628  -0.22489   0.14203  -0.48531
  53   35397.2    282.5   0.001753905   0.01631   0.12415   0.02482  -0.01682
  54   35749.5    279.7   0.019375907   0.17843  -0.38951   0.09515   0.13288
  55   35829.5    279.1   0.012592957   0.11571  -0.00874  -0.19723   0.27701
  56   36034.3    277.5   0.012883166   0.11770   0.05998  -0.17490   0.28899
  57   36262.2    275.8   0.112171170   1.01836  -0.45538  -0.08486   0.89654
  58   36429.8    274.5   0.015227517   0.13761   0.26570  -0.23046  -0.11790
  59   36604.2    273.2   0.005601990   0.05038  -0.20376   0.09023  -0.02686
  60   36665.8    272.7   0.002372277   0.02130  -0.04707   0.06263  -0.12313
  61   37045.9    269.9   0.300353539   2.66912   1.22867  -1.05386   0.22105
  62   37498.3    266.7   0.496162590   4.35600   1.73787  -0.58372   0.99753
  63   37693.7    265.3   0.028374922   0.24782   0.22173   0.43515   0.09644
  64   37881.5    264.0   0.020516527   0.17830   0.08160  -0.26536   0.31816
  65   38020.8    263.0   0.172722184   1.49556  -0.44868   0.60092  -0.96599
  66   38447.8    260.1   0.073481598   0.62919   0.07591  -0.05167  -0.78788
  67   38813.4    257.6   0.020275326   0.17197  -0.06551   0.37915   0.15469
  68   39032.4    256.2   0.006782755   0.05721  -0.17124   0.15886  -0.05149
  69   39127.9    255.6   0.006135824   0.05163   0.17317  -0.13727  -0.05285
  70   39387.1    253.9   0.028095290   0.23483   0.28316  -0.37058   0.13161
  71   39555.9    252.8   0.042903049   0.35707  -0.25108   0.23808  -0.48718
  72   39683.7    252.0   0.049947077   0.41436  -0.02577   0.06047  -0.64034
  73   39897.3    250.6   0.039539098   0.32626   0.50688  -0.26282  -0.01595
  74   40008.8    249.9   0.164124184   1.35049  -0.58087   0.57063  -0.82914
  75   40206.8    248.7   0.139214415   1.13988  -0.13990   0.17098  -1.04455

FINAL SINGLE POINT ENERGY     -4958.320404000950

DIPOLE MOMENT
-------------
                                X             Y             Z
Electronic contribution:     13.55198      21.68983     -19.66979
Nuclear contribution   :    -14.74507     -22.13063      18.74732
                        -----------------------------------------
Total Dipole Moment    :     -1.19309      -0.44081      -0.92247
                        -----------------------------------------
Magnitude (a.u.)       :      1.57122
Magnitude (Debye)      :      3.99373

Rotational constants in cm-1:     0.002514     0.000211     0.000201
Rotational constants in MHz :    75.356367     6.314274     6.023704

                             ****ORCA TERMINATED NORMALLY****
TOTAL RUN TIME: 0 days 0 hours 8 minutes 51 seconds 699 msec
