                         Program Version 4.2.0 -  RELEASE  -
|  1> # ORCA input file
|  2> # SCF done       -187.271746021740          0.000765760138
|  3> ! CAM-B3LYP def2-SVP def2/J RIJCOSX Grid4 TightSCF
|  4> %maxcore 5000
|  5> %tddft
|  6>     Mode sTDDFT
|  7>     Ethresh 5.0
|  8>     maxcore 5000
|  9> end
| 10>
| 11> %pal
| 12>   nprocs 6
| 13>   end
| 14> * xyz 0 1
| 15>    C       -0.39258         3.40603         4.23917
| 16>    C       -0.60545         3.85371         5.51806
| 17>    C        0.21018         3.51759         6.61865
| 18>    N        0.83539         3.29201         7.55504
| 19>    C       -1.68471         4.65539         5.94253
| 20>    N       -2.54591         5.27470         6.38537
| 21>    C        0.63829         2.45559         3.84938
| 22>    C        0.40058         2.06575         2.50989
| 23>    C        1.19308         1.15728         1.85096
| 24>    C        2.27768         0.61338         2.54539
| 25>    C        2.51319         1.01630         3.88159
| 26>    C        1.70798         1.93047         4.54996
| 27>    S        3.91034         0.22354         4.54005
| 28>    C        4.15944        -0.62466         3.05320
| 29>    C        3.24489        -0.33278         2.10298
| 30>    C       -0.78046         2.77773         1.98505
| 31>    O       -1.25619         2.61206         0.88067
| 32>    C       -1.20265         3.70435         3.06435
| 33>    C       -2.05733         4.76966         3.02044
| 34>    C       -2.97052         5.23019         2.03229
| 35>    C       -3.62376         6.45463         2.17757
| 36>    C       -3.52470         7.46171         3.27055
| 37>    C       -4.51699         7.14930         4.39680
| 38>    S       -4.72086         6.74200         0.89692
| 39>    C       -4.32949         5.21304         0.12736
| 40>    C       -3.39022         4.54982         0.85305
| 41>    C       -5.00346         4.81420        -1.08658
| 42>    C       -6.09237         5.51629        -1.53571
| 43>    C       -6.79076         5.10122        -2.69265
| 44>    C       -7.91502         5.60091        -3.33138
| 45>    C       -8.75708         6.80170        -3.03358
| 46>    C       -9.75280         6.52936        -1.88693
| 47>    N       -9.06698         6.25997        -0.63597
| 48>    C       -7.93486         8.06683        -2.74732
| 49>    N       -7.02772         8.32715        -3.85448
| 50>    C       -8.19950         4.70058        -4.42768
| 51>    C       -9.21054         4.67636        -5.31437
| 52>    C       -9.33981         3.59136        -6.32809
| 53>    C       -8.20461         2.61363        -6.33901
| 54>    C       -7.20046         2.65130        -5.44458
| 55>    C       -7.16772         3.65488        -4.44700
| 56>    C       -6.31944         3.90665        -3.39030
| 57>    C       -5.17142         3.22578        -2.91925
| 58>    C       -4.53430         3.66409        -1.80637
| 59>    C       -9.53078         4.18426        -7.70067
| 60>    C      -10.60564         3.95282        -8.45077
| 61>    C      -10.84323         4.47557        -9.78121
| 62>    C      -12.02707         4.26886       -10.46617
| 63>    C      -13.26344         3.57583       -10.01001
| 64>    C      -14.11893         4.51785        -9.15607
| 65>    S      -12.02054         5.02572       -12.01023
| 66>    C      -10.40202         5.63526       -11.76359
| 67>    C       -9.92232         5.22721       -10.54198
| 68>    C       -9.68797         6.35014       -12.75931
| 69>    C      -10.16623         7.02533       -13.83581
| 70>    C      -11.49623         7.48399       -14.18420
| 71>    C      -12.44828         7.93270       -13.30708
| 72>    C      -13.69073         8.46594       -13.70260
| 73>    N      -14.72215         8.89036       -13.97472
| 74>    C      -12.24812         7.99452       -11.91230
| 75>    N      -12.09943         8.10880       -10.77975
| 76>    C      -11.52381         7.66616       -15.62946
| 77>    C      -10.19519         7.58098       -16.12153
| 78>    C       -9.27897         7.27573       -15.00593
| 79>    O       -8.07288         7.18660       -15.03375
| 80>    C       -9.89387         7.75158       -17.45143
| 81>    C      -10.94881         8.00491       -18.33372
| 82>    C      -12.27114         8.07524       -17.83248
| 83>    C      -12.57774         7.91326       -16.48655
| 84>    S      -13.41005         8.38460       -19.10456
| 85>    C      -12.13372         8.42158       -20.27168
| 86>    C      -10.90927         8.21112       -19.74195
| 87>    H        0.98197         0.87682         0.83060
| 88>    H        1.93144         2.20809         5.56640
| 89>    H        4.98969        -1.30021         2.98236
| 90>    H        3.24155        -0.76344         1.11798
| 91>    H       -2.03806         5.40027         3.90049
| 92>    H       -3.75404         8.44793         2.86077
| 93>    H       -2.51172         7.49334         3.67616
| 94>    H       -5.52904         7.09239         4.00245
| 95>    H       -4.47819         7.93291         5.14829
| 96>    H       -4.27212         6.20547         4.87690
| 97>    H       -2.99797         3.58961         0.58213
| 98>    H       -6.44257         6.37071        -0.97667
| 99>    H       -9.35121         7.01100        -3.92879
|100>    H      -10.41883         5.70577        -2.20032
|101>    H      -10.36662         7.42315        -1.74287
|102>    H       -8.57580         5.37394        -0.69497
|103>    H       -9.73519         6.19430         0.12361
|104>    H       -7.43554         7.96808        -1.77466
|105>    H       -8.62209         8.91580        -2.67999
|106>    H       -6.38006         7.55159        -3.95573
|107>    H       -6.48365         9.16307        -3.67086
|108>    H       -9.98556         5.43094        -5.32648
|109>    H      -10.25907         3.03402        -6.08233
|110>    H       -8.24659         1.85614        -7.10723
|111>    H       -6.40970         1.91526        -5.47380
|112>    H       -4.81684         2.35582        -3.45252
|113>    H       -3.65620         3.15380        -1.44498
|114>    H       -8.72070         4.81102        -8.04110
|115>    H      -11.39346         3.32485        -8.05518
|116>    H      -13.00513         2.68554        -9.43205
|117>    H      -13.83972         3.25836       -10.88117
|118>    H      -13.56734         4.84344        -8.27756
|119>    H      -15.02632         4.01244        -8.83557
|120>    H      -14.39418         5.39913        -9.73053
|121>    H       -8.93878         5.49250       -10.19980
|122>    H       -8.60611         6.27354       -12.70114
|123>    H       -8.87484         7.69083       -17.80075
|124>    H      -13.59906         7.96780       -16.14679
|125>    H      -12.38471         8.60114       -21.29902
|126>    H       -9.99961         8.19833       -20.31459
|127> *
|128>
|129>                          ****END OF INPUT****

CARTESIAN COORDINATES (ANGSTROEM)
---------------------------------
  C     -0.392580    3.406030    4.239170
  C     -0.605450    3.853710    5.518060
  C      0.210180    3.517590    6.618650
  N      0.835390    3.292010    7.555040
  C     -1.684710    4.655390    5.942530
  N     -2.545910    5.274700    6.385370
  C      0.638290    2.455590    3.849380
  C      0.400580    2.065750    2.509890
  C      1.193080    1.157280    1.850960
  C      2.277680    0.613380    2.545390
  C      2.513190    1.016300    3.881590
  C      1.707980    1.930470    4.549960
  S      3.910340    0.223540    4.540050
  C      4.159440   -0.624660    3.053200
  C      3.244890   -0.332780    2.102980
  C     -0.780460    2.777730    1.985050
  O     -1.256190    2.612060    0.880670
  C     -1.202650    3.704350    3.064350
  C     -2.057330    4.769660    3.020440
  C     -2.970520    5.230190    2.032290
  C     -3.623760    6.454630    2.177570
  C     -3.524700    7.461710    3.270550
  C     -4.516990    7.149300    4.396800
  S     -4.720860    6.742000    0.896920
  C     -4.329490    5.213040    0.127360
  C     -3.390220    4.549820    0.853050
  C     -5.003460    4.814200   -1.086580
  C     -6.092370    5.516290   -1.535710
  C     -6.790760    5.101220   -2.692650
  C     -7.915020    5.600910   -3.331380
  C     -8.757080    6.801700   -3.033580
  C     -9.752800    6.529360   -1.886930
  N     -9.066980    6.259970   -0.635970
  C     -7.934860    8.066830   -2.747320
  N     -7.027720    8.327150   -3.854480
  C     -8.199500    4.700580   -4.427680
  C     -9.210540    4.676360   -5.314370
  C     -9.339810    3.591360   -6.328090
  C     -8.204610    2.613630   -6.339010
  C     -7.200460    2.651300   -5.444580
  C     -7.167720    3.654880   -4.447000
  C     -6.319440    3.906650   -3.390300
  C     -5.171420    3.225780   -2.919250
  C     -4.534300    3.664090   -1.806370
  C     -9.530780    4.184260   -7.700670
  C    -10.605640    3.952820   -8.450770
  C    -10.843230    4.475570   -9.781210
  C    -12.027070    4.268860  -10.466170
  C    -13.263440    3.575830  -10.010010
  C    -14.118930    4.517850   -9.156070
  S    -12.020540    5.025720  -12.010230
  C    -10.402020    5.635260  -11.763590
  C     -9.922320    5.227210  -10.541980
  C     -9.687970    6.350140  -12.759310
  C    -10.166230    7.025330  -13.835810
  C    -11.496230    7.483990  -14.184200
  C    -12.448280    7.932700  -13.307080
  C    -13.690730    8.465940  -13.702600
  N    -14.722150    8.890360  -13.974720
  C    -12.248120    7.994520  -11.912300
  N    -12.099430    8.108800  -10.779750
  C    -11.523810    7.666160  -15.629460
  C    -10.195190    7.580980  -16.121530
  C     -9.278970    7.275730  -15.005930
  O     -8.072880    7.186600  -15.033750
  C     -9.893870    7.751580  -17.451430
  C    -10.948810    8.004910  -18.333720
  C    -12.271140    8.075240  -17.832480
  C    -12.577740    7.913260  -16.486550
  S    -13.410050    8.384600  -19.104560
  C    -12.133720    8.421580  -20.271680
  C    -10.909270    8.211120  -19.741950
  H      0.981970    0.876820    0.830600
  H      1.931440    2.208090    5.566400
  H      4.989690   -1.300210    2.982360
  H      3.241550   -0.763440    1.117980
  H     -2.038060    5.400270    3.900490
  H     -3.754040    8.447930    2.860770
  H     -2.511720    7.493340    3.676160
  H     -5.529040    7.092390    4.002450
  H     -4.478190    7.932910    5.148290
  H     -4.272120    6.205470    4.876900
  H     -2.997970    3.589610    0.582130
  H     -6.442570    6.370710   -0.976670
  H     -9.351210    7.011000   -3.928790
  H    -10.418830    5.705770   -2.200320
  H    -10.366620    7.423150   -1.742870
  H     -8.575800    5.373940   -0.694970
  H     -9.735190    6.194300    0.123610
  H     -7.435540    7.968080   -1.774660
  H     -8.622090    8.915800   -2.679990
  H     -6.380060    7.551590   -3.955730
  H     -6.483650    9.163070   -3.670860
  H     -9.985560    5.430940   -5.326480
  H    -10.259070    3.034020   -6.082330
  H     -8.246590    1.856140   -7.107230
  H     -6.409700    1.915260   -5.473800
  H     -4.816840    2.355820   -3.452520
  H     -3.656200    3.153800   -1.444980
  H     -8.720700    4.811020   -8.041100
  H    -11.393460    3.324850   -8.055180
  H    -13.005130    2.685540   -9.432050
  H    -13.839720    3.258360  -10.881170
  H    -13.567340    4.843440   -8.277560
  H    -15.026320    4.012440   -8.835570
  H    -14.394180    5.399130   -9.730530
  H     -8.938780    5.492500  -10.199800
  H     -8.606110    6.273540  -12.701140
  H     -8.874840    7.690830  -17.800750
  H    -13.599060    7.967800  -16.146790
  H    -12.384710    8.601140  -21.299020
  H     -9.999610    8.198330  -20.314590

 Total Charge           Charge          ....    0
 Multiplicity           Mult            ....    1
 Number of Electrons    NEL             ....  522
 Basis Dimension        Dim             .... 1224

ORBITAL ENERGIES
----------------

  NO   OCC          E(Eh)            E(eV)
   0   2.0000     -88.965048     -2420.8620
   1   2.0000     -88.963879     -2420.8302
   2   2.0000     -88.962509     -2420.7929
   3   2.0000     -88.958220     -2420.6762
   4   2.0000     -19.213628      -522.8294
   5   2.0000     -19.210168      -522.7353
   6   2.0000     -14.413811      -392.2197
   7   2.0000     -14.412936      -392.1959
   8   2.0000     -14.410042      -392.1172
   9   2.0000     -14.408763      -392.0824
  10   2.0000     -14.373294      -391.1172
  11   2.0000     -14.359422      -390.7397
  12   2.0000     -10.366041      -282.0743
  13   2.0000     -10.362212      -281.9701
  14   2.0000     -10.339361      -281.3483
  15   2.0000     -10.338231      -281.3176
  16   2.0000     -10.336956      -281.2829
  17   2.0000     -10.336049      -281.2582
  18   2.0000     -10.318899      -280.7915
  19   2.0000     -10.317895      -280.7642
  20   2.0000     -10.317556      -280.7550
  21   2.0000     -10.317540      -280.7545
  22   2.0000     -10.315463      -280.6980
  23   2.0000     -10.315198      -280.6908
  24   2.0000     -10.314804      -280.6801
  25   2.0000     -10.313483      -280.6441
  26   2.0000     -10.312417      -280.6151
  27   2.0000     -10.312376      -280.6140
  28   2.0000     -10.311966      -280.6029
  29   2.0000     -10.311118      -280.5798
  30   2.0000     -10.309026      -280.5229
  31   2.0000     -10.304423      -280.3976
  32   2.0000     -10.302082      -280.3339
  33   2.0000     -10.301249      -280.3112
  34   2.0000     -10.300010      -280.2775
  35   2.0000     -10.299539      -280.2647
  36   2.0000     -10.298984      -280.2496
  37   2.0000     -10.296928      -280.1936
  38   2.0000     -10.295569      -280.1567
  39   2.0000     -10.294927      -280.1392
  40   2.0000     -10.294310      -280.1224
  41   2.0000     -10.293100      -280.0895
  42   2.0000     -10.292355      -280.0692
  43   2.0000     -10.291534      -280.0469
  44   2.0000     -10.289920      -280.0029
  45   2.0000     -10.288579      -279.9665
  46   2.0000     -10.287830      -279.9461
  47   2.0000     -10.287389      -279.9341
  48   2.0000     -10.286861      -279.9197
  49   2.0000     -10.286432      -279.9081
  50   2.0000     -10.284221      -279.8479
  51   2.0000     -10.284058      -279.8434
  52   2.0000     -10.281871      -279.7839
  53   2.0000     -10.281613      -279.7769
  54   2.0000     -10.280752      -279.7535
  55   2.0000     -10.279130      -279.7094
  56   2.0000     -10.276777      -279.6453
  57   2.0000     -10.269882      -279.4577
  58   2.0000     -10.267917      -279.4042
  59   2.0000     -10.267854      -279.4025
  60   2.0000     -10.265681      -279.3434
  61   2.0000     -10.264869      -279.3213
  62   2.0000     -10.264340      -279.3069
  63   2.0000     -10.262556      -279.2583
  64   2.0000     -10.262375      -279.2534
  65   2.0000     -10.262170      -279.2478
  66   2.0000     -10.260439      -279.2007
  67   2.0000     -10.259429      -279.1733
  68   2.0000     -10.258209      -279.1401
  69   2.0000     -10.256046      -279.0812
  70   2.0000     -10.254192      -279.0308
  71   2.0000     -10.253067      -279.0001
  72   2.0000      -8.061245      -219.3576
  73   2.0000      -8.060206      -219.3294
  74   2.0000      -8.058055      -219.2708
  75   2.0000      -8.053773      -219.1543
  76   2.0000      -6.030777      -164.1058
  77   2.0000      -6.029723      -164.0771
  78   2.0000      -6.027269      -164.0103
  79   2.0000      -6.026454      -163.9882
  80   2.0000      -6.025425      -163.9601
  81   2.0000      -6.023134      -163.8978
  82   2.0000      -6.022932      -163.8923
  83   2.0000      -6.022766      -163.8878
  84   2.0000      -6.021837      -163.8625
  85   2.0000      -6.020260      -163.8196
  86   2.0000      -6.018668      -163.7763
  87   2.0000      -6.016450      -163.7159
  88   2.0000      -1.128588       -30.7104
  89   2.0000      -1.125421       -30.6243
  90   2.0000      -1.017767       -27.6949
  91   2.0000      -1.016927       -27.6720
  92   2.0000      -1.005586       -27.3634
  93   2.0000      -1.005457       -27.3599
  94   2.0000      -0.997037       -27.1308
  95   2.0000      -0.991407       -26.9775
  96   2.0000      -0.990405       -26.9503
  97   2.0000      -0.987833       -26.8803
  98   2.0000      -0.981447       -26.7065
  99   2.0000      -0.980965       -26.6934
 100   2.0000      -0.978359       -26.6225
 101   2.0000      -0.957098       -26.0439
 102   2.0000      -0.940500       -25.5923
 103   2.0000      -0.937528       -25.5114
 104   2.0000      -0.929268       -25.2867
 105   2.0000      -0.927535       -25.2395
 106   2.0000      -0.913808       -24.8660
 107   2.0000      -0.906602       -24.6699
 108   2.0000      -0.897299       -24.4167
 109   2.0000      -0.887415       -24.1478
 110   2.0000      -0.884464       -24.0675
 111   2.0000      -0.879084       -23.9211
 112   2.0000      -0.878236       -23.8980
 113   2.0000      -0.876223       -23.8432
 114   2.0000      -0.872071       -23.7303
 115   2.0000      -0.862246       -23.4629
 116   2.0000      -0.855150       -23.2698
 117   2.0000      -0.834906       -22.7190
 118   2.0000      -0.829170       -22.5628
 119   2.0000      -0.824698       -22.4412
 120   2.0000      -0.820819       -22.3356
 121   2.0000      -0.820042       -22.3145
 122   2.0000      -0.818078       -22.2610
 123   2.0000      -0.813813       -22.1450
 124   2.0000      -0.802393       -21.8342
 125   2.0000      -0.782581       -21.2951
 126   2.0000      -0.770830       -20.9754
 127   2.0000      -0.761986       -20.7347
 128   2.0000      -0.754254       -20.5243
 129   2.0000      -0.752881       -20.4869
 130   2.0000      -0.751472       -20.4486
 131   2.0000      -0.732619       -19.9356
 132   2.0000      -0.723914       -19.6987
 133   2.0000      -0.712681       -19.3930
 134   2.0000      -0.709015       -19.2933
 135   2.0000      -0.705007       -19.1842
 136   2.0000      -0.695284       -18.9196
 137   2.0000      -0.691351       -18.8126
 138   2.0000      -0.685933       -18.6652
 139   2.0000      -0.683721       -18.6050
 140   2.0000      -0.682583       -18.5740
 141   2.0000      -0.673037       -18.3143
 142   2.0000      -0.667645       -18.1675
 143   2.0000      -0.659704       -17.9515
 144   2.0000      -0.658283       -17.9128
 145   2.0000      -0.657213       -17.8837
 146   2.0000      -0.654207       -17.8019
 147   2.0000      -0.640892       -17.4395
 148   2.0000      -0.639146       -17.3921
 149   2.0000      -0.624365       -16.9898
 150   2.0000      -0.623741       -16.9729
 151   2.0000      -0.617015       -16.7898
 152   2.0000      -0.616359       -16.7720
 153   2.0000      -0.613940       -16.7062
 154   2.0000      -0.607958       -16.5434
 155   2.0000      -0.595953       -16.2167
 156   2.0000      -0.594150       -16.1676
 157   2.0000      -0.591642       -16.0994
 158   2.0000      -0.585590       -15.9347
 159   2.0000      -0.582330       -15.8460
 160   2.0000      -0.577178       -15.7058
 161   2.0000      -0.569524       -15.4975
 162   2.0000      -0.568194       -15.4613
 163   2.0000      -0.559084       -15.2135
 164   2.0000      -0.558136       -15.1876
 165   2.0000      -0.552498       -15.0342
 166   2.0000      -0.547628       -14.9017
 167   2.0000      -0.546750       -14.8778
 168   2.0000      -0.544919       -14.8280
 169   2.0000      -0.537395       -14.6233
 170   2.0000      -0.536520       -14.5995
 171   2.0000      -0.535495       -14.5716
 172   2.0000      -0.533067       -14.5055
 173   2.0000      -0.530518       -14.4361
 174   2.0000      -0.527337       -14.3496
 175   2.0000      -0.524552       -14.2738
 176   2.0000      -0.524294       -14.2668
 177   2.0000      -0.523522       -14.2458
 178   2.0000      -0.522817       -14.2266
 179   2.0000      -0.520067       -14.1517
 180   2.0000      -0.514504       -14.0004
 181   2.0000      -0.514117       -13.9898
 182   2.0000      -0.512360       -13.9420
 183   2.0000      -0.505071       -13.7437
 184   2.0000      -0.503677       -13.7057
 185   2.0000      -0.499810       -13.6005
 186   2.0000      -0.499061       -13.5801
 187   2.0000      -0.498214       -13.5571
 188   2.0000      -0.497425       -13.5356
 189   2.0000      -0.496756       -13.5174
 190   2.0000      -0.495768       -13.4905
 191   2.0000      -0.493063       -13.4169
 192   2.0000      -0.489588       -13.3224
 193   2.0000      -0.489196       -13.3117
 194   2.0000      -0.487507       -13.2657
 195   2.0000      -0.485650       -13.2152
 196   2.0000      -0.484028       -13.1711
 197   2.0000      -0.482211       -13.1216
 198   2.0000      -0.477896       -13.0042
 199   2.0000      -0.473391       -12.8816
 200   2.0000      -0.470941       -12.8149
 201   2.0000      -0.467540       -12.7224
 202   2.0000      -0.464930       -12.6514
 203   2.0000      -0.462735       -12.5917
 204   2.0000      -0.454831       -12.3766
 205   2.0000      -0.451641       -12.2898
 206   2.0000      -0.450227       -12.2513
 207   2.0000      -0.449415       -12.2292
 208   2.0000      -0.446661       -12.1543
 209   2.0000      -0.445058       -12.1107
 210   2.0000      -0.444305       -12.0901
 211   2.0000      -0.442108       -12.0304
 212   2.0000      -0.439234       -11.9522
 213   2.0000      -0.438775       -11.9397
 214   2.0000      -0.438472       -11.9314
 215   2.0000      -0.435170       -11.8416
 216   2.0000      -0.432455       -11.7677
 217   2.0000      -0.432250       -11.7621
 218   2.0000      -0.431755       -11.7486
 219   2.0000      -0.429994       -11.7007
 220   2.0000      -0.429870       -11.6973
 221   2.0000      -0.429468       -11.6864
 222   2.0000      -0.426985       -11.6189
 223   2.0000      -0.424328       -11.5465
 224   2.0000      -0.424215       -11.5435
 225   2.0000      -0.423484       -11.5236
 226   2.0000      -0.420276       -11.4363
 227   2.0000      -0.419466       -11.4143
 228   2.0000      -0.419027       -11.4023
 229   2.0000      -0.417344       -11.3565
 230   2.0000      -0.413200       -11.2438
 231   2.0000      -0.411085       -11.1862
 232   2.0000      -0.410343       -11.1660
 233   2.0000      -0.409307       -11.1378
 234   2.0000      -0.403840       -10.9890
 235   2.0000      -0.401891       -10.9360
 236   2.0000      -0.399030       -10.8582
 237   2.0000      -0.395358       -10.7582
 238   2.0000      -0.384515       -10.4632
 239   2.0000      -0.382175       -10.3995
 240   2.0000      -0.378159       -10.2902
 241   2.0000      -0.375686       -10.2229
 242   2.0000      -0.370326       -10.0771
 243   2.0000      -0.362042        -9.8517
 244   2.0000      -0.357265        -9.7217
 245   2.0000      -0.350680        -9.5425
 246   2.0000      -0.334207        -9.0942
 247   2.0000      -0.333177        -9.0662
 248   2.0000      -0.331430        -9.0187
 249   2.0000      -0.323480        -8.8023
 250   2.0000      -0.311292        -8.4707
 251   2.0000      -0.311183        -8.4677
 252   2.0000      -0.306367        -8.3367
 253   2.0000      -0.304155        -8.2765
 254   2.0000      -0.299637        -8.1535
 255   2.0000      -0.293305        -7.9812
 256   2.0000      -0.289780        -7.8853
 257   2.0000      -0.278456        -7.5772
 258   2.0000      -0.272861        -7.4249
 259   2.0000      -0.267309        -7.2739
 260   2.0000      -0.218968        -5.9584
 261   0.0000      -0.084940        -2.3113
 262   0.0000      -0.080812        -2.1990
 263   0.0000      -0.063931        -1.7396
 264   0.0000      -0.052907        -1.4397
 265   0.0000      -0.051029        -1.3886

MULLIKEN ATOMIC CHARGES
-----------------------
   0 C :    0.293897
   1 C :   -0.353561
   2 C :   -0.183839
   3 N :    0.144715
   4 C :   -0.188896
   5 N :    0.149063
   6 C :    0.010772
   7 C :   -0.009136
   8 C :   -0.068279
   9 C :    0.112648
  10 C :   -0.096412
  11 C :   -0.018497
  12 S :    0.139519
  13 C :   -0.049684
  14 C :    0.025767
  15 C :    0.156102
  16 O :   -0.157013
  17 C :   -0.069565
  18 C :   -0.053514
  19 C :    0.135586
  20 C :   -0.231990
  21 C :    0.083122
  22 C :    0.025923
  23 S :    0.132833
  24 C :   -0.076300
  25 C :   -0.042914
  26 C :    0.180840
  27 C :   -0.168528
  28 C :    0.027729
  29 C :   -0.095943
  30 C :   -0.000174
  31 C :    0.153782
  32 N :   -0.232975
  33 C :    0.128039
  34 N :   -0.221307
  35 C :    0.111627
  36 C :   -0.136706
  37 C :    0.130812
  38 C :   -0.041870
  39 C :    0.022996
  40 C :    0.015887
  41 C :    0.032456
  42 C :   -0.001027
  43 C :   -0.028721
  44 C :   -0.049043
  45 C :   -0.005741
  46 C :    0.151003
  47 C :   -0.240833
  48 C :    0.077617
  49 C :    0.023443
  50 S :    0.143407
  51 C :   -0.098988
  52 C :    0.017757
  53 C :    0.059035
  54 C :   -0.134643
  55 C :    0.247178
  56 C :   -0.320223
  57 C :   -0.176570
  58 N :    0.153741
  59 C :   -0.206934
  60 N :    0.169565
  61 C :    0.005383
  62 C :   -0.000484
  63 C :    0.138345
  64 O :   -0.146915
  65 C :   -0.067585
  66 C :    0.108353
  67 C :   -0.090936
  68 C :   -0.023538
  69 S :    0.137824
  70 C :   -0.051504
  71 C :    0.026463
  72 H :   -0.013542
  73 H :   -0.006035
  74 H :    0.038647
  75 H :   -0.008025
  76 H :   -0.000400
  77 H :    0.013662
  78 H :    0.028367
  79 H :    0.007997
  80 H :    0.025522
  81 H :    0.030659
  82 H :    0.004643
  83 H :   -0.009995
  84 H :   -0.019728
  85 H :   -0.023303
  86 H :   -0.008991
  87 H :    0.102250
  88 H :    0.093649
  89 H :   -0.001966
  90 H :   -0.016142
  91 H :    0.096724
  92 H :    0.086978
  93 H :   -0.003118
  94 H :    0.033730
  95 H :   -0.013701
  96 H :   -0.034795
  97 H :   -0.038326
  98 H :   -0.016930
  99 H :    0.007327
 100 H :   -0.027788
 101 H :    0.024145
 102 H :    0.012302
 103 H :    0.020915
 104 H :    0.021422
 105 H :    0.026115
 106 H :   -0.008464
 107 H :    0.027006
 108 H :   -0.011201
 109 H :   -0.003613
 110 H :    0.038291
 111 H :   -0.006727
Sum of atomic charges:   -0.0000000

LOEWDIN ATOMIC CHARGES
----------------------
   0 C :    0.081603
   1 C :   -0.149425
   2 C :   -0.018286
   3 N :   -0.057680
   4 C :   -0.019409
   5 N :   -0.055634
   6 C :   -0.023732
   7 C :   -0.051700
   8 C :    0.022373
   9 C :   -0.035222
  10 C :   -0.145647
  11 C :   -0.008849
  12 S :    0.427858
  13 C :   -0.150023
  14 C :   -0.058115
  15 C :    0.089763
  16 O :   -0.143547
  17 C :   -0.103230
  18 C :    0.081870
  19 C :   -0.090525
  20 C :   -0.119643
  21 C :   -0.048379
  22 C :   -0.045855
  23 S :    0.468064
  24 C :   -0.159281
  25 C :   -0.037584
  26 C :   -0.036028
  27 C :   -0.039857
  28 C :   -0.026612
  29 C :   -0.045654
  30 C :   -0.039030
  31 C :    0.028767
  32 N :   -0.117621
  33 C :    0.025963
  34 N :   -0.124902
  35 C :   -0.014827
  36 C :    0.061245
  37 C :   -0.029279
  38 C :   -0.032892
  39 C :   -0.017137
  40 C :   -0.033461
  41 C :   -0.032430
  42 C :   -0.006187
  43 C :   -0.023550
  44 C :   -0.002534
  45 C :   -0.033355
  46 C :   -0.073577
  47 C :   -0.136348
  48 C :   -0.046320
  49 C :   -0.044948
  50 S :    0.467424
  51 C :   -0.186806
  52 C :    0.002191
  53 C :    0.057801
  54 C :   -0.100881
  55 C :    0.063031
  56 C :   -0.143329
  57 C :   -0.019828
  58 N :   -0.053859
  59 C :   -0.035742
  60 N :   -0.048988
  61 C :   -0.018913
  62 C :   -0.054671
  63 C :    0.084011
  64 O :   -0.146015
  65 C :    0.023441
  66 C :   -0.036327
  67 C :   -0.145003
  68 C :   -0.012038
  69 S :    0.427370
  70 C :   -0.150784
  71 C :   -0.057560
  72 H :    0.039459
  73 H :    0.040542
  74 H :    0.029132
  75 H :    0.034912
  76 H :    0.042981
  77 H :    0.032693
  78 H :    0.035184
  79 H :    0.021697
  80 H :    0.029851
  81 H :    0.025490
  82 H :    0.027355
  83 H :    0.015577
  84 H :    0.027804
  85 H :   -0.002754
  86 H :    0.015199
  87 H :    0.054429
  88 H :    0.056227
  89 H :   -0.001554
  90 H :    0.015773
  91 H :    0.049895
  92 H :    0.052436
  93 H :    0.031308
  94 H :    0.058491
  95 H :    0.024360
  96 H :    0.029486
  97 H :    0.027369
  98 H :    0.031770
  99 H :    0.027276
 100 H :    0.025002
 101 H :    0.033505
 102 H :    0.031453
 103 H :    0.026521
 104 H :    0.026265
 105 H :    0.030080
 106 H :    0.034224
 107 H :    0.051688
 108 H :    0.040553
 109 H :    0.040337
 110 H :    0.029063
 111 H :    0.035204

  Mayer bond orders larger than 0.100000
B(  0-C ,  1-C ) :   1.6217 B(  0-C ,  6-C ) :   1.0024 B(  0-C , 17-C ) :   1.0686
B(  1-C ,  2-C ) :   1.1406 B(  1-C ,  4-C ) :   1.1476 B(  2-C ,  3-N ) :   2.9731
B(  4-C ,  5-N ) :   2.9597 B(  6-C ,  7-C ) :   1.2693 B(  6-C , 11-C ) :   1.4108
B(  7-C ,  8-C ) :   1.4259 B(  7-C , 15-C ) :   0.9565 B(  8-C ,  9-C ) :   1.2465
B(  8-C , 72-H ) :   1.0158 B(  9-C , 10-C ) :   1.3016 B(  9-C , 14-C ) :   1.1715
B( 10-C , 11-C ) :   1.3257 B( 10-C , 12-S ) :   1.0976 B( 11-C , 73-H ) :   0.9818
B( 12-S , 13-C ) :   1.1255 B( 13-C , 14-C ) :   1.6306 B( 13-C , 74-H ) :   0.9684
B( 14-C , 75-H ) :   0.9986 B( 15-C , 16-O ) :   2.1751 B( 15-C , 17-C ) :   0.9278
B( 17-C , 18-C ) :   1.5709 B( 18-C , 19-C ) :   1.1734 B( 18-C , 76-H ) :   0.9379
B( 19-C , 20-C ) :   1.4143 B( 19-C , 25-C ) :   1.1808 B( 20-C , 21-C ) :   1.0622
B( 20-C , 23-S ) :   1.2216 B( 21-C , 22-C ) :   1.0920 B( 21-C , 77-H ) :   0.9173
B( 21-C , 78-H ) :   0.9189 B( 22-C , 79-H ) :   0.9630 B( 22-C , 80-H ) :   0.9661
B( 22-C , 81-H ) :   0.9649 B( 23-S , 24-C ) :   1.0781 B( 24-C , 25-C ) :   1.5763
B( 24-C , 26-C ) :   1.0488 B( 25-C , 82-H ) :   0.9752 B( 26-C , 27-C ) :   1.5146
B( 26-C , 43-C ) :   1.1284 B( 27-C , 28-C ) :   1.1313 B( 27-C , 83-H ) :   0.9835
B( 28-C , 29-C ) :   1.4726 B( 28-C , 41-C ) :   1.1230 B( 29-C , 30-C ) :   1.0424
B( 29-C , 35-C ) :   1.1131 B( 30-C , 31-C ) :   1.0475 B( 30-C , 33-C ) :   1.0335
B( 30-C , 84-H ) :   0.8748 B( 31-C , 32-N ) :   1.0903 B( 31-C , 85-H ) :   0.9380
B( 31-C , 86-H ) :   0.9375 B( 32-N , 87-H ) :   0.9576 B( 32-N , 88-H ) :   0.9682
B( 33-C , 34-N ) :   1.0910 B( 33-C , 89-H ) :   0.9393 B( 33-C , 90-H ) :   0.9339
B( 34-N , 91-H ) :   0.9703 B( 34-N , 92-H ) :   0.9684 B( 35-C , 36-C ) :   1.6385
B( 35-C , 40-C ) :   1.0501 B( 36-C , 37-C ) :   0.9614 B( 36-C , 93-H ) :   0.9794
B( 37-C , 38-C ) :   0.9868 B( 37-C , 44-C ) :   0.9629 B( 37-C , 94-H ) :   0.8613
B( 38-C , 39-C ) :   1.7056 B( 38-C , 95-H ) :   0.9774 B( 39-C , 40-C ) :   1.1278
B( 39-C , 96-H ) :   0.9882 B( 40-C , 41-C ) :   1.4416 B( 41-C , 42-C ) :   1.1362
B( 42-C , 43-C ) :   1.6132 B( 42-C , 97-H ) :   0.9898 B( 43-C , 98-H ) :   0.9897
B( 44-C , 45-C ) :   1.8319 B( 44-C , 99-H ) :   0.9686 B( 45-C , 46-C ) :   1.0522
B( 45-C ,100-H ) :   0.9668 B( 46-C , 47-C ) :   1.4912 B( 46-C , 52-C ) :   1.2342
B( 47-C , 48-C ) :   1.0713 B( 47-C , 50-S ) :   1.1760 B( 48-C , 49-C ) :   1.0957
B( 48-C ,101-H ) :   0.9218 B( 48-C ,102-H ) :   0.9200 B( 49-C ,103-H ) :   0.9730
B( 49-C ,104-H ) :   0.9674 B( 49-C ,105-H ) :   0.9663 B( 50-S , 51-C ) :   1.1019
B( 51-C , 52-C ) :   1.4761 B( 51-C , 53-C ) :   1.1169 B( 52-C ,106-H ) :   0.9985
B( 53-C , 54-C ) :   1.6607 B( 53-C ,107-H ) :   0.9488 B( 54-C , 55-C ) :   1.0286
B( 54-C , 63-C ) :   0.9379 B( 55-C , 56-C ) :   1.6619 B( 55-C , 61-C ) :   1.0169
B( 56-C , 57-C ) :   1.1321 B( 56-C , 59-C ) :   1.1498 B( 57-C , 58-N ) :   2.9940
B( 59-C , 60-N ) :   3.0196 B( 61-C , 62-C ) :   1.2704 B( 61-C , 68-C ) :   1.4156
B( 62-C , 63-C ) :   0.9224 B( 62-C , 65-C ) :   1.4283 B( 63-C , 64-O ) :   2.2677
B( 65-C , 66-C ) :   1.2526 B( 65-C ,108-H ) :   1.0164 B( 66-C , 67-C ) :   1.3053
B( 66-C , 71-C ) :   1.1691 B( 67-C , 68-C ) :   1.3204 B( 67-C , 69-S ) :   1.0949
B( 68-C ,109-H ) :   0.9874 B( 69-S , 70-C ) :   1.1258 B( 70-C , 71-C ) :   1.6312
B( 70-C ,110-H ) :   0.9685 B( 71-C ,111-H ) :   1.0002

-----------------------------------------------------------------------------
         ABSORPTION SPECTRUM VIA TRANSITION ELECTRIC DIPOLE MOMENTS
-----------------------------------------------------------------------------
State   Energy  Wavelength   fosc         T2         TX        TY        TZ
        (cm-1)    (nm)                  (au**2)     (au)      (au)      (au)
-----------------------------------------------------------------------------
   0   15077.3    663.2   0.054078941   1.18081   0.45789  -0.90710  -0.38513
   1   17975.4    556.3   0.097517453   1.78600   0.91000  -0.58561   0.78420
   2   19144.6    522.3   0.019094989   0.32836   0.06470  -0.32276   0.46904
   3   22456.5    445.3   0.372691894   5.46366   0.56328  -1.43121   1.76012
   4   23660.2    422.7   0.031718909   0.44134   0.30186   0.03936   0.59048
   5   25059.9    399.0   0.666787852   8.75959   1.99632  -1.08816   1.89479
   6   26177.7    382.0   0.007549030   0.09494  -0.23164  -0.15404  -0.13247
   7   27132.5    368.6   0.078321946   0.95032   0.68973   0.13516   0.67552
   8   27540.1    363.1   0.002740159   0.03276   0.00018  -0.16061  -0.08343
   9   27920.0    358.2   0.186178984   2.19529   0.19818   0.01862   1.46822
  10   28446.1    351.5   0.112166703   1.29813   0.30097  -0.44653  -1.00407
  11   29276.2    341.6   0.227505636   2.55831  -1.02986   0.32057  -1.18107
  12   29358.8    340.6   0.019024187   0.21333   0.15031  -0.23452   0.36842
  13   29710.0    336.6   0.141130497   1.56385   1.13710  -0.46386   0.23597
  14   29785.5    335.7   0.275590286   3.04603  -1.34591   0.83313  -0.73516
  15   30537.1    327.5   0.002419871   0.02609   0.00980   0.13174  -0.09294
  16   30943.9    323.2   0.376592820   4.00656  -1.18760   0.42209  -1.55500
  17   31042.8    322.1   0.390257632   4.13872  -0.84653  -0.01164  -1.84986
  18   31191.2    320.6   0.446906620   4.71694   1.34862  -0.53464   1.61627
  19   31531.0    317.1   0.394989889   4.12405   0.72724  -0.53939  -1.81775
  20   31636.3    316.1   0.001639981   0.01707   0.00335   0.00090  -0.13059
  21   31859.9    313.9   0.048409834   0.50022   0.15057   0.37672  -0.57934
  22   32030.8    312.2   0.147279320   1.51374  -0.62468  -1.05317   0.11980
  23   32260.8    310.0   0.007609295   0.07765   0.18336  -0.02700   0.20809
  24   32560.6    307.1   0.002653107   0.02682  -0.08557  -0.03686  -0.13470
  25   32614.3    306.6   0.236915576   2.39145   0.83547   0.44529   1.22277
  26   32857.6    304.3   0.213651718   2.14065  -0.78808  -0.29662   1.19650
  27   33324.4    300.1   0.182249172   1.80044   0.56789  -1.12659  -0.45689
  28   34257.8    291.9   0.698234025   6.70991   1.48383  -1.64951  -1.33688
  29   34536.3    289.6   0.477208188   4.54891   0.46082  -0.08140  -2.08085
  30   35228.9    283.9   0.161677260   1.51087   0.97799  -0.66314   0.33861
  31   35632.3    280.6   0.000102956   0.00095  -0.02433  -0.00520  -0.01823
  32   35968.1    278.0   0.044755527   0.40964  -0.52678  -0.03056  -0.36223
  33   37100.1    269.5   0.120825933   1.07216   0.64958  -0.03819   0.80545
  34   37464.9    266.9   0.001498074   0.01316  -0.06129  -0.01621  -0.09562
  35   37674.2    265.4   0.177000336   1.54670  -0.76058  -0.11809  -0.97687
  36   38024.7    263.0   0.018326818   0.15867   0.16977   0.17362   0.31576
  37   38682.1    258.5   0.013508688   0.11497   0.12737  -0.02371   0.31334
  38   38767.3    257.9   0.120024937   1.01925   0.43976   0.00157   0.90877
  39   38866.1    257.3   0.000775511   0.00657  -0.06225   0.02833   0.04349
  40   38885.2    257.2   0.001667527   0.01412  -0.06576  -0.09533   0.02656
  41   39034.9    256.2   0.069506763   0.58620  -0.27298   0.13660  -0.70216
  42   39321.2    254.3   0.173450269   1.45219   0.49746  -0.17366   1.08377
  43   39352.7    254.1   0.176561779   1.47706  -1.08489   0.14974  -0.52693
  44   39828.5    251.1   0.002151722   0.01779   0.00422  -0.11304  -0.07064
  45   39840.6    251.0   0.004422010   0.03654   0.07565   0.04713   0.16910

FINAL SINGLE POINT ENERGY     -4378.008606093600

DIPOLE MOMENT
-------------
                                X             Y             Z
Electronic contribution:     29.48507      -5.64943     -27.46888
Nuclear contribution   :    -29.29917       3.50306      24.49049
                        -----------------------------------------
Total Dipole Moment    :      0.18590      -2.14636      -2.97839
                        -----------------------------------------
Magnitude (a.u.)       :      3.67590
Magnitude (Debye)      :      9.34340

Rotational constants in cm-1:     0.002037     0.000182     0.000175
Rotational constants in MHz :    61.063282     5.455595     5.241423

                             ****ORCA TERMINATED NORMALLY****
TOTAL RUN TIME: 0 days 0 hours 12 minutes 1 seconds 93 msec
