                         Program Version 4.2.0 -  RELEASE  -
|  1> # ORCA input file
|  2> # SCF done       -126.096987822728          0.000447715410
|  3> ! CAM-B3LYP def2-SVP def2/J RIJCOSX Grid4 TightSCF
|  4> %maxcore 5000
|  5> %tddft
|  6>     Mode sTDDFT
|  7>     Ethresh 5.0
|  8>     maxcore 5000
|  9> end
| 10>
| 11> %pal
| 12>   nprocs 6
| 13>   end
| 14> * xyz 0 1
| 15>    C       -6.98391        -2.97212        -2.23056
| 16>    C       -7.01231        -2.98104        -0.81623
| 17>    C       -8.22715        -2.92009        -0.17262
| 18>    C       -9.42492        -2.85592        -0.90688
| 19>    C       -9.38130        -2.86899        -2.32908
| 20>    C       -8.12866        -2.92799        -2.97038
| 21>    N      -10.51703        -2.82521        -3.05550
| 22>    C      -11.64229        -2.75760        -2.39668
| 23>    C      -11.68640        -2.73196        -0.98666
| 24>    N      -10.60642        -2.78391        -0.25600
| 25>    C       -5.77579        -3.08304        -0.01771
| 26>    C       -4.59773        -2.33310        -0.31494
| 27>    C       -3.49716        -2.43030         0.50129
| 28>    C       -3.48472        -3.30518         1.60087
| 29>    C       -4.63911        -4.08977         1.87184
| 30>    C       -5.77261        -3.94464         1.05434
| 31>    N       -4.65098        -4.96659         2.89825
| 32>    C       -3.56758        -5.04856         3.62167
| 33>    C       -2.42609        -4.26045         3.35950
| 34>    N       -2.38123        -3.40822         2.37138
| 35>    C       -4.56690        -1.42832        -1.47748
| 36>    C       -3.49424        -1.47186        -2.41480
| 37>    C       -3.54241        -0.67359        -3.53371
| 38>    C       -4.61842         0.20137        -3.76105
| 39>    C       -5.64565         0.30145        -2.78336
| 40>    C       -5.59075        -0.52604        -1.65054
| 41>    N       -6.67022         1.16640        -2.94234
| 42>    C       -6.67543         1.88339        -4.03236
| 43>    C       -5.66275         1.77379        -5.01086
| 44>    N       -4.65455         0.95597        -4.88019
| 45>    C       -2.25158        -2.24432        -2.18136
| 46>    C       -2.19832        -3.65196        -1.98563
| 47>    C       -0.99689        -4.26197        -1.71299
| 48>    C        0.19675        -3.52440        -1.65062
| 49>    C        0.15116        -2.12189        -1.87632
| 50>    C       -1.08738        -1.51153        -2.13564
| 51>    N        1.27780        -1.37848        -1.83803
| 52>    C        2.39353        -2.00697        -1.58805
| 53>    C        2.43901        -3.40085        -1.36557
| 54>    N        1.36817        -4.14575        -1.39557
| 55>    C       -3.39140        -4.50713        -2.10500
| 56>    C       -3.67887        -5.42673        -1.06925
| 57>    C       -4.77152        -6.24019        -1.12489
| 58>    C       -5.61892        -6.19751        -2.25089
| 59>    C       -5.29628        -5.32952        -3.33069
| 60>    C       -4.18002        -4.47551        -3.22794
| 61>    N       -6.06681        -5.29411        -4.43901
| 62>    C       -7.12024        -6.06406        -4.45717
| 63>    C       -7.45894        -6.89839        -3.37137
| 64>    N       -6.72200        -6.97178        -2.29649
| 65>    H       -6.03370        -3.01839        -2.73438
| 66>    H       -8.29491        -2.89704         0.90419
| 67>    H       -8.09962        -2.93644        -4.04871
| 68>    H      -12.54875        -2.72340        -2.98644
| 69>    H      -12.62826        -2.67154        -0.45760
| 70>    H       -2.61807        -1.82974         0.32695
| 71>    H       -6.63665        -4.54989         1.28032
| 72>    H       -3.58303        -5.75494         4.44094
| 73>    H       -1.53792        -4.34048         3.97185
| 74>    H       -2.74960        -0.70214        -4.26592
| 75>    H       -6.37660        -0.43211        -0.91714
| 76>    H       -7.49853         2.57457        -4.15495
| 77>    H       -5.68826         2.37335        -5.91100
| 78>    H       -0.94075        -5.33046        -1.57135
| 79>    H       -1.10374        -0.44122        -2.27616
| 80>    H        3.29327        -1.40691        -1.56003
| 81>    H        3.37526        -3.90410        -1.16423
| 82>    H       -3.02271        -5.45404        -0.21189
| 83>    H       -5.01466        -6.92199        -0.32531
| 84>    H       -3.96198        -3.81334        -4.05286
| 85>    H       -7.73116        -6.03068        -5.34908
| 86>    H       -8.34750        -7.51489        -3.39406
| 87> *
| 88>
| 89>                          ****END OF INPUT****

CARTESIAN COORDINATES (ANGSTROEM)
---------------------------------
  C     -6.983910   -2.972120   -2.230560
  C     -7.012310   -2.981040   -0.816230
  C     -8.227150   -2.920090   -0.172620
  C     -9.424920   -2.855920   -0.906880
  C     -9.381300   -2.868990   -2.329080
  C     -8.128660   -2.927990   -2.970380
  N    -10.517030   -2.825210   -3.055500
  C    -11.642290   -2.757600   -2.396680
  C    -11.686400   -2.731960   -0.986660
  N    -10.606420   -2.783910   -0.256000
  C     -5.775790   -3.083040   -0.017710
  C     -4.597730   -2.333100   -0.314940
  C     -3.497160   -2.430300    0.501290
  C     -3.484720   -3.305180    1.600870
  C     -4.639110   -4.089770    1.871840
  C     -5.772610   -3.944640    1.054340
  N     -4.650980   -4.966590    2.898250
  C     -3.567580   -5.048560    3.621670
  C     -2.426090   -4.260450    3.359500
  N     -2.381230   -3.408220    2.371380
  C     -4.566900   -1.428320   -1.477480
  C     -3.494240   -1.471860   -2.414800
  C     -3.542410   -0.673590   -3.533710
  C     -4.618420    0.201370   -3.761050
  C     -5.645650    0.301450   -2.783360
  C     -5.590750   -0.526040   -1.650540
  N     -6.670220    1.166400   -2.942340
  C     -6.675430    1.883390   -4.032360
  C     -5.662750    1.773790   -5.010860
  N     -4.654550    0.955970   -4.880190
  C     -2.251580   -2.244320   -2.181360
  C     -2.198320   -3.651960   -1.985630
  C     -0.996890   -4.261970   -1.712990
  C      0.196750   -3.524400   -1.650620
  C      0.151160   -2.121890   -1.876320
  C     -1.087380   -1.511530   -2.135640
  N      1.277800   -1.378480   -1.838030
  C      2.393530   -2.006970   -1.588050
  C      2.439010   -3.400850   -1.365570
  N      1.368170   -4.145750   -1.395570
  C     -3.391400   -4.507130   -2.105000
  C     -3.678870   -5.426730   -1.069250
  C     -4.771520   -6.240190   -1.124890
  C     -5.618920   -6.197510   -2.250890
  C     -5.296280   -5.329520   -3.330690
  C     -4.180020   -4.475510   -3.227940
  N     -6.066810   -5.294110   -4.439010
  C     -7.120240   -6.064060   -4.457170
  C     -7.458940   -6.898390   -3.371370
  N     -6.722000   -6.971780   -2.296490
  H     -6.033700   -3.018390   -2.734380
  H     -8.294910   -2.897040    0.904190
  H     -8.099620   -2.936440   -4.048710
  H    -12.548750   -2.723400   -2.986440
  H    -12.628260   -2.671540   -0.457600
  H     -2.618070   -1.829740    0.326950
  H     -6.636650   -4.549890    1.280320
  H     -3.583030   -5.754940    4.440940
  H     -1.537920   -4.340480    3.971850
  H     -2.749600   -0.702140   -4.265920
  H     -6.376600   -0.432110   -0.917140
  H     -7.498530    2.574570   -4.154950
  H     -5.688260    2.373350   -5.911000
  H     -0.940750   -5.330460   -1.571350
  H     -1.103740   -0.441220   -2.276160
  H      3.293270   -1.406910   -1.560030
  H      3.375260   -3.904100   -1.164230
  H     -3.022710   -5.454040   -0.211890
  H     -5.014660   -6.921990   -0.325310
  H     -3.961980   -3.813340   -4.052860
  H     -7.731160   -6.030680   -5.349080
  H     -8.347500   -7.514890   -3.394060

 Total Charge           Charge          ....    0
 Multiplicity           Mult            ....    1
 Number of Electrons    NEL             ....  332
 Basis Dimension        Dim             ....  810

ORBITAL ENERGIES
----------------

  NO   OCC          E(Eh)            E(eV)
   0   2.0000     -14.420143      -392.3920
   1   2.0000     -14.419880      -392.3849
   2   2.0000     -14.419053      -392.3624
   3   2.0000     -14.418898      -392.3582
   4   2.0000     -14.418339      -392.3429
   5   2.0000     -14.418161      -392.3381
   6   2.0000     -14.416788      -392.3008
   7   2.0000     -14.416439      -392.2913
   8   2.0000     -14.413172      -392.2024
   9   2.0000     -14.413028      -392.1984
  10   2.0000     -10.314424      -280.6698
  11   2.0000     -10.314108      -280.6612
  12   2.0000     -10.313554      -280.6461
  13   2.0000     -10.313214      -280.6368
  14   2.0000     -10.312895      -280.6281
  15   2.0000     -10.312381      -280.6142
  16   2.0000     -10.311534      -280.5911
  17   2.0000     -10.311000      -280.5766
  18   2.0000     -10.310961      -280.5755
  19   2.0000     -10.310616      -280.5661
  20   2.0000     -10.310514      -280.5634
  21   2.0000     -10.310495      -280.5628
  22   2.0000     -10.310459      -280.5618
  23   2.0000     -10.309436      -280.5340
  24   2.0000     -10.309426      -280.5338
  25   2.0000     -10.308357      -280.5047
  26   2.0000     -10.307801      -280.4895
  27   2.0000     -10.307323      -280.4765
  28   2.0000     -10.304671      -280.4044
  29   2.0000     -10.304296      -280.3941
  30   2.0000     -10.295907      -280.1659
  31   2.0000     -10.295548      -280.1561
  32   2.0000     -10.293753      -280.1073
  33   2.0000     -10.293574      -280.1024
  34   2.0000     -10.293427      -280.0984
  35   2.0000     -10.291952      -280.0582
  36   2.0000     -10.290553      -280.0202
  37   2.0000     -10.286967      -279.9226
  38   2.0000     -10.279038      -279.7069
  39   2.0000     -10.277990      -279.6783
  40   2.0000     -10.277798      -279.6731
  41   2.0000     -10.277256      -279.6584
  42   2.0000     -10.277233      -279.6577
  43   2.0000     -10.277154      -279.6556
  44   2.0000     -10.276375      -279.6344
  45   2.0000     -10.275487      -279.6102
  46   2.0000     -10.275317      -279.6056
  47   2.0000     -10.272678      -279.5338
  48   2.0000     -10.271302      -279.4963
  49   2.0000     -10.268633      -279.4237
  50   2.0000      -1.075104       -29.2551
  51   2.0000      -1.074162       -29.2294
  52   2.0000      -1.073518       -29.2119
  53   2.0000      -1.071968       -29.1697
  54   2.0000      -1.067944       -29.0602
  55   2.0000      -0.997962       -27.1559
  56   2.0000      -0.997177       -27.1346
  57   2.0000      -0.996450       -27.1148
  58   2.0000      -0.994801       -27.0699
  59   2.0000      -0.991027       -26.9672
  60   2.0000      -0.985263       -26.8104
  61   2.0000      -0.965599       -26.2753
  62   2.0000      -0.951512       -25.8920
  63   2.0000      -0.938083       -25.5265
  64   2.0000      -0.934066       -25.4172
  65   2.0000      -0.880085       -23.9483
  66   2.0000      -0.877656       -23.8822
  67   2.0000      -0.873518       -23.7696
  68   2.0000      -0.867511       -23.6062
  69   2.0000      -0.844763       -22.9872
  70   2.0000      -0.839690       -22.8491
  71   2.0000      -0.829944       -22.5839
  72   2.0000      -0.828778       -22.5522
  73   2.0000      -0.828022       -22.5316
  74   2.0000      -0.824172       -22.4268
  75   2.0000      -0.769739       -20.9457
  76   2.0000      -0.768563       -20.9137
  77   2.0000      -0.764322       -20.7983
  78   2.0000      -0.759464       -20.6661
  79   2.0000      -0.742321       -20.1996
  80   2.0000      -0.739405       -20.1202
  81   2.0000      -0.725680       -19.7468
  82   2.0000      -0.721167       -19.6240
  83   2.0000      -0.716186       -19.4884
  84   2.0000      -0.714691       -19.4477
  85   2.0000      -0.706478       -19.2242
  86   2.0000      -0.698645       -19.0111
  87   2.0000      -0.692411       -18.8415
  88   2.0000      -0.687712       -18.7136
  89   2.0000      -0.682542       -18.5729
  90   2.0000      -0.641845       -17.4655
  91   2.0000      -0.637202       -17.3392
  92   2.0000      -0.635641       -17.2967
  93   2.0000      -0.634662       -17.2700
  94   2.0000      -0.624202       -16.9854
  95   2.0000      -0.620227       -16.8772
  96   2.0000      -0.613137       -16.6843
  97   2.0000      -0.606954       -16.5161
  98   2.0000      -0.603729       -16.4283
  99   2.0000      -0.598368       -16.2824
 100   2.0000      -0.596657       -16.2359
 101   2.0000      -0.590277       -16.0622
 102   2.0000      -0.587749       -15.9935
 103   2.0000      -0.584359       -15.9012
 104   2.0000      -0.578536       -15.7428
 105   2.0000      -0.556419       -15.1409
 106   2.0000      -0.546134       -14.8611
 107   2.0000      -0.539033       -14.6678
 108   2.0000      -0.534486       -14.5441
 109   2.0000      -0.532016       -14.4769
 110   2.0000      -0.529186       -14.3999
 111   2.0000      -0.529049       -14.3961
 112   2.0000      -0.524880       -14.2827
 113   2.0000      -0.523910       -14.2563
 114   2.0000      -0.522428       -14.2160
 115   2.0000      -0.521369       -14.1872
 116   2.0000      -0.520235       -14.1563
 117   2.0000      -0.517820       -14.0906
 118   2.0000      -0.517557       -14.0834
 119   2.0000      -0.514404       -13.9976
 120   2.0000      -0.513136       -13.9631
 121   2.0000      -0.511922       -13.9301
 122   2.0000      -0.510788       -13.8993
 123   2.0000      -0.506857       -13.7923
 124   2.0000      -0.503172       -13.6920
 125   2.0000      -0.500821       -13.6280
 126   2.0000      -0.476141       -12.9565
 127   2.0000      -0.475911       -12.9502
 128   2.0000      -0.472496       -12.8573
 129   2.0000      -0.469681       -12.7807
 130   2.0000      -0.457665       -12.4537
 131   2.0000      -0.450747       -12.2655
 132   2.0000      -0.448456       -12.2031
 133   2.0000      -0.445102       -12.1118
 134   2.0000      -0.438716       -11.9381
 135   2.0000      -0.435478       -11.8500
 136   2.0000      -0.431913       -11.7530
 137   2.0000      -0.425856       -11.5881
 138   2.0000      -0.422399       -11.4941
 139   2.0000      -0.420414       -11.4401
 140   2.0000      -0.417701       -11.3662
 141   2.0000      -0.415662       -11.3107
 142   2.0000      -0.413033       -11.2392
 143   2.0000      -0.411976       -11.2104
 144   2.0000      -0.410017       -11.1571
 145   2.0000      -0.405562       -11.0359
 146   2.0000      -0.382772       -10.4158
 147   2.0000      -0.382034       -10.3957
 148   2.0000      -0.381069       -10.3694
 149   2.0000      -0.379621       -10.3300
 150   2.0000      -0.376168       -10.2360
 151   2.0000      -0.345338        -9.3971
 152   2.0000      -0.341430        -9.2908
 153   2.0000      -0.333755        -9.0819
 154   2.0000      -0.326692        -8.8897
 155   2.0000      -0.319245        -8.6871
 156   2.0000      -0.317756        -8.6466
 157   2.0000      -0.317010        -8.6263
 158   2.0000      -0.316023        -8.5994
 159   2.0000      -0.315312        -8.5801
 160   2.0000      -0.311735        -8.4827
 161   2.0000      -0.307970        -8.3803
 162   2.0000      -0.300385        -8.1739
 163   2.0000      -0.294565        -8.0155
 164   2.0000      -0.292303        -7.9540
 165   2.0000      -0.286187        -7.7876
 166   0.0000      -0.050542        -1.3753
 167   0.0000      -0.044781        -1.2186
 168   0.0000      -0.038991        -1.0610
 169   0.0000      -0.033986        -0.9248
 170   0.0000      -0.031615        -0.8603

MULLIKEN ATOMIC CHARGES
-----------------------
   0 C :    0.109484
   1 C :    0.025821
   2 C :   -0.060256
   3 C :    0.004987
   4 C :   -0.009905
   5 C :   -0.035847
   6 N :   -0.017642
   7 C :    0.018602
   8 C :    0.019731
   9 N :   -0.016744
  10 C :    0.117632
  11 C :    0.072314
  12 C :   -0.043274
  13 C :   -0.015867
  14 C :   -0.008544
  15 C :   -0.071689
  16 N :   -0.007621
  17 C :    0.016116
  18 C :    0.020502
  19 N :   -0.008009
  20 C :    0.030299
  21 C :    0.074480
  22 C :   -0.091779
  23 C :    0.016419
  24 C :   -0.018326
  25 C :   -0.031334
  26 N :   -0.008276
  27 C :    0.020907
  28 C :    0.022356
  29 N :   -0.013025
  30 C :    0.012309
  31 C :    0.126631
  32 C :   -0.076109
  33 C :    0.012393
  34 C :   -0.001552
  35 C :   -0.065023
  36 N :   -0.010932
  37 C :    0.023030
  38 C :    0.021735
  39 N :   -0.014777
  40 C :    0.049798
  41 C :    0.003450
  42 C :    0.026244
  43 C :   -0.011488
  44 C :   -0.040578
  45 C :   -0.014444
  46 N :   -0.021417
  47 C :    0.028956
  48 C :    0.018962
  49 N :   -0.011271
  50 H :   -0.017118
  51 H :   -0.030950
  52 H :   -0.025167
  53 H :    0.007226
  54 H :    0.007389
  55 H :   -0.028027
  56 H :   -0.025344
  57 H :    0.012459
  58 H :    0.011485
  59 H :   -0.025737
  60 H :   -0.018745
  61 H :    0.012024
  62 H :    0.011019
  63 H :   -0.026879
  64 H :   -0.023878
  65 H :    0.010857
  66 H :    0.009992
  67 H :   -0.002634
  68 H :   -0.021952
  69 H :   -0.026202
  70 H :    0.012113
  71 H :    0.010641
Sum of atomic charges:   -0.0000000

LOEWDIN ATOMIC CHARGES
----------------------
   0 C :   -0.001739
   1 C :   -0.016254
   2 C :   -0.009115
   3 C :   -0.014360
   4 C :   -0.013989
   5 C :   -0.014336
   6 N :   -0.043067
   7 C :   -0.002408
   8 C :   -0.002580
   9 N :   -0.041393
  10 C :   -0.002198
  11 C :   -0.008292
  12 C :   -0.000666
  13 C :   -0.019308
  14 C :   -0.017101
  15 C :   -0.000234
  16 N :   -0.039802
  17 C :   -0.000881
  18 C :   -0.000769
  19 N :   -0.039358
  20 C :   -0.013623
  21 C :   -0.007345
  22 C :   -0.009350
  23 C :   -0.014752
  24 C :   -0.016267
  25 C :    0.007620
  26 N :   -0.036693
  27 C :    0.001198
  28 C :    0.001976
  29 N :   -0.040114
  30 C :   -0.010121
  31 C :   -0.005789
  32 C :   -0.002931
  33 C :   -0.012584
  34 C :   -0.015151
  35 C :   -0.004954
  36 N :   -0.039090
  37 C :    0.001317
  38 C :    0.001805
  39 N :   -0.039965
  40 C :   -0.014661
  41 C :   -0.007747
  42 C :   -0.002823
  43 C :   -0.015173
  44 C :   -0.014632
  45 C :   -0.015424
  46 N :   -0.043878
  47 C :    0.005308
  48 C :    0.001321
  49 N :   -0.037349
  50 H :    0.032695
  51 H :    0.034933
  52 H :    0.035307
  53 H :    0.023838
  54 H :    0.024129
  55 H :    0.038297
  56 H :    0.037231
  57 H :    0.025886
  58 H :    0.025835
  59 H :    0.036901
  60 H :    0.039674
  61 H :    0.025920
  62 H :    0.025707
  63 H :    0.036950
  64 H :    0.037577
  65 H :    0.025589
  66 H :    0.025344
  67 H :    0.031740
  68 H :    0.037145
  69 H :    0.035526
  70 H :    0.025775
  71 H :    0.025723

  Mayer bond orders larger than 0.100000
B(  0-C ,  1-C ) :   1.2360 B(  0-C ,  5-C ) :   1.4861 B(  0-C , 50-H ) :   0.9620
B(  1-C ,  2-C ) :   1.4373 B(  1-C , 10-C ) :   0.9443 B(  2-C ,  3-C ) :   1.2001
B(  2-C ,  5-C ) :   0.1029 B(  2-C , 51-H ) :   1.0217 B(  3-C ,  4-C ) :   1.2504
B(  3-C ,  9-N ) :   1.4263 B(  4-C ,  5-C ) :   1.2184 B(  4-C ,  6-N ) :   1.4317
B(  5-C , 52-H ) :   1.0121 B(  6-N ,  7-C ) :   1.6689 B(  7-C ,  8-C ) :   1.2296
B(  7-C , 53-H ) :   0.9741 B(  8-C ,  9-N ) :   1.6719 B(  8-C , 54-H ) :   0.9741
B( 10-C , 11-C ) :   1.2788 B( 10-C , 15-C ) :   1.4258 B( 11-C , 12-C ) :   1.4361
B( 11-C , 20-C ) :   0.9343 B( 12-C , 13-C ) :   1.2035 B( 12-C , 15-C ) :   0.1074
B( 12-C , 55-H ) :   1.0117 B( 13-C , 14-C ) :   1.2541 B( 13-C , 19-N ) :   1.4344
B( 14-C , 15-C ) :   1.2061 B( 14-C , 16-N ) :   1.4322 B( 15-C , 56-H ) :   1.0208
B( 16-N , 17-C ) :   1.6708 B( 17-C , 18-C ) :   1.2248 B( 17-C , 57-H ) :   0.9740
B( 18-C , 19-N ) :   1.6695 B( 18-C , 58-H ) :   0.9738 B( 20-C , 21-C ) :   1.3015
B( 20-C , 25-C ) :   1.4388 B( 21-C , 22-C ) :   1.4207 B( 21-C , 30-C ) :   0.9238
B( 22-C , 23-C ) :   1.1986 B( 22-C , 25-C ) :   0.1105 B( 22-C , 59-H ) :   1.0243
B( 23-C , 24-C ) :   1.2522 B( 23-C , 29-N ) :   1.4264 B( 24-C , 25-C ) :   1.2191
B( 24-C , 26-N ) :   1.4300 B( 25-C , 60-H ) :   1.0159 B( 26-N , 27-C ) :   1.6742
B( 27-C , 28-C ) :   1.2224 B( 27-C , 61-H ) :   0.9735 B( 28-C , 29-N ) :   1.6760
B( 28-C , 62-H ) :   0.9733 B( 30-C , 31-C ) :   1.2747 B( 30-C , 35-C ) :   1.4466
B( 31-C , 32-C ) :   1.4411 B( 31-C , 40-C ) :   0.9430 B( 32-C , 33-C ) :   1.2084
B( 32-C , 35-C ) :   0.1103 B( 32-C , 63-H ) :   1.0174 B( 33-C , 34-C ) :   1.2503
B( 33-C , 39-N ) :   1.4268 B( 34-C , 35-C ) :   1.2037 B( 34-C , 36-N ) :   1.4310
B( 35-C , 64-H ) :   1.0235 B( 36-N , 37-C ) :   1.6736 B( 37-C , 38-C ) :   1.2231
B( 37-C , 65-H ) :   0.9740 B( 38-C , 39-N ) :   1.6760 B( 38-C , 66-H ) :   0.9738
B( 40-C , 41-C ) :   1.2404 B( 40-C , 45-C ) :   1.4499 B( 41-C , 42-C ) :   1.4478
B( 41-C , 67-H ) :   0.9917 B( 42-C , 43-C ) :   1.2389 B( 42-C , 45-C ) :   0.1028
B( 42-C , 68-H ) :   1.0065 B( 43-C , 44-C ) :   1.2547 B( 43-C , 49-N ) :   1.4347
B( 44-C , 45-C ) :   1.2141 B( 44-C , 46-N ) :   1.4119 B( 45-C , 69-H ) :   1.0068
B( 46-N , 47-C ) :   1.6607 B( 47-C , 48-C ) :   1.2252 B( 47-C , 70-H ) :   0.9736
B( 48-C , 49-N ) :   1.6707 B( 48-C , 71-H ) :   0.9747

-----------------------------------------------------------------------------
         ABSORPTION SPECTRUM VIA TRANSITION ELECTRIC DIPOLE MOMENTS
-----------------------------------------------------------------------------
State   Energy  Wavelength   fosc         T2         TX        TY        TZ
        (cm-1)    (nm)                  (au**2)     (au)      (au)      (au)
-----------------------------------------------------------------------------
   0   30666.0    326.1   0.003154902   0.03387  -0.08268  -0.13542   0.09325
   1   30808.3    324.6   0.010636524   0.11366  -0.00932  -0.20167  -0.27000
   2   30874.8    323.9   0.007252222   0.07733  -0.17518   0.18394   0.11317
   3   30900.5    323.6   0.004534733   0.04831  -0.03016   0.13149   0.17353
   4   31476.2    317.7   0.006102386   0.06383   0.02140   0.25169   0.00436
   5   32751.0    305.3   0.238499650   2.39739   1.20966  -0.53929   0.80204
   6   34156.1    292.8   0.125254175   1.20726   0.89317  -0.61482   0.17745
   7   34541.1    289.5   0.100302682   0.95599  -0.96770   0.04662  -0.13180
   8   35083.7    285.0   0.081168373   0.76165   0.79162   0.25000  -0.26924
   9   35357.5    282.8   0.024487178   0.22800   0.09706  -0.46625   0.03451
  10   35616.9    280.8   0.153931146   1.42281  -1.09872  -0.44550   0.13091
  11   35908.8    278.5   0.019661185   0.18025   0.36387   0.07663  -0.20489
  12   36394.4    274.8   0.040000435   0.36183   0.04489   0.37592  -0.46744
  13   36799.7    271.7   0.154938989   1.38609   0.68325  -0.23020   0.93073
  14   37317.5    268.0   0.173416174   1.52986   1.01603   0.18124   0.68169
  15   37453.1    267.0   0.048857335   0.42945   0.23341  -0.60429   0.09904
  16   37934.2    263.6   0.124163768   1.07756   0.56739  -0.61052   0.61877
  17   38274.9    261.3   0.083686488   0.71981   0.81415   0.22754   0.07202
  18   38600.8    259.1   0.041383143   0.35294   0.47265   0.29886  -0.20056
  19   38795.6    257.8   0.107012188   0.90809  -0.68833   0.48791  -0.44298
  20   39067.3    256.0   0.089450304   0.75378   0.09547   0.65313  -0.56399
  21   39162.3    255.3   0.048137667   0.40466   0.05927   0.35909  -0.52173
  22   39658.8    252.2   0.098525136   0.81787   0.44455  -0.24828   0.74740
  23   39848.8    250.9   0.159258944   1.31572   0.19575   0.86757  -0.72438
  24   40061.8    249.6   0.045732533   0.37581   0.39818  -0.01284   0.46594
  25   40223.3    248.6   0.035447171   0.29012  -0.23431   0.36451  -0.31992

FINAL SINGLE POINT ENERGY     -2082.404541788485

DIPOLE MOMENT
-------------
                                X             Y             Z
Electronic contribution:      2.58573       1.94939       0.50525
Nuclear contribution   :     -2.41563      -1.98381      -0.47253
                        -----------------------------------------
Total Dipole Moment    :      0.17010      -0.03442       0.03272
                        -----------------------------------------
Magnitude (a.u.)       :      0.17660
Magnitude (Debye)      :      0.44889

Rotational constants in cm-1:     0.003015     0.001795     0.001505
Rotational constants in MHz :    90.389038    53.826225    45.116098

                             ****ORCA TERMINATED NORMALLY****
TOTAL RUN TIME: 0 days 0 hours 5 minutes 29 seconds 689 msec
