                         Program Version 4.2.0 -  RELEASE  -
|  1> # ORCA input file
|  2> # SCF done       -167.802544024708          0.000653523930
|  3> ! CAM-B3LYP def2-SVP def2/J RIJCOSX Grid4 TightSCF
|  4> %maxcore 5000
|  5> %tddft
|  6>     Mode sTDDFT
|  7>     Ethresh 5.0
|  8>     maxcore 5000
|  9> end
| 10>
| 11> %pal
| 12>   nprocs 6
| 13>   end
| 14> * xyz 0 1
| 15>    C       -0.05469        -1.10051         0.29341
| 16>    C       -0.91667        -1.44936        -0.77916
| 17>    C       -0.61912        -1.03101        -2.05866
| 18>    C        0.53536        -0.26837        -2.30307
| 19>    C        1.39743         0.07272        -1.22267
| 20>    C        1.07016        -0.36072         0.08029
| 21>    N        2.51330         0.79712        -1.43828
| 22>    C        2.76148         1.16347        -2.66697
| 23>    C        1.90686         0.82649        -3.73752
| 24>    N        0.81772         0.12773        -3.56413
| 25>    C       -2.07771        -2.25961        -0.48086
| 26>    N       -3.04403        -2.60225        -1.39720
| 27>    C       -3.99176        -3.39218        -0.83174
| 28>    C       -3.64152        -3.58145         0.48971
| 29>    C       -2.43919        -2.85992         0.70233
| 30>    S       -1.97075        -3.08239         2.40484
| 31>    O       -2.06612        -1.84988         3.13565
| 32>    O       -0.74221        -3.82131         2.51419
| 33>    C       -3.39183        -4.16977         2.73796
| 34>    C       -4.14380        -4.29984         1.62281
| 35>    C       -3.48612        -4.74261         4.02780
| 36>    C       -4.23117        -5.83809         4.32174
| 37>    C       -4.30409        -6.51212         5.57432
| 38>    C       -3.82316        -6.02322         6.81403
| 39>    C       -3.84100        -6.83432         8.00884
| 40>    N       -3.17225        -6.42530         9.09706
| 41>    C       -2.63653        -5.23248         9.11516
| 42>    C       -2.82973        -4.33713         8.00915
| 43>    N       -3.36998        -4.76397         6.89665
| 44>    C       -2.42805        -2.98263         8.11996
| 45>    N       -2.08777        -1.89819         8.26104
| 46>    C       -1.85925        -4.82636        10.22824
| 47>    N       -1.21609        -4.45187        11.09869
| 48>    C       -4.45971        -8.10106         8.04511
| 49>    C       -4.95652        -8.58855         6.81890
| 50>    C       -4.88097        -7.80218         5.61150
| 51>    N       -5.40804        -8.45069         4.56973
| 52>    S       -5.94061        -9.88351         5.05983
| 53>    N       -5.54077        -9.76899         6.60812
| 54>    C       -4.53323        -8.91541         9.21828
| 55>    O       -4.55520       -10.24482         9.03556
| 56>    C       -4.64781       -10.85538        10.23606
| 57>    C       -4.70188        -9.88986        11.23225
| 58>    C       -4.63280        -8.64792        10.58444
| 59>    C       -4.79646        -7.34945        11.29419
| 60>    F       -5.38694        -6.40274        10.54470
| 61>    F       -5.58785        -7.50042        12.37520
| 62>    F       -3.65150        -6.83005        11.75691
| 63>    C       -4.68320       -12.26805        10.29277
| 64>    C       -4.69606       -13.02367         9.15531
| 65>    C       -4.71183       -14.42307         9.11302
| 66>    C       -4.73217       -15.14052         7.94097
| 67>    C       -4.72474       -16.55067         7.79653
| 68>    C       -4.74015       -16.98272         6.50714
| 69>    C       -4.76524       -15.93680         5.55206
| 70>    S       -4.76651       -14.38083         6.35878
| 71>    C       -4.78628       -16.04321         4.18019
| 72>    C       -4.77821       -17.23716         3.40511
| 73>    C       -4.80087       -17.03364         2.06955
| 74>    C       -4.83099       -15.65248         1.68098
| 75>    S       -4.82616       -14.64004         3.13496
| 76>    C       -4.85762       -15.14918         0.43959
| 77>    H       -0.30931        -1.43479         1.28716
| 78>    H       -1.23513        -1.27356        -2.91141
| 79>    H        1.73214        -0.09248         0.88804
| 80>    H        3.66048         1.74289        -2.82912
| 81>    H        2.12670         1.13884        -4.74985
| 82>    H       -3.05074        -2.29371        -2.35618
| 83>    H       -4.82730        -3.75913        -1.39366
| 84>    H       -5.05363        -4.87669         1.56761
| 85>    H       -2.86525        -4.28400         4.78345
| 86>    H       -4.78472        -6.32669         3.53035
| 87>    H       -4.79904       -10.05285        12.28594
| 88>    H       -4.70186       -12.72241        11.27158
| 89>    H       -4.69516       -12.50042         8.20708
| 90>    H       -4.70047       -14.97617        10.04272
| 91>    H       -4.70440       -17.19871         8.65501
| 92>    H       -4.73430       -18.01776         6.21626
| 93>    H       -4.75382       -18.20637         3.87051
| 94>    H       -4.79721       -17.81197         1.32743
| 95>    H       -4.85700       -15.80020        -0.41670
| 96>    H       -4.87588       -14.09011         0.25871
| 97> *
| 98>
| 99>                          ****END OF INPUT****

CARTESIAN COORDINATES (ANGSTROEM)
---------------------------------
  C     -0.054690   -1.100510    0.293410
  C     -0.916670   -1.449360   -0.779160
  C     -0.619120   -1.031010   -2.058660
  C      0.535360   -0.268370   -2.303070
  C      1.397430    0.072720   -1.222670
  C      1.070160   -0.360720    0.080290
  N      2.513300    0.797120   -1.438280
  C      2.761480    1.163470   -2.666970
  C      1.906860    0.826490   -3.737520
  N      0.817720    0.127730   -3.564130
  C     -2.077710   -2.259610   -0.480860
  N     -3.044030   -2.602250   -1.397200
  C     -3.991760   -3.392180   -0.831740
  C     -3.641520   -3.581450    0.489710
  C     -2.439190   -2.859920    0.702330
  S     -1.970750   -3.082390    2.404840
  O     -2.066120   -1.849880    3.135650
  O     -0.742210   -3.821310    2.514190
  C     -3.391830   -4.169770    2.737960
  C     -4.143800   -4.299840    1.622810
  C     -3.486120   -4.742610    4.027800
  C     -4.231170   -5.838090    4.321740
  C     -4.304090   -6.512120    5.574320
  C     -3.823160   -6.023220    6.814030
  C     -3.841000   -6.834320    8.008840
  N     -3.172250   -6.425300    9.097060
  C     -2.636530   -5.232480    9.115160
  C     -2.829730   -4.337130    8.009150
  N     -3.369980   -4.763970    6.896650
  C     -2.428050   -2.982630    8.119960
  N     -2.087770   -1.898190    8.261040
  C     -1.859250   -4.826360   10.228240
  N     -1.216090   -4.451870   11.098690
  C     -4.459710   -8.101060    8.045110
  C     -4.956520   -8.588550    6.818900
  C     -4.880970   -7.802180    5.611500
  N     -5.408040   -8.450690    4.569730
  S     -5.940610   -9.883510    5.059830
  N     -5.540770   -9.768990    6.608120
  C     -4.533230   -8.915410    9.218280
  O     -4.555200  -10.244820    9.035560
  C     -4.647810  -10.855380   10.236060
  C     -4.701880   -9.889860   11.232250
  C     -4.632800   -8.647920   10.584440
  C     -4.796460   -7.349450   11.294190
  F     -5.386940   -6.402740   10.544700
  F     -5.587850   -7.500420   12.375200
  F     -3.651500   -6.830050   11.756910
  C     -4.683200  -12.268050   10.292770
  C     -4.696060  -13.023670    9.155310
  C     -4.711830  -14.423070    9.113020
  C     -4.732170  -15.140520    7.940970
  C     -4.724740  -16.550670    7.796530
  C     -4.740150  -16.982720    6.507140
  C     -4.765240  -15.936800    5.552060
  S     -4.766510  -14.380830    6.358780
  C     -4.786280  -16.043210    4.180190
  C     -4.778210  -17.237160    3.405110
  C     -4.800870  -17.033640    2.069550
  C     -4.830990  -15.652480    1.680980
  S     -4.826160  -14.640040    3.134960
  C     -4.857620  -15.149180    0.439590
  H     -0.309310   -1.434790    1.287160
  H     -1.235130   -1.273560   -2.911410
  H      1.732140   -0.092480    0.888040
  H      3.660480    1.742890   -2.829120
  H      2.126700    1.138840   -4.749850
  H     -3.050740   -2.293710   -2.356180
  H     -4.827300   -3.759130   -1.393660
  H     -5.053630   -4.876690    1.567610
  H     -2.865250   -4.284000    4.783450
  H     -4.784720   -6.326690    3.530350
  H     -4.799040  -10.052850   12.285940
  H     -4.701860  -12.722410   11.271580
  H     -4.695160  -12.500420    8.207080
  H     -4.700470  -14.976170   10.042720
  H     -4.704400  -17.198710    8.655010
  H     -4.734300  -18.017760    6.216260
  H     -4.753820  -18.206370    3.870510
  H     -4.797210  -17.811970    1.327430
  H     -4.857000  -15.800200   -0.416700
  H     -4.875880  -14.090110    0.258710

 Total Charge           Charge          ....    0
 Multiplicity           Mult            ....    1
 Number of Electrons    NEL             ....  456
 Basis Dimension        Dim             ....  984

ORBITAL ENERGIES
----------------

  NO   OCC          E(Eh)            E(eV)
   0   2.0000     -89.137793     -2425.5627
   1   2.0000     -89.040718     -2422.9211
   2   2.0000     -88.949436     -2420.4372
   3   2.0000     -88.947392     -2420.3816
   4   2.0000     -24.793992      -674.6788
   5   2.0000     -24.788280      -674.5234
   6   2.0000     -24.785678      -674.4526
   7   2.0000     -19.298833      -525.1480
   8   2.0000     -19.188930      -522.1573
   9   2.0000     -19.186505      -522.0913
  10   2.0000     -14.487680      -394.2298
  11   2.0000     -14.453318      -393.2948
  12   2.0000     -14.452079      -393.2611
  13   2.0000     -14.449352      -393.1868
  14   2.0000     -14.447885      -393.1469
  15   2.0000     -14.419413      -392.3722
  16   2.0000     -14.418464      -392.3464
  17   2.0000     -14.417579      -392.3223
  18   2.0000     -14.417148      -392.3105
  19   2.0000     -10.514330      -286.1095
  20   2.0000     -10.372755      -282.2570
  21   2.0000     -10.371055      -282.2107
  22   2.0000     -10.353848      -281.7425
  23   2.0000     -10.344027      -281.4753
  24   2.0000     -10.342804      -281.4420
  25   2.0000     -10.341839      -281.4157
  26   2.0000     -10.339948      -281.3643
  27   2.0000     -10.337877      -281.3079
  28   2.0000     -10.331902      -281.1454
  29   2.0000     -10.324567      -280.9458
  30   2.0000     -10.319333      -280.8033
  31   2.0000     -10.316473      -280.7255
  32   2.0000     -10.315369      -280.6955
  33   2.0000     -10.314798      -280.6799
  34   2.0000     -10.314743      -280.6784
  35   2.0000     -10.313488      -280.6443
  36   2.0000     -10.312666      -280.6219
  37   2.0000     -10.312226      -280.6099
  38   2.0000     -10.311818      -280.5988
  39   2.0000     -10.311251      -280.5834
  40   2.0000     -10.310655      -280.5672
  41   2.0000     -10.310225      -280.5555
  42   2.0000     -10.307700      -280.4868
  43   2.0000     -10.302187      -280.3368
  44   2.0000     -10.300757      -280.2978
  45   2.0000     -10.299978      -280.2766
  46   2.0000     -10.297174      -280.2003
  47   2.0000     -10.296039      -280.1695
  48   2.0000     -10.293099      -280.0895
  49   2.0000     -10.291184      -280.0374
  50   2.0000     -10.290336      -280.0143
  51   2.0000     -10.287967      -279.9498
  52   2.0000     -10.287063      -279.9252
  53   2.0000     -10.285702      -279.8882
  54   2.0000     -10.285415      -279.8804
  55   2.0000     -10.284385      -279.8523
  56   2.0000     -10.284226      -279.8480
  57   2.0000     -10.283321      -279.8234
  58   2.0000     -10.281980      -279.7869
  59   2.0000     -10.279962      -279.7320
  60   2.0000     -10.279104      -279.7086
  61   2.0000     -10.275327      -279.6059
  62   2.0000      -8.202161      -223.1922
  63   2.0000      -8.132063      -221.2847
  64   2.0000      -8.045800      -218.9373
  65   2.0000      -8.044094      -218.8909
  66   2.0000      -6.171377      -167.9317
  67   2.0000      -6.170850      -167.9174
  68   2.0000      -6.170299      -167.9024
  69   2.0000      -6.103041      -166.0722
  70   2.0000      -6.095277      -165.8609
  71   2.0000      -6.095025      -165.8541
  72   2.0000      -6.015516      -163.6905
  73   2.0000      -6.013900      -163.6465
  74   2.0000      -6.011619      -163.5845
  75   2.0000      -6.009992      -163.5402
  76   2.0000      -6.006591      -163.4476
  77   2.0000      -6.004661      -163.3951
  78   2.0000      -1.379793       -37.5461
  79   2.0000      -1.283743       -34.9324
  80   2.0000      -1.278110       -34.7791
  81   2.0000      -1.224970       -33.3331
  82   2.0000      -1.193323       -32.4720
  83   2.0000      -1.137602       -30.9557
  84   2.0000      -1.112890       -30.2833
  85   2.0000      -1.102212       -29.9927
  86   2.0000      -1.073505       -29.2116
  87   2.0000      -1.070583       -29.1320
  88   2.0000      -1.038657       -28.2633
  89   2.0000      -1.002896       -27.2902
  90   2.0000      -0.999924       -27.2093
  91   2.0000      -0.996439       -27.1145
  92   2.0000      -0.993809       -27.0429
  93   2.0000      -0.990539       -26.9539
  94   2.0000      -0.977167       -26.5901
  95   2.0000      -0.974228       -26.5101
  96   2.0000      -0.962784       -26.1987
  97   2.0000      -0.954847       -25.9827
  98   2.0000      -0.927047       -25.2262
  99   2.0000      -0.922966       -25.1152
 100   2.0000      -0.910582       -24.7782
 101   2.0000      -0.901012       -24.5178
 102   2.0000      -0.893598       -24.3160
 103   2.0000      -0.882971       -24.0269
 104   2.0000      -0.878917       -23.9166
 105   2.0000      -0.864203       -23.5162
 106   2.0000      -0.852373       -23.1943
 107   2.0000      -0.847064       -23.0498
 108   2.0000      -0.841888       -22.9089
 109   2.0000      -0.829079       -22.5604
 110   2.0000      -0.826991       -22.5036
 111   2.0000      -0.822203       -22.3733
 112   2.0000      -0.819578       -22.3018
 113   2.0000      -0.798506       -21.7285
 114   2.0000      -0.791977       -21.5508
 115   2.0000      -0.784083       -21.3360
 116   2.0000      -0.779933       -21.2231
 117   2.0000      -0.757088       -20.6014
 118   2.0000      -0.752632       -20.4802
 119   2.0000      -0.735372       -20.0105
 120   2.0000      -0.734219       -19.9791
 121   2.0000      -0.729966       -19.8634
 122   2.0000      -0.717306       -19.5189
 123   2.0000      -0.707809       -19.2605
 124   2.0000      -0.702307       -19.1107
 125   2.0000      -0.696391       -18.9498
 126   2.0000      -0.693067       -18.8593
 127   2.0000      -0.690622       -18.7928
 128   2.0000      -0.677269       -18.4294
 129   2.0000      -0.672119       -18.2893
 130   2.0000      -0.666792       -18.1443
 131   2.0000      -0.662914       -18.0388
 132   2.0000      -0.659047       -17.9336
 133   2.0000      -0.657297       -17.8860
 134   2.0000      -0.648811       -17.6550
 135   2.0000      -0.644921       -17.5492
 136   2.0000      -0.641586       -17.4584
 137   2.0000      -0.627994       -17.0886
 138   2.0000      -0.624492       -16.9933
 139   2.0000      -0.620529       -16.8855
 140   2.0000      -0.619126       -16.8473
 141   2.0000      -0.613062       -16.6823
 142   2.0000      -0.605872       -16.4866
 143   2.0000      -0.605430       -16.4746
 144   2.0000      -0.599882       -16.3236
 145   2.0000      -0.593777       -16.1575
 146   2.0000      -0.589910       -16.0523
 147   2.0000      -0.585722       -15.9383
 148   2.0000      -0.576863       -15.6972
 149   2.0000      -0.574912       -15.6442
 150   2.0000      -0.570029       -15.5113
 151   2.0000      -0.562709       -15.3121
 152   2.0000      -0.560901       -15.2629
 153   2.0000      -0.552622       -15.0376
 154   2.0000      -0.545929       -14.8555
 155   2.0000      -0.543582       -14.7916
 156   2.0000      -0.542349       -14.7581
 157   2.0000      -0.541123       -14.7247
 158   2.0000      -0.538918       -14.6647
 159   2.0000      -0.537268       -14.6198
 160   2.0000      -0.536798       -14.6070
 161   2.0000      -0.531506       -14.4630
 162   2.0000      -0.525686       -14.3047
 163   2.0000      -0.523874       -14.2553
 164   2.0000      -0.522012       -14.2047
 165   2.0000      -0.520989       -14.1768
 166   2.0000      -0.517718       -14.0878
 167   2.0000      -0.510584       -13.8937
 168   2.0000      -0.509229       -13.8568
 169   2.0000      -0.507888       -13.8203
 170   2.0000      -0.506350       -13.7785
 171   2.0000      -0.502258       -13.6671
 172   2.0000      -0.501310       -13.6413
 173   2.0000      -0.498845       -13.5743
 174   2.0000      -0.497438       -13.5360
 175   2.0000      -0.493473       -13.4281
 176   2.0000      -0.487810       -13.2740
 177   2.0000      -0.479868       -13.0579
 178   2.0000      -0.477939       -13.0054
 179   2.0000      -0.475927       -12.9506
 180   2.0000      -0.474699       -12.9172
 181   2.0000      -0.471449       -12.8288
 182   2.0000      -0.470343       -12.7987
 183   2.0000      -0.469115       -12.7653
 184   2.0000      -0.464614       -12.6428
 185   2.0000      -0.463807       -12.6208
 186   2.0000      -0.458972       -12.4893
 187   2.0000      -0.455478       -12.3942
 188   2.0000      -0.454877       -12.3778
 189   2.0000      -0.449391       -12.2285
 190   2.0000      -0.443480       -12.0677
 191   2.0000      -0.442384       -12.0379
 192   2.0000      -0.441706       -12.0194
 193   2.0000      -0.440473       -11.9859
 194   2.0000      -0.435142       -11.8408
 195   2.0000      -0.432833       -11.7780
 196   2.0000      -0.431272       -11.7355
 197   2.0000      -0.426551       -11.6070
 198   2.0000      -0.422818       -11.5055
 199   2.0000      -0.420897       -11.4532
 200   2.0000      -0.417282       -11.3548
 201   2.0000      -0.413980       -11.2650
 202   2.0000      -0.410762       -11.1774
 203   2.0000      -0.404955       -11.0194
 204   2.0000      -0.403518       -10.9803
 205   2.0000      -0.400510       -10.8984
 206   2.0000      -0.398237       -10.8366
 207   2.0000      -0.392588       -10.6828
 208   2.0000      -0.385112       -10.4794
 209   2.0000      -0.381532       -10.3820
 210   2.0000      -0.379826       -10.3356
 211   2.0000      -0.371351       -10.1050
 212   2.0000      -0.369198       -10.0464
 213   2.0000      -0.364629        -9.9220
 214   2.0000      -0.354458        -9.6453
 215   2.0000      -0.349822        -9.5192
 216   2.0000      -0.346832        -9.4378
 217   2.0000      -0.344962        -9.3869
 218   2.0000      -0.344104        -9.3636
 219   2.0000      -0.340340        -9.2611
 220   2.0000      -0.329009        -8.9528
 221   2.0000      -0.317095        -8.6286
 222   2.0000      -0.316262        -8.6059
 223   2.0000      -0.315708        -8.5909
 224   2.0000      -0.293655        -7.9908
 225   2.0000      -0.278984        -7.5915
 226   2.0000      -0.254033        -6.9126
 227   2.0000      -0.217890        -5.9291
 228   0.0000      -0.119533        -3.2527
 229   0.0000      -0.076586        -2.0840
 230   0.0000      -0.050900        -1.3850
 231   0.0000      -0.043759        -1.1907
 232   0.0000      -0.035814        -0.9745

MULLIKEN ATOMIC CHARGES
-----------------------
   0 C :    0.016380
   1 C :    0.162699
   2 C :   -0.115009
   3 C :   -0.002938
   4 C :   -0.028949
   5 C :    0.017054
   6 N :   -0.013763
   7 C :    0.021373
   8 C :    0.021487
   9 N :   -0.022603
  10 C :    0.007723
  11 N :   -0.035509
  12 C :    0.000097
  13 C :    0.063910
  14 C :   -0.075193
  15 S :    0.802807
  16 O :   -0.446789
  17 O :   -0.455584
  18 C :   -0.070636
  19 C :    0.037283
  20 C :    0.109677
  21 C :   -0.081483
  22 C :    0.108502
  23 C :   -0.071986
  24 C :   -0.038722
  25 N :    0.048583
  26 C :   -0.134746
  27 C :   -0.126577
  28 N :    0.037769
  29 C :   -0.190907
  30 N :    0.228393
  31 C :   -0.191994
  32 N :    0.227869
  33 C :    0.092119
  34 C :    0.022849
  35 C :   -0.009572
  36 N :   -0.284947
  37 S :    0.540984
  38 N :   -0.257397
  39 C :    0.041938
  40 O :   -0.179457
  41 C :    0.206501
  42 C :   -0.075938
  43 C :   -0.101726
  44 C :    0.542682
  45 F :   -0.167878
  46 F :   -0.167643
  47 F :   -0.149713
  48 C :   -0.041724
  49 C :    0.018804
  50 C :   -0.012095
  51 C :   -0.012311
  52 C :    0.032744
  53 C :    0.032565
  54 C :   -0.048908
  55 S :    0.070260
  56 C :   -0.066369
  57 C :    0.033768
  58 C :    0.052392
  59 C :   -0.065352
  60 S :    0.078660
  61 C :   -0.024141
  62 H :   -0.019906
  63 H :   -0.057691
  64 H :   -0.012896
  65 H :    0.011467
  66 H :    0.009343
  67 H :    0.136261
  68 H :    0.002964
  69 H :   -0.005111
  70 H :    0.022151
  71 H :   -0.004202
  72 H :   -0.000033
  73 H :   -0.007304
  74 H :    0.022330
  75 H :   -0.015587
  76 H :   -0.009875
  77 H :   -0.010793
  78 H :   -0.010230
  79 H :   -0.007172
  80 H :    0.023546
  81 H :    0.023423
Sum of atomic charges:   -0.0000000

LOEWDIN ATOMIC CHARGES
----------------------
   0 C :    0.005295
   1 C :   -0.022559
   2 C :   -0.026121
   3 C :   -0.011811
   4 C :   -0.012864
   5 C :    0.002493
   6 N :   -0.036838
   7 C :   -0.000040
   8 C :    0.001267
   9 N :   -0.047077
  10 C :    0.007356
  11 N :    0.106631
  12 C :    0.010341
  13 C :   -0.088228
  14 C :   -0.216913
  15 S :    1.172525
  16 O :   -0.491292
  17 O :   -0.499015
  18 C :   -0.161679
  19 C :    0.012155
  20 C :   -0.001083
  21 C :   -0.010130
  22 C :   -0.017882
  23 C :   -0.006917
  24 C :   -0.003573
  25 N :    0.001763
  26 C :   -0.025528
  27 C :   -0.022860
  28 N :    0.006041
  29 C :   -0.036693
  30 N :    0.000433
  31 C :   -0.036484
  32 N :   -0.004846
  33 C :   -0.044672
  34 C :   -0.040988
  35 C :   -0.042421
  36 N :   -0.289265
  37 S :    0.677687
  38 N :   -0.279951
  39 C :    0.052223
  40 O :    0.043544
  41 C :    0.047684
  42 C :   -0.042889
  43 C :   -0.102129
  44 C :    0.168551
  45 F :   -0.062601
  46 F :   -0.064956
  47 F :   -0.049227
  48 C :   -0.048805
  49 C :   -0.008185
  50 C :   -0.063984
  51 C :   -0.132863
  52 C :   -0.036509
  53 C :   -0.024631
  54 C :   -0.183174
  55 S :    0.369762
  56 C :   -0.172320
  57 C :   -0.026272
  58 C :   -0.027141
  59 C :   -0.139540
  60 S :    0.352274
  61 C :   -0.069973
  62 H :    0.026414
  63 H :    0.022838
  64 H :    0.041789
  65 H :    0.025850
  66 H :    0.024999
  67 H :    0.095146
  68 H :    0.026862
  69 H :    0.037402
  70 H :    0.034300
  71 H :    0.032712
  72 H :    0.037824
  73 H :    0.036668
  74 H :    0.027264
  75 H :    0.032301
  76 H :    0.034515
  77 H :    0.032578
  78 H :    0.033176
  79 H :    0.034963
  80 H :    0.030227
  81 H :    0.027078

  Mayer bond orders larger than 0.100000
B(  0-C ,  1-C ) :   1.2291 B(  0-C ,  5-C ) :   1.4930 B(  0-C , 62-H ) :   0.9742
B(  1-C ,  2-C ) :   1.3438 B(  1-C , 10-C ) :   1.0407 B(  2-C ,  3-C ) :   1.2445
B(  2-C , 63-H ) :   1.0076 B(  3-C ,  4-C ) :   1.2478 B(  3-C ,  9-N ) :   1.4316
B(  4-C ,  5-C ) :   1.2234 B(  4-C ,  6-N ) :   1.4362 B(  5-C , 64-H ) :   1.0078
B(  6-N ,  7-C ) :   1.6686 B(  7-C ,  8-C ) :   1.2298 B(  7-C , 65-H ) :   0.9742
B(  8-C ,  9-N ) :   1.6696 B(  8-C , 66-H ) :   0.9739 B( 10-C , 11-N ) :   1.2605
B( 10-C , 14-C ) :   1.5189 B( 11-N , 12-C ) :   1.2282 B( 11-N , 67-H ) :   0.9253
B( 12-C , 13-C ) :   1.4258 B( 12-C , 68-H ) :   0.9875 B( 13-C , 14-C ) :   1.3312
B( 13-C , 19-C ) :   1.0543 B( 14-C , 15-S ) :   0.8146 B( 15-S , 16-O ) :   1.6945
B( 15-S , 17-O ) :   1.7162 B( 15-S , 18-C ) :   0.8145 B( 18-C , 19-C ) :   1.6746
B( 18-C , 20-C ) :   1.1162 B( 19-C , 69-H ) :   0.9921 B( 20-C , 21-C ) :   1.6257
B( 20-C , 70-H ) :   0.9420 B( 21-C , 22-C ) :   1.2152 B( 21-C , 71-H ) :   0.9625
B( 22-C , 23-C ) :   1.2256 B( 22-C , 33-C ) :   0.1341 B( 22-C , 35-C ) :   1.1782
B( 23-C , 24-C ) :   1.1000 B( 23-C , 28-N ) :   1.4193 B( 24-C , 25-N ) :   1.4571
B( 24-C , 33-C ) :   1.3214 B( 25-N , 26-C ) :   1.7157 B( 26-C , 27-C ) :   1.1905
B( 26-C , 31-C ) :   1.1425 B( 27-C , 28-N ) :   1.7337 B( 27-C , 29-C ) :   1.1350
B( 29-C , 30-N ) :   3.0469 B( 31-C , 32-N ) :   3.0443 B( 33-C , 34-C ) :   1.2231
B( 33-C , 39-C ) :   1.0292 B( 34-C , 35-C ) :   1.1048 B( 34-C , 38-N ) :   1.5274
B( 35-C , 36-N ) :   1.5227 B( 36-N , 37-S ) :   1.2817 B( 36-N , 38-N ) :   0.1539
B( 37-S , 38-N ) :   1.2870 B( 39-C , 40-O ) :   1.1997 B( 39-C , 41-C ) :   0.1080
B( 39-C , 43-C ) :   1.4729 B( 40-O , 41-C ) :   1.1454 B( 41-C , 42-C ) :   1.3713
B( 41-C , 48-C ) :   1.1587 B( 42-C , 43-C ) :   1.2725 B( 42-C , 72-H ) :   1.0182
B( 43-C , 44-C ) :   0.9528 B( 44-C , 45-F ) :   1.1455 B( 44-C , 46-F ) :   1.1678
B( 44-C , 47-F ) :   1.1785 B( 48-C , 49-C ) :   1.5957 B( 48-C , 73-H ) :   0.9768
B( 49-C , 50-C ) :   1.1611 B( 49-C , 74-H ) :   0.9705 B( 50-C , 51-C ) :   1.5515
B( 50-C , 75-H ) :   0.9848 B( 51-C , 52-C ) :   1.1420 B( 51-C , 55-S ) :   1.0407
B( 52-C , 53-C ) :   1.5978 B( 52-C , 76-H ) :   0.9996 B( 53-C , 54-C ) :   1.1757
B( 53-C , 77-H ) :   0.9938 B( 54-C , 55-S ) :   1.0352 B( 54-C , 56-C ) :   1.5490
B( 56-C , 57-C ) :   1.1517 B( 56-C , 60-S ) :   1.0505 B( 57-C , 58-C ) :   1.6611
B( 57-C , 78-H ) :   0.9926 B( 58-C , 59-C ) :   1.0806 B( 58-C , 79-H ) :   0.9932
B( 59-C , 60-S ) :   1.0049 B( 59-C , 61-C ) :   1.8637 B( 61-C , 80-H ) :   0.9510
B( 61-C , 81-H ) :   0.9421

-----------------------------------------------------------------------------
         ABSORPTION SPECTRUM VIA TRANSITION ELECTRIC DIPOLE MOMENTS
-----------------------------------------------------------------------------
State   Energy  Wavelength   fosc         T2         TX        TY        TZ
        (cm-1)    (nm)                  (au**2)     (au)      (au)      (au)
-----------------------------------------------------------------------------
   0    7718.2   1295.6   0.301892694  12.87697   0.42157   3.50561  -0.64029
   1   14444.3    692.3   0.274237208   6.25036  -0.32556  -0.99855   2.26876
   2   17914.5    558.2   1.101572730  20.24342  -0.08498  -2.21186  -3.91712
   3   21031.6    475.5   0.007406550   0.11594  -0.11845  -0.29835   0.11353
   4   23440.0    426.6   0.141707102   1.99026  -0.07228  -0.50148   1.31665
   5   24291.6    411.7   0.036545748   0.49529   0.16689   0.39248  -0.55982
   6   25184.4    397.1   0.281599552   3.68109  -0.11225  -0.81573   1.73294
   7   25510.9    392.0   0.030497043   0.39356   0.11036  -0.03347  -0.61665
   8   25828.0    387.2   0.044827000   0.57138  -0.11849   0.34295  -0.66312
   9   26410.9    378.6   0.543567718   6.77558  -0.40381  -1.25162   2.24632
  10   27995.9    357.2   0.060844446   0.71549  -0.09345  -0.47262   0.69526
  11   28687.1    348.6   0.349593157   4.01191   0.79315   1.50457  -1.05787
  12   29196.0    342.5   0.053917727   0.60797  -0.20578   0.70557  -0.26038
  13   30238.2    330.7   0.008642544   0.09409   0.27900  -0.08572  -0.09436
  14   30713.7    325.6   0.007172384   0.07688   0.15063  -0.22506  -0.05947
  15   30840.7    324.2   0.103159743   1.10119   0.15475   0.37040   0.96956
  16   30920.3    323.4   0.008557210   0.09111   0.15902   0.11782   0.22791
  17   31020.4    322.4   0.231801220   2.46005   0.39539   0.69031   1.35173
  18   32111.2    311.4   0.097688341   1.00152  -0.29025  -0.50794  -0.81196
  19   32632.5    306.4   0.104973593   1.05902   0.68749   0.76086   0.08639
  20   32949.2    303.5   0.170715486   1.70570   1.09631   0.44203   0.55536
  21   33094.6    302.2   0.434614340   4.32337   1.07347   1.76385  -0.24468
  22   33873.2    295.2   0.093246010   0.90625   0.28887   0.88827   0.18380
  23   34290.4    291.6   0.163120685   1.56607  -0.11640  -1.23847  -0.13682
  24   34369.2    291.0   0.059733187   0.57217  -0.13317  -0.72739  -0.15919
  25   34537.0    289.5   0.012663570   0.12071  -0.21190  -0.25149  -0.11210
  26   34642.8    288.7   0.002645656   0.02514  -0.09929  -0.10886  -0.05859
  27   35010.2    285.6   0.014079081   0.13239  -0.01688  -0.09112  -0.35186
  28   35433.3    282.2   0.084676790   0.78674   0.28991   0.24378   0.80203
  29   35768.9    279.6   0.018170350   0.16724  -0.09927   0.13803   0.37193
  30   35904.3    278.5   0.028152574   0.25814  -0.02270  -0.09438  -0.49871
  31   36440.7    274.4   0.117340710   1.06008   0.48725   0.58110  -0.69641
  32   36537.0    273.7   0.012772511   0.11509  -0.07254   0.00763   0.33131
  33   37208.6    268.8   0.018146989   0.16056   0.04609   0.35195  -0.18591
  34   37523.1    266.5   0.050707871   0.44489   0.18677   0.61128  -0.19064
  35   37772.9    264.7   0.007946328   0.06926  -0.12154  -0.02555   0.23202
  36   38245.9    261.5   0.015452528   0.13301   0.32807   0.14453   0.06702
  37   38355.8    260.7   0.050716330   0.43530  -0.37998  -0.52569   0.12071
  38   38920.3    256.9   0.012732406   0.10770   0.10722   0.29970   0.07990
  39   39198.9    255.1   0.024990243   0.20988   0.29500   0.34026   0.08413
  40   39720.6    251.8   0.049149317   0.40736   0.25550   0.22874  -0.53829
  41   39844.1    251.0   0.121668711   1.00529   0.35010   0.05858  -0.93770

FINAL SINGLE POINT ENERGY     -4257.390908453796

DIPOLE MOMENT
-------------
                                X             Y             Z
Electronic contribution:    -10.72105      19.76795      51.16845
Nuclear contribution   :      8.22028     -24.50208     -55.22880
                        -----------------------------------------
Total Dipole Moment    :     -2.50078      -4.73412      -4.06035
                        -----------------------------------------
Magnitude (a.u.)       :      6.71954
Magnitude (Debye)      :     17.07972

Rotational constants in cm-1:     0.001306     0.000480     0.000370
Rotational constants in MHz :    39.161232    14.398871    11.082365

                             ****ORCA TERMINATED NORMALLY****
TOTAL RUN TIME: 0 days 0 hours 7 minutes 21 seconds 819 msec
