                         Program Version 4.2.0 -  RELEASE  -
|  1> # ORCA input file
|  2> # SCF done       -156.908602732083          0.000772199758
|  3> ! CAM-B3LYP def2-SVP def2/J RIJCOSX Grid4 TightSCF
|  4> %maxcore 5000
|  5> %tddft
|  6>     Mode sTDDFT
|  7>     Ethresh 5.0
|  8>     maxcore 5000
|  9> end
| 10>
| 11> %pal
| 12>   nprocs 6
| 13>   end
| 14> * xyz 0 1
| 15>    O       -0.71457         7.46365        -1.56766
| 16>    C        0.34914         6.63414        -1.36399
| 17>    N        1.02241         6.42795        -2.45586
| 18>    C        0.38989         7.14576        -3.43594
| 19>    C       -0.68485         7.78021        -2.86248
| 20>    C        0.85605         7.16477        -4.81405
| 21>    O        0.33643         7.78192        -5.70830
| 22>    C        0.57183         6.12201        -0.02350
| 23>    C       -0.31632         6.52596         0.95460
| 24>    C       -0.19578         6.09304         2.28305
| 25>    C        0.84819         5.23385         2.60033
| 26>    C        1.77104         4.79766         1.64633
| 27>    C        1.64188         5.24335         0.30316
| 28>    C        2.57515         4.80151        -0.67102
| 29>    C        3.58465         3.96029        -0.34175
| 30>    C        3.75480         3.48712         0.98747
| 31>    C        2.85293         3.90175         1.99515
| 32>    C        3.06078         3.41463         3.29573
| 33>    C        4.09944         2.56303         3.58415
| 34>    C        4.98290         2.15626         2.58388
| 35>    C        4.80954         2.61517         1.30423
| 36>    C       -1.16202         6.56003         3.24719
| 37>    C       -1.18198         6.29455         4.56854
| 38>    C       -2.17343         6.79075         5.45774
| 39>    S       -3.48840         7.79574         4.92318
| 40>    C       -4.13299         7.90635         6.52715
| 41>    C       -3.35590         7.18466         7.43307
| 42>    C       -2.25264         6.56666         6.82497
| 43>    S       -0.97988         5.66725         7.64568
| 44>    C       -1.41849         5.48359         9.34829
| 45>    O       -0.58705         5.01607        10.08177
| 46>    C       -2.77429         5.84700         9.88483
| 47>    O       -3.13189         5.40237        10.94749
| 48>    S       -3.84123         7.02604         9.11042
| 49>    C       -5.29778         8.64653         6.85192
| 50>    O       -5.62021         8.73338         8.15661
| 51>    C       -6.76266         9.45544         8.28805
| 52>    C       -7.18818         9.84936         7.02883
| 53>    C       -6.25509         9.33746         6.11153
| 54>    C       -6.31363         9.50883         4.63790
| 55>    F       -6.35413         8.33668         3.97336
| 56>    F       -7.39761        10.19478         4.25461
| 57>    F       -5.25106        10.17559         4.14269
| 58>    C       -7.28445         9.65400         9.58989
| 59>    C       -6.59984         9.16313        10.66459
| 60>    C       -6.95002         9.17799        12.01858
| 61>    C       -6.12156         8.60382        12.95836
| 62>    C       -6.33888         8.42690        14.34677
| 63>    C       -5.33952         7.75975        14.99019
| 64>    C       -4.26532         7.38712        14.14888
| 65>    S       -4.56778         7.92074        12.51292
| 66>    C       -3.11656         6.68566        14.44418
| 67>    C       -2.73752         6.10145        15.68714
| 68>    C       -1.57084         5.42191        15.64216
| 69>    C       -0.93830         5.42120        14.35234
| 70>    S       -1.91531         6.36776        13.22110
| 71>    C        0.19782         4.81380        13.98545
| 72>    H       -1.43622         8.43169        -3.25887
| 73>    H        1.75587         6.54364        -4.97128
| 74>    H       -1.12438         7.19318         0.69507
| 75>    H        0.93835         4.89494         3.61801
| 76>    H        2.45660         5.15400        -1.68133
| 77>    H        4.28707         3.62981        -1.09335
| 78>    H        2.40271         3.70332         4.09961
| 79>    H        4.23382         2.20451         4.59404
| 80>    H        5.79527         1.48597         2.82199
| 81>    H        5.48467         2.31327         0.51635
| 82>    H       -1.94594         7.19455         2.85047
| 83>    H       -0.42617         5.67710         5.03341
| 84>    H       -8.05568        10.42986         6.79260
| 85>    H       -8.21802        10.18460         9.68580
| 86>    H       -5.66021         8.67325        10.44210
| 87>    H       -7.88688         9.61094        12.33901
| 88>    H       -7.23612         8.78196        14.82296
| 89>    H       -5.34621         7.52623        16.04021
| 90>    H       -3.35483         6.19805        16.56298
| 91>    H       -1.12803         4.90001        16.47214
| 92>    H        0.77382         4.24332        14.69345
| 93>    H        0.55583         4.86519        12.97296
| 94> *
| 95>
| 96>                          ****END OF INPUT****

CARTESIAN COORDINATES (ANGSTROEM)
---------------------------------
  O     -0.714570    7.463650   -1.567660
  C      0.349140    6.634140   -1.363990
  N      1.022410    6.427950   -2.455860
  C      0.389890    7.145760   -3.435940
  C     -0.684850    7.780210   -2.862480
  C      0.856050    7.164770   -4.814050
  O      0.336430    7.781920   -5.708300
  C      0.571830    6.122010   -0.023500
  C     -0.316320    6.525960    0.954600
  C     -0.195780    6.093040    2.283050
  C      0.848190    5.233850    2.600330
  C      1.771040    4.797660    1.646330
  C      1.641880    5.243350    0.303160
  C      2.575150    4.801510   -0.671020
  C      3.584650    3.960290   -0.341750
  C      3.754800    3.487120    0.987470
  C      2.852930    3.901750    1.995150
  C      3.060780    3.414630    3.295730
  C      4.099440    2.563030    3.584150
  C      4.982900    2.156260    2.583880
  C      4.809540    2.615170    1.304230
  C     -1.162020    6.560030    3.247190
  C     -1.181980    6.294550    4.568540
  C     -2.173430    6.790750    5.457740
  S     -3.488400    7.795740    4.923180
  C     -4.132990    7.906350    6.527150
  C     -3.355900    7.184660    7.433070
  C     -2.252640    6.566660    6.824970
  S     -0.979880    5.667250    7.645680
  C     -1.418490    5.483590    9.348290
  O     -0.587050    5.016070   10.081770
  C     -2.774290    5.847000    9.884830
  O     -3.131890    5.402370   10.947490
  S     -3.841230    7.026040    9.110420
  C     -5.297780    8.646530    6.851920
  O     -5.620210    8.733380    8.156610
  C     -6.762660    9.455440    8.288050
  C     -7.188180    9.849360    7.028830
  C     -6.255090    9.337460    6.111530
  C     -6.313630    9.508830    4.637900
  F     -6.354130    8.336680    3.973360
  F     -7.397610   10.194780    4.254610
  F     -5.251060   10.175590    4.142690
  C     -7.284450    9.654000    9.589890
  C     -6.599840    9.163130   10.664590
  C     -6.950020    9.177990   12.018580
  C     -6.121560    8.603820   12.958360
  C     -6.338880    8.426900   14.346770
  C     -5.339520    7.759750   14.990190
  C     -4.265320    7.387120   14.148880
  S     -4.567780    7.920740   12.512920
  C     -3.116560    6.685660   14.444180
  C     -2.737520    6.101450   15.687140
  C     -1.570840    5.421910   15.642160
  C     -0.938300    5.421200   14.352340
  S     -1.915310    6.367760   13.221100
  C      0.197820    4.813800   13.985450
  H     -1.436220    8.431690   -3.258870
  H      1.755870    6.543640   -4.971280
  H     -1.124380    7.193180    0.695070
  H      0.938350    4.894940    3.618010
  H      2.456600    5.154000   -1.681330
  H      4.287070    3.629810   -1.093350
  H      2.402710    3.703320    4.099610
  H      4.233820    2.204510    4.594040
  H      5.795270    1.485970    2.821990
  H      5.484670    2.313270    0.516350
  H     -1.945940    7.194550    2.850470
  H     -0.426170    5.677100    5.033410
  H     -8.055680   10.429860    6.792600
  H     -8.218020   10.184600    9.685800
  H     -5.660210    8.673250   10.442100
  H     -7.886880    9.610940   12.339010
  H     -7.236120    8.781960   14.822960
  H     -5.346210    7.526230   16.040210
  H     -3.354830    6.198050   16.562980
  H     -1.128030    4.900010   16.472140
  H      0.773820    4.243320   14.693450
  H      0.555830    4.865190   12.972960

 Total Charge           Charge          ....    0
 Multiplicity           Mult            ....    1
 Number of Electrons    NEL             ....  434
 Basis Dimension        Dim             ....  928

ORBITAL ENERGIES
----------------

  NO   OCC          E(Eh)            E(eV)
   0   2.0000     -88.973979     -2421.1051
   1   2.0000     -88.968223     -2420.9484
   2   2.0000     -88.964453     -2420.8458
   3   2.0000     -88.936895     -2420.0959
   4   2.0000     -88.932946     -2419.9885
   5   2.0000     -24.800277      -674.8498
   6   2.0000     -24.795796      -674.7279
   7   2.0000     -24.795517      -674.7203
   8   2.0000     -19.317684      -525.6609
   9   2.0000     -19.302666      -525.2522
  10   2.0000     -19.239230      -523.5261
  11   2.0000     -19.235660      -523.4289
  12   2.0000     -19.211780      -522.7791
  13   2.0000     -14.418805      -392.3556
  14   2.0000     -10.520430      -286.2755
  15   2.0000     -10.403208      -283.0857
  16   2.0000     -10.394924      -282.8603
  17   2.0000     -10.375675      -282.3365
  18   2.0000     -10.357192      -281.8335
  19   2.0000     -10.356560      -281.8163
  20   2.0000     -10.350747      -281.6581
  21   2.0000     -10.340153      -281.3699
  22   2.0000     -10.328901      -281.0637
  23   2.0000     -10.328151      -281.0433
  24   2.0000     -10.326845      -281.0077
  25   2.0000     -10.321611      -280.8653
  26   2.0000     -10.308839      -280.5178
  27   2.0000     -10.306582      -280.4564
  28   2.0000     -10.305319      -280.4220
  29   2.0000     -10.301314      -280.3130
  30   2.0000     -10.301067      -280.3063
  31   2.0000     -10.298123      -280.2262
  32   2.0000     -10.296931      -280.1937
  33   2.0000     -10.293280      -280.0944
  34   2.0000     -10.289390      -279.9885
  35   2.0000     -10.289021      -279.9785
  36   2.0000     -10.287910      -279.9483
  37   2.0000     -10.287302      -279.9317
  38   2.0000     -10.287233      -279.9299
  39   2.0000     -10.286387      -279.9068
  40   2.0000     -10.283795      -279.8363
  41   2.0000     -10.283590      -279.8307
  42   2.0000     -10.283585      -279.8306
  43   2.0000     -10.281815      -279.7824
  44   2.0000     -10.280585      -279.7489
  45   2.0000     -10.279081      -279.7080
  46   2.0000     -10.275804      -279.6188
  47   2.0000     -10.275421      -279.6084
  48   2.0000     -10.275067      -279.5988
  49   2.0000     -10.271241      -279.4947
  50   2.0000     -10.269797      -279.4554
  51   2.0000     -10.269710      -279.4530
  52   2.0000     -10.269451      -279.4460
  53   2.0000     -10.269316      -279.4423
  54   2.0000     -10.268851      -279.4296
  55   2.0000     -10.267668      -279.3974
  56   2.0000     -10.259429      -279.1733
  57   2.0000      -8.068895      -219.5658
  58   2.0000      -8.064626      -219.4496
  59   2.0000      -8.059689      -219.3153
  60   2.0000      -8.033131      -218.5926
  61   2.0000      -8.029386      -218.4907
  62   2.0000      -6.038349      -164.3118
  63   2.0000      -6.034485      -164.2067
  64   2.0000      -6.034258      -164.2005
  65   2.0000      -6.030543      -164.0994
  66   2.0000      -6.029935      -164.0829
  67   2.0000      -6.029687      -164.0761
  68   2.0000      -6.025516      -163.9626
  69   2.0000      -6.024907      -163.9461
  70   2.0000      -6.020537      -163.8272
  71   2.0000      -6.002846      -163.3457
  72   2.0000      -5.999155      -163.2453
  73   2.0000      -5.998854      -163.2371
  74   2.0000      -5.995086      -163.1346
  75   2.0000      -5.994018      -163.1055
  76   2.0000      -5.990066      -162.9980
  77   2.0000      -1.387156       -37.7464
  78   2.0000      -1.291130       -35.1334
  79   2.0000      -1.286179       -34.9987
  80   2.0000      -1.247290       -33.9405
  81   2.0000      -1.225431       -33.3457
  82   2.0000      -1.172976       -31.9183
  83   2.0000      -1.140237       -31.0274
  84   2.0000      -1.125103       -30.6156
  85   2.0000      -1.027439       -27.9580
  86   2.0000      -1.018070       -27.7031
  87   2.0000      -0.989387       -26.9226
  88   2.0000      -0.983715       -26.7682
  89   2.0000      -0.966170       -26.2908
  90   2.0000      -0.953733       -25.9524
  91   2.0000      -0.936397       -25.4806
  92   2.0000      -0.933372       -25.3983
  93   2.0000      -0.922306       -25.0972
  94   2.0000      -0.914230       -24.8775
  95   2.0000      -0.905968       -24.6526
  96   2.0000      -0.902691       -24.5635
  97   2.0000      -0.882582       -24.0163
  98   2.0000      -0.880036       -23.9470
  99   2.0000      -0.862821       -23.4786
 100   2.0000      -0.858603       -23.3638
 101   2.0000      -0.844857       -22.9897
 102   2.0000      -0.842078       -22.9141
 103   2.0000      -0.835048       -22.7228
 104   2.0000      -0.827426       -22.5154
 105   2.0000      -0.817302       -22.2399
 106   2.0000      -0.815370       -22.1874
 107   2.0000      -0.811161       -22.0728
 108   2.0000      -0.802646       -21.8411
 109   2.0000      -0.786835       -21.4109
 110   2.0000      -0.771672       -20.9983
 111   2.0000      -0.767487       -20.8844
 112   2.0000      -0.748534       -20.3686
 113   2.0000      -0.743941       -20.2437
 114   2.0000      -0.735315       -20.0089
 115   2.0000      -0.725125       -19.7317
 116   2.0000      -0.716079       -19.4855
 117   2.0000      -0.709734       -19.3129
 118   2.0000      -0.700383       -19.0584
 119   2.0000      -0.699718       -19.0403
 120   2.0000      -0.691222       -18.8091
 121   2.0000      -0.686479       -18.6800
 122   2.0000      -0.683490       -18.5987
 123   2.0000      -0.669616       -18.2212
 124   2.0000      -0.668876       -18.2010
 125   2.0000      -0.667594       -18.1661
 126   2.0000      -0.656380       -17.8610
 127   2.0000      -0.649880       -17.6841
 128   2.0000      -0.633013       -17.2252
 129   2.0000      -0.631631       -17.1876
 130   2.0000      -0.627109       -17.0645
 131   2.0000      -0.622181       -16.9304
 132   2.0000      -0.616910       -16.7870
 133   2.0000      -0.612643       -16.6709
 134   2.0000      -0.607673       -16.5356
 135   2.0000      -0.601111       -16.3571
 136   2.0000      -0.594284       -16.1713
 137   2.0000      -0.591874       -16.1057
 138   2.0000      -0.588273       -16.0077
 139   2.0000      -0.586110       -15.9489
 140   2.0000      -0.583191       -15.8694
 141   2.0000      -0.580490       -15.7959
 142   2.0000      -0.574314       -15.6279
 143   2.0000      -0.563499       -15.3336
 144   2.0000      -0.561362       -15.2754
 145   2.0000      -0.559463       -15.2238
 146   2.0000      -0.553719       -15.0674
 147   2.0000      -0.549341       -14.9483
 148   2.0000      -0.548901       -14.9364
 149   2.0000      -0.545868       -14.8538
 150   2.0000      -0.544274       -14.8105
 151   2.0000      -0.541058       -14.7229
 152   2.0000      -0.535376       -14.5683
 153   2.0000      -0.529039       -14.3959
 154   2.0000      -0.523955       -14.2575
 155   2.0000      -0.517759       -14.0889
 156   2.0000      -0.513409       -13.9706
 157   2.0000      -0.512272       -13.9396
 158   2.0000      -0.509549       -13.8655
 159   2.0000      -0.507853       -13.8194
 160   2.0000      -0.507166       -13.8007
 161   2.0000      -0.505713       -13.7612
 162   2.0000      -0.504496       -13.7280
 163   2.0000      -0.503844       -13.7103
 164   2.0000      -0.502832       -13.6827
 165   2.0000      -0.498038       -13.5523
 166   2.0000      -0.496709       -13.5161
 167   2.0000      -0.494048       -13.4437
 168   2.0000      -0.490834       -13.3563
 169   2.0000      -0.486990       -13.2517
 170   2.0000      -0.485739       -13.2176
 171   2.0000      -0.483708       -13.1624
 172   2.0000      -0.483414       -13.1544
 173   2.0000      -0.480407       -13.0725
 174   2.0000      -0.478970       -13.0334
 175   2.0000      -0.478106       -13.0099
 176   2.0000      -0.472532       -12.8582
 177   2.0000      -0.468279       -12.7425
 178   2.0000      -0.461231       -12.5507
 179   2.0000      -0.459132       -12.4936
 180   2.0000      -0.458198       -12.4682
 181   2.0000      -0.455161       -12.3856
 182   2.0000      -0.450907       -12.2698
 183   2.0000      -0.448087       -12.1931
 184   2.0000      -0.446408       -12.1474
 185   2.0000      -0.441848       -12.0233
 186   2.0000      -0.431183       -11.7331
 187   2.0000      -0.426533       -11.6066
 188   2.0000      -0.422879       -11.5071
 189   2.0000      -0.420248       -11.4355
 190   2.0000      -0.417128       -11.3506
 191   2.0000      -0.414373       -11.2757
 192   2.0000      -0.412238       -11.2176
 193   2.0000      -0.408286       -11.1100
 194   2.0000      -0.405418       -11.0320
 195   2.0000      -0.400105       -10.8874
 196   2.0000      -0.396731       -10.7956
 197   2.0000      -0.392068       -10.6687
 198   2.0000      -0.383900       -10.4464
 199   2.0000      -0.380216       -10.3462
 200   2.0000      -0.376189       -10.2366
 201   2.0000      -0.370188       -10.0733
 202   2.0000      -0.367594       -10.0028
 203   2.0000      -0.366584        -9.9753
 204   2.0000      -0.344487        -9.3740
 205   2.0000      -0.335916        -9.1407
 206   2.0000      -0.333207        -9.0670
 207   2.0000      -0.331210        -9.0127
 208   2.0000      -0.329772        -8.9736
 209   2.0000      -0.317538        -8.6406
 210   2.0000      -0.312360        -8.4997
 211   2.0000      -0.299925        -8.1614
 212   2.0000      -0.295412        -8.0386
 213   2.0000      -0.288443        -7.8489
 214   2.0000      -0.271241        -7.3808
 215   2.0000      -0.247214        -6.7270
 216   2.0000      -0.208111        -5.6630
 217   0.0000      -0.076600        -2.0844
 218   0.0000      -0.060099        -1.6354
 219   0.0000      -0.049305        -1.3417
 220   0.0000      -0.030620        -0.8332
 221   0.0000      -0.017796        -0.4842

MULLIKEN ATOMIC CHARGES
-----------------------
   0 O :   -0.173918
   1 C :    0.069351
   2 N :   -0.078821
   3 C :   -0.040033
   4 C :    0.135664
   5 C :    0.165435
   6 O :   -0.176819
   7 C :    0.082387
   8 C :   -0.113220
   9 C :    0.164289
  10 C :   -0.100296
  11 C :    0.129799
  12 C :    0.022764
  13 C :   -0.011928
  14 C :   -0.002747
  15 C :    0.061812
  16 C :    0.086787
  17 C :   -0.043319
  18 C :    0.031012
  19 C :    0.033257
  20 C :   -0.022550
  21 C :   -0.021978
  22 C :    0.007887
  23 C :   -0.071048
  24 S :    0.157066
  25 C :   -0.162704
  26 C :    0.005823
  27 C :   -0.049026
  28 S :    0.067844
  29 C :    0.086855
  30 O :   -0.147960
  31 C :    0.091309
  32 O :   -0.139114
  33 S :    0.101201
  34 C :    0.164247
  35 O :   -0.229552
  36 C :    0.208042
  37 C :   -0.070191
  38 C :   -0.149194
  39 C :    0.524645
  40 F :   -0.166711
  41 F :   -0.152198
  42 F :   -0.168964
  43 C :   -0.037718
  44 C :    0.015450
  45 C :   -0.001764
  46 C :   -0.015516
  47 C :    0.026109
  48 C :    0.036487
  49 C :   -0.047777
  50 S :    0.053048
  51 C :   -0.053530
  52 C :    0.024534
  53 C :    0.060090
  54 C :   -0.074120
  55 S :    0.121357
  56 C :   -0.018953
  57 H :    0.035919
  58 H :   -0.011944
  59 H :   -0.012054
  60 H :   -0.047438
  61 H :   -0.015803
  62 H :   -0.029188
  63 H :   -0.035050
  64 H :   -0.016522
  65 H :   -0.014180
  66 H :   -0.027066
  67 H :   -0.010022
  68 H :    0.005297
  69 H :   -0.007422
  70 H :   -0.015856
  71 H :    0.028245
  72 H :   -0.023018
  73 H :   -0.015115
  74 H :   -0.013753
  75 H :   -0.012339
  76 H :   -0.011501
  77 H :    0.019575
  78 H :    0.036354
Sum of atomic charges:    0.0000000

LOEWDIN ATOMIC CHARGES
----------------------
   0 O :    0.029690
   1 C :    0.068331
   2 N :   -0.089158
   3 C :   -0.107632
   4 C :    0.075245
   5 C :    0.103319
   6 O :   -0.133021
   7 C :   -0.045605
   8 C :    0.002514
   9 C :   -0.032721
  10 C :    0.010706
  11 C :   -0.003506
  12 C :    0.002391
  13 C :   -0.021157
  14 C :   -0.005470
  15 C :   -0.017267
  16 C :   -0.009844
  17 C :   -0.016309
  18 C :   -0.021465
  19 C :   -0.022149
  20 C :   -0.013764
  21 C :   -0.010491
  22 C :   -0.047619
  23 C :   -0.180839
  24 S :    0.476415
  25 C :   -0.206461
  26 C :   -0.214403
  27 C :   -0.218853
  28 S :    0.380507
  29 C :   -0.108002
  30 O :   -0.120619
  31 C :   -0.123239
  32 O :   -0.111403
  33 S :    0.415666
  34 C :    0.021480
  35 O :    0.013473
  36 C :    0.049971
  37 C :   -0.052636
  38 C :   -0.125143
  39 C :    0.163306
  40 F :   -0.068173
  41 F :   -0.052819
  42 F :   -0.069569
  43 C :   -0.064947
  44 C :   -0.012829
  45 C :   -0.077272
  46 C :   -0.125397
  47 C :   -0.046821
  48 C :   -0.021024
  49 C :   -0.191631
  50 S :    0.380967
  51 C :   -0.165641
  52 C :   -0.030444
  53 C :   -0.023443
  54 C :   -0.143256
  55 S :    0.404964
  56 C :   -0.057883
  57 H :    0.036836
  58 H :    0.001331
  59 H :    0.029202
  60 H :    0.024355
  61 H :    0.026961
  62 H :    0.029101
  63 H :    0.024704
  64 H :    0.028915
  65 H :    0.029117
  66 H :    0.027868
  67 H :    0.023826
  68 H :    0.026020
  69 H :    0.036293
  70 H :    0.034107
  71 H :    0.013387
  72 H :    0.029250
  73 H :    0.032224
  74 H :    0.031578
  75 H :    0.031926
  76 H :    0.033463
  77 H :    0.028532
  78 H :    0.031984

  Mayer bond orders larger than 0.100000
B(  0-O ,  1-C ) :   1.1744 B(  0-O ,  4-C ) :   1.1674 B(  1-C ,  2-N ) :   1.7214
B(  1-C ,  7-C ) :   0.9915 B(  2-N ,  3-C ) :   1.2853 B(  3-C ,  4-C ) :   1.5140
B(  3-C ,  5-C ) :   0.9700 B(  4-C , 57-H ) :   0.9915 B(  5-C ,  6-O ) :   2.2039
B(  5-C , 58-H ) :   0.9522 B(  7-C ,  8-C ) :   1.4072 B(  7-C , 12-C ) :   1.2674
B(  8-C ,  9-C ) :   1.2357 B(  8-C , 59-H ) :   0.9987 B(  9-C , 10-C ) :   1.3793
B(  9-C , 21-C ) :   1.0662 B( 10-C , 11-C ) :   1.3179 B( 10-C , 60-H ) :   0.9871
B( 11-C , 12-C ) :   1.2660 B( 11-C , 16-C ) :   1.0866 B( 12-C , 13-C ) :   1.1924
B( 13-C , 14-C ) :   1.5479 B( 13-C , 61-H ) :   0.9612 B( 14-C , 15-C ) :   1.1426
B( 14-C , 62-H ) :   0.9952 B( 15-C , 16-C ) :   1.3062 B( 15-C , 20-C ) :   1.2778
B( 16-C , 17-C ) :   1.3066 B( 17-C , 18-C ) :   1.4674 B( 17-C , 63-H ) :   0.9853
B( 18-C , 19-C ) :   1.2992 B( 18-C , 64-H ) :   0.9835 B( 19-C , 20-C ) :   1.4537
B( 19-C , 65-H ) :   0.9903 B( 20-C , 66-H ) :   0.9965 B( 21-C , 22-C ) :   1.6844
B( 21-C , 67-H ) :   0.9829 B( 22-C , 23-C ) :   1.1551 B( 22-C , 68-H ) :   0.9551
B( 23-C , 24-S ) :   1.1047 B( 23-C , 25-C ) :   0.1195 B( 23-C , 27-C ) :   1.5525
B( 24-S , 25-C ) :   1.1398 B( 25-C , 26-C ) :   1.5295 B( 25-C , 34-C ) :   1.1415
B( 26-C , 27-C ) :   1.2969 B( 26-C , 33-S ) :   0.9833 B( 27-C , 28-S ) :   0.9638
B( 28-S , 29-C ) :   1.0557 B( 28-S , 30-O ) :   0.1377 B( 29-C , 30-O ) :   2.1341
B( 29-C , 31-C ) :   0.7852 B( 31-C , 32-O ) :   2.0966 B( 31-C , 33-S ) :   1.0433
B( 32-O , 33-S ) :   0.1318 B( 34-C , 35-O ) :   1.1504 B( 34-C , 38-C ) :   1.4561
B( 35-O , 36-C ) :   1.1014 B( 36-C , 37-C ) :   1.3953 B( 36-C , 43-C ) :   1.1628
B( 37-C , 38-C ) :   1.2600 B( 37-C , 69-H ) :   1.0205 B( 38-C , 39-C ) :   0.9515
B( 39-C , 40-F ) :   1.1687 B( 39-C , 41-F ) :   1.1856 B( 39-C , 42-F ) :   1.1626
B( 43-C , 44-C ) :   1.5976 B( 43-C , 70-H ) :   0.9764 B( 44-C , 45-C ) :   1.1788
B( 44-C , 71-H ) :   0.9633 B( 45-C , 46-C ) :   1.5336 B( 45-C , 72-H ) :   0.9860
B( 46-C , 47-C ) :   1.1496 B( 46-C , 50-S ) :   1.0595 B( 47-C , 48-C ) :   1.5858
B( 47-C , 73-H ) :   0.9981 B( 48-C , 49-C ) :   1.1894 B( 48-C , 74-H ) :   0.9928
B( 49-C , 50-S ) :   1.0400 B( 49-C , 51-C ) :   1.5228 B( 51-C , 52-C ) :   1.1510
B( 51-C , 55-S ) :   1.0803 B( 52-C , 53-C ) :   1.6627 B( 52-C , 75-H ) :   0.9916
B( 53-C , 54-C ) :   1.0779 B( 53-C , 76-H ) :   0.9923 B( 54-C , 55-S ) :   1.0230
B( 54-C , 56-C ) :   1.8628 B( 56-C , 77-H ) :   0.9515 B( 56-C , 78-H ) :   0.9361

-----------------------------------------------------------------------------
         ABSORPTION SPECTRUM VIA TRANSITION ELECTRIC DIPOLE MOMENTS
-----------------------------------------------------------------------------
State   Energy  Wavelength   fosc         T2         TX        TY        TZ
        (cm-1)    (nm)                  (au**2)     (au)      (au)      (au)
-----------------------------------------------------------------------------
   0   14408.2    694.0   0.599874069  13.70648   0.31611  -0.34960   3.67210
   1   15824.1    631.9   0.119405953   2.48417   0.99896  -0.76659   0.94794
   2   21023.9    475.6   0.361832808   5.66591   2.01965  -1.19032   0.41236
   3   23078.8    433.3   1.415390775  20.19008   3.69258  -2.08668  -1.48347
   4   24454.5    408.9   0.062859926   0.84623   0.31604  -0.09068  -0.85915
   5   27041.3    369.8   0.306174244   3.72749   1.45456  -0.83931  -0.95252
   6   27565.7    362.8   0.001494794   0.01785   0.04949   0.01712   0.12292
   7   28875.1    346.3   0.081433974   0.92845  -0.68958   0.55457  -0.38129
   8   29371.9    340.5   0.008832644   0.09900  -0.22449   0.15031   0.16128
   9   29421.7    339.9   0.006856680   0.07672  -0.19711   0.05560   0.18650
  10   30328.7    329.7   0.006742253   0.07319   0.14096   0.01027  -0.23067
  11   31378.8    318.7   0.009859355   0.10344  -0.13366   0.23069  -0.17988
  12   31746.3    315.0   0.303302179   3.14527   0.16545  -0.54158   1.68065
  13   31928.7    313.2   0.159241423   1.64191  -0.45680   0.47931  -1.09704
  14   32753.6    305.3   0.035297689   0.35478   0.02882  -0.25338   0.53829
  15   33596.6    297.6   0.004373702   0.04286  -0.10859   0.17280   0.03474
  16   34337.4    291.2   0.079266616   0.75997   0.35052  -0.44190   0.66471
  17   34415.7    290.6   0.055560759   0.53148  -0.20357   0.36705  -0.59608
  18   34454.7    290.2   0.000190540   0.00182   0.02298  -0.02238   0.02814
  19   34520.5    289.7   0.002203689   0.02102  -0.05081   0.01075   0.13535
  20   34763.0    287.7   0.024038206   0.22765   0.18292  -0.08774  -0.43184
  21   35185.2    284.2   0.055032307   0.51491   0.37718  -0.19575  -0.57822
  22   36122.0    276.8   0.091444729   0.83342  -0.17409  -0.05242   0.89463
  23   36368.5    275.0   0.035613992   0.32238  -0.21954   0.33753  -0.40032
  24   36552.9    273.6   0.197101442   1.77518   0.21709  -0.43117   1.24183
  25   37132.5    269.3   0.249092655   2.20842   0.86506  -0.74030   0.95501
  26   37534.0    266.4   0.058300561   0.51136  -0.17881  -0.04282   0.69105
  27   37929.9    263.6   0.039381889   0.34181   0.05751   0.10087  -0.57300
  28   38310.8    261.0   0.064159457   0.55133   0.43719  -0.17864  -0.57296
  29   38539.7    259.5   0.002198410   0.01878   0.10661  -0.05842  -0.06325
  30   38740.4    258.1   0.018983028   0.16132   0.23174  -0.12598  -0.30289
  31   38945.8    256.8   0.147641922   1.24803  -0.36200   0.00759   1.05685
  32   39176.4    255.3   0.073691568   0.61925  -0.37477   0.40195  -0.56324
  33   39260.6    254.7   0.017207941   0.14429  -0.26056   0.24624  -0.12557
  34   39520.4    253.0   0.373694683   3.11294   0.27693   0.17262  -1.73391
  35   40126.8    249.2   0.038758348   0.31799  -0.41046   0.32479  -0.20980

FINAL SINGLE POINT ENERGY     -4369.614918743519

DIPOLE MOMENT
-------------
                                X             Y             Z
Electronic contribution:    -33.97583      22.09236      -9.55179
Nuclear contribution   :     33.81677     -22.31962      11.57050
                        -----------------------------------------
Total Dipole Moment    :     -0.15906      -0.22726       2.01871
                        -----------------------------------------
Magnitude (a.u.)       :      2.03768
Magnitude (Debye)      :      5.17937

Rotational constants in cm-1:     0.001888     0.000556     0.000433
Rotational constants in MHz :    56.614787    16.656526    12.966208

                             ****ORCA TERMINATED NORMALLY****
TOTAL RUN TIME: 0 days 0 hours 6 minutes 9 seconds 802 msec
