                         Program Version 4.2.0 -  RELEASE  -
|  1> # ORCA input file
|  2> # SCF done       -158.186413612409          0.000513849199
|  3> ! CAM-B3LYP def2-SVP def2/J RIJCOSX Grid4 TightSCF
|  4> %maxcore 5000
|  5> %tddft
|  6>     Mode sTDDFT
|  7>     Ethresh 5.0
|  8>     maxcore 5000
|  9> end
| 10>
| 11> %pal
| 12>   nprocs 6
| 13>   end
| 14> * xyz 0 1
| 15>    C       -9.97922       -21.28498         3.35591
| 16>    S       -8.93866       -19.93040         3.29053
| 17>    C       -8.15551       -20.49584         1.84583
| 18>    C       -8.70976       -21.71916         1.43762
| 19>    C       -9.75728       -22.15859         2.31785
| 20>    C      -10.43294       -23.38682         2.05480
| 21>    C      -11.45832       -23.81220         2.92315
| 22>    N      -12.28942       -24.15651         3.63521
| 23>    C      -10.07516       -24.14039         0.95801
| 24>    C       -9.05671       -23.71609         0.09923
| 25>    C       -8.37668       -22.53040         0.32113
| 26>    C       -7.35998       -22.16472        -0.58336
| 27>    N       -6.53254       -21.87151        -1.32535
| 28>    C       -7.11336       -19.78899         1.21608
| 29>    C       -6.56811       -18.60822         1.61263
| 30>    C       -5.51584       -17.98260         0.91892
| 31>    S       -4.87117       -16.45950         1.52460
| 32>    C       -3.66296       -16.30669         0.25494
| 33>    C       -3.79757       -17.40852        -0.58011
| 34>    C       -4.80912       -18.33153        -0.22549
| 35>    N       -4.77517       -19.33306        -1.16516
| 36>    C       -3.79068       -19.06757        -2.07973
| 37>    S       -3.38399       -19.97906        -3.37564
| 38>    N       -3.19668       -17.88760        -1.71400
| 39>    C       -2.74069       -15.25343         0.15701
| 40>    C       -2.55998       -14.11192         0.96379
| 41>    C       -1.48164       -13.28914         0.52307
| 42>    C       -1.16183       -12.11867         1.23338
| 43>    C       -1.88985       -11.78156         2.34102
| 44>    C       -2.95657       -12.58741         2.77252
| 45>    C       -3.29310       -13.73160         2.10227
| 46>    C       -0.82502       -13.78958        -0.62036
| 47>    S       -1.56494       -15.27657        -1.13175
| 48>    C        0.30184       -13.25066        -1.25321
| 49>    C        0.92074       -13.77412        -2.35421
| 50>    C        2.13500       -13.31519        -2.92033
| 51>    C        3.13179       -12.63848        -2.23848
| 52>    O        4.21778       -12.07820        -2.88002
| 53>    C        4.32032       -12.35847        -4.20889
| 54>    C        3.35676       -13.15950        -4.88898
| 55>    C        3.65797       -13.34390        -6.19824
| 56>    S        5.12279       -12.53907        -6.62285
| 57>    C        5.33057       -11.95013        -5.01627
| 58>    O        2.25193       -13.64603        -4.26115
| 59>    C        3.16069       -12.53972        -0.82283
| 60>    C        3.99440       -11.71174        -0.13506
| 61>    C        4.09229       -11.55378         1.26384
| 62>    S        5.35755       -10.50256         1.82698
| 63>    C        4.92069       -10.67883         3.48806
| 64>    C        3.84123       -11.55909         3.61531
| 65>    C        3.35722       -12.04740         2.35930
| 66>    C        2.24341       -12.91239         2.36820
| 67>    C        1.66006       -13.31447         3.53565
| 68>    C        0.48286       -14.23439         3.55368
| 69>    C        2.19489       -12.87279         4.78340
| 70>    O        1.56308       -13.37391         5.87991
| 71>    C        2.03602       -13.01087         7.15278
| 72>    C        3.26188       -12.01588         4.81872
| 73>    C        5.67024        -9.93224         4.45811
| 74>    C        5.25451        -9.52289         5.65712
| 75>    H      -10.69807       -21.37611         4.14515
| 76>    H      -10.58627       -25.07017         0.75821
| 77>    H       -8.79343       -24.32325        -0.75375
| 78>    H       -6.71615       -20.24857         0.33023
| 79>    H       -6.93558       -18.10726         2.49778
| 80>    H       -5.34692       -20.16770        -1.24034
| 81>    H       -2.43999       -17.47110        -2.22942
| 82>    H       -0.34494       -11.49465         0.90591
| 83>    H       -1.64680       -10.88619         2.89289
| 84>    H       -3.51687       -12.29539         3.64784
| 85>    H       -4.11400       -14.34088         2.44249
| 86>    H        0.68299       -12.33572        -0.82358
| 87>    H        0.43200       -14.56787        -2.90456
| 88>    H        3.10940       -13.89978        -6.92911
| 89>    H        6.17508       -11.34528        -4.76085
| 90>    H        2.50688       -13.21616        -0.30503
| 91>    H        4.65983       -11.08361        -0.71392
| 92>    H        1.82994       -13.27858         1.44465
| 93>    H        0.23496       -14.57094         2.55075
| 94>    H       -0.38284       -13.72609         3.97651
| 95>    H        0.69301       -15.09675         4.18361
| 96>    H        1.39469       -13.52856         7.86435
| 97>    H        1.95961       -11.93097         7.31686
| 98>    H        3.07312       -13.32793         7.30286
| 99>    H        3.69602       -11.70041         5.75101
|100>    H        6.66084        -9.64484         4.12536
|101>    H        4.25877        -9.70115         6.02114
|102>    H        5.90525        -8.95869         6.30195
|103> *
|104>
|105>                          ****END OF INPUT****

CARTESIAN COORDINATES (ANGSTROEM)
---------------------------------
  C     -9.979220  -21.284980    3.355910
  S     -8.938660  -19.930400    3.290530
  C     -8.155510  -20.495840    1.845830
  C     -8.709760  -21.719160    1.437620
  C     -9.757280  -22.158590    2.317850
  C    -10.432940  -23.386820    2.054800
  C    -11.458320  -23.812200    2.923150
  N    -12.289420  -24.156510    3.635210
  C    -10.075160  -24.140390    0.958010
  C     -9.056710  -23.716090    0.099230
  C     -8.376680  -22.530400    0.321130
  C     -7.359980  -22.164720   -0.583360
  N     -6.532540  -21.871510   -1.325350
  C     -7.113360  -19.788990    1.216080
  C     -6.568110  -18.608220    1.612630
  C     -5.515840  -17.982600    0.918920
  S     -4.871170  -16.459500    1.524600
  C     -3.662960  -16.306690    0.254940
  C     -3.797570  -17.408520   -0.580110
  C     -4.809120  -18.331530   -0.225490
  N     -4.775170  -19.333060   -1.165160
  C     -3.790680  -19.067570   -2.079730
  S     -3.383990  -19.979060   -3.375640
  N     -3.196680  -17.887600   -1.714000
  C     -2.740690  -15.253430    0.157010
  C     -2.559980  -14.111920    0.963790
  C     -1.481640  -13.289140    0.523070
  C     -1.161830  -12.118670    1.233380
  C     -1.889850  -11.781560    2.341020
  C     -2.956570  -12.587410    2.772520
  C     -3.293100  -13.731600    2.102270
  C     -0.825020  -13.789580   -0.620360
  S     -1.564940  -15.276570   -1.131750
  C      0.301840  -13.250660   -1.253210
  C      0.920740  -13.774120   -2.354210
  C      2.135000  -13.315190   -2.920330
  C      3.131790  -12.638480   -2.238480
  O      4.217780  -12.078200   -2.880020
  C      4.320320  -12.358470   -4.208890
  C      3.356760  -13.159500   -4.888980
  C      3.657970  -13.343900   -6.198240
  S      5.122790  -12.539070   -6.622850
  C      5.330570  -11.950130   -5.016270
  O      2.251930  -13.646030   -4.261150
  C      3.160690  -12.539720   -0.822830
  C      3.994400  -11.711740   -0.135060
  C      4.092290  -11.553780    1.263840
  S      5.357550  -10.502560    1.826980
  C      4.920690  -10.678830    3.488060
  C      3.841230  -11.559090    3.615310
  C      3.357220  -12.047400    2.359300
  C      2.243410  -12.912390    2.368200
  C      1.660060  -13.314470    3.535650
  C      0.482860  -14.234390    3.553680
  C      2.194890  -12.872790    4.783400
  O      1.563080  -13.373910    5.879910
  C      2.036020  -13.010870    7.152780
  C      3.261880  -12.015880    4.818720
  C      5.670240   -9.932240    4.458110
  C      5.254510   -9.522890    5.657120
  H    -10.698070  -21.376110    4.145150
  H    -10.586270  -25.070170    0.758210
  H     -8.793430  -24.323250   -0.753750
  H     -6.716150  -20.248570    0.330230
  H     -6.935580  -18.107260    2.497780
  H     -5.346920  -20.167700   -1.240340
  H     -2.439990  -17.471100   -2.229420
  H     -0.344940  -11.494650    0.905910
  H     -1.646800  -10.886190    2.892890
  H     -3.516870  -12.295390    3.647840
  H     -4.114000  -14.340880    2.442490
  H      0.682990  -12.335720   -0.823580
  H      0.432000  -14.567870   -2.904560
  H      3.109400  -13.899780   -6.929110
  H      6.175080  -11.345280   -4.760850
  H      2.506880  -13.216160   -0.305030
  H      4.659830  -11.083610   -0.713920
  H      1.829940  -13.278580    1.444650
  H      0.234960  -14.570940    2.550750
  H     -0.382840  -13.726090    3.976510
  H      0.693010  -15.096750    4.183610
  H      1.394690  -13.528560    7.864350
  H      1.959610  -11.930970    7.316860
  H      3.073120  -13.327930    7.302860
  H      3.696020  -11.700410    5.751010
  H      6.660840   -9.644840    4.125360
  H      4.258770   -9.701150    6.021140
  H      5.905250   -8.958690    6.301950

 Total Charge           Charge          ....    0
 Multiplicity           Mult            ....    1
 Number of Electrons    NEL             ....  458
 Basis Dimension        Dim             .... 1004

ORBITAL ENERGIES
----------------

  NO   OCC          E(Eh)            E(eV)
   0   2.0000     -88.986134     -2421.4358
   1   2.0000     -88.972479     -2421.0642
   2   2.0000     -88.962982     -2420.8058
   3   2.0000     -88.952648     -2420.5246
   4   2.0000     -88.950636     -2420.4699
   5   2.0000     -88.849773     -2417.7252
   6   2.0000     -19.268010      -524.3092
   7   2.0000     -19.264209      -524.2058
   8   2.0000     -19.245174      -523.6878
   9   2.0000     -14.468888      -393.7184
  10   2.0000     -14.463980      -393.5849
  11   2.0000     -14.435121      -392.7996
  12   2.0000     -14.418760      -392.3544
  13   2.0000     -10.375238      -282.3246
  14   2.0000     -10.340046      -281.3669
  15   2.0000     -10.339015      -281.3389
  16   2.0000     -10.337580      -281.2999
  17   2.0000     -10.336751      -281.2773
  18   2.0000     -10.335676      -281.2481
  19   2.0000     -10.333726      -281.1950
  20   2.0000     -10.332983      -281.1748
  21   2.0000     -10.329450      -281.0786
  22   2.0000     -10.327306      -281.0203
  23   2.0000     -10.327043      -281.0131
  24   2.0000     -10.326153      -280.9889
  25   2.0000     -10.322355      -280.8856
  26   2.0000     -10.322090      -280.8784
  27   2.0000     -10.319792      -280.8158
  28   2.0000     -10.316580      -280.7284
  29   2.0000     -10.315823      -280.7078
  30   2.0000     -10.314210      -280.6639
  31   2.0000     -10.313376      -280.6412
  32   2.0000     -10.312606      -280.6203
  33   2.0000     -10.312489      -280.6171
  34   2.0000     -10.311643      -280.5941
  35   2.0000     -10.308614      -280.5116
  36   2.0000     -10.300998      -280.3044
  37   2.0000     -10.295291      -280.1491
  38   2.0000     -10.291566      -280.0478
  39   2.0000     -10.289170      -279.9826
  40   2.0000     -10.287498      -279.9370
  41   2.0000     -10.287351      -279.9331
  42   2.0000     -10.286945      -279.9220
  43   2.0000     -10.286928      -279.9215
  44   2.0000     -10.286531      -279.9107
  45   2.0000     -10.282446      -279.7996
  46   2.0000     -10.278280      -279.6862
  47   2.0000     -10.277725      -279.6711
  48   2.0000     -10.277636      -279.6687
  49   2.0000     -10.277580      -279.6672
  50   2.0000     -10.275454      -279.6093
  51   2.0000     -10.274638      -279.5871
  52   2.0000     -10.274593      -279.5859
  53   2.0000     -10.272922      -279.5404
  54   2.0000     -10.272609      -279.5319
  55   2.0000     -10.270994      -279.4880
  56   2.0000     -10.265911      -279.3496
  57   2.0000     -10.261768      -279.2369
  58   2.0000     -10.261144      -279.2199
  59   2.0000     -10.250824      -278.9391
  60   2.0000      -8.081240      -219.9017
  61   2.0000      -8.067229      -219.5205
  62   2.0000      -8.057311      -219.2506
  63   2.0000      -8.048260      -219.0043
  64   2.0000      -8.046439      -218.9547
  65   2.0000      -7.947605      -216.2653
  66   2.0000      -6.050164      -164.6333
  67   2.0000      -6.045896      -164.5172
  68   2.0000      -6.044338      -164.4748
  69   2.0000      -6.036360      -164.2577
  70   2.0000      -6.032408      -164.1502
  71   2.0000      -6.029719      -164.0770
  72   2.0000      -6.027167      -164.0076
  73   2.0000      -6.022999      -163.8941
  74   2.0000      -6.018485      -163.7713
  75   2.0000      -6.017112      -163.7339
  76   2.0000      -6.015951      -163.7023
  77   2.0000      -6.013182      -163.6270
  78   2.0000      -6.011788      -163.5891
  79   2.0000      -6.011099      -163.5703
  80   2.0000      -6.008109      -163.4890
  81   2.0000      -5.918134      -161.0406
  82   2.0000      -5.912706      -160.8929
  83   2.0000      -5.908260      -160.7719
  84   2.0000      -1.192384       -32.4464
  85   2.0000      -1.155617       -31.4460
  86   2.0000      -1.148723       -31.2583
  87   2.0000      -1.135895       -30.9093
  88   2.0000      -1.030951       -28.0536
  89   2.0000      -1.015981       -27.6463
  90   2.0000      -1.008952       -27.4550
  91   2.0000      -1.001724       -27.2583
  92   2.0000      -1.000305       -27.2197
  93   2.0000      -0.985355       -26.8129
  94   2.0000      -0.981969       -26.7207
  95   2.0000      -0.978917       -26.6377
  96   2.0000      -0.964475       -26.2447
  97   2.0000      -0.934761       -25.4361
  98   2.0000      -0.926579       -25.2135
  99   2.0000      -0.924204       -25.1489
 100   2.0000      -0.919761       -25.0280
 101   2.0000      -0.905754       -24.6468
 102   2.0000      -0.896530       -24.3958
 103   2.0000      -0.883210       -24.0334
 104   2.0000      -0.866272       -23.5724
 105   2.0000      -0.862480       -23.4693
 106   2.0000      -0.859356       -23.3843
 107   2.0000      -0.852978       -23.2107
 108   2.0000      -0.844632       -22.9836
 109   2.0000      -0.836385       -22.7592
 110   2.0000      -0.833887       -22.6912
 111   2.0000      -0.832452       -22.6522
 112   2.0000      -0.825052       -22.4508
 113   2.0000      -0.811782       -22.0897
 114   2.0000      -0.802598       -21.8398
 115   2.0000      -0.792009       -21.5516
 116   2.0000      -0.788845       -21.4656
 117   2.0000      -0.782848       -21.3024
 118   2.0000      -0.779685       -21.2163
 119   2.0000      -0.767862       -20.8946
 120   2.0000      -0.758425       -20.6378
 121   2.0000      -0.747846       -20.3499
 122   2.0000      -0.739291       -20.1171
 123   2.0000      -0.733152       -19.9501
 124   2.0000      -0.713068       -19.4036
 125   2.0000      -0.707111       -19.2415
 126   2.0000      -0.705971       -19.2105
 127   2.0000      -0.694128       -18.8882
 128   2.0000      -0.692990       -18.8572
 129   2.0000      -0.684468       -18.6253
 130   2.0000      -0.682252       -18.5650
 131   2.0000      -0.679512       -18.4905
 132   2.0000      -0.671301       -18.2670
 133   2.0000      -0.662423       -18.0255
 134   2.0000      -0.659038       -17.9333
 135   2.0000      -0.654936       -17.8217
 136   2.0000      -0.650550       -17.7024
 137   2.0000      -0.638318       -17.3695
 138   2.0000      -0.631803       -17.1922
 139   2.0000      -0.622853       -16.9487
 140   2.0000      -0.619213       -16.8497
 141   2.0000      -0.610508       -16.6128
 142   2.0000      -0.599281       -16.3073
 143   2.0000      -0.593723       -16.1560
 144   2.0000      -0.590513       -16.0687
 145   2.0000      -0.588089       -16.0027
 146   2.0000      -0.587000       -15.9731
 147   2.0000      -0.581270       -15.8172
 148   2.0000      -0.573570       -15.6076
 149   2.0000      -0.564089       -15.3496
 150   2.0000      -0.562218       -15.2987
 151   2.0000      -0.561211       -15.2713
 152   2.0000      -0.555663       -15.1203
 153   2.0000      -0.554408       -15.0862
 154   2.0000      -0.553258       -15.0549
 155   2.0000      -0.551185       -14.9985
 156   2.0000      -0.545957       -14.8562
 157   2.0000      -0.544098       -14.8057
 158   2.0000      -0.538431       -14.6515
 159   2.0000      -0.534551       -14.5459
 160   2.0000      -0.532561       -14.4917
 161   2.0000      -0.527627       -14.3575
 162   2.0000      -0.525073       -14.2880
 163   2.0000      -0.518814       -14.1176
 164   2.0000      -0.517787       -14.0897
 165   2.0000      -0.509908       -13.8753
 166   2.0000      -0.505050       -13.7431
 167   2.0000      -0.503292       -13.6953
 168   2.0000      -0.501169       -13.6375
 169   2.0000      -0.497382       -13.5345
 170   2.0000      -0.496680       -13.5154
 171   2.0000      -0.493996       -13.4423
 172   2.0000      -0.491672       -13.3791
 173   2.0000      -0.488723       -13.2988
 174   2.0000      -0.485620       -13.2144
 175   2.0000      -0.482982       -13.1426
 176   2.0000      -0.481212       -13.0944
 177   2.0000      -0.479521       -13.0484
 178   2.0000      -0.478496       -13.0205
 179   2.0000      -0.476155       -12.9568
 180   2.0000      -0.475725       -12.9451
 181   2.0000      -0.471648       -12.8342
 182   2.0000      -0.464862       -12.6495
 183   2.0000      -0.463223       -12.6049
 184   2.0000      -0.462471       -12.5845
 185   2.0000      -0.458610       -12.4794
 186   2.0000      -0.454258       -12.3610
 187   2.0000      -0.450637       -12.2625
 188   2.0000      -0.448780       -12.2119
 189   2.0000      -0.447531       -12.1779
 190   2.0000      -0.444260       -12.0889
 191   2.0000      -0.443593       -12.0708
 192   2.0000      -0.437908       -11.9161
 193   2.0000      -0.437471       -11.9042
 194   2.0000      -0.436359       -11.8739
 195   2.0000      -0.432412       -11.7665
 196   2.0000      -0.429085       -11.6760
 197   2.0000      -0.425644       -11.5824
 198   2.0000      -0.423569       -11.5259
 199   2.0000      -0.421938       -11.4815
 200   2.0000      -0.420018       -11.4293
 201   2.0000      -0.419234       -11.4079
 202   2.0000      -0.418344       -11.3837
 203   2.0000      -0.416414       -11.3312
 204   2.0000      -0.409849       -11.1526
 205   2.0000      -0.407669       -11.0932
 206   2.0000      -0.405292       -11.0286
 207   2.0000      -0.401544       -10.9266
 208   2.0000      -0.398572       -10.8457
 209   2.0000      -0.394399       -10.7321
 210   2.0000      -0.390609       -10.6290
 211   2.0000      -0.380166       -10.3448
 212   2.0000      -0.365474        -9.9451
 213   2.0000      -0.357788        -9.7359
 214   2.0000      -0.346059        -9.4167
 215   2.0000      -0.343621        -9.3504
 216   2.0000      -0.339782        -9.2459
 217   2.0000      -0.327168        -8.9027
 218   2.0000      -0.322010        -8.7623
 219   2.0000      -0.316713        -8.6182
 220   2.0000      -0.306112        -8.3297
 221   2.0000      -0.297900        -8.1063
 222   2.0000      -0.284477        -7.7410
 223   2.0000      -0.278104        -7.5676
 224   2.0000      -0.267715        -7.2849
 225   2.0000      -0.260804        -7.0968
 226   2.0000      -0.248964        -6.7746
 227   2.0000      -0.233760        -6.3609
 228   2.0000      -0.202323        -5.5055
 229   0.0000      -0.094184        -2.5629
 230   0.0000      -0.073685        -2.0051
 231   0.0000      -0.045020        -1.2251
 232   0.0000      -0.025753        -0.7008
 233   0.0000       0.002310         0.0629

MULLIKEN ATOMIC CHARGES
-----------------------
   0 C :   -0.138908
   1 S :    0.174444
   2 C :   -0.121492
   3 C :    0.149037
   4 C :    0.104341
   5 C :   -0.057220
   6 C :   -0.185857
   7 N :    0.128127
   8 C :    0.021753
   9 C :    0.016385
  10 C :   -0.094184
  11 C :   -0.104973
  12 N :    0.077684
  13 C :   -0.015838
  14 C :    0.079419
  15 C :   -0.212817
  16 S :    0.096153
  17 C :   -0.163940
  18 C :    0.086296
  19 C :    0.166611
  20 N :   -0.052556
  21 C :    0.074524
  22 S :   -0.255245
  23 N :   -0.036952
  24 C :   -0.088082
  25 C :    0.080917
  26 C :    0.104464
  27 C :   -0.037393
  28 C :    0.028479
  29 C :    0.023276
  30 C :   -0.036907
  31 C :   -0.079557
  32 S :    0.102927
  33 C :   -0.040601
  34 C :   -0.025369
  35 C :    0.160807
  36 C :    0.156460
  37 O :   -0.255320
  38 C :    0.217314
  39 C :    0.217533
  40 C :   -0.174410
  41 S :    0.105070
  42 C :   -0.174145
  43 O :   -0.251995
  44 C :   -0.126301
  45 C :    0.064274
  46 C :   -0.129909
  47 S :    0.144419
  48 C :   -0.155948
  49 C :    0.122510
  50 C :    0.154673
  51 C :   -0.098166
  52 C :   -0.095602
  53 C :    0.141299
  54 C :    0.210191
  55 O :   -0.309620
  56 C :    0.181773
  57 C :   -0.179943
  58 C :    0.019833
  59 C :   -0.033290
  60 H :    0.039813
  61 H :    0.003822
  62 H :    0.006709
  63 H :   -0.066794
  64 H :   -0.022935
  65 H :    0.143345
  66 H :    0.138777
  67 H :   -0.015856
  68 H :   -0.011606
  69 H :   -0.014434
  70 H :   -0.015665
  71 H :    0.018704
  72 H :    0.002934
  73 H :    0.024519
  74 H :    0.022670
  75 H :    0.030606
  76 H :   -0.008346
  77 H :   -0.079542
  78 H :    0.008051
  79 H :    0.025952
  80 H :    0.021274
  81 H :    0.035360
  82 H :    0.020026
  83 H :    0.026010
  84 H :   -0.049711
  85 H :   -0.004508
  86 H :    0.019468
  87 H :    0.022901
Sum of atomic charges:   -0.0000000

LOEWDIN ATOMIC CHARGES
----------------------
   0 C :   -0.193505
   1 S :    0.502704
   2 C :   -0.162629
   3 C :   -0.040149
   4 C :   -0.038111
   5 C :   -0.043221
   6 C :   -0.026714
   7 N :   -0.043488
   8 C :    0.009905
   9 C :    0.009838
  10 C :   -0.052053
  11 C :    0.012620
  12 N :   -0.056303
  13 C :   -0.068802
  14 C :   -0.027316
  15 C :   -0.203762
  16 S :    0.427812
  17 C :   -0.206308
  18 C :   -0.023933
  19 C :   -0.005898
  20 N :    0.046749
  21 C :   -0.092044
  22 S :   -0.120534
  23 N :    0.042239
  24 C :   -0.181734
  25 C :   -0.049482
  26 C :   -0.039837
  27 C :   -0.011133
  28 C :   -0.021305
  29 C :   -0.022758
  30 C :   -0.024094
  31 C :   -0.177476
  32 S :    0.457565
  33 C :   -0.042923
  34 C :   -0.040779
  35 C :    0.012767
  36 C :    0.030658
  37 O :   -0.053559
  38 C :   -0.008030
  39 C :   -0.007801
  40 C :   -0.212170
  41 S :    0.432150
  42 C :   -0.212441
  43 O :   -0.060794
  44 C :   -0.057342
  45 C :   -0.039640
  46 C :   -0.178397
  47 S :    0.472456
  48 C :   -0.191373
  49 C :   -0.035894
  50 C :   -0.049568
  51 C :   -0.026004
  52 C :   -0.026351
  53 C :   -0.041684
  54 C :    0.055626
  55 O :   -0.098191
  56 C :    0.075917
  57 C :   -0.082225
  58 C :   -0.041409
  59 C :   -0.056497
  60 H :    0.033053
  61 H :    0.045267
  62 H :    0.045167
  63 H :    0.029371
  64 H :    0.025152
  65 H :    0.079497
  66 H :    0.079694
  67 H :    0.030204
  68 H :    0.031102
  69 H :    0.029847
  70 H :    0.013743
  71 H :    0.038020
  72 H :    0.028755
  73 H :    0.028817
  74 H :    0.028239
  75 H :    0.032590
  76 H :    0.028835
  77 H :    0.022913
  78 H :    0.028044
  79 H :    0.036546
  80 H :    0.034451
  81 H :    0.028172
  82 H :    0.014460
  83 H :    0.016620
  84 H :    0.024954
  85 H :    0.029145
  86 H :    0.019204
  87 H :    0.024792

  Mayer bond orders larger than 0.100000
B(  0-C ,  1-S ) :   1.1778 B(  0-C ,  4-C ) :   1.4684 B(  0-C , 60-H ) :   0.9494
B(  1-S ,  2-C ) :   1.1624 B(  2-C ,  3-C ) :   1.3469 B(  2-C , 13-C ) :   1.2099
B(  3-C ,  4-C ) :   1.1716 B(  3-C , 10-C ) :   1.2154 B(  4-C ,  5-C ) :   1.1816
B(  5-C ,  6-C ) :   1.0796 B(  5-C ,  8-C ) :   1.5423 B(  6-C ,  7-N ) :   3.0366
B(  8-C ,  9-C ) :   1.1927 B(  8-C , 61-H ) :   0.9950 B(  9-C , 10-C ) :   1.5157
B(  9-C , 62-H ) :   0.9926 B( 10-C , 11-C ) :   1.1033 B( 11-C , 12-N ) :   2.9197
B( 12-N , 65-H ) :   0.1037 B( 13-C , 14-C ) :   1.6143 B( 13-C , 63-H ) :   0.9386
B( 14-C , 15-C ) :   1.1926 B( 14-C , 64-H ) :   0.9534 B( 15-C , 16-S ) :   1.0490
B( 15-C , 19-C ) :   1.3987 B( 16-S , 17-C ) :   1.0814 B( 17-C , 18-C ) :   1.4223
B( 17-C , 24-C ) :   1.2614 B( 18-C , 19-C ) :   1.2777 B( 18-C , 23-N ) :   1.1591
B( 19-C , 20-N ) :   1.1659 B( 20-N , 21-C ) :   1.1539 B( 20-N , 65-H ) :   0.8826
B( 21-C , 22-S ) :   1.6423 B( 21-C , 23-N ) :   1.1360 B( 23-N , 66-H ) :   0.9138
B( 24-C , 25-C ) :   1.3226 B( 24-C , 32-S ) :   1.1264 B( 25-C , 26-C ) :   1.2167
B( 25-C , 30-C ) :   1.2084 B( 26-C , 27-C ) :   1.2227 B( 26-C , 31-C ) :   1.2903
B( 27-C , 28-C ) :   1.5393 B( 27-C , 67-H ) :   0.9906 B( 28-C , 29-C ) :   1.2181
B( 28-C , 68-H ) :   0.9865 B( 29-C , 30-C ) :   1.5502 B( 29-C , 69-H ) :   0.9845
B( 30-C , 70-H ) :   0.9770 B( 31-C , 32-S ) :   1.1186 B( 31-C , 33-C ) :   1.2368
B( 33-C , 34-C ) :   1.5760 B( 33-C , 71-H ) :   0.9627 B( 34-C , 35-C ) :   1.1841
B( 34-C , 72-H ) :   0.9518 B( 35-C , 36-C ) :   1.4477 B( 35-C , 43-O ) :   1.0364
B( 36-C , 37-O ) :   1.0637 B( 36-C , 44-C ) :   1.1945 B( 37-O , 38-C ) :   1.0542
B( 38-C , 39-C ) :   1.1966 B( 38-C , 42-C ) :   1.5723 B( 39-C , 40-C ) :   1.5743
B( 39-C , 43-O ) :   1.0649 B( 40-C , 41-S ) :   1.1396 B( 40-C , 73-H ) :   0.9713
B( 41-S , 42-C ) :   1.1406 B( 42-C , 74-H ) :   0.9721 B( 44-C , 45-C ) :   1.6117
B( 44-C , 75-H ) :   0.9629 B( 45-C , 46-C ) :   1.1556 B( 45-C , 76-H ) :   0.9532
B( 46-C , 47-S ) :   1.1517 B( 46-C , 48-C ) :   0.1061 B( 46-C , 50-C ) :   1.3230
B( 47-S , 48-C ) :   1.1498 B( 48-C , 49-C ) :   1.3739 B( 48-C , 58-C ) :   1.0950
B( 49-C , 50-C ) :   1.2215 B( 49-C , 57-C ) :   1.1590 B( 50-C , 51-C ) :   1.1431
B( 51-C , 52-C ) :   1.5899 B( 51-C , 77-H ) :   0.9997 B( 52-C , 53-C ) :   1.0673
B( 52-C , 54-C ) :   1.2114 B( 53-C , 78-H ) :   0.9503 B( 53-C , 79-H ) :   0.9418
B( 53-C , 80-H ) :   0.9400 B( 54-C , 55-O ) :   1.1795 B( 54-C , 57-C ) :   1.4555
B( 55-O , 56-C ) :   0.9682 B( 56-C , 81-H ) :   0.9779 B( 56-C , 82-H ) :   0.9681
B( 56-C , 83-H ) :   0.9677 B( 57-C , 84-H ) :   0.9942 B( 58-C , 59-C ) :   1.9295
B( 58-C , 85-H ) :   0.9489 B( 59-C , 86-H ) :   0.9565 B( 59-C , 87-H ) :   0.9478

-----------------------------------------------------------------------------
         ABSORPTION SPECTRUM VIA TRANSITION ELECTRIC DIPOLE MOMENTS
-----------------------------------------------------------------------------
State   Energy  Wavelength   fosc         T2         TX        TY        TZ
        (cm-1)    (nm)                  (au**2)     (au)      (au)      (au)
-----------------------------------------------------------------------------
   0   10924.8    915.3   1.141703692  34.40451  -4.66721  -3.55243  -0.04396
   1   15020.4    665.8   0.094219917   2.06508   0.16569  -0.30866   1.39368
   2   17607.1    568.0   0.252185574   4.71528   1.68830   1.28081  -0.47375
   3   19235.8    519.9   0.040714603   0.69681   0.26621  -0.54501  -0.57350
   4   20379.6    490.7   0.409246472   6.61096  -0.68499  -1.16571   2.18698
   5   22106.2    452.4   0.074672664   1.11205   0.61806   0.18006  -0.83524
   6   22722.3    440.1   0.000005064   0.00007   0.00785   0.00309   0.00149
   7   23506.6    425.4   0.027705130   0.38801   0.12315   0.31575   0.52264
   8   24144.5    414.2   0.009805233   0.13369  -0.14654   0.29502   0.15869
   9   24728.0    404.4   0.161595088   2.15137   0.50624   0.93370   1.01158
  10   26444.7    378.1   0.064710005   0.80558  -0.46962  -0.76472   0.01563
  11   27264.3    366.8   0.180020827   2.17372   0.69749   1.04722   0.76847
  12   27811.3    359.6   0.000058992   0.00070   0.00867  -0.00584  -0.02427
  13   27855.5    359.0   0.221143429   2.61360  -0.33007   0.68498   1.42669
  14   28984.0    345.0   0.025308712   0.28747  -0.23174  -0.13039   0.46558
  15   29393.8    340.2   0.011550924   0.12937   0.11643   0.30748  -0.14584
  16   30332.0    329.7   0.003427195   0.03720  -0.00913   0.17920   0.07071
  17   31307.9    319.4   0.243413790   2.55957   0.76182  -0.40931  -1.34598
  18   32288.1    309.7   0.002891282   0.02948  -0.09666  -0.10305  -0.09756
  19   32496.5    307.7   0.006471843   0.06556  -0.05403  -0.08915  -0.23387
  20   32810.7    304.8   0.049816662   0.49984  -0.37420  -0.03935   0.59856
  21   33037.2    302.7   0.014644186   0.14593  -0.37908   0.04707  -0.00272
  22   33186.4    301.3   0.004647467   0.04610  -0.00224  -0.15833   0.14502
  23   34021.9    293.9   0.000616838   0.00597  -0.03221   0.06841   0.01588
  24   34440.6    290.4   0.093632496   0.89502  -0.32773   0.11312   0.88024
  25   34882.7    286.7   0.018053810   0.17039  -0.04691  -0.34201   0.22630
  26   35082.0    285.0   0.000012680   0.00012  -0.00684   0.00840  -0.00127
  27   35227.8    283.9   0.008092717   0.07563  -0.15685   0.06811   0.21538
  28   35387.7    282.6   0.159768276   1.48633   0.64456  -0.14831  -1.02415
  29   35512.7    281.6   0.122664520   1.13713  -0.29315  -0.86843  -0.54500
  30   35928.1    278.3   0.015374614   0.14088   0.02889  -0.13530  -0.34891
  31   36050.8    277.4   0.252429407   2.30516   1.18595   0.44620  -0.83641
  32   36495.5    274.0   0.105465285   0.95136   0.15000   0.84692   0.45999
  33   36883.8    271.1   0.052510515   0.46869   0.06268  -0.43257  -0.52692
  34   36936.9    270.7   0.016567482   0.14766   0.04322  -0.15075  -0.35081
  35   37785.1    264.7   0.122027508   1.06320  -0.65133  -0.27495   0.75058
  36   38148.8    262.1   0.043653063   0.37671   0.38231   0.45434  -0.15531
  37   38555.2    259.4   0.311178286   2.65707  -0.85600  -0.24520   1.36536
  38   38956.0    256.7   0.153079160   1.29365  -0.32718  -0.69815  -0.83618
  39   39116.8    255.6   0.065061086   0.54756   0.31835   0.59145   0.31048
  40   39241.3    254.8   0.007270786   0.06100   0.11993  -0.17098  -0.13183
  41   39480.6    253.3   0.017359529   0.14475   0.01428  -0.11449  -0.36255
  42   39791.1    251.3   0.000029052   0.00024   0.00247   0.01472  -0.00420
  43   40126.1    249.2   0.010068647   0.08261  -0.25363  -0.11830   0.06546

FINAL SINGLE POINT ENERGY     -4638.008817641875

DIPOLE MOMENT
-------------
                                X             Y             Z
Electronic contribution:    -29.22738     -30.51525     -37.05956
Nuclear contribution   :     29.26656      31.78144      39.08495
                        -----------------------------------------
Total Dipole Moment    :      0.03918       1.26619       2.02539
                        -----------------------------------------
Magnitude (a.u.)       :      2.38893
Magnitude (Debye)      :      6.07218

Rotational constants in cm-1:     0.001713     0.000429     0.000356
Rotational constants in MHz :    51.354876    12.847630    10.677023

                             ****ORCA TERMINATED NORMALLY****
TOTAL RUN TIME: 0 days 0 hours 7 minutes 35 seconds 503 msec
