                         Program Version 4.2.0 -  RELEASE  -
|  1> # ORCA input file
|  2> # SCF done       -152.448324451739          0.000616376655
|  3> ! CAM-B3LYP def2-SVP def2/J RIJCOSX Grid4 TightSCF
|  4> %maxcore 5000
|  5> %tddft
|  6>     Mode sTDDFT
|  7>     Ethresh 5.0
|  8>     maxcore 5000
|  9> end
| 10>
| 11> %pal
| 12>   nprocs 6
| 13>   end
| 14> * xyz 0 1
| 15>    C        2.22459         1.79605         3.14915
| 16>    O        1.81409         0.52817         3.15452
| 17>    C        1.43305         0.19857         1.89531
| 18>    C        1.60498         1.28483         1.06742
| 19>    C        2.12049         2.31719         1.88806
| 20>    C        2.46941         3.69222         1.45495
| 21>    F        3.12145         4.38096         2.40547
| 22>    F        3.25743         3.70564         0.36420
| 23>    F        1.38646         4.42713         1.13347
| 24>    C        0.97520        -1.13811         1.65738
| 25>    C        0.51883        -1.56262         0.46765
| 26>    C        0.10571        -2.88837         0.10103
| 27>    C       -0.05280        -3.17910        -1.23672
| 28>    O        0.10349        -2.29143        -2.23603
| 29>    C       -0.06548        -2.77141        -3.54772
| 30>    S       -0.43478        -4.84359        -1.52757
| 31>    C       -0.40953        -5.16153         0.18913
| 32>    O       -0.73738        -6.36908         0.68644
| 33>    C       -0.68251        -7.45709        -0.20302
| 34>    C       -0.10634        -4.05225         0.92311
| 35>    C       -0.07808        -4.11815         2.38441
| 36>    C       -0.78456        -3.27260         3.18933
| 37>    O       -1.59181        -2.27957         2.76668
| 38>    C       -1.93116        -1.29797         3.71802
| 39>    S       -0.60029        -3.67007         4.87874
| 40>    C        0.42903        -5.01537         4.47568
| 41>    O        0.97453        -5.81521         5.40839
| 42>    C        0.87262        -5.38453         6.74453
| 43>    C        0.60927        -5.13478         3.12860
| 44>    C        1.40060        -6.20323         2.53159
| 45>    C        1.25339        -7.51044         2.88361
| 46>    O        0.35398        -8.00352         3.74873
| 47>    C        0.73654        -9.16088         4.45942
| 48>    S        2.26408        -8.56467         1.90969
| 49>    C        2.88994        -7.19913         1.03323
| 50>    O        3.80888        -7.31348         0.05975
| 51>    C        4.40211        -8.57984        -0.11007
| 52>    C        2.35475        -6.02184         1.47651
| 53>    C        2.79257        -4.72872         0.98629
| 54>    O        2.78701        -4.46732        -0.32575
| 55>    C        3.25204        -3.20743        -0.51415
| 56>    C        3.58406        -2.65442         0.69638
| 57>    C        3.29358        -3.64001         1.66879
| 58>    C        3.59439        -3.54013         3.11690
| 59>    F        2.60340        -2.99827         3.85627
| 60>    F        3.86065        -4.72943         3.68230
| 61>    F        4.66910        -2.76521         3.34784
| 62>    C        3.30769        -2.69971        -1.86038
| 63>    C        3.56309        -1.43593        -2.18160
| 64>    H        2.56899         2.22631         4.06796
| 65>    H        1.40256         1.34740         0.01939
| 66>    H        1.04309        -1.79612         2.50642
| 67>    H        0.49143        -0.86469        -0.35780
| 68>    H        0.65959        -3.55906        -3.77592
| 69>    H        0.09577        -1.91944        -4.20467
| 70>    H       -1.07524        -3.16899        -3.69476
| 71>    H       -1.43619        -7.35757        -0.99246
| 72>    H       -0.88977        -8.34405         0.39211
| 73>    H        0.30632        -7.54188        -0.66620
| 74>    H       -1.03744        -0.81856         4.12930
| 75>    H       -2.51128        -1.73368         4.53914
| 76>    H       -2.53458        -0.56239         3.19046
| 77>    H        1.34495        -4.40632         6.88082
| 78>    H        1.38950        -6.13065         7.34464
| 79>    H       -0.17592        -5.31907         7.05616
| 80>    H        0.91572        -9.99801         3.77465
| 81>    H       -0.09505        -9.39847         5.11925
| 82>    H        1.63906        -8.97882         5.05027
| 83>    H        5.10952        -8.47375        -0.92968
| 84>    H        3.64883        -9.33392        -0.36253
| 85>    H        4.92714        -8.89435         0.79699
| 86>    H        3.99600        -1.68485         0.88113
| 87>    H        3.10990        -3.43994        -2.62370
| 88>    H        3.74872        -0.68785        -1.43137
| 89>    H        3.59126        -1.11319        -3.20683
| 90> *
| 91>
| 92>                          ****END OF INPUT****

CARTESIAN COORDINATES (ANGSTROEM)
---------------------------------
  C      2.224590    1.796050    3.149150
  O      1.814090    0.528170    3.154520
  C      1.433050    0.198570    1.895310
  C      1.604980    1.284830    1.067420
  C      2.120490    2.317190    1.888060
  C      2.469410    3.692220    1.454950
  F      3.121450    4.380960    2.405470
  F      3.257430    3.705640    0.364200
  F      1.386460    4.427130    1.133470
  C      0.975200   -1.138110    1.657380
  C      0.518830   -1.562620    0.467650
  C      0.105710   -2.888370    0.101030
  C     -0.052800   -3.179100   -1.236720
  O      0.103490   -2.291430   -2.236030
  C     -0.065480   -2.771410   -3.547720
  S     -0.434780   -4.843590   -1.527570
  C     -0.409530   -5.161530    0.189130
  O     -0.737380   -6.369080    0.686440
  C     -0.682510   -7.457090   -0.203020
  C     -0.106340   -4.052250    0.923110
  C     -0.078080   -4.118150    2.384410
  C     -0.784560   -3.272600    3.189330
  O     -1.591810   -2.279570    2.766680
  C     -1.931160   -1.297970    3.718020
  S     -0.600290   -3.670070    4.878740
  C      0.429030   -5.015370    4.475680
  O      0.974530   -5.815210    5.408390
  C      0.872620   -5.384530    6.744530
  C      0.609270   -5.134780    3.128600
  C      1.400600   -6.203230    2.531590
  C      1.253390   -7.510440    2.883610
  O      0.353980   -8.003520    3.748730
  C      0.736540   -9.160880    4.459420
  S      2.264080   -8.564670    1.909690
  C      2.889940   -7.199130    1.033230
  O      3.808880   -7.313480    0.059750
  C      4.402110   -8.579840   -0.110070
  C      2.354750   -6.021840    1.476510
  C      2.792570   -4.728720    0.986290
  O      2.787010   -4.467320   -0.325750
  C      3.252040   -3.207430   -0.514150
  C      3.584060   -2.654420    0.696380
  C      3.293580   -3.640010    1.668790
  C      3.594390   -3.540130    3.116900
  F      2.603400   -2.998270    3.856270
  F      3.860650   -4.729430    3.682300
  F      4.669100   -2.765210    3.347840
  C      3.307690   -2.699710   -1.860380
  C      3.563090   -1.435930   -2.181600
  H      2.568990    2.226310    4.067960
  H      1.402560    1.347400    0.019390
  H      1.043090   -1.796120    2.506420
  H      0.491430   -0.864690   -0.357800
  H      0.659590   -3.559060   -3.775920
  H      0.095770   -1.919440   -4.204670
  H     -1.075240   -3.168990   -3.694760
  H     -1.436190   -7.357570   -0.992460
  H     -0.889770   -8.344050    0.392110
  H      0.306320   -7.541880   -0.666200
  H     -1.037440   -0.818560    4.129300
  H     -2.511280   -1.733680    4.539140
  H     -2.534580   -0.562390    3.190460
  H      1.344950   -4.406320    6.880820
  H      1.389500   -6.130650    7.344640
  H     -0.175920   -5.319070    7.056160
  H      0.915720   -9.998010    3.774650
  H     -0.095050   -9.398470    5.119250
  H      1.639060   -8.978820    5.050270
  H      5.109520   -8.473750   -0.929680
  H      3.648830   -9.333920   -0.362530
  H      4.927140   -8.894350    0.796990
  H      3.996000   -1.684850    0.881130
  H      3.109900   -3.439940   -2.623700
  H      3.748720   -0.687850   -1.431370
  H      3.591260   -1.113190   -3.206830

 Total Charge           Charge          ....    0
 Multiplicity           Mult            ....    1
 Number of Electrons    NEL             ....  384
 Basis Dimension        Dim             ....  828

ORBITAL ENERGIES
----------------

  NO   OCC          E(Eh)            E(eV)
   0   2.0000     -88.949076     -2420.4274
   1   2.0000     -88.947596     -2420.3871
   2   2.0000     -88.940020     -2420.1810
   3   2.0000     -24.782023      -674.3531
   4   2.0000     -24.777752      -674.2369
   5   2.0000     -24.775220      -674.1680
   6   2.0000     -24.775099      -674.1647
   7   2.0000     -24.774592      -674.1509
   8   2.0000     -24.774233      -674.1412
   9   2.0000     -19.283093      -524.7196
  10   2.0000     -19.276414      -524.5379
  11   2.0000     -19.252993      -523.9006
  12   2.0000     -19.251534      -523.8609
  13   2.0000     -19.240098      -523.5497
  14   2.0000     -19.239154      -523.5240
  15   2.0000     -19.237550      -523.4804
  16   2.0000     -19.236482      -523.4513
  17   2.0000     -10.500319      -285.7282
  18   2.0000     -10.496211      -285.6164
  19   2.0000     -10.343087      -281.4497
  20   2.0000     -10.335297      -281.2377
  21   2.0000     -10.328991      -281.0661
  22   2.0000     -10.327203      -281.0175
  23   2.0000     -10.326988      -281.0116
  24   2.0000     -10.326316      -280.9934
  25   2.0000     -10.325681      -280.9761
  26   2.0000     -10.324816      -280.9525
  27   2.0000     -10.323866      -280.9267
  28   2.0000     -10.320560      -280.8367
  29   2.0000     -10.318063      -280.7688
  30   2.0000     -10.316454      -280.7250
  31   2.0000     -10.316178      -280.7175
  32   2.0000     -10.316164      -280.7171
  33   2.0000     -10.312571      -280.6193
  34   2.0000     -10.309518      -280.5363
  35   2.0000     -10.273043      -279.5437
  36   2.0000     -10.269377      -279.4440
  37   2.0000     -10.265450      -279.3371
  38   2.0000     -10.262963      -279.2694
  39   2.0000     -10.259455      -279.1740
  40   2.0000     -10.259059      -279.1632
  41   2.0000     -10.258493      -279.1478
  42   2.0000     -10.257066      -279.1090
  43   2.0000     -10.256702      -279.0991
  44   2.0000     -10.255799      -279.0745
  45   2.0000     -10.255760      -279.0734
  46   2.0000     -10.252928      -278.9964
  47   2.0000     -10.249578      -278.9052
  48   2.0000     -10.247668      -278.8532
  49   2.0000      -8.045361      -218.9254
  50   2.0000      -8.043944      -218.8869
  51   2.0000      -8.036250      -218.6775
  52   2.0000      -6.014603      -163.6657
  53   2.0000      -6.013233      -163.6284
  54   2.0000      -6.010908      -163.5651
  55   2.0000      -6.009478      -163.5262
  56   2.0000      -6.007001      -163.4588
  57   2.0000      -6.005577      -163.4201
  58   2.0000      -6.005533      -163.4189
  59   2.0000      -6.001778      -163.3167
  60   2.0000      -5.997820      -163.2090
  61   2.0000      -1.367705       -37.2172
  62   2.0000      -1.364150       -37.1204
  63   2.0000      -1.272362       -34.6227
  64   2.0000      -1.267007       -34.4770
  65   2.0000      -1.266418       -34.4610
  66   2.0000      -1.263964       -34.3942
  67   2.0000      -1.203178       -32.7401
  68   2.0000      -1.197679       -32.5905
  69   2.0000      -1.160506       -31.5790
  70   2.0000      -1.158586       -31.5267
  71   2.0000      -1.149546       -31.2807
  72   2.0000      -1.147965       -31.2377
  73   2.0000      -1.144121       -31.1331
  74   2.0000      -1.142504       -31.0891
  75   2.0000      -0.967434       -26.3252
  76   2.0000      -0.958549       -26.0835
  77   2.0000      -0.944342       -25.6969
  78   2.0000      -0.902135       -24.5483
  79   2.0000      -0.899351       -24.4726
  80   2.0000      -0.888497       -24.1772
  81   2.0000      -0.884684       -24.0735
  82   2.0000      -0.857342       -23.3295
  83   2.0000      -0.848006       -23.0754
  84   2.0000      -0.844768       -22.9873
  85   2.0000      -0.843129       -22.9427
  86   2.0000      -0.814564       -22.1654
  87   2.0000      -0.807473       -21.9725
  88   2.0000      -0.804049       -21.8793
  89   2.0000      -0.801646       -21.8139
  90   2.0000      -0.792985       -21.5782
  91   2.0000      -0.787567       -21.4308
  92   2.0000      -0.780675       -21.2433
  93   2.0000      -0.774754       -21.0821
  94   2.0000      -0.768082       -20.9006
  95   2.0000      -0.745410       -20.2836
  96   2.0000      -0.731380       -19.9019
  97   2.0000      -0.717319       -19.5193
  98   2.0000      -0.702416       -19.1137
  99   2.0000      -0.700709       -19.0673
 100   2.0000      -0.683791       -18.6069
 101   2.0000      -0.682650       -18.5759
 102   2.0000      -0.666690       -18.1416
 103   2.0000      -0.663095       -18.0437
 104   2.0000      -0.654653       -17.8140
 105   2.0000      -0.650782       -17.7087
 106   2.0000      -0.649257       -17.6672
 107   2.0000      -0.646248       -17.5853
 108   2.0000      -0.643739       -17.5170
 109   2.0000      -0.640795       -17.4369
 110   2.0000      -0.638707       -17.3801
 111   2.0000      -0.636140       -17.3102
 112   2.0000      -0.626523       -17.0486
 113   2.0000      -0.619939       -16.8694
 114   2.0000      -0.609957       -16.5978
 115   2.0000      -0.599219       -16.3056
 116   2.0000      -0.589885       -16.0516
 117   2.0000      -0.582583       -15.8529
 118   2.0000      -0.573252       -15.5990
 119   2.0000      -0.571960       -15.5638
 120   2.0000      -0.570606       -15.5270
 121   2.0000      -0.565738       -15.3945
 122   2.0000      -0.563923       -15.3451
 123   2.0000      -0.563428       -15.3317
 124   2.0000      -0.558999       -15.2111
 125   2.0000      -0.555052       -15.1037
 126   2.0000      -0.549057       -14.9406
 127   2.0000      -0.547677       -14.9031
 128   2.0000      -0.545866       -14.8538
 129   2.0000      -0.544605       -14.8194
 130   2.0000      -0.541907       -14.7460
 131   2.0000      -0.541170       -14.7260
 132   2.0000      -0.534585       -14.5468
 133   2.0000      -0.531956       -14.4753
 134   2.0000      -0.528807       -14.3896
 135   2.0000      -0.528223       -14.3737
 136   2.0000      -0.527188       -14.3455
 137   2.0000      -0.525717       -14.3055
 138   2.0000      -0.524743       -14.2790
 139   2.0000      -0.522368       -14.2144
 140   2.0000      -0.506104       -13.7718
 141   2.0000      -0.502435       -13.6719
 142   2.0000      -0.500653       -13.6235
 143   2.0000      -0.493136       -13.4189
 144   2.0000      -0.491041       -13.3619
 145   2.0000      -0.488620       -13.2960
 146   2.0000      -0.486818       -13.2470
 147   2.0000      -0.485632       -13.2147
 148   2.0000      -0.483604       -13.1595
 149   2.0000      -0.479776       -13.0554
 150   2.0000      -0.479071       -13.0362
 151   2.0000      -0.475733       -12.9454
 152   2.0000      -0.471931       -12.8419
 153   2.0000      -0.465116       -12.6564
 154   2.0000      -0.464473       -12.6389
 155   2.0000      -0.463469       -12.6116
 156   2.0000      -0.461260       -12.5515
 157   2.0000      -0.457830       -12.4582
 158   2.0000      -0.453784       -12.3481
 159   2.0000      -0.452628       -12.3166
 160   2.0000      -0.448737       -12.2108
 161   2.0000      -0.447854       -12.1867
 162   2.0000      -0.444886       -12.1060
 163   2.0000      -0.442938       -12.0530
 164   2.0000      -0.441617       -12.0170
 165   2.0000      -0.440958       -11.9991
 166   2.0000      -0.425826       -11.5873
 167   2.0000      -0.423695       -11.5293
 168   2.0000      -0.421900       -11.4805
 169   2.0000      -0.420584       -11.4447
 170   2.0000      -0.412540       -11.2258
 171   2.0000      -0.400371       -10.8946
 172   2.0000      -0.398007       -10.8303
 173   2.0000      -0.395419       -10.7599
 174   2.0000      -0.391411       -10.6508
 175   2.0000      -0.388432       -10.5698
 176   2.0000      -0.384014       -10.4495
 177   2.0000      -0.381876       -10.3914
 178   2.0000      -0.373437       -10.1617
 179   2.0000      -0.363570        -9.8932
 180   2.0000      -0.357402        -9.7254
 181   2.0000      -0.354569        -9.6483
 182   2.0000      -0.353015        -9.6060
 183   2.0000      -0.341368        -9.2891
 184   2.0000      -0.326611        -8.8875
 185   2.0000      -0.317230        -8.6323
 186   2.0000      -0.300806        -8.1853
 187   2.0000      -0.260914        -7.0998
 188   2.0000      -0.259973        -7.0742
 189   2.0000      -0.239532        -6.5180
 190   2.0000      -0.229101        -6.2342
 191   2.0000      -0.218818        -5.9543
 192   0.0000       0.002962         0.0806
 193   0.0000       0.011556         0.3145
 194   0.0000       0.042181         1.1478
 195   0.0000       0.050164         1.3650
 196   0.0000       0.059832         1.6281

MULLIKEN ATOMIC CHARGES
-----------------------
   0 C :    0.100214
   1 O :   -0.176005
   2 C :    0.145449
   3 C :   -0.095127
   4 C :   -0.101614
   5 C :    0.523656
   6 F :   -0.166887
   7 F :   -0.170937
   8 F :   -0.170469
   9 C :    0.026697
  10 C :   -0.027970
  11 C :    0.109542
  12 C :   -0.017276
  13 O :   -0.288701
  14 C :    0.177995
  15 S :    0.011199
  16 C :   -0.005652
  17 O :   -0.277636
  18 C :    0.181782
  19 C :    0.026982
  20 C :    0.064002
  21 C :   -0.062817
  22 O :   -0.281744
  23 C :    0.182587
  24 S :   -0.002249
  25 C :   -0.032332
  26 O :   -0.280195
  27 C :    0.181969
  28 C :    0.072448
  29 C :    0.145160
  30 C :   -0.076648
  31 O :   -0.278640
  32 C :    0.186055
  33 S :   -0.014771
  34 C :   -0.021832
  35 O :   -0.273936
  36 C :    0.180738
  37 C :    0.009866
  38 C :    0.115547
  39 O :   -0.188017
  40 C :    0.166130
  41 C :   -0.062951
  42 C :   -0.130511
  43 C :    0.534168
  44 F :   -0.159509
  45 F :   -0.159451
  46 F :   -0.166044
  47 C :    0.017409
  48 C :   -0.024742
  49 H :    0.013113
  50 H :   -0.007674
  51 H :    0.007827
  52 H :   -0.018701
  53 H :    0.024413
  54 H :    0.044587
  55 H :    0.027463
  56 H :    0.023694
  57 H :    0.042485
  58 H :    0.025606
  59 H :    0.024721
  60 H :    0.024318
  61 H :    0.041922
  62 H :    0.029037
  63 H :    0.036320
  64 H :    0.022908
  65 H :    0.019374
  66 H :    0.036806
  67 H :    0.025022
  68 H :    0.046348
  69 H :    0.023434
  70 H :    0.029434
  71 H :   -0.016073
  72 H :   -0.009749
  73 H :    0.019880
  74 H :    0.018555
Sum of atomic charges:   -0.0000000

LOEWDIN ATOMIC CHARGES
----------------------
   0 C :    0.042219
   1 O :    0.029448
   2 C :    0.034991
   3 C :   -0.068609
   4 C :   -0.134170
   5 C :    0.168793
   6 F :   -0.065024
   7 F :   -0.068973
   8 F :   -0.071964
   9 C :   -0.058252
  10 C :    0.009141
  11 C :   -0.090771
  12 C :   -0.105864
  13 O :   -0.092770
  14 C :    0.067647
  15 S :    0.382975
  16 C :   -0.106974
  17 O :   -0.087304
  18 C :    0.065402
  19 C :   -0.081908
  20 C :   -0.085482
  21 C :   -0.116316
  22 O :   -0.096831
  23 C :    0.068543
  24 S :    0.374305
  25 C :   -0.105874
  26 O :   -0.094497
  27 C :    0.067051
  28 C :   -0.092532
  29 C :   -0.067242
  30 C :   -0.114821
  31 O :   -0.096761
  32 C :    0.072955
  33 S :    0.361281
  34 C :   -0.099872
  35 O :   -0.095797
  36 C :    0.069308
  37 C :   -0.120062
  38 C :    0.061193
  39 O :    0.037837
  40 C :    0.018235
  41 C :   -0.033554
  42 C :   -0.133455
  43 C :    0.174216
  44 F :   -0.062110
  45 F :   -0.057730
  46 F :   -0.065883
  47 C :   -0.031027
  48 C :   -0.043039
  49 H :    0.026325
  50 H :    0.031593
  51 H :    0.027173
  52 H :    0.027684
  53 H :    0.010080
  54 H :    0.031271
  55 H :    0.013401
  56 H :    0.008865
  57 H :    0.028704
  58 H :    0.011494
  59 H :    0.013315
  60 H :    0.008788
  61 H :    0.030580
  62 H :    0.015153
  63 H :    0.027627
  64 H :    0.009847
  65 H :    0.005484
  66 H :    0.027877
  67 H :    0.016415
  68 H :    0.031857
  69 H :    0.010527
  70 H :    0.015485
  71 H :    0.031794
  72 H :    0.030982
  73 H :    0.023685
  74 H :    0.023923

  Mayer bond orders larger than 0.100000
B(  0-C ,  1-O ) :   1.1686 B(  0-C ,  4-C ) :   1.5393 B(  0-C , 49-H ) :   1.0095
B(  1-O ,  2-C ) :   1.1419 B(  2-C ,  3-C ) :   1.5189 B(  2-C ,  9-C ) :   1.0914
B(  3-C ,  4-C ) :   1.2142 B(  3-C , 50-H ) :   1.0144 B(  4-C ,  5-C ) :   0.9629
B(  5-C ,  6-F ) :   1.1700 B(  5-C ,  7-F ) :   1.1716 B(  5-C ,  8-F ) :   1.1797
B(  9-C , 10-C ) :   1.6883 B(  9-C , 51-H ) :   0.9418 B( 10-C , 11-C ) :   1.1422
B( 10-C , 52-H ) :   0.9611 B( 11-C , 12-C ) :   1.4642 B( 11-C , 19-C ) :   1.1951
B( 12-C , 13-O ) :   1.1334 B( 12-C , 15-S ) :   1.0812 B( 13-O , 14-C ) :   0.9544
B( 14-C , 53-H ) :   0.9632 B( 14-C , 54-H ) :   0.9814 B( 14-C , 55-H ) :   0.9650
B( 15-S , 16-C ) :   1.0311 B( 16-C , 17-O ) :   1.1596 B( 16-C , 19-C ) :   1.6096
B( 17-O , 18-C ) :   0.9494 B( 18-C , 56-H ) :   0.9630 B( 18-C , 57-H ) :   0.9798
B( 18-C , 58-H ) :   0.9631 B( 19-C , 20-C ) :   0.9165 B( 20-C , 21-C ) :   1.5729
B( 20-C , 28-C ) :   1.2851 B( 21-C , 22-O ) :   1.1584 B( 21-C , 24-S ) :   1.0455
B( 22-O , 23-C ) :   0.9468 B( 23-C , 59-H ) :   0.9657 B( 23-C , 60-H ) :   0.9629
B( 23-C , 61-H ) :   0.9823 B( 24-S , 25-C ) :   1.0544 B( 25-C , 26-O ) :   1.1631
B( 25-C , 28-C ) :   1.5427 B( 26-O , 27-C ) :   0.9581 B( 27-C , 62-H ) :   0.9668
B( 27-C , 63-H ) :   0.9820 B( 27-C , 64-H ) :   0.9625 B( 28-C , 29-C ) :   0.9343
B( 29-C , 30-C ) :   1.5650 B( 29-C , 37-C ) :   1.2825 B( 30-C , 31-O ) :   1.1606
B( 30-C , 33-S ) :   1.0254 B( 31-O , 32-C ) :   0.9499 B( 32-C , 65-H ) :   0.9649
B( 32-C , 66-H ) :   0.9833 B( 32-C , 67-H ) :   0.9660 B( 33-S , 34-C ) :   1.0699
B( 34-C , 35-O ) :   1.1868 B( 34-C , 37-C ) :   1.5360 B( 35-O , 36-C ) :   0.9487
B( 36-C , 68-H ) :   0.9820 B( 36-C , 69-H ) :   0.9630 B( 36-C , 70-H ) :   0.9680
B( 37-C , 38-C ) :   0.9358 B( 38-C , 39-O ) :   1.2101 B( 38-C , 40-C ) :   0.1203
B( 38-C , 42-C ) :   1.5846 B( 39-O , 40-C ) :   1.0936 B( 40-C , 41-C ) :   1.5178
B( 40-C , 47-C ) :   1.1033 B( 41-C , 42-C ) :   1.1875 B( 41-C , 71-H ) :   1.0119
B( 42-C , 43-C ) :   0.9625 B( 43-C , 44-F ) :   1.1282 B( 43-C , 45-F ) :   1.1657
B( 43-C , 46-F ) :   1.1741 B( 47-C , 48-C ) :   1.9415 B( 47-C , 72-H ) :   0.9459
B( 48-C , 73-H ) :   0.9528 B( 48-C , 74-H ) :   0.9491

-----------------------------------------------------------------------------
         ABSORPTION SPECTRUM VIA TRANSITION ELECTRIC DIPOLE MOMENTS
-----------------------------------------------------------------------------
State   Energy  Wavelength   fosc         T2         TX        TY        TZ
        (cm-1)    (nm)                  (au**2)     (au)      (au)      (au)
-----------------------------------------------------------------------------
   0   29367.4    340.5   0.049297872   0.55263   0.14958   0.41775   0.59644
   1   30378.6    329.2   0.003231509   0.03502  -0.14081   0.07670   0.09649
   2   33082.1    302.3   0.339081412   3.37433  -0.74202  -1.24505  -1.12854
   3   33703.4    296.7   0.073778116   0.72066  -0.00064  -0.76303  -0.37207
   4   34590.6    289.1   0.291222071   2.77167  -0.58025  -1.37888  -0.73053
   5   35841.2    279.0   0.161012437   1.47895   0.25448   1.06488  -0.52935
   6   37637.2    265.7   0.025605244   0.22397  -0.38759   0.03994  -0.26860
   7   38781.7    257.9   0.003367965   0.02859  -0.07429   0.13540   0.06882
   8   38798.2    257.7   0.040062648   0.33994  -0.26870  -0.48482  -0.18083
   9   39746.8    251.6   0.021293400   0.17637   0.09363  -0.37756   0.15828
  10   39828.5    251.1   0.018446983   0.15248  -0.25313  -0.04185  -0.29437
  11   40218.8    248.6   0.290806069   2.38040   0.45080   1.36349   0.56399

FINAL SINGLE POINT ENERGY     -3627.133476520128

DIPOLE MOMENT
-------------
                                X             Y             Z
Electronic contribution:     16.21094      40.78974      13.14570
Nuclear contribution   :    -16.72958     -43.54614     -13.56389
                        -----------------------------------------
Total Dipole Moment    :     -0.51864      -2.75640      -0.41819
                        -----------------------------------------
Magnitude (a.u.)       :      2.83577
Magnitude (Debye)      :      7.20796

Rotational constants in cm-1:     0.002935     0.001458     0.001291
Rotational constants in MHz :    87.987483    43.695923    38.713993

                             ****ORCA TERMINATED NORMALLY****
TOTAL RUN TIME: 0 days 0 hours 5 minutes 26 seconds 71 msec
