                         Program Version 4.2.0 -  RELEASE  -
|  1> # ORCA input file
|  2> # SCF done       -170.805497003162          0.000361865076
|  3> ! CAM-B3LYP def2-SVP def2/J RIJCOSX Grid4 TightSCF
|  4> %maxcore 5000
|  5> %tddft
|  6>     Mode sTDDFT
|  7>     Ethresh 5.0
|  8>     maxcore 5000
|  9> end
| 10>
| 11> %pal
| 12>   nprocs 6
| 13>   end
| 14> * xyz 0 1
| 15>    C       -1.78677         4.44185         0.59740
| 16>    C       -0.46374         4.05283         0.71392
| 17>    F        0.47040         4.97868         0.93730
| 18>    C       -0.09907         2.71407         0.60693
| 19>    F        1.18267         2.37108         0.69711
| 20>    C       -1.06435         1.73395         0.35843
| 21>    C       -2.39772         2.13732         0.24195
| 22>    C       -2.75023         3.47570         0.36585
| 23>    F       -4.03128         3.83589         0.26478
| 24>    F       -3.35452         1.21957         0.06084
| 25>    C       -0.69898         0.32471         0.27484
| 26>    N        0.06684        -0.23846         1.17164
| 27>    C        0.12794        -1.55417         0.83322
| 28>    C       -0.68521        -1.82607        -0.36172
| 29>    C       -0.60740        -3.25338        -0.73157
| 30>    O       -1.16212        -3.82431        -1.63995
| 31>    C        0.30964        -3.79476         0.29169
| 32>    C        0.72445        -2.71745         1.23160
| 33>    N        1.57894        -3.20635         2.16568
| 34>    C        1.72452        -4.46985         1.87156
| 35>    C        0.96533        -4.90368         0.70365
| 36>    C       -1.19616        -0.61539        -0.75846
| 37>    C       -1.94803        -0.25870        -1.91087
| 38>    C       -2.63298        -1.15347        -2.66542
| 39>    C       -3.33277        -0.74433        -3.83213
| 40>    N       -3.12351         0.43637        -4.39805
| 41>    C       -3.91864         0.47670        -5.48213
| 42>    C       -4.72087        -0.75263        -5.60651
| 43>    C       -5.60283        -0.67331        -6.78697
| 44>    O       -6.43039        -1.47441        -7.16379
| 45>    C       -5.24159         0.62751        -7.37319
| 46>    C       -4.22066         1.30226        -6.53820
| 47>    N       -3.88878         2.50302        -7.06827
| 48>    C       -4.61386         2.61091        -8.15489
| 49>    C       -5.48070         1.47427        -8.40589
| 50>    C       -4.35002        -1.55371        -4.55256
| 51>    C       -4.84209        -2.82096        -4.14199
| 52>    C       -5.84500        -3.45864        -4.80157
| 53>    C       -6.41181        -4.67154        -4.33646
| 54>    N       -6.00910        -5.26876        -3.22108
| 55>    C       -6.80632        -6.33860        -3.06635
| 56>    C       -7.79797        -6.43404        -4.15763
| 57>    C       -8.66471        -7.60987        -3.96144
| 58>    O       -9.58081        -7.99599        -4.65301
| 59>    C       -8.14116        -8.19226        -2.71246
| 60>    C       -7.01085        -7.38584        -2.20197
| 61>    N       -6.52937        -7.91558        -1.05098
| 62>    C       -7.27029        -8.97192        -0.82279
| 63>    C       -8.29584        -9.20404        -1.82127
| 64>    C       -7.55013        -5.37398        -4.98642
| 65>    C       -8.18357        -4.95671        -6.19901
| 66>    C       -9.32154        -5.51458        -6.65256
| 67>    C      -10.01343        -5.11858        -7.86452
| 68>    C       -9.37766        -4.58240        -8.99191
| 69>    F       -8.04667        -4.44174        -9.01091
| 70>    C      -10.09896        -4.22919       -10.12511
| 71>    F       -9.45868        -3.72482       -11.18749
| 72>    C      -11.47176        -4.38982       -10.18047
| 73>    C      -12.11614        -4.92613        -9.07938
| 74>    C      -11.40268        -5.29090        -7.94675
| 75>    F      -12.05840        -5.79359        -6.89483
| 76>    F      -13.44391        -5.09134        -9.11567
| 77>    H       -2.06374         5.47947         0.69079
| 78>    H        2.35848        -5.09913         2.47188
| 79>    H        0.95777        -5.89709         0.30141
| 80>    H       -1.97904         0.78424        -2.19746
| 81>    H       -2.66438        -2.19730        -2.38705
| 82>    H       -4.53750         3.48821        -8.77346
| 83>    H       -6.14647         1.36972        -9.23935
| 84>    H       -4.42831        -3.28249        -3.25658
| 85>    H       -6.26062        -3.02032        -5.69792
| 86>    H       -7.09380        -9.58144         0.04653
| 87>    H       -9.00153       -10.01085        -1.81533
| 88>    H       -7.71904        -4.14105        -6.73333
| 89>    H       -9.80776        -6.29163        -6.07574
| 90>    H      -12.02509        -4.10921       -11.06102
| 91> *
| 92>
| 93>                          ****END OF INPUT****

CARTESIAN COORDINATES (ANGSTROEM)
---------------------------------
  C     -1.786770    4.441850    0.597400
  C     -0.463740    4.052830    0.713920
  F      0.470400    4.978680    0.937300
  C     -0.099070    2.714070    0.606930
  F      1.182670    2.371080    0.697110
  C     -1.064350    1.733950    0.358430
  C     -2.397720    2.137320    0.241950
  C     -2.750230    3.475700    0.365850
  F     -4.031280    3.835890    0.264780
  F     -3.354520    1.219570    0.060840
  C     -0.698980    0.324710    0.274840
  N      0.066840   -0.238460    1.171640
  C      0.127940   -1.554170    0.833220
  C     -0.685210   -1.826070   -0.361720
  C     -0.607400   -3.253380   -0.731570
  O     -1.162120   -3.824310   -1.639950
  C      0.309640   -3.794760    0.291690
  C      0.724450   -2.717450    1.231600
  N      1.578940   -3.206350    2.165680
  C      1.724520   -4.469850    1.871560
  C      0.965330   -4.903680    0.703650
  C     -1.196160   -0.615390   -0.758460
  C     -1.948030   -0.258700   -1.910870
  C     -2.632980   -1.153470   -2.665420
  C     -3.332770   -0.744330   -3.832130
  N     -3.123510    0.436370   -4.398050
  C     -3.918640    0.476700   -5.482130
  C     -4.720870   -0.752630   -5.606510
  C     -5.602830   -0.673310   -6.786970
  O     -6.430390   -1.474410   -7.163790
  C     -5.241590    0.627510   -7.373190
  C     -4.220660    1.302260   -6.538200
  N     -3.888780    2.503020   -7.068270
  C     -4.613860    2.610910   -8.154890
  C     -5.480700    1.474270   -8.405890
  C     -4.350020   -1.553710   -4.552560
  C     -4.842090   -2.820960   -4.141990
  C     -5.845000   -3.458640   -4.801570
  C     -6.411810   -4.671540   -4.336460
  N     -6.009100   -5.268760   -3.221080
  C     -6.806320   -6.338600   -3.066350
  C     -7.797970   -6.434040   -4.157630
  C     -8.664710   -7.609870   -3.961440
  O     -9.580810   -7.995990   -4.653010
  C     -8.141160   -8.192260   -2.712460
  C     -7.010850   -7.385840   -2.201970
  N     -6.529370   -7.915580   -1.050980
  C     -7.270290   -8.971920   -0.822790
  C     -8.295840   -9.204040   -1.821270
  C     -7.550130   -5.373980   -4.986420
  C     -8.183570   -4.956710   -6.199010
  C     -9.321540   -5.514580   -6.652560
  C    -10.013430   -5.118580   -7.864520
  C     -9.377660   -4.582400   -8.991910
  F     -8.046670   -4.441740   -9.010910
  C    -10.098960   -4.229190  -10.125110
  F     -9.458680   -3.724820  -11.187490
  C    -11.471760   -4.389820  -10.180470
  C    -12.116140   -4.926130   -9.079380
  C    -11.402680   -5.290900   -7.946750
  F    -12.058400   -5.793590   -6.894830
  F    -13.443910   -5.091340   -9.115670
  H     -2.063740    5.479470    0.690790
  H      2.358480   -5.099130    2.471880
  H      0.957770   -5.897090    0.301410
  H     -1.979040    0.784240   -2.197460
  H     -2.664380   -2.197300   -2.387050
  H     -4.537500    3.488210   -8.773460
  H     -6.146470    1.369720   -9.239350
  H     -4.428310   -3.282490   -3.256580
  H     -6.260620   -3.020320   -5.697920
  H     -7.093800   -9.581440    0.046530
  H     -9.001530  -10.010850   -1.815330
  H     -7.719040   -4.141050   -6.733330
  H     -9.807760   -6.291630   -6.075740
  H    -12.025090   -4.109210  -11.061020

 Total Charge           Charge          ....    0
 Multiplicity           Mult            ....    1
 Number of Electrons    NEL             ....  422
 Basis Dimension        Dim             ....  938

ORBITAL ENERGIES
----------------

  NO   OCC          E(Eh)            E(eV)
   0   2.0000     -24.818951      -675.3580
   1   2.0000     -24.808593      -675.0761
   2   2.0000     -24.807935      -675.0582
   3   2.0000     -24.806651      -675.0233
   4   2.0000     -24.792434      -674.6364
   5   2.0000     -24.789919      -674.5680
   6   2.0000     -24.788323      -674.5246
   7   2.0000     -24.788298      -674.5239
   8   2.0000     -19.230836      -523.2977
   9   2.0000     -19.223722      -523.1041
  10   2.0000     -19.206357      -522.6316
  11   2.0000     -14.431514      -392.7015
  12   2.0000     -14.424701      -392.5161
  13   2.0000     -14.417040      -392.3076
  14   2.0000     -14.413230      -392.2039
  15   2.0000     -14.404451      -391.9650
  16   2.0000     -14.399746      -391.8370
  17   2.0000     -10.397975      -282.9433
  18   2.0000     -10.396201      -282.8950
  19   2.0000     -10.392713      -282.8001
  20   2.0000     -10.391707      -282.7727
  21   2.0000     -10.390396      -282.7371
  22   2.0000     -10.383212      -282.5416
  23   2.0000     -10.370779      -282.2033
  24   2.0000     -10.370492      -282.1954
  25   2.0000     -10.370316      -282.1906
  26   2.0000     -10.369288      -282.1627
  27   2.0000     -10.366326      -282.0821
  28   2.0000     -10.366132      -282.0768
  29   2.0000     -10.350101      -281.6406
  30   2.0000     -10.349877      -281.6345
  31   2.0000     -10.347621      -281.5731
  32   2.0000     -10.346440      -281.5409
  33   2.0000     -10.341470      -281.4057
  34   2.0000     -10.336707      -281.2761
  35   2.0000     -10.332785      -281.1694
  36   2.0000     -10.332486      -281.1612
  37   2.0000     -10.331956      -281.1468
  38   2.0000     -10.327193      -281.0172
  39   2.0000     -10.322651      -280.8936
  40   2.0000     -10.318895      -280.7914
  41   2.0000     -10.318654      -280.7849
  42   2.0000     -10.316733      -280.7326
  43   2.0000     -10.315759      -280.7061
  44   2.0000     -10.314109      -280.6612
  45   2.0000     -10.313038      -280.6320
  46   2.0000     -10.309494      -280.5356
  47   2.0000     -10.308077      -280.4970
  48   2.0000     -10.306211      -280.4463
  49   2.0000     -10.306161      -280.4449
  50   2.0000     -10.305037      -280.4143
  51   2.0000     -10.299092      -280.2525
  52   2.0000     -10.298624      -280.2398
  53   2.0000     -10.297594      -280.2118
  54   2.0000     -10.296726      -280.1882
  55   2.0000     -10.296244      -280.1750
  56   2.0000     -10.287989      -279.9504
  57   2.0000     -10.284720      -279.8614
  58   2.0000     -10.284288      -279.8497
  59   2.0000     -10.283795      -279.8363
  60   2.0000     -10.282385      -279.7979
  61   2.0000     -10.282170      -279.7921
  62   2.0000      -1.338989       -36.4357
  63   2.0000      -1.333543       -36.2875
  64   2.0000      -1.321264       -35.9534
  65   2.0000      -1.318028       -35.8654
  66   2.0000      -1.314418       -35.7671
  67   2.0000      -1.312839       -35.7242
  68   2.0000      -1.298349       -35.3299
  69   2.0000      -1.297586       -35.3091
  70   2.0000      -1.146283       -31.1919
  71   2.0000      -1.138305       -30.9748
  72   2.0000      -1.121367       -30.5140
  73   2.0000      -1.099112       -29.9084
  74   2.0000      -1.086367       -29.5615
  75   2.0000      -1.080153       -29.3925
  76   2.0000      -1.072173       -29.1753
  77   2.0000      -1.067081       -29.0368
  78   2.0000      -1.053081       -28.6558
  79   2.0000      -1.001878       -27.2625
  80   2.0000      -0.979372       -26.6501
  81   2.0000      -0.956257       -26.0211
  82   2.0000      -0.950038       -25.8518
  83   2.0000      -0.937343       -25.5064
  84   2.0000      -0.930764       -25.3274
  85   2.0000      -0.920636       -25.0518
  86   2.0000      -0.913816       -24.8662
  87   2.0000      -0.903200       -24.5773
  88   2.0000      -0.880028       -23.9468
  89   2.0000      -0.877552       -23.8794
  90   2.0000      -0.874344       -23.7921
  91   2.0000      -0.866598       -23.5813
  92   2.0000      -0.864069       -23.5125
  93   2.0000      -0.856526       -23.3072
  94   2.0000      -0.844564       -22.9818
  95   2.0000      -0.843701       -22.9583
  96   2.0000      -0.821146       -22.3445
  97   2.0000      -0.809038       -22.0151
  98   2.0000      -0.796697       -21.6792
  99   2.0000      -0.786053       -21.3896
 100   2.0000      -0.767451       -20.8834
 101   2.0000      -0.763819       -20.7846
 102   2.0000      -0.757130       -20.6026
 103   2.0000      -0.752143       -20.4669
 104   2.0000      -0.743249       -20.2248
 105   2.0000      -0.739516       -20.1233
 106   2.0000      -0.731056       -19.8931
 107   2.0000      -0.721226       -19.6256
 108   2.0000      -0.718847       -19.5608
 109   2.0000      -0.711047       -19.3486
 110   2.0000      -0.689246       -18.7553
 111   2.0000      -0.687371       -18.7043
 112   2.0000      -0.677082       -18.4243
 113   2.0000      -0.674994       -18.3675
 114   2.0000      -0.668253       -18.1841
 115   2.0000      -0.660001       -17.9595
 116   2.0000      -0.657587       -17.8939
 117   2.0000      -0.656637       -17.8680
 118   2.0000      -0.652267       -17.7491
 119   2.0000      -0.647251       -17.6126
 120   2.0000      -0.643398       -17.5078
 121   2.0000      -0.641184       -17.4475
 122   2.0000      -0.632000       -17.1976
 123   2.0000      -0.631422       -17.1819
 124   2.0000      -0.628699       -17.1078
 125   2.0000      -0.622244       -16.9321
 126   2.0000      -0.615565       -16.7504
 127   2.0000      -0.612099       -16.6561
 128   2.0000      -0.611252       -16.6330
 129   2.0000      -0.608506       -16.5583
 130   2.0000      -0.601611       -16.3707
 131   2.0000      -0.599781       -16.3209
 132   2.0000      -0.591315       -16.0905
 133   2.0000      -0.588321       -16.0090
 134   2.0000      -0.585792       -15.9402
 135   2.0000      -0.585293       -15.9266
 136   2.0000      -0.582320       -15.8457
 137   2.0000      -0.573380       -15.6025
 138   2.0000      -0.568194       -15.4614
 139   2.0000      -0.567500       -15.4425
 140   2.0000      -0.565870       -15.3981
 141   2.0000      -0.563471       -15.3328
 142   2.0000      -0.562676       -15.3112
 143   2.0000      -0.560442       -15.2504
 144   2.0000      -0.556844       -15.1525
 145   2.0000      -0.554841       -15.0980
 146   2.0000      -0.554104       -15.0779
 147   2.0000      -0.549047       -14.9403
 148   2.0000      -0.548064       -14.9136
 149   2.0000      -0.542756       -14.7691
 150   2.0000      -0.541711       -14.7407
 151   2.0000      -0.539687       -14.6856
 152   2.0000      -0.538381       -14.6501
 153   2.0000      -0.535596       -14.5743
 154   2.0000      -0.531923       -14.4744
 155   2.0000      -0.530319       -14.4307
 156   2.0000      -0.529145       -14.3988
 157   2.0000      -0.526576       -14.3289
 158   2.0000      -0.519684       -14.1413
 159   2.0000      -0.516840       -14.0639
 160   2.0000      -0.509770       -13.8715
 161   2.0000      -0.507604       -13.8126
 162   2.0000      -0.505347       -13.7512
 163   2.0000      -0.503423       -13.6988
 164   2.0000      -0.499473       -13.5914
 165   2.0000      -0.498658       -13.5692
 166   2.0000      -0.493978       -13.4418
 167   2.0000      -0.491736       -13.3808
 168   2.0000      -0.487437       -13.2638
 169   2.0000      -0.487406       -13.2630
 170   2.0000      -0.484756       -13.1909
 171   2.0000      -0.482508       -13.1297
 172   2.0000      -0.481096       -13.0913
 173   2.0000      -0.478965       -13.0333
 174   2.0000      -0.476592       -12.9687
 175   2.0000      -0.473240       -12.8775
 176   2.0000      -0.471957       -12.8426
 177   2.0000      -0.468846       -12.7580
 178   2.0000      -0.468300       -12.7431
 179   2.0000      -0.465805       -12.6752
 180   2.0000      -0.460004       -12.5174
 181   2.0000      -0.454863       -12.3775
 182   2.0000      -0.450405       -12.2561
 183   2.0000      -0.449901       -12.2424
 184   2.0000      -0.437956       -11.9174
 185   2.0000      -0.428023       -11.6471
 186   2.0000      -0.419535       -11.4161
 187   2.0000      -0.412037       -11.2121
 188   2.0000      -0.398844       -10.8531
 189   2.0000      -0.380036       -10.3413
 190   2.0000      -0.375274       -10.2117
 191   2.0000      -0.371743       -10.1156
 192   2.0000      -0.368056       -10.0153
 193   2.0000      -0.361778        -9.8445
 194   2.0000      -0.359592        -9.7850
 195   2.0000      -0.354443        -9.6449
 196   2.0000      -0.352669        -9.5966
 197   2.0000      -0.349475        -9.5097
 198   2.0000      -0.348415        -9.4809
 199   2.0000      -0.348159        -9.4739
 200   2.0000      -0.346908        -9.4398
 201   2.0000      -0.340756        -9.2725
 202   2.0000      -0.340331        -9.2609
 203   2.0000      -0.335901        -9.1403
 204   2.0000      -0.329295        -8.9606
 205   2.0000      -0.328206        -8.9309
 206   2.0000      -0.324354        -8.8261
 207   2.0000      -0.308867        -8.4047
 208   2.0000      -0.300636        -8.1807
 209   2.0000      -0.288298        -7.8450
 210   2.0000      -0.276548        -7.5253
 211   0.0000      -0.136737        -3.7208
 212   0.0000      -0.122077        -3.3219
 213   0.0000      -0.104511        -2.8439
 214   0.0000      -0.063231        -1.7206
 215   0.0000      -0.055410        -1.5078

MULLIKEN ATOMIC CHARGES
-----------------------
   0 C :   -0.127340
   1 C :    0.231828
   2 F :   -0.166158
   3 C :    0.236198
   4 F :   -0.142155
   5 C :   -0.156276
   6 C :    0.212163
   7 C :    0.240578
   8 F :   -0.166931
   9 F :   -0.157877
  10 C :    0.019161
  11 N :   -0.011409
  12 C :    0.071767
  13 C :   -0.148733
  14 C :    0.223590
  15 O :   -0.118903
  16 C :   -0.015303
  17 C :   -0.010441
  18 N :   -0.044834
  19 C :    0.099135
  20 C :   -0.088699
  21 C :    0.054416
  22 C :    0.010294
  23 C :   -0.036114
  24 C :    0.042088
  25 N :   -0.039010
  26 C :    0.067597
  27 C :   -0.150998
  28 C :    0.227849
  29 O :   -0.141180
  30 C :   -0.004445
  31 C :   -0.030229
  32 N :   -0.050769
  33 C :    0.093223
  34 C :   -0.097425
  35 C :    0.053437
  36 C :    0.010427
  37 C :   -0.029478
  38 C :    0.038382
  39 N :   -0.032748
  40 C :    0.063755
  41 C :   -0.159687
  42 C :    0.218418
  43 O :   -0.137725
  44 C :   -0.012891
  45 C :   -0.033472
  46 N :   -0.054422
  47 C :    0.086062
  48 C :   -0.099313
  49 C :    0.035703
  50 C :   -0.020618
  51 C :   -0.000444
  52 C :   -0.063564
  53 C :    0.185071
  54 F :   -0.166242
  55 C :    0.248859
  56 F :   -0.178738
  57 C :   -0.152688
  58 C :    0.245049
  59 C :    0.186678
  60 F :   -0.163404
  61 F :   -0.176198
  62 H :    0.026607
  63 H :    0.022252
  64 H :    0.006805
  65 H :    0.023944
  66 H :    0.023804
  67 H :    0.013486
  68 H :    0.000080
  69 H :    0.015107
  70 H :    0.003852
  71 H :    0.005689
  72 H :   -0.005975
  73 H :    0.008724
  74 H :    0.026913
  75 H :    0.013851
Sum of atomic charges:   -0.0000000

LOEWDIN ATOMIC CHARGES
----------------------
   0 C :   -0.044583
   1 C :    0.058142
   2 F :   -0.042543
   3 C :    0.076136
   4 F :   -0.027170
   5 C :   -0.085788
   6 C :    0.063095
   7 C :    0.058069
   8 F :   -0.043166
   9 F :   -0.036192
  10 C :    0.072569
  11 N :   -0.072380
  12 C :    0.042628
  13 C :   -0.025575
  14 C :    0.069756
  15 O :   -0.121539
  16 C :   -0.034714
  17 C :    0.045451
  18 N :   -0.087842
  19 C :    0.092659
  20 C :   -0.021476
  21 C :   -0.034613
  22 C :    0.045637
  23 C :   -0.021005
  24 C :    0.074509
  25 N :   -0.102377
  26 C :    0.044648
  27 C :   -0.026680
  28 C :    0.071298
  29 O :   -0.137110
  30 C :   -0.039855
  31 C :    0.027000
  32 N :   -0.094092
  33 C :    0.079167
  34 C :   -0.031726
  35 C :   -0.032191
  36 C :    0.043771
  37 C :   -0.019063
  38 C :    0.069102
  39 N :   -0.103180
  40 C :    0.046507
  41 C :   -0.045398
  42 C :    0.067586
  43 O :   -0.138093
  44 C :   -0.040506
  45 C :    0.019429
  46 N :   -0.098034
  47 C :    0.069747
  48 C :   -0.038423
  49 C :   -0.021352
  50 C :   -0.020474
  51 C :    0.015119
  52 C :   -0.065293
  53 C :    0.060154
  54 F :   -0.040514
  55 C :    0.055830
  56 F :   -0.053520
  57 C :   -0.061557
  58 C :    0.054727
  59 C :    0.059997
  60 F :   -0.042205
  61 F :   -0.052059
  62 H :    0.058364
  63 H :    0.028790
  64 H :    0.039493
  65 H :    0.041179
  66 H :    0.037143
  67 H :    0.025277
  68 H :    0.036384
  69 H :    0.043115
  70 H :    0.032473
  71 H :    0.021979
  72 H :    0.033627
  73 H :    0.032523
  74 H :    0.036503
  75 H :    0.052703

  Mayer bond orders larger than 0.100000
B(  0-C ,  1-C ) :   1.3251 B(  0-C ,  5-C ) :   0.1286 B(  0-C ,  7-C ) :   1.3256
B(  0-C , 62-H ) :   1.0172 B(  1-C ,  2-F ) :   1.1293 B(  1-C ,  3-C ) :   1.2858
B(  3-C ,  4-F ) :   1.2130 B(  3-C ,  5-C ) :   1.3138 B(  5-C ,  6-C ) :   1.3316
B(  5-C , 10-C ) :   0.9455 B(  6-C ,  7-C ) :   1.3015 B(  6-C ,  9-F ) :   1.1662
B(  7-C ,  8-F ) :   1.1327 B( 10-C , 11-N ) :   1.7105 B( 10-C , 12-C ) :   0.1153
B( 10-C , 21-C ) :   1.0430 B( 11-N , 12-C ) :   1.2959 B( 12-C , 13-C ) :   1.0582
B( 12-C , 17-C ) :   1.4618 B( 13-C , 14-C ) :   0.8876 B( 13-C , 21-C ) :   1.5638
B( 14-C , 15-O ) :   2.2356 B( 14-C , 16-C ) :   0.9095 B( 16-C , 17-C ) :   1.0474
B( 16-C , 20-C ) :   1.6388 B( 17-C , 18-N ) :   1.2946 B( 18-N , 19-C ) :   1.6772
B( 19-C , 20-C ) :   1.0432 B( 19-C , 63-H ) :   0.9882 B( 20-C , 64-H ) :   1.0110
B( 21-C , 22-C ) :   1.0696 B( 22-C , 23-C ) :   1.6675 B( 22-C , 65-H ) :   0.9622
B( 23-C , 24-C ) :   1.1333 B( 23-C , 66-H ) :   0.9479 B( 24-C , 25-N ) :   1.5938
B( 24-C , 26-C ) :   0.1100 B( 24-C , 35-C ) :   0.9905 B( 25-N , 26-C ) :   1.3635
B( 26-C , 27-C ) :   1.0600 B( 26-C , 31-C ) :   1.4031 B( 27-C , 28-C ) :   0.8918
B( 27-C , 35-C ) :   1.5478 B( 28-C , 29-O ) :   2.1762 B( 28-C , 30-C ) :   0.9314
B( 30-C , 31-C ) :   1.0684 B( 30-C , 34-C ) :   1.5991 B( 31-C , 32-N ) :   1.3217
B( 32-N , 33-C ) :   1.6476 B( 33-C , 34-C ) :   1.0712 B( 33-C , 67-H ) :   0.9888
B( 34-C , 68-H ) :   1.0120 B( 35-C , 36-C ) :   1.0858 B( 36-C , 37-C ) :   1.6429
B( 36-C , 69-H ) :   0.9809 B( 37-C , 38-C ) :   1.1326 B( 37-C , 70-H ) :   0.9409
B( 38-C , 39-N ) :   1.5857 B( 38-C , 40-C ) :   0.1116 B( 38-C , 49-C ) :   0.9998
B( 39-N , 40-C ) :   1.3650 B( 40-C , 41-C ) :   1.0510 B( 40-C , 45-C ) :   1.4094
B( 41-C , 42-C ) :   0.8918 B( 41-C , 49-C ) :   1.5725 B( 42-C , 43-O ) :   2.1988
B( 42-C , 44-C ) :   0.9271 B( 44-C , 45-C ) :   1.0716 B( 44-C , 48-C ) :   1.5994
B( 45-C , 46-N ) :   1.3146 B( 46-N , 47-C ) :   1.6542 B( 47-C , 48-C ) :   1.0744
B( 47-C , 71-H ) :   0.9888 B( 48-C , 72-H ) :   1.0108 B( 49-C , 50-C ) :   1.1238
B( 50-C , 51-C ) :   1.7151 B( 50-C , 73-H ) :   0.9604 B( 51-C , 52-C ) :   1.0435
B( 51-C , 74-H ) :   0.9535 B( 52-C , 53-C ) :   1.2890 B( 52-C , 57-C ) :   0.1234
B( 52-C , 59-C ) :   1.2962 B( 53-C , 54-F ) :   1.1445 B( 53-C , 55-C ) :   1.3091
B( 55-C , 56-F ) :   1.1158 B( 55-C , 57-C ) :   1.3223 B( 57-C , 58-C ) :   1.3157
B( 57-C , 75-H ) :   1.0181 B( 58-C , 59-C ) :   1.3057 B( 58-C , 61-F ) :   1.1233
B( 59-C , 60-F ) :   1.1646

-----------------------------------------------------------------------------
         ABSORPTION SPECTRUM VIA TRANSITION ELECTRIC DIPOLE MOMENTS
-----------------------------------------------------------------------------
State   Energy  Wavelength   fosc         T2         TX        TY        TZ
        (cm-1)    (nm)                  (au**2)     (au)      (au)      (au)
-----------------------------------------------------------------------------
   0   16483.9    606.7   0.102490182   2.04690  -0.17383  -1.12162   0.87100
   1   17161.0    582.7   0.048576817   0.93188   0.44173   0.83383  -0.20367
   2   19023.0    525.7   0.330211464   5.71463  -1.62525   0.48170  -1.68557
   3   21162.8    472.5   0.238791421   3.71469  -0.29741  -1.49319   1.18178
   4   21275.0    470.0   0.228646066   3.53809  -0.09986  -1.45468   1.18829
   5   21361.2    468.1   0.087293559   1.34534   0.15382   0.87362  -0.74730
   6   21565.8    463.7   0.512804861   7.82820  -0.72956  -2.39015   1.25822
   7   21849.3    457.7   0.038989109   0.58746   0.11208  -0.57871   0.48990
   8   22186.9    450.7   0.194083677   2.87984  -1.20852  -0.24047  -1.16683
   9   23652.4    422.8   0.078970982   1.09918   0.62918   0.81669  -0.19058
  10   24673.2    405.3   0.005946968   0.07935   0.18912  -0.05139   0.20234
  11   24929.9    401.1   0.035111616   0.46367   0.49795   0.44820   0.12178
  12   25030.7    399.5   0.007141109   0.09392  -0.23235  -0.06949  -0.18737
  13   25228.7    396.4   0.003101561   0.04047  -0.13133   0.03199  -0.14900
  14   25428.1    393.3   0.021029875   0.27227   0.04156   0.50911  -0.10653
  15   25679.6    389.4   0.021342899   0.27362  -0.33428   0.33725  -0.21939
  16   25996.5    384.7   0.000849768   0.01076   0.08874   0.00028  -0.05372
  17   26193.9    381.8   0.016248596   0.20422   0.25625  -0.16398   0.33416
  18   26298.3    380.3   0.014698182   0.18400  -0.09689   0.19183  -0.37123
  19   26600.9    375.9   0.045371944   0.56152   0.16196  -0.45350   0.57413
  20   26760.9    373.7   0.376436751   4.63092  -0.79177   0.91919  -1.77739
  21   27014.2    370.2   0.201350198   2.45378   0.54877  -0.92919   1.13545
  22   27443.0    364.4   0.152735308   1.83224  -0.69662   0.95061  -0.66581
  23   27687.5    361.2   0.170944860   2.03258   0.44118  -1.35425  -0.06287
  24   29527.3    338.7   0.005488702   0.06120   0.13968  -0.20417  -0.00133
  25   29699.5    336.7   0.092415289   1.02440   0.74890   0.37059   0.57115
  26   29788.0    335.7   0.038333359   0.42365   0.46502   0.13808   0.43398
  27   29862.0    334.9   0.002622281   0.02891   0.09558  -0.01005  -0.14026
  28   30207.4    331.0   0.092978026   1.01331   0.43917  -0.32089   0.84703
  29   30386.0    329.1   0.004140578   0.04486   0.19904   0.06731  -0.02668
  30   30509.0    327.8   0.226113352   2.43991   0.85650  -0.27061   1.27792
  31   31135.4    321.2   0.009791574   0.10353   0.10391  -0.30242   0.03571
  32   31270.6    319.8   0.021200927   0.22320   0.33414   0.25505   0.21564
  33   31770.2    314.8   0.079024544   0.81888   0.26102  -0.13112   0.85648
  34   31950.1    313.0   0.011350333   0.11695  -0.18419   0.14380  -0.24970
  35   32067.2    311.8   0.067097614   0.68885   0.20962  -0.80306  -0.00224
  36   32308.9    309.5   0.366103731   3.73042  -0.35720   1.61464  -0.99788
  37   33078.1    302.3   0.157594989   1.56847  -0.62489   0.91675  -0.58100
  38   33416.6    299.3   0.236271129   2.32768   0.33549   0.99465  -1.10716
  39   33981.1    294.3   0.006653236   0.06446  -0.22917  -0.06448   0.08820
  40   34030.3    293.9   0.019831798   0.19185  -0.27323   0.26375  -0.21825
  41   34091.9    293.3   0.014164625   0.13678   0.32776  -0.06678   0.15778
  42   34335.6    291.2   0.063125851   0.60525   0.61936   0.25807   0.39376
  43   34587.6    289.1   0.009495271   0.09038  -0.13418  -0.21157  -0.16616
  44   34637.5    288.7   0.002376665   0.02259  -0.05601   0.12242  -0.06681
  45   35101.1    284.9   0.115234740   1.08078  -0.07676   1.03625  -0.03273
  46   35212.7    284.0   0.001306955   0.01222   0.04259   0.07484  -0.06931
  47   35613.8    280.8   0.023912363   0.22104  -0.04005  -0.31275   0.34875
  48   35931.9    278.3   0.018384003   0.16844  -0.26003   0.21243  -0.23600
  49   36073.2    277.2   0.024157873   0.22047   0.15991  -0.28381   0.33816
  50   36144.3    276.7   0.008385129   0.07637   0.00374  -0.19900   0.19173
  51   36248.9    275.9   0.023950907   0.21752   0.22700   0.35299  -0.20346
  52   36675.9    272.7   0.040654286   0.36492   0.00244  -0.41404   0.43987
  53   36918.4    270.9   0.006390463   0.05699  -0.20452  -0.11311  -0.04860
  54   36933.5    270.8   0.000108683   0.00097  -0.00317   0.03057  -0.00494
  55   37145.2    269.2   0.021293374   0.18872   0.22127   0.12783   0.35131
  56   37233.3    268.6   0.002128420   0.01882  -0.06538  -0.09005  -0.08022
  57   37309.9    268.0   0.001418507   0.01252  -0.11042  -0.01186  -0.01357
  58   37590.2    266.0   0.029493450   0.25830  -0.32406   0.37694   0.10583
  59   37642.9    265.7   0.090344532   0.79012   0.21905   0.77737  -0.37126
  60   37856.9    264.2   0.234461542   2.03893   0.65460  -1.08780   0.65354
  61   38199.8    261.8   0.005605630   0.04831   0.06291   0.10699   0.18140
  62   38355.4    260.7   0.106878460   0.91736  -0.41811  -0.72342  -0.46819
  63   38714.8    258.3   0.001438018   0.01223  -0.08418  -0.07141   0.00654
  64   38814.3    257.6   0.001387861   0.01177  -0.02440   0.10382  -0.01993
  65   38915.5    257.0   0.065321020   0.55259  -0.24638   0.16711  -0.68115
  66   39202.4    255.1   0.035378281   0.29710  -0.06942   0.52940   0.10961
  67   39344.2    254.2   0.001854119   0.01551  -0.05063  -0.05727  -0.09834
  68   39993.3    250.0   0.134400025   1.10634  -0.75967   0.04489  -0.72610
  69   40241.9    248.5   0.100511348   0.82227   0.46528   0.37237   0.68347

FINAL SINGLE POINT ENERGY     -3072.192962679783

DIPOLE MOMENT
-------------
                                X             Y             Z
Electronic contribution:     -6.11009      21.52942      -1.50083
Nuclear contribution   :      7.10187     -20.69458       1.84165
                        -----------------------------------------
Total Dipole Moment    :      0.99178       0.83484       0.34082
                        -----------------------------------------
Magnitude (a.u.)       :      1.34042
Magnitude (Debye)      :      3.40708

Rotational constants in cm-1:     0.001670     0.000584     0.000471
Rotational constants in MHz :    50.074195    17.504873    14.125123

                             ****ORCA TERMINATED NORMALLY****
TOTAL RUN TIME: 0 days 0 hours 6 minutes 19 seconds 639 msec
