                         Program Version 4.2.0 -  RELEASE  -
|  1> # ORCA input file
|  2> # SCF done       -204.624231804476          0.000661416769
|  3> ! CAM-B3LYP def2-SVP def2/J RIJCOSX Grid4 TightSCF
|  4> %maxcore 5000
|  5> %tddft
|  6>     Mode sTDDFT
|  7>     Ethresh 5.0
|  8>     maxcore 5000
|  9> end
| 10>
| 11> %pal
| 12>   nprocs 6
| 13>   end
| 14> * xyz 0 1
| 15>    C       -3.36732         2.16892         1.93308
| 16>    C       -2.36257         2.35485         2.87184
| 17>    C       -1.43173         1.35985         3.13363
| 18>    C       -1.47220         0.14963         2.45656
| 19>    C       -2.47096        -0.04634         1.51880
| 20>    C       -3.42744         0.96103         1.25709
| 21>    C       -4.36564         0.47110         0.25339
| 22>    C       -5.35389         1.20397        -0.35161
| 23>    C       -5.60623         2.56530        -0.08145
| 24>    N       -5.86722         3.66987         0.09017
| 25>    C       -6.22139         0.72464        -1.35427
| 26>    N       -6.95455         0.39573        -2.17539
| 27>    C       -4.04724        -0.93179         0.03583
| 28>    C       -2.74830        -1.17455         0.64366
| 29>    C       -1.83467        -2.10903         0.23202
| 30>    C       -2.05337        -2.97449        -0.85972
| 31>    N       -2.18672        -3.65628        -1.77391
| 32>    C       -0.53844        -2.23156         0.77223
| 33>    N        0.52408        -2.37857         1.17991
| 34>    C       -4.90238        -1.84039        -0.53760
| 35>    C       -4.93991        -3.23243        -0.39159
| 36>    S       -4.14016        -4.13661         0.87771
| 37>    C       -4.85065        -5.65229         0.38727
| 38>    C       -5.67248        -5.44724        -0.70955
| 39>    C       -5.74175        -4.10015        -1.14612
| 40>    C       -6.57920        -3.95051        -2.27276
| 41>    C       -7.11731        -5.14219        -2.66357
| 42>    C       -8.02135        -5.41843        -3.78805
| 43>    O       -8.44134        -6.51711        -4.05334
| 44>    O       -8.31317        -4.30867        -4.47223
| 45>    C       -9.17829        -4.47896        -5.58723
| 46>    S       -6.63697        -6.50444        -1.68344
| 47>    C       -4.55159        -6.84451         1.07561
| 48>    C       -3.63127        -7.00185         2.10338
| 49>    C       -3.57211        -8.31593         2.54858
| 50>    C       -4.46244        -9.16886         1.86238
| 51>    S       -5.36069        -8.34994         0.66184
| 52>    C       -4.32046       -10.47530         2.38296
| 53>    C       -3.33074       -10.45831         3.38459
| 54>    C       -2.83627        -9.09837         3.52853
| 55>    C       -1.89437        -8.64893         4.40622
| 56>    C       -1.52584        -7.28832         4.47636
| 57>    N       -1.23939        -6.18020         4.53957
| 58>    C       -1.24180        -9.51418         5.30979
| 59>    N       -0.71377       -10.22031         6.04253
| 60>    C       -3.11370       -11.70845         3.95607
| 61>    C       -3.93939       -12.68063         3.41485
| 62>    S       -4.99597       -12.02798         2.16530
| 63>    C       -3.99637       -14.05989         3.76402
| 64>    C       -4.98581       -14.90329         3.30693
| 65>    C       -5.08511       -16.25190         3.62542
| 66>    C       -4.09154       -16.90801         4.47388
| 67>    C       -3.04020       -16.27210         5.03942
| 68>    S       -2.71220       -14.60450         4.83067
| 69>    C       -4.50683       -18.26468         4.56225
| 70>    C       -5.68764       -18.45690         3.83934
| 71>    C       -6.12223       -19.79891         3.91283
| 72>    C       -5.28961       -20.55976         4.67169
| 73>    S       -3.94661       -19.69427         5.32658
| 74>    C       -6.07753       -17.19496         3.25404
| 75>    C       -7.24173       -16.87546         2.54274
| 76>    C       -8.29184       -17.72041         2.29264
| 77>    C       -9.46290       -17.27312         1.67176
| 78>    C      -10.64032       -17.97648         1.53951
| 79>    C      -11.69050       -17.66045         0.58704
| 80>    C      -11.86994       -16.48294        -0.09409
| 81>    C      -11.07122       -15.32946         0.04250
| 82>    N      -10.46840       -14.35316         0.10478
| 83>    C      -12.92042       -16.24780        -1.00511
| 84>    N      -13.74749       -15.98770        -1.75804
| 85>    C      -12.53751       -18.84311         0.48413
| 86>    C      -12.09770       -19.80116         1.42535
| 87>    C      -12.72194       -21.03311         1.52151
| 88>    C      -13.78788       -21.30425         0.67598
| 89>    C      -14.22787       -20.36135        -0.24084
| 90>    C      -13.61025       -19.12347        -0.34637
| 91>    C      -11.00336       -19.22032         2.19191
| 92>    C      -10.57696       -19.66200         3.42057
| 93>    C      -10.96554       -20.88970         3.99378
| 94>    N      -11.20749       -21.89151         4.50047
| 95>    C       -9.79583       -18.90971         4.32282
| 96>    N       -9.21369       -18.33514         5.12913
| 97>    H       -4.08365         2.95217         1.74709
| 98>    H       -2.31006         3.28963         3.40872
| 99>    H       -0.66538         1.52640         3.87500
|100>    H       -0.74973        -0.62125         2.67121
|101>    H       -5.72733        -1.44678        -1.11703
|102>    H       -6.77874        -3.02296        -2.77691
|103>    H       -9.34096        -3.48546        -5.99605
|104>    H      -10.12239        -4.92599        -5.26975
|105>    H       -8.71346        -5.13004        -6.33035
|106>    H       -3.04123        -6.18633         2.48167
|107>    H       -2.40197       -11.91344         4.73537
|108>    H       -5.73509       -14.46318         2.66206
|109>    H       -2.33033       -16.77571         5.67623
|110>    H       -6.99404       -20.20992         3.43959
|111>    H       -5.38364       -21.60442         4.89526
|112>    H       -7.35355       -15.84435         2.23124
|113>    H       -8.21503       -18.75400         2.58467
|114>    H       -9.41045       -16.29926         1.20473
|115>    H      -12.38797       -21.77627         2.22726
|116>    H      -14.27958       -22.26320         0.73564
|117>    H      -15.06204       -20.59153        -0.88589
|118>    H      -13.96467       -18.40441        -1.06630
|119> *
|120>
|121>                          ****END OF INPUT****

CARTESIAN COORDINATES (ANGSTROEM)
---------------------------------
  C     -3.367320    2.168920    1.933080
  C     -2.362570    2.354850    2.871840
  C     -1.431730    1.359850    3.133630
  C     -1.472200    0.149630    2.456560
  C     -2.470960   -0.046340    1.518800
  C     -3.427440    0.961030    1.257090
  C     -4.365640    0.471100    0.253390
  C     -5.353890    1.203970   -0.351610
  C     -5.606230    2.565300   -0.081450
  N     -5.867220    3.669870    0.090170
  C     -6.221390    0.724640   -1.354270
  N     -6.954550    0.395730   -2.175390
  C     -4.047240   -0.931790    0.035830
  C     -2.748300   -1.174550    0.643660
  C     -1.834670   -2.109030    0.232020
  C     -2.053370   -2.974490   -0.859720
  N     -2.186720   -3.656280   -1.773910
  C     -0.538440   -2.231560    0.772230
  N      0.524080   -2.378570    1.179910
  C     -4.902380   -1.840390   -0.537600
  C     -4.939910   -3.232430   -0.391590
  S     -4.140160   -4.136610    0.877710
  C     -4.850650   -5.652290    0.387270
  C     -5.672480   -5.447240   -0.709550
  C     -5.741750   -4.100150   -1.146120
  C     -6.579200   -3.950510   -2.272760
  C     -7.117310   -5.142190   -2.663570
  C     -8.021350   -5.418430   -3.788050
  O     -8.441340   -6.517110   -4.053340
  O     -8.313170   -4.308670   -4.472230
  C     -9.178290   -4.478960   -5.587230
  S     -6.636970   -6.504440   -1.683440
  C     -4.551590   -6.844510    1.075610
  C     -3.631270   -7.001850    2.103380
  C     -3.572110   -8.315930    2.548580
  C     -4.462440   -9.168860    1.862380
  S     -5.360690   -8.349940    0.661840
  C     -4.320460  -10.475300    2.382960
  C     -3.330740  -10.458310    3.384590
  C     -2.836270   -9.098370    3.528530
  C     -1.894370   -8.648930    4.406220
  C     -1.525840   -7.288320    4.476360
  N     -1.239390   -6.180200    4.539570
  C     -1.241800   -9.514180    5.309790
  N     -0.713770  -10.220310    6.042530
  C     -3.113700  -11.708450    3.956070
  C     -3.939390  -12.680630    3.414850
  S     -4.995970  -12.027980    2.165300
  C     -3.996370  -14.059890    3.764020
  C     -4.985810  -14.903290    3.306930
  C     -5.085110  -16.251900    3.625420
  C     -4.091540  -16.908010    4.473880
  C     -3.040200  -16.272100    5.039420
  S     -2.712200  -14.604500    4.830670
  C     -4.506830  -18.264680    4.562250
  C     -5.687640  -18.456900    3.839340
  C     -6.122230  -19.798910    3.912830
  C     -5.289610  -20.559760    4.671690
  S     -3.946610  -19.694270    5.326580
  C     -6.077530  -17.194960    3.254040
  C     -7.241730  -16.875460    2.542740
  C     -8.291840  -17.720410    2.292640
  C     -9.462900  -17.273120    1.671760
  C    -10.640320  -17.976480    1.539510
  C    -11.690500  -17.660450    0.587040
  C    -11.869940  -16.482940   -0.094090
  C    -11.071220  -15.329460    0.042500
  N    -10.468400  -14.353160    0.104780
  C    -12.920420  -16.247800   -1.005110
  N    -13.747490  -15.987700   -1.758040
  C    -12.537510  -18.843110    0.484130
  C    -12.097700  -19.801160    1.425350
  C    -12.721940  -21.033110    1.521510
  C    -13.787880  -21.304250    0.675980
  C    -14.227870  -20.361350   -0.240840
  C    -13.610250  -19.123470   -0.346370
  C    -11.003360  -19.220320    2.191910
  C    -10.576960  -19.662000    3.420570
  C    -10.965540  -20.889700    3.993780
  N    -11.207490  -21.891510    4.500470
  C     -9.795830  -18.909710    4.322820
  N     -9.213690  -18.335140    5.129130
  H     -4.083650    2.952170    1.747090
  H     -2.310060    3.289630    3.408720
  H     -0.665380    1.526400    3.875000
  H     -0.749730   -0.621250    2.671210
  H     -5.727330   -1.446780   -1.117030
  H     -6.778740   -3.022960   -2.776910
  H     -9.340960   -3.485460   -5.996050
  H    -10.122390   -4.925990   -5.269750
  H     -8.713460   -5.130040   -6.330350
  H     -3.041230   -6.186330    2.481670
  H     -2.401970  -11.913440    4.735370
  H     -5.735090  -14.463180    2.662060
  H     -2.330330  -16.775710    5.676230
  H     -6.994040  -20.209920    3.439590
  H     -5.383640  -21.604420    4.895260
  H     -7.353550  -15.844350    2.231240
  H     -8.215030  -18.754000    2.584670
  H     -9.410450  -16.299260    1.204730
  H    -12.387970  -21.776270    2.227260
  H    -14.279580  -22.263200    0.735640
  H    -15.062040  -20.591530   -0.885890
  H    -13.964670  -18.404410   -1.066300

 Total Charge           Charge          ....    0
 Multiplicity           Mult            ....    1
 Number of Electrons    NEL             ....  588
 Basis Dimension        Dim             .... 1282

ORBITAL ENERGIES
----------------

  NO   OCC          E(Eh)            E(eV)
   0   2.0000     -89.011505     -2422.1262
   1   2.0000     -89.010231     -2422.0915
   2   2.0000     -89.003566     -2421.9102
   3   2.0000     -88.994328     -2421.6588
   4   2.0000     -88.982436     -2421.3352
   5   2.0000     -88.969696     -2420.9885
   6   2.0000     -19.273687      -524.4637
   7   2.0000     -19.219621      -522.9925
   8   2.0000     -14.445594      -393.0846
   9   2.0000     -14.444661      -393.0592
  10   2.0000     -14.426207      -392.5571
  11   2.0000     -14.422077      -392.4447
  12   2.0000     -14.421944      -392.4410
  13   2.0000     -14.419930      -392.3862
  14   2.0000     -14.417371      -392.3166
  15   2.0000     -14.415092      -392.2546
  16   2.0000     -14.412752      -392.1909
  17   2.0000     -14.412507      -392.1843
  18   2.0000     -10.419485      -283.5286
  19   2.0000     -10.382272      -282.5160
  20   2.0000     -10.368497      -282.1412
  21   2.0000     -10.358100      -281.8582
  22   2.0000     -10.356399      -281.8119
  23   2.0000     -10.353383      -281.7299
  24   2.0000     -10.353090      -281.7219
  25   2.0000     -10.352743      -281.7125
  26   2.0000     -10.350536      -281.6524
  27   2.0000     -10.350338      -281.6470
  28   2.0000     -10.349979      -281.6372
  29   2.0000     -10.349194      -281.6159
  30   2.0000     -10.348760      -281.6041
  31   2.0000     -10.348627      -281.6005
  32   2.0000     -10.345351      -281.5113
  33   2.0000     -10.344185      -281.4796
  34   2.0000     -10.342885      -281.4442
  35   2.0000     -10.340896      -281.3901
  36   2.0000     -10.339917      -281.3634
  37   2.0000     -10.339365      -281.3484
  38   2.0000     -10.336962      -281.2830
  39   2.0000     -10.334526      -281.2168
  40   2.0000     -10.333571      -281.1908
  41   2.0000     -10.332114      -281.1511
  42   2.0000     -10.329981      -281.0931
  43   2.0000     -10.328755      -281.0597
  44   2.0000     -10.323961      -280.9293
  45   2.0000     -10.323951      -280.9290
  46   2.0000     -10.323715      -280.9226
  47   2.0000     -10.323500      -280.9167
  48   2.0000     -10.323396      -280.9139
  49   2.0000     -10.322922      -280.9010
  50   2.0000     -10.322871      -280.8996
  51   2.0000     -10.322400      -280.8868
  52   2.0000     -10.321410      -280.8598
  53   2.0000     -10.321023      -280.8493
  54   2.0000     -10.320681      -280.8400
  55   2.0000     -10.319899      -280.8187
  56   2.0000     -10.318103      -280.7699
  57   2.0000     -10.317661      -280.7578
  58   2.0000     -10.315913      -280.7103
  59   2.0000     -10.315493      -280.6988
  60   2.0000     -10.314719      -280.6778
  61   2.0000     -10.313817      -280.6532
  62   2.0000     -10.313472      -280.6438
  63   2.0000     -10.311160      -280.5809
  64   2.0000     -10.311111      -280.5796
  65   2.0000     -10.307493      -280.4811
  66   2.0000     -10.305599      -280.4296
  67   2.0000     -10.305244      -280.4199
  68   2.0000     -10.303781      -280.3801
  69   2.0000     -10.303021      -280.3594
  70   2.0000     -10.301781      -280.3257
  71   2.0000     -10.301625      -280.3215
  72   2.0000     -10.300592      -280.2934
  73   2.0000     -10.299536      -280.2646
  74   2.0000     -10.296382      -280.1788
  75   2.0000     -10.294442      -280.1260
  76   2.0000     -10.294317      -280.1226
  77   2.0000     -10.293712      -280.1062
  78   2.0000     -10.292893      -280.0838
  79   2.0000     -10.291570      -280.0479
  80   2.0000     -10.288084      -279.9530
  81   2.0000     -10.286359      -279.9061
  82   2.0000      -8.105733      -220.5682
  83   2.0000      -8.104470      -220.5339
  84   2.0000      -8.098652      -220.3755
  85   2.0000      -8.088509      -220.0995
  86   2.0000      -8.077420      -219.7978
  87   2.0000      -8.065263      -219.4670
  88   2.0000      -6.075065      -165.3109
  89   2.0000      -6.073783      -165.2760
  90   2.0000      -6.070776      -165.1942
  91   2.0000      -6.069615      -165.1626
  92   2.0000      -6.068197      -165.1240
  93   2.0000      -6.068038      -165.1197
  94   2.0000      -6.066720      -165.0838
  95   2.0000      -6.063523      -164.9969
  96   2.0000      -6.060697      -164.9200
  97   2.0000      -6.058054      -164.8480
  98   2.0000      -6.053757      -164.7311
  99   2.0000      -6.050356      -164.6385
 100   2.0000      -6.047218      -164.5532
 101   2.0000      -6.042847      -164.4342
 102   2.0000      -6.038671      -164.3206
 103   2.0000      -6.034680      -164.2120
 104   2.0000      -6.030373      -164.0948
 105   2.0000      -6.027341      -164.0123
 106   2.0000      -1.206183       -32.8219
 107   2.0000      -1.113315       -30.2949
 108   2.0000      -1.064553       -28.9680
 109   2.0000      -1.044313       -28.4172
 110   2.0000      -1.037734       -28.2382
 111   2.0000      -1.036065       -28.1928
 112   2.0000      -1.029062       -28.0022
 113   2.0000      -1.028051       -27.9747
 114   2.0000      -1.022500       -27.8236
 115   2.0000      -1.019879       -27.7523
 116   2.0000      -1.016768       -27.6677
 117   2.0000      -1.012039       -27.5390
 118   2.0000      -1.009203       -27.4618
 119   2.0000      -1.001301       -27.2468
 120   2.0000      -1.000934       -27.2368
 121   2.0000      -1.000333       -27.2205
 122   2.0000      -0.993959       -27.0470
 123   2.0000      -0.993203       -27.0264
 124   2.0000      -0.992324       -27.0025
 125   2.0000      -0.978823       -26.6351
 126   2.0000      -0.973163       -26.4811
 127   2.0000      -0.959658       -26.1136
 128   2.0000      -0.954751       -25.9801
 129   2.0000      -0.948625       -25.8134
 130   2.0000      -0.941848       -25.6290
 131   2.0000      -0.937078       -25.4992
 132   2.0000      -0.932434       -25.3728
 133   2.0000      -0.922453       -25.1012
 134   2.0000      -0.915350       -24.9079
 135   2.0000      -0.904444       -24.6112
 136   2.0000      -0.895735       -24.3742
 137   2.0000      -0.889403       -24.2019
 138   2.0000      -0.887494       -24.1500
 139   2.0000      -0.879531       -23.9333
 140   2.0000      -0.873345       -23.7649
 141   2.0000      -0.869879       -23.6706
 142   2.0000      -0.867420       -23.6037
 143   2.0000      -0.865648       -23.5555
 144   2.0000      -0.859714       -23.3940
 145   2.0000      -0.849563       -23.1178
 146   2.0000      -0.842408       -22.9231
 147   2.0000      -0.830085       -22.5878
 148   2.0000      -0.817125       -22.2351
 149   2.0000      -0.814373       -22.1602
 150   2.0000      -0.810601       -22.0576
 151   2.0000      -0.796475       -21.6732
 152   2.0000      -0.792617       -21.5682
 153   2.0000      -0.784625       -21.3507
 154   2.0000      -0.784618       -21.3505
 155   2.0000      -0.771502       -20.9936
 156   2.0000      -0.749665       -20.3994
 157   2.0000      -0.740567       -20.1519
 158   2.0000      -0.738606       -20.0985
 159   2.0000      -0.726018       -19.7560
 160   2.0000      -0.717752       -19.5310
 161   2.0000      -0.716204       -19.4889
 162   2.0000      -0.712594       -19.3907
 163   2.0000      -0.709979       -19.3195
 164   2.0000      -0.707594       -19.2546
 165   2.0000      -0.701769       -19.0961
 166   2.0000      -0.695125       -18.9153
 167   2.0000      -0.687736       -18.7143
 168   2.0000      -0.676389       -18.4055
 169   2.0000      -0.672198       -18.2914
 170   2.0000      -0.670255       -18.2386
 171   2.0000      -0.668314       -18.1858
 172   2.0000      -0.663897       -18.0655
 173   2.0000      -0.659780       -17.9535
 174   2.0000      -0.657949       -17.9037
 175   2.0000      -0.653499       -17.7826
 176   2.0000      -0.651455       -17.7270
 177   2.0000      -0.646082       -17.5808
 178   2.0000      -0.641875       -17.4663
 179   2.0000      -0.636736       -17.3265
 180   2.0000      -0.633985       -17.2516
 181   2.0000      -0.627053       -17.0630
 182   2.0000      -0.623128       -16.9562
 183   2.0000      -0.613534       -16.6951
 184   2.0000      -0.601271       -16.3614
 185   2.0000      -0.597503       -16.2589
 186   2.0000      -0.591735       -16.1019
 187   2.0000      -0.587314       -15.9816
 188   2.0000      -0.584453       -15.9038
 189   2.0000      -0.583720       -15.8838
 190   2.0000      -0.582718       -15.8566
 191   2.0000      -0.579998       -15.7826
 192   2.0000      -0.578748       -15.7485
 193   2.0000      -0.573575       -15.6078
 194   2.0000      -0.566723       -15.4213
 195   2.0000      -0.563846       -15.3430
 196   2.0000      -0.561197       -15.2710
 197   2.0000      -0.555427       -15.1139
 198   2.0000      -0.548336       -14.9210
 199   2.0000      -0.545256       -14.8372
 200   2.0000      -0.542809       -14.7706
 201   2.0000      -0.541911       -14.7462
 202   2.0000      -0.539455       -14.6793
 203   2.0000      -0.538430       -14.6514
 204   2.0000      -0.535952       -14.5840
 205   2.0000      -0.534928       -14.5561
 206   2.0000      -0.533085       -14.5060
 207   2.0000      -0.532266       -14.4837
 208   2.0000      -0.526753       -14.3337
 209   2.0000      -0.524132       -14.2623
 210   2.0000      -0.520603       -14.1663
 211   2.0000      -0.519975       -14.1492
 212   2.0000      -0.518921       -14.1206
 213   2.0000      -0.517027       -14.0690
 214   2.0000      -0.514495       -14.0001
 215   2.0000      -0.510194       -13.8831
 216   2.0000      -0.508988       -13.8503
 217   2.0000      -0.507286       -13.8040
 218   2.0000      -0.504111       -13.7176
 219   2.0000      -0.502525       -13.6744
 220   2.0000      -0.497740       -13.5442
 221   2.0000      -0.495971       -13.4961
 222   2.0000      -0.491638       -13.3782
 223   2.0000      -0.489322       -13.3151
 224   2.0000      -0.488566       -13.2946
 225   2.0000      -0.484797       -13.1920
 226   2.0000      -0.479502       -13.0479
 227   2.0000      -0.476602       -12.9690
 228   2.0000      -0.475562       -12.9407
 229   2.0000      -0.475016       -12.9258
 230   2.0000      -0.473031       -12.8718
 231   2.0000      -0.467484       -12.7209
 232   2.0000      -0.467068       -12.7096
 233   2.0000      -0.466112       -12.6836
 234   2.0000      -0.463495       -12.6123
 235   2.0000      -0.460887       -12.5414
 236   2.0000      -0.460181       -12.5222
 237   2.0000      -0.457827       -12.4581
 238   2.0000      -0.456121       -12.4117
 239   2.0000      -0.455376       -12.3914
 240   2.0000      -0.454626       -12.3710
 241   2.0000      -0.453341       -12.3360
 242   2.0000      -0.453022       -12.3273
 243   2.0000      -0.451760       -12.2930
 244   2.0000      -0.449969       -12.2443
 245   2.0000      -0.449625       -12.2349
 246   2.0000      -0.448858       -12.2141
 247   2.0000      -0.448288       -12.1985
 248   2.0000      -0.447701       -12.1826
 249   2.0000      -0.446828       -12.1588
 250   2.0000      -0.445971       -12.1355
 251   2.0000      -0.444480       -12.0949
 252   2.0000      -0.442803       -12.0493
 253   2.0000      -0.442308       -12.0358
 254   2.0000      -0.440715       -11.9925
 255   2.0000      -0.440449       -11.9852
 256   2.0000      -0.438062       -11.9203
 257   2.0000      -0.437191       -11.8966
 258   2.0000      -0.434403       -11.8207
 259   2.0000      -0.431855       -11.7514
 260   2.0000      -0.431299       -11.7362
 261   2.0000      -0.430330       -11.7099
 262   2.0000      -0.427448       -11.6314
 263   2.0000      -0.426803       -11.6139
 264   2.0000      -0.424469       -11.5504
 265   2.0000      -0.424237       -11.5441
 266   2.0000      -0.420897       -11.4532
 267   2.0000      -0.417458       -11.3596
 268   2.0000      -0.417162       -11.3516
 269   2.0000      -0.413951       -11.2642
 270   2.0000      -0.413753       -11.2588
 271   2.0000      -0.409046       -11.1307
 272   2.0000      -0.405520       -11.0348
 273   2.0000      -0.402088       -10.9414
 274   2.0000      -0.390647       -10.6300
 275   2.0000      -0.388052       -10.5594
 276   2.0000      -0.386127       -10.5070
 277   2.0000      -0.378726       -10.3057
 278   2.0000      -0.373211       -10.1556
 279   2.0000      -0.370230       -10.0745
 280   2.0000      -0.369233       -10.0473
 281   2.0000      -0.354940        -9.6584
 282   2.0000      -0.352374        -9.5886
 283   2.0000      -0.339404        -9.2357
 284   2.0000      -0.335473        -9.1287
 285   2.0000      -0.334039        -9.0897
 286   2.0000      -0.328025        -8.9260
 287   2.0000      -0.327145        -8.9021
 288   2.0000      -0.322113        -8.7651
 289   2.0000      -0.310249        -8.4423
 290   2.0000      -0.301867        -8.2142
 291   2.0000      -0.289311        -7.8726
 292   2.0000      -0.263961        -7.1827
 293   2.0000      -0.243772        -6.6334
 294   0.0000      -0.130596        -3.5537
 295   0.0000      -0.110928        -3.0185
 296   0.0000      -0.103955        -2.8288
 297   0.0000      -0.089012        -2.4221
 298   0.0000      -0.082184        -2.2363

MULLIKEN ATOMIC CHARGES
-----------------------
   0 C :   -0.034147
   1 C :    0.047513
   2 C :    0.046487
   3 C :   -0.030656
   4 C :    0.003539
   5 C :    0.013290
   6 C :    0.295256
   7 C :   -0.340269
   8 C :   -0.187715
   9 N :    0.160535
  10 C :   -0.180668
  11 N :    0.142542
  12 C :   -0.071765
  13 C :    0.210786
  14 C :   -0.319682
  15 C :   -0.207215
  16 N :    0.177898
  17 C :   -0.179836
  18 N :    0.168460
  19 C :    0.011105
  20 C :   -0.124734
  21 S :    0.177241
  22 C :   -0.089518
  23 C :   -0.055123
  24 C :    0.158656
  25 C :    0.012841
  26 C :   -0.131900
  27 C :    0.212444
  28 O :   -0.192355
  29 O :   -0.294787
  30 C :    0.187308
  31 S :    0.182904
  32 C :   -0.073444
  33 C :   -0.059228
  34 C :    0.023192
  35 C :   -0.091478
  36 S :    0.216454
  37 C :   -0.090818
  38 C :    0.018239
  39 C :    0.299217
  40 C :   -0.284466
  41 C :   -0.186823
  42 N :    0.182325
  43 C :   -0.187396
  44 N :    0.178734
  45 C :   -0.048826
  46 C :   -0.068475
  47 S :    0.196001
  48 C :   -0.016685
  49 C :   -0.088697
  50 C :    0.080023
  51 C :    0.057939
  52 C :   -0.113796
  53 S :    0.160523
  54 C :   -0.115177
  55 C :    0.070351
  56 C :    0.006138
  57 C :   -0.062248
  58 S :    0.141991
  59 C :    0.106271
  60 C :   -0.014117
  61 C :   -0.002229
  62 C :    0.026852
  63 C :   -0.065252
  64 C :    0.309231
  65 C :   -0.354457
  66 C :   -0.177368
  67 N :    0.135890
  68 C :   -0.189434
  69 N :    0.150661
  70 C :    0.006852
  71 C :    0.006939
  72 C :   -0.037692
  73 C :    0.048658
  74 C :    0.045479
  75 C :   -0.035234
  76 C :    0.249247
  77 C :   -0.350467
  78 C :   -0.183595
  79 N :    0.151672
  80 C :   -0.223571
  81 N :    0.181014
  82 H :    0.006908
  83 H :    0.004086
  84 H :    0.006453
  85 H :    0.010270
  86 H :    0.013884
  87 H :    0.026519
  88 H :    0.043942
  89 H :    0.038978
  90 H :    0.038060
  91 H :    0.022005
  92 H :    0.025147
  93 H :    0.000753
  94 H :    0.048216
  95 H :   -0.005133
  96 H :    0.034492
  97 H :   -0.013663
  98 H :   -0.010266
  99 H :    0.002700
 100 H :    0.003807
 101 H :    0.000786
 102 H :    0.001063
 103 H :    0.003635
Sum of atomic charges:   -0.0000000

LOEWDIN ATOMIC CHARGES
----------------------
   0 C :    0.005000
   1 C :    0.001195
   2 C :    0.005056
   3 C :    0.002037
   4 C :   -0.009915
   5 C :   -0.013560
   6 C :    0.079922
   7 C :   -0.139238
   8 C :   -0.020169
   9 N :   -0.048074
  10 C :   -0.018098
  11 N :   -0.053710
  12 C :   -0.068000
  13 C :    0.058358
  14 C :   -0.138457
  15 C :   -0.037576
  16 N :   -0.044133
  17 C :   -0.021751
  18 N :   -0.040959
  19 C :    0.036951
  20 C :   -0.179464
  21 S :    0.494734
  22 C :   -0.166173
  23 C :   -0.198489
  24 C :   -0.032593
  25 C :   -0.012023
  26 C :   -0.175932
  27 C :    0.062902
  28 O :   -0.168457
  29 O :   -0.083845
  30 C :    0.086205
  31 S :    0.444267
  32 C :   -0.184820
  33 C :   -0.018337
  34 C :   -0.062380
  35 C :   -0.175311
  36 S :    0.495499
  37 C :   -0.174180
  38 C :   -0.063347
  39 C :    0.078481
  40 C :   -0.092101
  41 C :   -0.017506
  42 N :   -0.021635
  43 C :   -0.016229
  44 N :   -0.025219
  45 C :   -0.031746
  46 C :   -0.182081
  47 S :    0.492086
  48 C :   -0.166645
  49 C :   -0.031704
  50 C :    0.014918
  51 C :   -0.044456
  52 C :   -0.134962
  53 S :    0.491172
  54 C :   -0.200793
  55 C :   -0.027114
  56 C :   -0.057817
  57 C :   -0.155118
  58 S :    0.436584
  59 C :   -0.055002
  60 C :    0.047899
  61 C :   -0.046994
  62 C :    0.058891
  63 C :   -0.078532
  64 C :    0.079752
  65 C :   -0.144103
  66 C :   -0.017886
  67 N :   -0.061674
  68 C :   -0.019602
  69 N :   -0.055206
  70 C :   -0.013702
  71 C :   -0.010414
  72 C :   -0.001285
  73 C :    0.001182
  74 C :   -0.001477
  75 C :    0.003184
  76 C :    0.071986
  77 C :   -0.145032
  78 C :   -0.020980
  79 N :   -0.055334
  80 C :   -0.026932
  81 N :   -0.048894
  82 H :    0.041706
  83 H :    0.037737
  84 H :    0.038186
  85 H :    0.042115
  86 H :    0.051075
  87 H :    0.047868
  88 H :    0.030319
  89 H :    0.026409
  90 H :    0.026380
  91 H :    0.039992
  92 H :    0.036970
  93 H :    0.030339
  94 H :    0.042039
  95 H :    0.031099
  96 H :    0.028124
  97 H :    0.034125
  98 H :    0.028060
  99 H :    0.042904
 100 H :    0.040093
 101 H :    0.036206
 102 H :    0.036314
 103 H :    0.040846

  Mayer bond orders larger than 0.100000
B(  0-C ,  1-C ) :   1.3667 B(  0-C ,  5-C ) :   1.3879 B(  0-C , 82-H ) :   0.9836
B(  1-C ,  2-C ) :   1.3811 B(  1-C , 83-H ) :   0.9857 B(  2-C ,  3-C ) :   1.3613
B(  2-C , 84-H ) :   0.9869 B(  3-C ,  4-C ) :   1.3864 B(  3-C , 85-H ) :   0.9878
B(  4-C ,  5-C ) :   1.3135 B(  4-C , 13-C ) :   1.0104 B(  5-C ,  6-C ) :   0.9958
B(  6-C ,  7-C ) :   1.6274 B(  6-C , 12-C ) :   1.0769 B(  7-C ,  8-C ) :   1.1457
B(  7-C , 10-C ) :   1.1380 B(  8-C ,  9-N ) :   2.9777 B( 10-C , 11-N ) :   2.9706
B( 12-C , 13-C ) :   1.0304 B( 12-C , 19-C ) :   1.5343 B( 13-C , 14-C ) :   1.6437
B( 14-C , 15-C ) :   1.1470 B( 14-C , 17-C ) :   1.1434 B( 15-C , 16-N ) :   3.0257
B( 17-C , 18-N ) :   2.9981 B( 19-C , 20-C ) :   1.2623 B( 19-C , 86-H ) :   0.9272
B( 20-C , 21-S ) :   1.0832 B( 20-C , 24-C ) :   1.3082 B( 21-S , 22-C ) :   1.1674
B( 22-C , 23-C ) :   1.4396 B( 22-C , 32-C ) :   1.2113 B( 23-C , 24-C ) :   1.2745
B( 23-C , 31-S ) :   1.0460 B( 24-C , 25-C ) :   1.1642 B( 25-C , 26-C ) :   1.5956
B( 25-C , 87-H ) :   0.9968 B( 26-C , 27-C ) :   0.9489 B( 26-C , 31-S ) :   1.0906
B( 27-C , 28-O ) :   2.1451 B( 27-C , 29-O ) :   1.2607 B( 29-O , 30-C ) :   0.9119
B( 30-C , 88-H ) :   0.9811 B( 30-C , 89-H ) :   0.9755 B( 30-C , 90-H ) :   0.9772
B( 32-C , 33-C ) :   1.4089 B( 32-C , 36-S ) :   1.0998 B( 33-C , 34-C ) :   1.3306
B( 33-C , 91-H ) :   0.9886 B( 34-C , 35-C ) :   1.4114 B( 34-C , 39-C ) :   0.9917
B( 35-C , 36-S ) :   1.1390 B( 35-C , 37-C ) :   1.2004 B( 37-C , 38-C ) :   1.4282
B( 37-C , 47-S ) :   1.1301 B( 38-C , 39-C ) :   1.0003 B( 38-C , 45-C ) :   1.3165
B( 39-C , 40-C ) :   1.7198 B( 40-C , 41-C ) :   1.1314 B( 40-C , 43-C ) :   1.1340
B( 41-C , 42-N ) :   2.9910 B( 43-C , 44-N ) :   2.9889 B( 45-C , 46-C ) :   1.4439
B( 45-C , 92-H ) :   0.9795 B( 46-C , 47-S ) :   1.1070 B( 46-C , 48-C ) :   1.1643
B( 48-C , 49-C ) :   1.4891 B( 48-C , 53-S ) :   1.0869 B( 49-C , 50-C ) :   1.2873
B( 49-C , 93-H ) :   0.9600 B( 50-C , 51-C ) :   1.0701 B( 50-C , 59-C ) :   1.3098
B( 51-C , 52-C ) :   1.5891 B( 51-C , 54-C ) :   1.1774 B( 52-C , 53-S ) :   1.1507
B( 52-C , 94-H ) :   0.9397 B( 54-C , 55-C ) :   1.4541 B( 54-C , 58-S ) :   1.0865
B( 55-C , 56-C ) :   1.2244 B( 55-C , 59-C ) :   1.0648 B( 56-C , 57-C ) :   1.5873
B( 56-C , 95-H ) :   0.9961 B( 57-C , 58-S ) :   1.1592 B( 57-C , 96-H ) :   0.9630
B( 59-C , 60-C ) :   1.2172 B( 60-C , 61-C ) :   1.4935 B( 60-C , 97-H ) :   0.9733
B( 61-C , 62-C ) :   1.2447 B( 61-C , 98-H ) :   0.9729 B( 62-C , 63-C ) :   1.4562
B( 62-C , 99-H ) :   0.9489 B( 63-C , 64-C ) :   1.0806 B( 63-C , 76-C ) :   1.0587
B( 64-C , 65-C ) :   1.6113 B( 64-C , 70-C ) :   0.9912 B( 65-C , 66-C ) :   1.1437
B( 65-C , 68-C ) :   1.1467 B( 66-C , 67-N ) :   2.9633 B( 68-C , 69-N ) :   2.9746
B( 70-C , 71-C ) :   1.3155 B( 70-C , 75-C ) :   1.3877 B( 71-C , 72-C ) :   1.3860
B( 71-C , 76-C ) :   1.0103 B( 72-C , 73-C ) :   1.3577 B( 72-C ,100-H ) :   0.9856
B( 73-C , 74-C ) :   1.3834 B( 73-C ,101-H ) :   0.9866 B( 74-C , 75-C ) :   1.3636
B( 74-C ,102-H ) :   0.9867 B( 75-C ,103-H ) :   0.9839 B( 76-C , 77-C ) :   1.6053
B( 77-C , 78-C ) :   1.1412 B( 77-C , 80-C ) :   1.1605 B( 78-C , 79-N ) :   2.9856
B( 80-C , 81-N ) :   3.0071

-----------------------------------------------------------------------------
         ABSORPTION SPECTRUM VIA TRANSITION ELECTRIC DIPOLE MOMENTS
-----------------------------------------------------------------------------
State   Energy  Wavelength   fosc         T2         TX        TY        TZ
        (cm-1)    (nm)                  (au**2)     (au)      (au)      (au)
-----------------------------------------------------------------------------
   0   10302.9    970.6   0.636375640  20.33436  -1.31181  -4.26608   0.64347
   1   14480.4    690.6   1.059075050  24.07815  -2.90208  -3.94404  -0.31719
   2   15230.4    656.6   0.227113781   4.90917   1.03675  -1.73978   0.89859
   3   16312.2    613.0   0.161229635   3.25393  -1.65006   0.21581  -0.69617
   4   19741.3    506.6   0.069311772   1.15586  -0.12888   0.66408  -0.83561
   5   20799.6    480.8   0.225843870   3.57460  -1.27276   1.26120  -0.60338
   6   20934.6    477.7   0.037187729   0.58480  -0.18238   0.72434   0.16391
   7   21402.9    467.2   0.087725095   1.34935   0.67026  -0.86445   0.39095
   8   22355.1    447.3   0.325681368   4.79613  -1.73755   0.75538  -1.09839
   9   23340.8    428.4   0.070796825   0.99856  -0.93187   0.00963  -0.36068
  10   24587.1    406.7   0.053735410   0.71950   0.11465  -0.83995  -0.02890
  11   25340.6    394.6   0.018940607   0.24607  -0.11840  -0.27069  -0.39847
  12   25693.1    389.2   0.027179576   0.34826   0.36714  -0.27493   0.37133
  13   26727.5    374.1   0.182689837   2.25026  -0.09751  -1.48213   0.20988
  14   27039.5    369.8   0.178071780   2.16806  -0.64578   1.01661  -0.84708
  15   27173.6    368.0   0.064067550   0.77619  -0.49641  -0.39289  -0.61270
  16   27859.5    358.9   0.046514645   0.54966  -0.25066   0.67404   0.18028
  17   28379.7    352.4   0.023972779   0.27809  -0.31533  -0.29080  -0.30675
  18   28851.9    346.6   0.093659445   1.06869   0.59948   0.82632   0.16281
  19   29337.2    340.9   0.156815120   1.75972  -0.48315   0.73313  -0.99439
  20   29461.3    339.4   0.002543801   0.02843  -0.14200   0.05615  -0.07148
  21   30215.2    331.0   0.409422635   4.46089  -1.38599  -0.83336  -1.35846
  22   30726.2    325.5   0.072213760   0.77372  -0.61901  -0.59530   0.19019
  23   30891.0    323.7   0.113812045   1.21292  -0.53365  -0.85338  -0.44708
  24   31014.4    322.4   0.199393851   2.11653   0.75717  -0.57999   1.09856
  25   31097.5    321.6   0.007816044   0.08274   0.26875  -0.04671   0.09131
  26   31344.3    319.0   0.091578670   0.96186  -0.29536  -0.61417  -0.70527
  27   31819.3    314.3   0.284898619   2.94764  -1.21745   1.20544  -0.11127
  28   31901.5    313.5   0.296434606   3.05910   0.64763  -1.36066   0.88785
  29   32248.9    310.1   0.401807515   4.10184  -1.74552   0.85696  -0.56624
  30   32335.0    309.3   0.024471212   0.24915  -0.03283   0.43889   0.23547
  31   32633.7    306.4   0.457373897   4.61404   0.69422  -1.30525   1.55834
  32   32842.9    304.5   0.126073551   1.26374   0.66138   0.30283   0.85710
  33   33644.9    297.2   0.084034064   0.82226  -0.20262  -0.87966   0.08610
  34   33717.9    296.6   0.028560714   0.27886  -0.14177  -0.48593   0.15045
  35   33966.1    294.4   0.082572521   0.80032  -0.24336   0.58802  -0.62875
  36   34045.6    293.7   0.333975469   3.22945   0.41412   1.71393  -0.34699
  37   34172.6    292.6   0.212719181   2.04929  -0.82596  -0.78365  -0.86775
  38   34349.7    291.1   0.392192052   3.75882   1.07700   1.27226   0.99007
  39   34376.1    290.9   0.073536958   0.70425  -0.76803   0.21192  -0.26358
  40   34790.8    287.4   0.040155861   0.37998  -0.02313   0.61360  -0.05421
  41   34893.7    286.6   0.328724196   3.10142  -1.06445  -0.38445  -1.34928
  42   35168.2    284.3   0.135251896   1.26610  -0.84555  -0.49268  -0.55535
  43   35360.0    282.8   0.113632758   1.05795   0.65752   0.77817   0.14166
  44   36140.9    276.7   0.094796576   0.86351   0.52634   0.17438   0.74570
  45   36246.8    275.9   0.046052134   0.41827  -0.47314  -0.28577  -0.33577
  46   36271.8    275.7   0.023467111   0.21299   0.22323  -0.37943   0.13856
  47   36429.5    274.5   0.045955534   0.41530  -0.23498   0.37649  -0.46727
  48   36529.2    273.8   0.025994147   0.23427   0.39610   0.23421   0.15007
  49   37017.1    270.1   0.141371277   1.25729  -0.78183  -0.78035  -0.19258
  50   37151.9    269.2   0.005054422   0.04479  -0.17141  -0.11466  -0.04753
  51   37291.2    268.2   0.053156854   0.46928  -0.21819  -0.62763  -0.16659
  52   37520.5    266.5   0.044006302   0.38612   0.30220   0.51051   0.18488
  53   37821.8    264.4   0.056841284   0.49476   0.16229  -0.68341   0.03714
  54   38075.6    262.6   0.075611091   0.65375   0.65309   0.05662   0.47330
  55   38374.5    260.6   0.106882125   0.91693   0.66456  -0.05055   0.68756
  56   38507.2    259.7   0.022814564   0.19505   0.14573  -0.40606   0.09448
  57   38601.8    259.1   0.055683761   0.47489  -0.31760  -0.19388  -0.58003
  58   39069.2    256.0   0.013439027   0.11324   0.19599  -0.22335   0.15794
  59   39482.1    253.3   0.023607528   0.19685  -0.36991   0.09860  -0.22426
  60   39509.8    253.1   0.178105717   1.48405   0.66218   1.02214   0.02845
  61   39939.3    250.4   0.007342012   0.06052   0.18455   0.14960   0.06388

FINAL SINGLE POINT ENERGY     -5534.160854545522

DIPOLE MOMENT
-------------
                                X             Y             Z
Electronic contribution:     23.21673      11.83127      11.27200
Nuclear contribution   :    -21.99667     -13.38071     -10.71506
                        -----------------------------------------
Total Dipole Moment    :      1.22007      -1.54944       0.55693
                        -----------------------------------------
Magnitude (a.u.)       :      2.04927
Magnitude (Debye)      :      5.20882

Rotational constants in cm-1:     0.001043     0.000234     0.000198
Rotational constants in MHz :    31.255677     7.029571     5.928015

                             ****ORCA TERMINATED NORMALLY****
TOTAL RUN TIME: 0 days 0 hours 12 minutes 31 seconds 717 msec
