                         Program Version 4.2.0 -  RELEASE  -
|  1> # ORCA input file
|  2> # SCF done       -185.910986790483          0.000943689010
|  3> ! CAM-B3LYP def2-SVP def2/J RIJCOSX Grid4 TightSCF
|  4> %maxcore 5000
|  5> %tddft
|  6>     Mode sTDDFT
|  7>     Ethresh 5.0
|  8>     maxcore 5000
|  9> end
| 10>
| 11> %pal
| 12>   nprocs 6
| 13>   end
| 14> * xyz 0 1
| 15>    C      -15.37760        -8.44820        -0.90333
| 16>    C      -15.81305        -9.42037        -0.01540
| 17>    C      -14.96108        -9.94790         0.94454
| 18>    C      -13.64941        -9.51049         1.05019
| 19>    C      -13.20383        -8.53973         0.16907
| 20>    C      -14.06603        -8.00810        -0.81725
| 21>    C      -13.33368        -7.02840        -1.60911
| 22>    C      -13.85301        -6.25612        -2.61672
| 23>    C      -15.19650        -6.30656        -3.03479
| 24>    N      -16.27347        -6.29482        -3.43566
| 25>    C      -13.13012        -5.29400        -3.35056
| 26>    N      -12.59296        -4.49880        -3.98269
| 27>    C      -11.95257        -7.07064        -1.15350
| 28>    C      -11.91981        -7.86695         0.06457
| 29>    C      -10.98431        -7.76266         1.05987
| 30>    C       -9.92359        -6.83360         1.02895
| 31>    N       -9.08977        -6.04503         1.06010
| 32>    C      -11.03113        -8.49063         2.26518
| 33>    N      -11.01404        -9.06792         3.25710
| 34>    C      -10.89139        -6.53527        -1.82968
| 35>    C       -9.53610        -6.92061        -1.77572
| 36>    S       -9.03165        -8.53907        -1.33376
| 37>    C       -7.41729        -8.18657        -1.76999
| 38>    C       -7.24522        -6.90491        -2.20912
| 39>    C       -8.45363        -6.17859        -2.22565
| 40>    C       -8.51230        -4.73921        -2.59974
| 41>    C       -7.31769        -4.35970        -3.48388
| 42>    C       -6.03411        -4.80646        -2.77562
| 43>    C       -5.95025        -6.32895        -2.68336
| 44>    C       -7.46021        -4.90566        -4.89366
| 45>    C       -6.43780        -5.16300        -5.69762
| 46>    C       -8.83000        -5.06683        -5.40910
| 47>    S       -9.71138        -6.55731        -5.20703
| 48>    C      -11.05953        -5.91263        -6.06424
| 49>    C      -10.84565        -4.63976        -6.47928
| 50>    C       -9.55988        -4.15345        -6.10941
| 51>    C       -9.05173        -2.80863        -6.53166
| 52>    C      -10.16640        -1.89178        -7.04029
| 53>    C      -11.09663        -2.68378        -7.97284
| 54>    C      -11.82851        -3.78142        -7.20506
| 55>    C      -10.97689        -1.21367        -5.95622
| 56>    C      -10.94546        -1.56656        -4.67426
| 57>    C      -11.84506        -0.14953        -6.44572
| 58>    S      -11.31016         0.88754        -7.74621
| 59>    C      -12.84140         1.66194        -7.81458
| 60>    C      -13.71754         1.16049        -6.90569
| 61>    C      -13.14072         0.13903        -6.10052
| 62>    C      -13.92260        -0.52582        -5.01481
| 63>    C      -15.43441        -0.43734        -5.24765
| 64>    C      -15.81317         1.02175        -5.54258
| 65>    C      -15.16693         1.52996        -6.82798
| 66>    C      -15.91375        -1.38654        -6.32301
| 67>    C      -15.15882        -1.82114        -7.33135
| 68>    C      -17.32569        -1.74595        -6.27099
| 69>    C      -17.83382        -2.97856        -6.48918
| 70>    C      -19.21904        -3.28917        -6.85011
| 71>    C      -20.32211        -2.52841        -6.58811
| 72>    C      -20.29632        -1.31540        -5.86547
| 73>    N      -20.33424        -0.32506        -5.28680
| 74>    C      -21.63473        -2.87590        -6.97447
| 75>    N      -22.72156        -3.10492        -7.26270
| 76>    C      -19.18357        -4.56620        -7.54868
| 77>    C      -17.87907        -5.10885        -7.46121
| 78>    C      -17.57574        -6.32812        -8.04520
| 79>    C      -18.57802        -6.99979        -8.72670
| 80>    C      -19.85944        -6.47056        -8.81517
| 81>    C      -20.17727        -5.25580        -8.22780
| 82>    C      -17.07136        -4.22213        -6.64898
| 83>    C      -15.95047        -4.54095        -5.93968
| 84>    C      -15.18207        -5.70494        -6.12867
| 85>    N      -14.49234        -6.60771        -6.29431
| 86>    C      -15.53203        -3.73190        -4.86227
| 87>    N      -15.25566        -3.14418        -3.91703
| 88>    H      -16.05340        -8.05227        -1.64331
| 89>    H      -16.83176        -9.77197        -0.07625
| 90>    H      -15.32196       -10.70897         1.61936
| 91>    H      -12.99314        -9.92945         1.79580
| 92>    H      -11.10816        -5.79222        -2.58581
| 93>    H       -6.67277        -8.95329        -1.67813
| 94>    H       -8.48219        -4.14735        -1.67874
| 95>    H       -9.45685        -4.50619        -3.09626
| 96>    H       -7.30196        -3.26486        -3.56946
| 97>    H       -6.03892        -4.38520        -1.76815
| 98>    H       -5.15469        -4.41912        -3.28998
| 99>    H       -5.14122        -6.62354        -2.01183
|100>    H       -5.73031        -6.74810        -3.66937
|101>    H       -5.41115        -5.02659        -5.40692
|102>    H       -6.60171        -5.52157        -6.69979
|103>    H      -11.93483        -6.51667        -6.19924
|104>    H       -8.33556        -2.96100        -7.34676
|105>    H       -8.50485        -2.32698        -5.71847
|106>    H       -9.69648        -1.09388        -7.62991
|107>    H      -10.49792        -3.13366        -8.76821
|108>    H      -11.81829        -2.00965        -8.43888
|109>    H      -12.43453        -4.39026        -7.88005
|110>    H      -12.50128        -3.33340        -6.46668
|111>    H      -10.35485        -2.39430        -4.32789
|112>    H      -11.50503        -1.03852        -3.92433
|113>    H      -13.00537         2.43635        -8.53743
|114>    H      -13.70636        -0.02174        -4.06763
|115>    H      -13.61418        -1.56655        -4.89963
|116>    H      -15.93075        -0.73331        -4.31679
|117>    H      -15.47217         1.62845        -4.70124
|118>    H      -16.89708         1.13126        -5.61076
|119>    H      -15.28482         2.61332        -6.90281
|120>    H      -15.67681         1.08821        -7.69159
|121>    H      -14.13052        -1.53425        -7.44295
|122>    H      -15.56103        -2.46061        -8.10134
|123>    H      -18.00880        -0.92008        -6.12202
|124>    H      -16.58176        -6.74147        -7.97825
|125>    H      -18.35926        -7.94766        -9.19428
|126>    H      -20.62375        -7.01372        -9.34964
|127>    H      -21.17766        -4.86214        -8.30546
|128> *
|129>
|130>                          ****END OF INPUT****

CARTESIAN COORDINATES (ANGSTROEM)
---------------------------------
  C    -15.377600   -8.448200   -0.903330
  C    -15.813050   -9.420370   -0.015400
  C    -14.961080   -9.947900    0.944540
  C    -13.649410   -9.510490    1.050190
  C    -13.203830   -8.539730    0.169070
  C    -14.066030   -8.008100   -0.817250
  C    -13.333680   -7.028400   -1.609110
  C    -13.853010   -6.256120   -2.616720
  C    -15.196500   -6.306560   -3.034790
  N    -16.273470   -6.294820   -3.435660
  C    -13.130120   -5.294000   -3.350560
  N    -12.592960   -4.498800   -3.982690
  C    -11.952570   -7.070640   -1.153500
  C    -11.919810   -7.866950    0.064570
  C    -10.984310   -7.762660    1.059870
  C     -9.923590   -6.833600    1.028950
  N     -9.089770   -6.045030    1.060100
  C    -11.031130   -8.490630    2.265180
  N    -11.014040   -9.067920    3.257100
  C    -10.891390   -6.535270   -1.829680
  C     -9.536100   -6.920610   -1.775720
  S     -9.031650   -8.539070   -1.333760
  C     -7.417290   -8.186570   -1.769990
  C     -7.245220   -6.904910   -2.209120
  C     -8.453630   -6.178590   -2.225650
  C     -8.512300   -4.739210   -2.599740
  C     -7.317690   -4.359700   -3.483880
  C     -6.034110   -4.806460   -2.775620
  C     -5.950250   -6.328950   -2.683360
  C     -7.460210   -4.905660   -4.893660
  C     -6.437800   -5.163000   -5.697620
  C     -8.830000   -5.066830   -5.409100
  S     -9.711380   -6.557310   -5.207030
  C    -11.059530   -5.912630   -6.064240
  C    -10.845650   -4.639760   -6.479280
  C     -9.559880   -4.153450   -6.109410
  C     -9.051730   -2.808630   -6.531660
  C    -10.166400   -1.891780   -7.040290
  C    -11.096630   -2.683780   -7.972840
  C    -11.828510   -3.781420   -7.205060
  C    -10.976890   -1.213670   -5.956220
  C    -10.945460   -1.566560   -4.674260
  C    -11.845060   -0.149530   -6.445720
  S    -11.310160    0.887540   -7.746210
  C    -12.841400    1.661940   -7.814580
  C    -13.717540    1.160490   -6.905690
  C    -13.140720    0.139030   -6.100520
  C    -13.922600   -0.525820   -5.014810
  C    -15.434410   -0.437340   -5.247650
  C    -15.813170    1.021750   -5.542580
  C    -15.166930    1.529960   -6.827980
  C    -15.913750   -1.386540   -6.323010
  C    -15.158820   -1.821140   -7.331350
  C    -17.325690   -1.745950   -6.270990
  C    -17.833820   -2.978560   -6.489180
  C    -19.219040   -3.289170   -6.850110
  C    -20.322110   -2.528410   -6.588110
  C    -20.296320   -1.315400   -5.865470
  N    -20.334240   -0.325060   -5.286800
  C    -21.634730   -2.875900   -6.974470
  N    -22.721560   -3.104920   -7.262700
  C    -19.183570   -4.566200   -7.548680
  C    -17.879070   -5.108850   -7.461210
  C    -17.575740   -6.328120   -8.045200
  C    -18.578020   -6.999790   -8.726700
  C    -19.859440   -6.470560   -8.815170
  C    -20.177270   -5.255800   -8.227800
  C    -17.071360   -4.222130   -6.648980
  C    -15.950470   -4.540950   -5.939680
  C    -15.182070   -5.704940   -6.128670
  N    -14.492340   -6.607710   -6.294310
  C    -15.532030   -3.731900   -4.862270
  N    -15.255660   -3.144180   -3.917030
  H    -16.053400   -8.052270   -1.643310
  H    -16.831760   -9.771970   -0.076250
  H    -15.321960  -10.708970    1.619360
  H    -12.993140   -9.929450    1.795800
  H    -11.108160   -5.792220   -2.585810
  H     -6.672770   -8.953290   -1.678130
  H     -8.482190   -4.147350   -1.678740
  H     -9.456850   -4.506190   -3.096260
  H     -7.301960   -3.264860   -3.569460
  H     -6.038920   -4.385200   -1.768150
  H     -5.154690   -4.419120   -3.289980
  H     -5.141220   -6.623540   -2.011830
  H     -5.730310   -6.748100   -3.669370
  H     -5.411150   -5.026590   -5.406920
  H     -6.601710   -5.521570   -6.699790
  H    -11.934830   -6.516670   -6.199240
  H     -8.335560   -2.961000   -7.346760
  H     -8.504850   -2.326980   -5.718470
  H     -9.696480   -1.093880   -7.629910
  H    -10.497920   -3.133660   -8.768210
  H    -11.818290   -2.009650   -8.438880
  H    -12.434530   -4.390260   -7.880050
  H    -12.501280   -3.333400   -6.466680
  H    -10.354850   -2.394300   -4.327890
  H    -11.505030   -1.038520   -3.924330
  H    -13.005370    2.436350   -8.537430
  H    -13.706360   -0.021740   -4.067630
  H    -13.614180   -1.566550   -4.899630
  H    -15.930750   -0.733310   -4.316790
  H    -15.472170    1.628450   -4.701240
  H    -16.897080    1.131260   -5.610760
  H    -15.284820    2.613320   -6.902810
  H    -15.676810    1.088210   -7.691590
  H    -14.130520   -1.534250   -7.442950
  H    -15.561030   -2.460610   -8.101340
  H    -18.008800   -0.920080   -6.122020
  H    -16.581760   -6.741470   -7.978250
  H    -18.359260   -7.947660   -9.194280
  H    -20.623750   -7.013720   -9.349640
  H    -21.177660   -4.862140   -8.305460

 Total Charge           Charge          ....    0
 Multiplicity           Mult            ....    1
 Number of Electrons    NEL             ....  516
 Basis Dimension        Dim             .... 1234

ORBITAL ENERGIES
----------------

  NO   OCC          E(Eh)            E(eV)
   0   2.0000     -88.964376     -2420.8437
   1   2.0000     -88.937832     -2420.1214
   2   2.0000     -88.932842     -2419.9857
   3   2.0000     -14.426260      -392.5585
   4   2.0000     -14.424439      -392.5089
   5   2.0000     -14.423139      -392.4736
   6   2.0000     -14.418812      -392.3558
   7   2.0000     -14.418039      -392.3348
   8   2.0000     -14.416405      -392.2903
   9   2.0000     -14.416361      -392.2891
  10   2.0000     -14.414091      -392.2274
  11   2.0000     -10.353894      -281.7438
  12   2.0000     -10.351589      -281.6810
  13   2.0000     -10.350409      -281.6489
  14   2.0000     -10.347114      -281.5593
  15   2.0000     -10.344868      -281.4982
  16   2.0000     -10.343794      -281.4689
  17   2.0000     -10.343167      -281.4519
  18   2.0000     -10.340502      -281.3794
  19   2.0000     -10.329229      -281.0726
  20   2.0000     -10.326214      -280.9906
  21   2.0000     -10.325277      -280.9651
  22   2.0000     -10.323502      -280.9168
  23   2.0000     -10.323241      -280.9097
  24   2.0000     -10.321880      -280.8726
  25   2.0000     -10.319775      -280.8153
  26   2.0000     -10.319744      -280.8145
  27   2.0000     -10.319114      -280.7974
  28   2.0000     -10.318688      -280.7858
  29   2.0000     -10.317465      -280.7525
  30   2.0000     -10.316854      -280.7359
  31   2.0000     -10.316163      -280.7171
  32   2.0000     -10.308523      -280.5092
  33   2.0000     -10.308380      -280.5053
  34   2.0000     -10.307989      -280.4946
  35   2.0000     -10.306685      -280.4591
  36   2.0000     -10.306528      -280.4549
  37   2.0000     -10.305158      -280.4176
  38   2.0000     -10.304859      -280.4095
  39   2.0000     -10.304372      -280.3962
  40   2.0000     -10.303244      -280.3655
  41   2.0000     -10.297150      -280.1997
  42   2.0000     -10.296912      -280.1932
  43   2.0000     -10.296321      -280.1771
  44   2.0000     -10.295433      -280.1530
  45   2.0000     -10.294445      -280.1261
  46   2.0000     -10.293055      -280.0883
  47   2.0000     -10.282198      -279.7928
  48   2.0000     -10.279361      -279.7156
  49   2.0000     -10.279313      -279.7143
  50   2.0000     -10.279205      -279.7114
  51   2.0000     -10.275609      -279.6135
  52   2.0000     -10.274337      -279.5789
  53   2.0000     -10.273625      -279.5595
  54   2.0000     -10.273557      -279.5577
  55   2.0000     -10.272830      -279.5379
  56   2.0000     -10.271880      -279.5121
  57   2.0000     -10.268282      -279.4142
  58   2.0000     -10.267907      -279.4040
  59   2.0000     -10.265496      -279.3384
  60   2.0000     -10.264306      -279.3060
  61   2.0000     -10.263327      -279.2793
  62   2.0000     -10.261206      -279.2216
  63   2.0000     -10.260826      -279.2113
  64   2.0000     -10.260481      -279.2019
  65   2.0000     -10.259787      -279.1830
  66   2.0000     -10.258375      -279.1446
  67   2.0000     -10.256264      -279.0871
  68   2.0000     -10.254226      -279.0317
  69   2.0000     -10.253642      -279.0158
  70   2.0000     -10.250254      -278.9236
  71   2.0000     -10.248499      -278.8758
  72   2.0000     -10.245978      -278.8072
  73   2.0000      -8.059570      -219.3121
  74   2.0000      -8.033387      -218.5996
  75   2.0000      -8.027682      -218.4443
  76   2.0000      -6.028857      -164.0535
  77   2.0000      -6.024652      -163.9391
  78   2.0000      -6.021816      -163.8620
  79   2.0000      -6.002630      -163.3399
  80   2.0000      -5.998447      -163.2260
  81   2.0000      -5.997045      -163.1879
  82   2.0000      -5.995714      -163.1517
  83   2.0000      -5.992772      -163.0716
  84   2.0000      -5.990006      -162.9964
  85   2.0000      -1.039127       -28.2761
  86   2.0000      -1.032159       -28.0865
  87   2.0000      -1.021247       -27.7895
  88   2.0000      -1.014838       -27.6152
  89   2.0000      -1.009235       -27.4627
  90   2.0000      -1.003061       -27.2947
  91   2.0000      -1.002037       -27.2668
  92   2.0000      -1.000329       -27.2203
  93   2.0000      -0.999718       -27.2037
  94   2.0000      -0.997474       -27.1426
  95   2.0000      -0.991602       -26.9829
  96   2.0000      -0.975496       -26.5446
  97   2.0000      -0.967213       -26.3192
  98   2.0000      -0.963938       -26.2301
  99   2.0000      -0.954486       -25.9729
 100   2.0000      -0.943119       -25.6636
 101   2.0000      -0.937243       -25.5037
 102   2.0000      -0.935725       -25.4624
 103   2.0000      -0.932057       -25.3626
 104   2.0000      -0.915198       -24.9038
 105   2.0000      -0.898929       -24.4611
 106   2.0000      -0.897408       -24.4197
 107   2.0000      -0.891828       -24.2679
 108   2.0000      -0.888641       -24.1812
 109   2.0000      -0.873621       -23.7724
 110   2.0000      -0.870066       -23.6757
 111   2.0000      -0.862753       -23.4767
 112   2.0000      -0.862270       -23.4636
 113   2.0000      -0.854844       -23.2615
 114   2.0000      -0.848182       -23.0802
 115   2.0000      -0.835934       -22.7469
 116   2.0000      -0.827129       -22.5073
 117   2.0000      -0.817225       -22.2378
 118   2.0000      -0.811612       -22.0851
 119   2.0000      -0.811243       -22.0750
 120   2.0000      -0.796933       -21.6857
 121   2.0000      -0.792557       -21.5666
 122   2.0000      -0.787453       -21.4277
 123   2.0000      -0.786519       -21.4023
 124   2.0000      -0.769251       -20.9324
 125   2.0000      -0.767297       -20.8792
 126   2.0000      -0.758709       -20.6455
 127   2.0000      -0.727315       -19.7913
 128   2.0000      -0.722922       -19.6717
 129   2.0000      -0.718165       -19.5423
 130   2.0000      -0.715470       -19.4689
 131   2.0000      -0.713988       -19.4286
 132   2.0000      -0.711988       -19.3742
 133   2.0000      -0.711316       -19.3559
 134   2.0000      -0.703418       -19.1410
 135   2.0000      -0.697857       -18.9896
 136   2.0000      -0.694734       -18.9047
 137   2.0000      -0.683138       -18.5891
 138   2.0000      -0.672832       -18.3087
 139   2.0000      -0.669197       -18.2098
 140   2.0000      -0.666378       -18.1331
 141   2.0000      -0.664395       -18.0791
 142   2.0000      -0.662526       -18.0282
 143   2.0000      -0.654138       -17.8000
 144   2.0000      -0.651419       -17.7260
 145   2.0000      -0.646881       -17.6025
 146   2.0000      -0.640091       -17.4177
 147   2.0000      -0.622576       -16.9411
 148   2.0000      -0.617209       -16.7951
 149   2.0000      -0.614886       -16.7319
 150   2.0000      -0.604442       -16.4477
 151   2.0000      -0.599048       -16.3009
 152   2.0000      -0.594412       -16.1748
 153   2.0000      -0.590394       -16.0655
 154   2.0000      -0.586315       -15.9544
 155   2.0000      -0.583569       -15.8797
 156   2.0000      -0.581858       -15.8331
 157   2.0000      -0.578722       -15.7478
 158   2.0000      -0.575380       -15.6569
 159   2.0000      -0.561267       -15.2728
 160   2.0000      -0.557259       -15.1638
 161   2.0000      -0.549878       -14.9630
 162   2.0000      -0.549334       -14.9481
 163   2.0000      -0.548400       -14.9227
 164   2.0000      -0.543475       -14.7887
 165   2.0000      -0.542422       -14.7601
 166   2.0000      -0.541485       -14.7346
 167   2.0000      -0.536909       -14.6100
 168   2.0000      -0.536256       -14.5923
 169   2.0000      -0.535660       -14.5760
 170   2.0000      -0.534325       -14.5397
 171   2.0000      -0.528046       -14.3689
 172   2.0000      -0.527502       -14.3541
 173   2.0000      -0.523214       -14.2374
 174   2.0000      -0.519057       -14.1242
 175   2.0000      -0.515374       -14.0241
 176   2.0000      -0.513462       -13.9720
 177   2.0000      -0.510769       -13.8987
 178   2.0000      -0.509649       -13.8683
 179   2.0000      -0.505638       -13.7591
 180   2.0000      -0.504711       -13.7339
 181   2.0000      -0.501481       -13.6460
 182   2.0000      -0.492210       -13.3937
 183   2.0000      -0.490694       -13.3525
 184   2.0000      -0.488814       -13.3013
 185   2.0000      -0.486737       -13.2448
 186   2.0000      -0.486561       -13.2400
 187   2.0000      -0.485218       -13.2034
 188   2.0000      -0.481542       -13.1034
 189   2.0000      -0.480312       -13.0699
 190   2.0000      -0.477380       -12.9902
 191   2.0000      -0.475192       -12.9306
 192   2.0000      -0.473855       -12.8943
 193   2.0000      -0.473400       -12.8819
 194   2.0000      -0.468963       -12.7611
 195   2.0000      -0.468372       -12.7450
 196   2.0000      -0.466468       -12.6932
 197   2.0000      -0.463821       -12.6212
 198   2.0000      -0.461482       -12.5576
 199   2.0000      -0.459838       -12.5128
 200   2.0000      -0.458484       -12.4760
 201   2.0000      -0.456450       -12.4206
 202   2.0000      -0.455586       -12.3971
 203   2.0000      -0.454860       -12.3774
 204   2.0000      -0.452661       -12.3175
 205   2.0000      -0.450926       -12.2703
 206   2.0000      -0.450479       -12.2582
 207   2.0000      -0.449595       -12.2341
 208   2.0000      -0.447972       -12.1899
 209   2.0000      -0.446133       -12.1399
 210   2.0000      -0.443832       -12.0773
 211   2.0000      -0.442867       -12.0510
 212   2.0000      -0.441857       -12.0235
 213   2.0000      -0.439239       -11.9523
 214   2.0000      -0.437238       -11.8979
 215   2.0000      -0.434266       -11.8170
 216   2.0000      -0.433325       -11.7914
 217   2.0000      -0.431149       -11.7322
 218   2.0000      -0.429156       -11.6779
 219   2.0000      -0.425631       -11.5820
 220   2.0000      -0.423182       -11.5154
 221   2.0000      -0.422605       -11.4997
 222   2.0000      -0.420244       -11.4354
 223   2.0000      -0.418735       -11.3944
 224   2.0000      -0.417838       -11.3700
 225   2.0000      -0.415770       -11.3137
 226   2.0000      -0.414121       -11.2688
 227   2.0000      -0.410840       -11.1795
 228   2.0000      -0.408889       -11.1264
 229   2.0000      -0.407876       -11.0989
 230   2.0000      -0.406430       -11.0595
 231   2.0000      -0.404283       -11.0011
 232   2.0000      -0.402372       -10.9491
 233   2.0000      -0.400829       -10.9071
 234   2.0000      -0.396894       -10.8000
 235   2.0000      -0.393235       -10.7005
 236   2.0000      -0.390165       -10.6169
 237   2.0000      -0.388011       -10.5583
 238   2.0000      -0.386272       -10.5110
 239   2.0000      -0.381533       -10.3820
 240   2.0000      -0.380734       -10.3603
 241   2.0000      -0.379840       -10.3360
 242   2.0000      -0.376880       -10.2554
 243   2.0000      -0.363888        -9.9019
 244   2.0000      -0.361336        -9.8324
 245   2.0000      -0.336850        -9.1662
 246   2.0000      -0.333050        -9.0627
 247   2.0000      -0.332010        -9.0344
 248   2.0000      -0.330140        -8.9836
 249   2.0000      -0.325375        -8.8539
 250   2.0000      -0.315113        -8.5747
 251   2.0000      -0.313003        -8.5172
 252   2.0000      -0.300791        -8.1849
 253   2.0000      -0.290098        -7.8940
 254   2.0000      -0.286727        -7.8022
 255   2.0000      -0.277696        -7.5565
 256   2.0000      -0.268072        -7.2946
 257   2.0000      -0.266417        -7.2496
 258   0.0000      -0.090224        -2.4551
 259   0.0000      -0.089003        -2.4219
 260   0.0000      -0.087062        -2.3691
 261   0.0000      -0.083980        -2.2852
 262   0.0000      -0.003331        -0.0906

MULLIKEN ATOMIC CHARGES
-----------------------
   0 C :   -0.031544
   1 C :    0.046393
   2 C :    0.048278
   3 C :   -0.033226
   4 C :    0.004498
   5 C :    0.006521
   6 C :    0.294731
   7 C :   -0.320610
   8 C :   -0.161020
   9 N :    0.122902
  10 C :   -0.186981
  11 N :    0.171670
  12 C :   -0.073582
  13 C :    0.221331
  14 C :   -0.320499
  15 C :   -0.190640
  16 N :    0.171984
  17 C :   -0.183776
  18 N :    0.158956
  19 C :    0.021123
  20 C :   -0.185441
  21 S :    0.150170
  22 C :   -0.099677
  23 C :   -0.058598
  24 C :   -0.019581
  25 C :    0.175979
  26 C :   -0.038120
  27 C :    0.039750
  28 C :    0.157118
  29 C :   -0.084912
  30 C :    0.006022
  31 C :   -0.265403
  32 S :    0.082051
  33 C :   -0.143926
  34 C :   -0.023895
  35 C :   -0.027128
  36 C :    0.221867
  37 C :   -0.071953
  38 C :    0.052706
  39 C :    0.151262
  40 C :   -0.066104
  41 C :    0.000835
  42 C :   -0.184885
  43 S :    0.090866
  44 C :   -0.130908
  45 C :   -0.055250
  46 C :   -0.061602
  47 C :    0.170615
  48 C :   -0.033981
  49 C :    0.057044
  50 C :    0.135842
  51 C :   -0.159440
  52 C :    0.035730
  53 C :    0.051903
  54 C :   -0.051623
  55 C :    0.286993
  56 C :   -0.335011
  57 C :   -0.190176
  58 N :    0.165601
  59 C :   -0.186690
  60 N :    0.163359
  61 C :    0.016475
  62 C :    0.018243
  63 C :   -0.027262
  64 C :    0.048850
  65 C :    0.048687
  66 C :   -0.035328
  67 C :    0.185459
  68 C :   -0.297938
  69 C :   -0.158938
  70 N :    0.152054
  71 C :   -0.116198
  72 N :    0.144835
  73 H :    0.002819
  74 H :    0.001085
  75 H :    0.002939
  76 H :    0.005605
  77 H :    0.026353
  78 H :    0.023250
  79 H :    0.034158
  80 H :    0.060203
  81 H :    0.018321
  82 H :    0.011519
  83 H :    0.002294
  84 H :    0.008855
  85 H :    0.017679
  86 H :    0.007781
  87 H :    0.017815
  88 H :    0.007112
  89 H :    0.002437
  90 H :   -0.003509
  91 H :    0.008808
  92 H :   -0.001582
  93 H :    0.000967
  94 H :   -0.006761
  95 H :    0.026676
  96 H :    0.011749
  97 H :    0.009526
  98 H :    0.003866
  99 H :    0.017918
 100 H :    0.028907
 101 H :    0.015626
 102 H :    0.009632
 103 H :    0.009698
 104 H :    0.008082
 105 H :    0.012474
 106 H :    0.059215
 107 H :    0.017001
 108 H :    0.030079
 109 H :    0.006000
 110 H :    0.005135
 111 H :    0.006080
 112 H :    0.007329
Sum of atomic charges:    0.0000000

LOEWDIN ATOMIC CHARGES
----------------------
   0 C :    0.004129
   1 C :   -0.000801
   2 C :    0.003357
   3 C :    0.000957
   4 C :   -0.009034
   5 C :   -0.013573
   6 C :    0.082976
   7 C :   -0.135872
   8 C :   -0.002114
   9 N :   -0.066314
  10 C :   -0.010768
  11 N :   -0.033911
  12 C :   -0.074446
  13 C :    0.061918
  14 C :   -0.135954
  15 C :   -0.027030
  16 N :   -0.048134
  17 C :   -0.019571
  18 N :   -0.048519
  19 C :    0.059059
  20 C :   -0.193143
  21 S :    0.463626
  22 C :   -0.147619
  23 C :   -0.060910
  24 C :   -0.002489
  25 C :   -0.021526
  26 C :   -0.021992
  27 C :   -0.019543
  28 C :   -0.024538
  29 C :   -0.034499
  30 C :   -0.040872
  31 C :   -0.189778
  32 S :    0.420109
  33 C :   -0.188577
  34 C :   -0.058165
  35 C :   -0.062727
  36 C :   -0.017598
  37 C :   -0.029605
  38 C :   -0.019663
  39 C :   -0.026911
  40 C :   -0.037643
  41 C :   -0.039432
  42 C :   -0.174073
  43 S :    0.423328
  44 C :   -0.197003
  45 C :   -0.069442
  46 C :   -0.063903
  47 C :   -0.016440
  48 C :   -0.022008
  49 C :   -0.017643
  50 C :   -0.027197
  51 C :   -0.028980
  52 C :   -0.009977
  53 C :    0.085142
  54 C :   -0.044936
  55 C :    0.081304
  56 C :   -0.128726
  57 C :   -0.020743
  58 N :   -0.041409
  59 C :   -0.019012
  60 N :   -0.043365
  61 C :   -0.011967
  62 C :   -0.006795
  63 C :    0.003724
  64 C :    0.006605
  65 C :    0.002958
  66 C :    0.006430
  67 C :    0.075787
  68 C :   -0.113259
  69 C :   -0.004893
  70 N :   -0.054752
  71 C :   -0.001747
  72 N :   -0.040018
  73 H :    0.040506
  74 H :    0.036541
  75 H :    0.036979
  76 H :    0.040824
  77 H :    0.044774
  78 H :    0.027665
  79 H :    0.046396
  80 H :    0.035323
  81 H :    0.037940
  82 H :    0.029082
  83 H :    0.023546
  84 H :    0.033235
  85 H :    0.034078
  86 H :    0.016902
  87 H :    0.026555
  88 H :    0.015532
  89 H :    0.034374
  90 H :    0.027050
  91 H :    0.019932
  92 H :    0.021744
  93 H :    0.016098
  94 H :    0.026824
  95 H :    0.028823
  96 H :    0.019900
  97 H :    0.023363
  98 H :    0.018298
  99 H :    0.036767
 100 H :    0.033563
 101 H :    0.033615
 102 H :    0.028290
 103 H :    0.023867
 104 H :    0.032737
 105 H :    0.028874
 106 H :    0.032526
 107 H :    0.022591
 108 H :    0.045370
 109 H :    0.041347
 110 H :    0.038021
 111 H :    0.038281
 112 H :    0.042016

  Mayer bond orders larger than 0.100000
B(  0-C ,  1-C ) :   1.3693 B(  0-C ,  5-C ) :   1.3807 B(  0-C , 73-H ) :   0.9840
B(  1-C ,  2-C ) :   1.3775 B(  1-C , 74-H ) :   0.9856 B(  2-C ,  3-C ) :   1.3634
B(  2-C , 75-H ) :   0.9873 B(  3-C ,  4-C ) :   1.3827 B(  3-C , 76-H ) :   0.9873
B(  4-C ,  5-C ) :   1.3153 B(  4-C , 13-C ) :   1.0108 B(  5-C ,  6-C ) :   0.9974
B(  6-C ,  7-C ) :   1.6150 B(  6-C , 12-C ) :   1.0722 B(  7-C ,  8-C ) :   1.1752
B(  7-C , 10-C ) :   1.1610 B(  8-C ,  9-N ) :   2.8614 B( 10-C , 11-N ) :   2.8843
B( 12-C , 13-C ) :   1.0241 B( 12-C , 19-C ) :   1.5766 B( 13-C , 14-C ) :   1.6498
B( 14-C , 15-C ) :   1.1529 B( 14-C , 17-C ) :   1.1431 B( 15-C , 16-N ) :   3.0125
B( 17-C , 18-N ) :   2.9927 B( 19-C , 20-C ) :   1.1967 B( 19-C , 77-H ) :   0.9229
B( 20-C , 21-S ) :   1.1112 B( 20-C , 24-C ) :   1.4031 B( 21-S , 22-C ) :   1.1893
B( 22-C , 23-C ) :   1.5278 B( 22-C , 78-H ) :   0.9691 B( 23-C , 24-C ) :   1.3307
B( 23-C , 28-C ) :   1.0231 B( 24-C , 25-C ) :   1.0651 B( 25-C , 26-C ) :   1.0657
B( 25-C , 79-H ) :   0.8921 B( 25-C , 80-H ) :   0.8725 B( 26-C , 27-C ) :   1.0641
B( 26-C , 29-C ) :   0.9646 B( 26-C , 81-H ) :   0.8889 B( 27-C , 28-C ) :   1.0937
B( 27-C , 82-H ) :   0.9409 B( 27-C , 83-H ) :   0.9261 B( 28-C , 84-H ) :   0.9168
B( 28-C , 85-H ) :   0.9061 B( 29-C , 30-C ) :   2.0308 B( 29-C , 31-C ) :   0.9511
B( 30-C , 86-H ) :   0.9405 B( 30-C , 87-H ) :   0.9382 B( 31-C , 32-S ) :   1.1403
B( 31-C , 35-C ) :   1.6033 B( 32-S , 33-C ) :   1.1342 B( 33-C , 34-C ) :   1.5978
B( 33-C , 88-H ) :   0.9579 B( 34-C , 35-C ) :   1.2678 B( 34-C , 39-C ) :   1.0361
B( 35-C , 36-C ) :   1.0555 B( 36-C , 37-C ) :   1.0571 B( 36-C , 89-H ) :   0.8954
B( 36-C , 90-H ) :   0.9021 B( 37-C , 38-C ) :   1.0428 B( 37-C , 40-C ) :   0.9827
B( 37-C , 91-H ) :   0.8983 B( 38-C , 39-C ) :   1.0800 B( 38-C , 92-H ) :   0.9412
B( 38-C , 93-H ) :   0.9223 B( 39-C , 94-H ) :   0.9112 B( 39-C , 95-H ) :   0.8981
B( 40-C , 41-C ) :   2.0002 B( 40-C , 42-C ) :   1.0184 B( 41-C , 96-H ) :   0.9183
B( 41-C , 97-H ) :   0.9392 B( 42-C , 43-S ) :   1.1346 B( 42-C , 46-C ) :   1.5699
B( 43-S , 44-C ) :   1.1453 B( 44-C , 45-C ) :   1.5873 B( 44-C , 98-H ) :   0.9736
B( 45-C , 46-C ) :   1.2578 B( 45-C , 50-C ) :   1.0287 B( 46-C , 47-C ) :   1.0455
B( 47-C , 48-C ) :   1.0525 B( 47-C , 99-H ) :   0.8977 B( 47-C ,100-H ) :   0.9093
B( 48-C , 49-C ) :   1.0424 B( 48-C , 51-C ) :   0.9554 B( 48-C ,101-H ) :   0.8950
B( 49-C , 50-C ) :   1.0884 B( 49-C ,102-H ) :   0.9371 B( 49-C ,103-H ) :   0.9340
B( 50-C ,104-H ) :   0.9179 B( 50-C ,105-H ) :   0.9135 B( 51-C , 52-C ) :   1.9817
B( 51-C , 53-C ) :   1.0083 B( 52-C ,106-H ) :   0.9229 B( 52-C ,107-H ) :   0.9374
B( 53-C , 54-C ) :   1.7669 B( 53-C ,108-H ) :   0.9259 B( 54-C , 55-C ) :   1.0108
B( 54-C , 67-C ) :   0.9772 B( 55-C , 56-C ) :   1.6726 B( 55-C , 61-C ) :   1.0116
B( 56-C , 57-C ) :   1.1371 B( 56-C , 59-C ) :   1.1366 B( 57-C , 58-N ) :   2.9982
B( 59-C , 60-N ) :   2.9845 B( 61-C , 62-C ) :   1.3069 B( 61-C , 66-C ) :   1.3734
B( 62-C , 63-C ) :   1.3792 B( 62-C , 67-C ) :   1.0287 B( 63-C , 64-C ) :   1.3686
B( 63-C ,109-H ) :   0.9887 B( 64-C , 65-C ) :   1.3704 B( 64-C ,110-H ) :   0.9864
B( 65-C , 66-C ) :   1.3783 B( 65-C ,111-H ) :   0.9861 B( 66-C ,112-H ) :   0.9854
B( 67-C , 68-C ) :   1.6884 B( 68-C , 69-C ) :   1.1548 B( 68-C , 71-C ) :   1.1835
B( 69-C , 70-N ) :   2.8962 B( 71-C , 72-N ) :   2.8381

-----------------------------------------------------------------------------
         ABSORPTION SPECTRUM VIA TRANSITION ELECTRIC DIPOLE MOMENTS
-----------------------------------------------------------------------------
State   Energy  Wavelength   fosc         T2         TX        TY        TZ
        (cm-1)    (nm)                  (au**2)     (au)      (au)      (au)
-----------------------------------------------------------------------------
   0   20846.1    479.7   0.073297821   1.15755   1.03921  -0.26030  -0.09916
   1   22292.9    448.6   0.215649249   3.18462   1.19429   0.17526  -1.31438
   2   23365.2    428.0   0.271544986   3.82602   1.64892  -0.57880   0.87868
   3   23502.4    425.5   0.007222358   0.10117   0.29869   0.02233   0.10701
   4   24574.4    406.9   0.060464129   0.81001   0.82378  -0.32389   0.16277
   5   24620.9    406.2   0.020427790   0.27315   0.50254  -0.13476   0.04939
   6   25606.5    390.5   0.017229524   0.22151   0.46166  -0.08515   0.03371
   7   25691.7    389.2   0.003815716   0.04889   0.21682  -0.03345  -0.02763
   8   26341.2    379.6   0.005260455   0.06575   0.03549  -0.16989   0.18874
   9   26372.3    379.2   0.062999727   0.78644  -0.17958  -0.64814   0.57802
  10   27364.7    365.4   0.284872291   3.42716   1.71851  -0.65835   0.20119
  11   27772.0    360.1   0.003259241   0.03864  -0.18344   0.07062  -0.00022
  12   28110.0    355.7   0.004242653   0.04969   0.15248   0.05363   0.15350
  13   28147.5    355.3   0.002808481   0.03285   0.16761  -0.05366   0.04332
  14   28830.0    346.9   0.086181392   0.98411   0.91814   0.20576  -0.31432
  15   28997.3    344.9   0.029629959   0.33639   0.53680   0.01741   0.21894
  16   29117.3    343.4   0.137862474   1.55873  -1.20899  -0.29243   0.10748
  17   29379.5    340.4   0.003805217   0.04264   0.14564  -0.06945   0.12886
  18   29806.7    335.5   0.099012502   1.09358  -0.45474  -0.63115   0.69889
  19   30807.7    324.6   0.000141057   0.00151   0.03818   0.00602   0.00366
  20   31144.6    321.1   0.056494284   0.59717  -0.54195   0.50774  -0.21368
  21   31462.1    317.8   0.288438183   3.01815   1.35187  -0.30215   1.04848
  22   31553.4    316.9   0.033876305   0.35345  -0.48462   0.09823  -0.33006
  23   32129.8    311.2   0.029294450   0.30016  -0.52843  -0.14461   0.00337
  24   32330.7    309.3   0.108875022   1.10863  -1.04071  -0.15884  -0.01824
  25   32913.4    303.8   0.053204461   0.53217  -0.09524   0.25202  -0.67793
  26   33336.0    300.0   0.219597025   2.16865  -1.06884   0.79286  -0.63055
  27   33537.1    298.2   0.000596252   0.00585   0.01285  -0.03100   0.06875
  28   34165.7    292.7   0.364090003   3.50828   1.09978  -0.23282   1.49819
  29   34504.7    289.8   0.012171085   0.11613   0.07349   0.19923  -0.26652
  30   34614.9    288.9   0.016299697   0.15502  -0.20500  -0.27009   0.20011
  31   34999.2    285.7   0.201574537   1.89607   0.44983   1.09792  -0.69878
  32   35363.8    282.8   0.387743982   3.60962   1.84152   0.15257  -0.44176
  33   36262.9    275.8   0.521351654   4.73308   0.64276   1.78565   1.06368
  34   36312.8    275.4   0.009239349   0.08376   0.07782   0.25576   0.11087
  35   36322.4    275.3   0.028801850   0.26105  -0.18178  -0.39898  -0.26235
  36   37998.6    263.2   0.027105560   0.23484  -0.15113  -0.41157  -0.20643
  37   38689.4    258.5   0.000934553   0.00795   0.04833   0.05134   0.05460
  38   38789.7    257.8   0.000064080   0.00054   0.02226   0.00661  -0.00214
  39   39346.8    254.2   0.000247764   0.00207  -0.04043  -0.01549   0.01410
  40   39742.7    251.6   0.001372702   0.01137   0.05115   0.08286  -0.04347
  41   39830.1    251.1   0.011122719   0.09193  -0.20937   0.12541  -0.17991

FINAL SINGLE POINT ENERGY     -4015.004000663780

DIPOLE MOMENT
-------------
                                X             Y             Z
Electronic contribution:    -32.69437     -30.63637      24.28421
Nuclear contribution   :     33.72065      29.10049     -26.41448
                        -----------------------------------------
Total Dipole Moment    :      1.02629      -1.53588      -2.13027
                        -----------------------------------------
Magnitude (a.u.)       :      2.81962
Magnitude (Debye)      :      7.16691

Rotational constants in cm-1:     0.001275     0.000713     0.000535
Rotational constants in MHz :    38.211159    21.389242    16.052020

                             ****ORCA TERMINATED NORMALLY****
TOTAL RUN TIME: 0 days 0 hours 36 minutes 53 seconds 832 msec
