                         Program Version 4.2.0 -  RELEASE  -
|  1> # ORCA input file
|  2> # SCF done       -188.667175669202          0.000717215946
|  3> ! CAM-B3LYP def2-SVP def2/J RIJCOSX Grid4 TightSCF
|  4> %maxcore 5000
|  5> %tddft
|  6>     Mode sTDDFT
|  7>     Ethresh 5.0
|  8>     maxcore 5000
|  9> end
| 10>
| 11> %pal
| 12>   nprocs 6
| 13>   end
| 14> * xyz 0 1
| 15>    C       -0.06426        -0.62780         3.21211
| 16>    C       -0.17971         0.42404         4.11551
| 17>    C       -0.00504         1.78597         3.69425
| 18>    N       -0.14898         2.78053         4.59816
| 19>    C       -0.42017         2.46557         5.83246
| 20>    C       -0.56852         1.12251         6.24745
| 21>    N       -0.45908         0.13360         5.41196
| 22>    C        0.29581         2.08647         2.34203
| 23>    C        0.38378         0.99647         1.43648
| 24>    C        0.21116        -0.35456         1.87672
| 25>    N        0.32140        -1.38469         0.99836
| 26>    C        0.58695        -1.09585        -0.24032
| 27>    C        0.74751         0.24005        -0.68054
| 28>    N        0.64753         1.24969         0.13466
| 29>    C        0.51398         3.39625         1.81210
| 30>    C        0.63746         4.54788         2.51542
| 31>    C        0.85088         5.81918         1.92418
| 32>    C        0.87819         6.18737         0.58763
| 33>    C        1.11433         7.54949         0.42026
| 34>    C        1.27929         8.23381         1.64069
| 35>    S        1.12745         7.19677         2.98525
| 36>    C        1.53276         9.59925         1.36330
| 37>    C        1.50096         9.78337        -0.02940
| 38>    C        1.25473         8.50195        -0.66916
| 39>    C        1.21712         8.24669        -2.00876
| 40>    C        1.39875         9.25537        -2.97581
| 41>    N        1.55660        10.06569        -3.77330
| 42>    C        1.00624         6.95213        -2.52814
| 43>    N        0.83144         5.90849        -2.96976
| 44>    C        1.74398        11.10150        -0.41026
| 45>    C        2.00504        11.91993         0.67605
| 46>    S        1.87244        11.05022         2.19977
| 47>    C        2.36083        13.30553         0.67874
| 48>    S        1.93592        14.15043         2.19400
| 49>    C        1.38215        15.69002         1.55326
| 50>    C        0.38278        16.42741         2.10576
| 51>    S        0.12756        17.89983         1.25491
| 52>    C        1.36382        17.50623         0.12666
| 53>    C        1.94834        16.31163         0.40985
| 54>    S        3.29200        15.64245        -0.50487
| 55>    C        2.99644        13.89959        -0.37610
| 56>    C        3.54152        13.12461        -1.44683
| 57>    C        3.76838        13.55286        -2.71051
| 58>    C        4.17720        12.68321        -3.75376
| 59>    C        4.32277        11.30374        -3.71917
| 60>    C        4.60108        10.77299        -4.97235
| 61>    C        4.69757        11.75272        -5.97973
| 62>    S        4.42224        13.32270        -5.37250
| 63>    C        4.97242        11.11676        -7.21354
| 64>    C        5.03598         9.72682        -6.98441
| 65>    C        4.78663         9.46443        -5.57820
| 66>    C        4.69216         8.25066        -4.95958
| 67>    C        4.88165         7.03366        -5.64796
| 68>    N        5.04662         6.03759        -6.19155
| 69>    C        4.37688         8.12885        -3.59299
| 70>    N        4.10346         8.02254        -2.48273
| 71>    C        5.28667         9.00307        -8.14310
| 72>    C        5.42110         9.81911        -9.25790
| 73>    S        5.22530        11.52311        -8.85762
| 74>    C        5.67731         9.42931       -10.60326
| 75>    C        5.84892         8.08433       -11.01944
| 76>    C        6.06938         7.77266       -12.39952
| 77>    N        6.21713         6.47985       -12.77496
| 78>    C        6.15417         5.54957       -11.86820
| 79>    C        5.94747         5.85906       -10.50753
| 80>    N        5.80363         7.09001       -10.10847
| 81>    C        6.13541         8.76650       -13.40717
| 82>    C        5.99335        10.10750       -12.98946
| 83>    C        5.76369        10.41944       -11.61054
| 84>    N        5.61790        11.69939       -11.22645
| 85>    C        5.69015        12.65043       -12.11332
| 86>    C        5.93198        12.34487       -13.46758
| 87>    N        6.07816        11.11929       -13.88125
| 88>    C        6.34198         8.33234       -14.76998
| 89>    C        6.34291         9.08546       -15.87016
| 90>    H       -0.18283        -1.64474         3.54755
| 91>    H       -0.53515         3.28669         6.52791
| 92>    H       -0.78967         0.87292         7.27677
| 93>    H        0.67428        -1.92648        -0.92813
| 94>    H        0.95553         0.47131        -1.71653
| 95>    H        0.61556         3.41324         0.73578
| 96>    H        0.57925         4.51857         3.59330
| 97>    H        0.72826         5.49052        -0.21596
| 98>    H        1.68157        11.46212        -1.42027
| 99>    H       -0.19882        16.19389         2.97390
|100>    H        1.60519        18.17952        -0.67014
|101>    H        3.77069        12.09858        -1.19882
|102>    H        3.56723        14.58028        -2.98080
|103>    H        4.21052        10.71892        -2.82593
|104>    H        5.37391         7.93483        -8.21068
|105>    H        6.27536         4.52948       -12.20731
|106>    H        5.90575         5.09511        -9.74341
|107>    H        5.56519        13.66427       -11.76045
|108>    H        6.01100        13.12270       -14.21526
|109>    H        6.49517         7.26436       -14.85122
|110>    H        6.18141        10.14724       -15.83735
|111>    H        6.51062         8.63852       -16.83592
|112> *
|113>
|114>                          ****END OF INPUT****

CARTESIAN COORDINATES (ANGSTROEM)
---------------------------------
  C     -0.064260   -0.627800    3.212110
  C     -0.179710    0.424040    4.115510
  C     -0.005040    1.785970    3.694250
  N     -0.148980    2.780530    4.598160
  C     -0.420170    2.465570    5.832460
  C     -0.568520    1.122510    6.247450
  N     -0.459080    0.133600    5.411960
  C      0.295810    2.086470    2.342030
  C      0.383780    0.996470    1.436480
  C      0.211160   -0.354560    1.876720
  N      0.321400   -1.384690    0.998360
  C      0.586950   -1.095850   -0.240320
  C      0.747510    0.240050   -0.680540
  N      0.647530    1.249690    0.134660
  C      0.513980    3.396250    1.812100
  C      0.637460    4.547880    2.515420
  C      0.850880    5.819180    1.924180
  C      0.878190    6.187370    0.587630
  C      1.114330    7.549490    0.420260
  C      1.279290    8.233810    1.640690
  S      1.127450    7.196770    2.985250
  C      1.532760    9.599250    1.363300
  C      1.500960    9.783370   -0.029400
  C      1.254730    8.501950   -0.669160
  C      1.217120    8.246690   -2.008760
  C      1.398750    9.255370   -2.975810
  N      1.556600   10.065690   -3.773300
  C      1.006240    6.952130   -2.528140
  N      0.831440    5.908490   -2.969760
  C      1.743980   11.101500   -0.410260
  C      2.005040   11.919930    0.676050
  S      1.872440   11.050220    2.199770
  C      2.360830   13.305530    0.678740
  S      1.935920   14.150430    2.194000
  C      1.382150   15.690020    1.553260
  C      0.382780   16.427410    2.105760
  S      0.127560   17.899830    1.254910
  C      1.363820   17.506230    0.126660
  C      1.948340   16.311630    0.409850
  S      3.292000   15.642450   -0.504870
  C      2.996440   13.899590   -0.376100
  C      3.541520   13.124610   -1.446830
  C      3.768380   13.552860   -2.710510
  C      4.177200   12.683210   -3.753760
  C      4.322770   11.303740   -3.719170
  C      4.601080   10.772990   -4.972350
  C      4.697570   11.752720   -5.979730
  S      4.422240   13.322700   -5.372500
  C      4.972420   11.116760   -7.213540
  C      5.035980    9.726820   -6.984410
  C      4.786630    9.464430   -5.578200
  C      4.692160    8.250660   -4.959580
  C      4.881650    7.033660   -5.647960
  N      5.046620    6.037590   -6.191550
  C      4.376880    8.128850   -3.592990
  N      4.103460    8.022540   -2.482730
  C      5.286670    9.003070   -8.143100
  C      5.421100    9.819110   -9.257900
  S      5.225300   11.523110   -8.857620
  C      5.677310    9.429310  -10.603260
  C      5.848920    8.084330  -11.019440
  C      6.069380    7.772660  -12.399520
  N      6.217130    6.479850  -12.774960
  C      6.154170    5.549570  -11.868200
  C      5.947470    5.859060  -10.507530
  N      5.803630    7.090010  -10.108470
  C      6.135410    8.766500  -13.407170
  C      5.993350   10.107500  -12.989460
  C      5.763690   10.419440  -11.610540
  N      5.617900   11.699390  -11.226450
  C      5.690150   12.650430  -12.113320
  C      5.931980   12.344870  -13.467580
  N      6.078160   11.119290  -13.881250
  C      6.341980    8.332340  -14.769980
  C      6.342910    9.085460  -15.870160
  H     -0.182830   -1.644740    3.547550
  H     -0.535150    3.286690    6.527910
  H     -0.789670    0.872920    7.276770
  H      0.674280   -1.926480   -0.928130
  H      0.955530    0.471310   -1.716530
  H      0.615560    3.413240    0.735780
  H      0.579250    4.518570    3.593300
  H      0.728260    5.490520   -0.215960
  H      1.681570   11.462120   -1.420270
  H     -0.198820   16.193890    2.973900
  H      1.605190   18.179520   -0.670140
  H      3.770690   12.098580   -1.198820
  H      3.567230   14.580280   -2.980800
  H      4.210520   10.718920   -2.825930
  H      5.373910    7.934830   -8.210680
  H      6.275360    4.529480  -12.207310
  H      5.905750    5.095110   -9.743410
  H      5.565190   13.664270  -11.760450
  H      6.011000   13.122700  -14.215260
  H      6.495170    7.264360  -14.851220
  H      6.181410   10.147240  -15.837350
  H      6.510620    8.638520  -16.835920

 Total Charge           Charge          ....    0
 Multiplicity           Mult            ....    1
 Number of Electrons    NEL             ....  554
 Basis Dimension        Dim             .... 1188

ORBITAL ENERGIES
----------------

  NO   OCC          E(Eh)            E(eV)
   0   2.0000     -88.976202     -2421.1655
   1   2.0000     -88.973074     -2421.0804
   2   2.0000     -88.972252     -2421.0581
   3   2.0000     -88.964713     -2420.8529
   4   2.0000     -88.962624     -2420.7961
   5   2.0000     -88.945173     -2420.3212
   6   2.0000     -88.941296     -2420.2157
   7   2.0000     -14.439209      -392.9108
   8   2.0000     -14.431619      -392.7043
   9   2.0000     -14.426556      -392.5666
  10   2.0000     -14.426230      -392.5577
  11   2.0000     -14.424374      -392.5072
  12   2.0000     -14.421603      -392.4318
  13   2.0000     -14.421019      -392.4159
  14   2.0000     -14.420381      -392.3985
  15   2.0000     -14.419978      -392.3876
  16   2.0000     -14.418865      -392.3573
  17   2.0000     -14.414793      -392.2465
  18   2.0000     -14.414025      -392.2256
  19   2.0000     -10.348197      -281.5887
  20   2.0000     -10.346020      -281.5295
  21   2.0000     -10.335640      -281.2471
  22   2.0000     -10.334946      -281.2282
  23   2.0000     -10.333371      -281.1853
  24   2.0000     -10.329349      -281.0759
  25   2.0000     -10.325320      -280.9662
  26   2.0000     -10.324250      -280.9371
  27   2.0000     -10.324069      -280.9322
  28   2.0000     -10.323271      -280.9105
  29   2.0000     -10.322482      -280.8890
  30   2.0000     -10.322215      -280.8818
  31   2.0000     -10.321623      -280.8656
  32   2.0000     -10.321375      -280.8589
  33   2.0000     -10.320382      -280.8319
  34   2.0000     -10.318175      -280.7718
  35   2.0000     -10.317732      -280.7598
  36   2.0000     -10.316334      -280.7217
  37   2.0000     -10.315932      -280.7108
  38   2.0000     -10.315659      -280.7033
  39   2.0000     -10.315599      -280.7017
  40   2.0000     -10.315322      -280.6942
  41   2.0000     -10.315252      -280.6923
  42   2.0000     -10.315222      -280.6915
  43   2.0000     -10.314826      -280.6807
  44   2.0000     -10.314350      -280.6677
  45   2.0000     -10.314271      -280.6656
  46   2.0000     -10.313922      -280.6561
  47   2.0000     -10.313707      -280.6502
  48   2.0000     -10.312736      -280.6238
  49   2.0000     -10.307370      -280.4778
  50   2.0000     -10.306624      -280.4575
  51   2.0000     -10.306621      -280.4574
  52   2.0000     -10.303715      -280.3783
  53   2.0000     -10.302615      -280.3484
  54   2.0000     -10.302494      -280.3451
  55   2.0000     -10.301725      -280.3242
  56   2.0000     -10.300986      -280.3041
  57   2.0000     -10.299899      -280.2745
  58   2.0000     -10.290555      -280.0202
  59   2.0000     -10.289703      -279.9970
  60   2.0000     -10.288448      -279.9629
  61   2.0000     -10.287467      -279.9362
  62   2.0000     -10.287303      -279.9317
  63   2.0000     -10.287145      -279.9275
  64   2.0000     -10.285734      -279.8890
  65   2.0000     -10.284454      -279.8542
  66   2.0000     -10.282648      -279.8051
  67   2.0000     -10.281247      -279.7670
  68   2.0000     -10.277337      -279.6606
  69   2.0000     -10.273985      -279.5693
  70   2.0000     -10.273080      -279.5447
  71   2.0000     -10.271776      -279.5092
  72   2.0000     -10.263959      -279.2965
  73   2.0000     -10.258407      -279.1454
  74   2.0000     -10.250697      -278.9357
  75   2.0000      -8.070839      -219.6187
  76   2.0000      -8.067822      -219.5366
  77   2.0000      -8.066984      -219.5138
  78   2.0000      -8.058668      -219.2875
  79   2.0000      -8.056529      -219.2293
  80   2.0000      -8.040407      -218.7906
  81   2.0000      -8.036924      -218.6958
  82   2.0000      -6.040161      -164.3611
  83   2.0000      -6.036945      -164.2736
  84   2.0000      -6.036141      -164.2517
  85   2.0000      -6.035883      -164.2447
  86   2.0000      -6.033139      -164.1701
  87   2.0000      -6.032871      -164.1628
  88   2.0000      -6.032005      -164.1392
  89   2.0000      -6.030373      -164.0948
  90   2.0000      -6.029526      -164.0717
  91   2.0000      -6.028027      -164.0309
  92   2.0000      -6.026257      -163.9828
  93   2.0000      -6.023657      -163.9121
  94   2.0000      -6.021185      -163.8448
  95   2.0000      -6.020819      -163.8348
  96   2.0000      -6.019052      -163.7867
  97   2.0000      -6.010789      -163.5619
  98   2.0000      -6.007405      -163.4698
  99   2.0000      -6.006576      -163.4472
 100   2.0000      -6.003455      -163.3623
 101   2.0000      -6.000275      -163.2758
 102   2.0000      -5.996326      -163.1683
 103   2.0000      -1.094406       -29.7803
 104   2.0000      -1.082598       -29.4590
 105   2.0000      -1.080341       -29.3976
 106   2.0000      -1.073052       -29.1992
 107   2.0000      -1.029390       -28.0111
 108   2.0000      -1.025644       -27.9092
 109   2.0000      -1.017988       -27.7008
 110   2.0000      -1.010791       -27.5050
 111   2.0000      -1.006964       -27.4009
 112   2.0000      -1.005908       -27.3721
 113   2.0000      -1.003480       -27.3061
 114   2.0000      -1.001656       -27.2564
 115   2.0000      -0.997517       -27.1438
 116   2.0000      -0.995088       -27.0777
 117   2.0000      -0.994285       -27.0559
 118   2.0000      -0.984692       -26.7948
 119   2.0000      -0.976761       -26.5790
 120   2.0000      -0.957114       -26.0444
 121   2.0000      -0.953482       -25.9456
 122   2.0000      -0.943339       -25.6695
 123   2.0000      -0.939807       -25.5734
 124   2.0000      -0.936488       -25.4831
 125   2.0000      -0.908744       -24.7282
 126   2.0000      -0.901464       -24.5301
 127   2.0000      -0.893597       -24.3160
 128   2.0000      -0.883004       -24.0278
 129   2.0000      -0.878049       -23.8929
 130   2.0000      -0.871694       -23.7200
 131   2.0000      -0.871332       -23.7102
 132   2.0000      -0.859380       -23.3849
 133   2.0000      -0.857870       -23.3438
 134   2.0000      -0.850435       -23.1415
 135   2.0000      -0.843656       -22.9571
 136   2.0000      -0.839596       -22.8466
 137   2.0000      -0.832728       -22.6597
 138   2.0000      -0.829734       -22.5782
 139   2.0000      -0.822461       -22.3803
 140   2.0000      -0.807176       -21.9644
 141   2.0000      -0.795782       -21.6543
 142   2.0000      -0.787194       -21.4206
 143   2.0000      -0.778973       -21.1969
 144   2.0000      -0.772315       -21.0157
 145   2.0000      -0.771764       -21.0008
 146   2.0000      -0.763224       -20.7684
 147   2.0000      -0.760101       -20.6834
 148   2.0000      -0.757240       -20.6056
 149   2.0000      -0.754066       -20.5192
 150   2.0000      -0.735825       -20.0228
 151   2.0000      -0.729206       -19.8427
 152   2.0000      -0.721251       -19.6262
 153   2.0000      -0.718517       -19.5518
 154   2.0000      -0.704233       -19.1632
 155   2.0000      -0.697299       -18.9745
 156   2.0000      -0.690592       -18.7920
 157   2.0000      -0.682673       -18.5765
 158   2.0000      -0.679392       -18.4872
 159   2.0000      -0.674916       -18.3654
 160   2.0000      -0.667649       -18.1677
 161   2.0000      -0.665969       -18.1219
 162   2.0000      -0.660711       -17.9788
 163   2.0000      -0.655493       -17.8369
 164   2.0000      -0.650617       -17.7042
 165   2.0000      -0.649784       -17.6815
 166   2.0000      -0.638484       -17.3740
 167   2.0000      -0.633907       -17.2495
 168   2.0000      -0.628154       -17.0929
 169   2.0000      -0.627772       -17.0825
 170   2.0000      -0.618584       -16.8325
 171   2.0000      -0.614710       -16.7271
 172   2.0000      -0.609656       -16.5896
 173   2.0000      -0.603704       -16.4276
 174   2.0000      -0.601367       -16.3640
 175   2.0000      -0.599004       -16.2997
 176   2.0000      -0.596417       -16.2293
 177   2.0000      -0.592708       -16.1284
 178   2.0000      -0.587455       -15.9855
 179   2.0000      -0.584549       -15.9064
 180   2.0000      -0.582322       -15.8458
 181   2.0000      -0.576079       -15.6759
 182   2.0000      -0.574294       -15.6273
 183   2.0000      -0.569522       -15.4975
 184   2.0000      -0.563816       -15.3422
 185   2.0000      -0.562547       -15.3077
 186   2.0000      -0.549922       -14.9641
 187   2.0000      -0.546423       -14.8689
 188   2.0000      -0.540637       -14.7115
 189   2.0000      -0.536575       -14.6009
 190   2.0000      -0.535294       -14.5661
 191   2.0000      -0.533421       -14.5151
 192   2.0000      -0.533161       -14.5080
 193   2.0000      -0.528519       -14.3817
 194   2.0000      -0.527138       -14.3442
 195   2.0000      -0.521348       -14.1866
 196   2.0000      -0.519324       -14.1315
 197   2.0000      -0.517480       -14.0813
 198   2.0000      -0.515519       -14.0280
 199   2.0000      -0.509086       -13.8529
 200   2.0000      -0.508642       -13.8409
 201   2.0000      -0.505607       -13.7583
 202   2.0000      -0.502876       -13.6839
 203   2.0000      -0.500795       -13.6273
 204   2.0000      -0.498235       -13.5577
 205   2.0000      -0.496364       -13.5067
 206   2.0000      -0.493304       -13.4235
 207   2.0000      -0.489004       -13.3065
 208   2.0000      -0.487398       -13.2628
 209   2.0000      -0.485215       -13.2034
 210   2.0000      -0.484573       -13.1859
 211   2.0000      -0.482871       -13.1396
 212   2.0000      -0.478048       -13.0084
 213   2.0000      -0.476362       -12.9625
 214   2.0000      -0.473972       -12.8974
 215   2.0000      -0.472247       -12.8505
 216   2.0000      -0.465062       -12.6550
 217   2.0000      -0.462899       -12.5961
 218   2.0000      -0.459431       -12.5018
 219   2.0000      -0.457254       -12.4425
 220   2.0000      -0.454421       -12.3654
 221   2.0000      -0.453154       -12.3309
 222   2.0000      -0.451942       -12.2980
 223   2.0000      -0.450502       -12.2588
 224   2.0000      -0.446017       -12.1367
 225   2.0000      -0.444974       -12.1084
 226   2.0000      -0.444751       -12.1023
 227   2.0000      -0.444246       -12.0886
 228   2.0000      -0.440705       -11.9922
 229   2.0000      -0.438066       -11.9204
 230   2.0000      -0.436338       -11.8734
 231   2.0000      -0.435504       -11.8507
 232   2.0000      -0.433743       -11.8028
 233   2.0000      -0.432697       -11.7743
 234   2.0000      -0.431558       -11.7433
 235   2.0000      -0.429545       -11.6885
 236   2.0000      -0.427508       -11.6331
 237   2.0000      -0.427311       -11.6277
 238   2.0000      -0.426175       -11.5968
 239   2.0000      -0.424565       -11.5530
 240   2.0000      -0.420636       -11.4461
 241   2.0000      -0.418875       -11.3982
 242   2.0000      -0.417594       -11.3633
 243   2.0000      -0.415827       -11.3152
 244   2.0000      -0.413321       -11.2470
 245   2.0000      -0.412215       -11.2169
 246   2.0000      -0.407744       -11.0953
 247   2.0000      -0.403275       -10.9737
 248   2.0000      -0.401325       -10.9206
 249   2.0000      -0.392068       -10.6687
 250   2.0000      -0.382855       -10.4180
 251   2.0000      -0.380026       -10.3410
 252   2.0000      -0.378381       -10.2963
 253   2.0000      -0.377477       -10.2717
 254   2.0000      -0.375522       -10.2185
 255   2.0000      -0.367492       -10.0000
 256   2.0000      -0.366387        -9.9699
 257   2.0000      -0.359912        -9.7937
 258   2.0000      -0.351344        -9.5606
 259   2.0000      -0.338724        -9.2171
 260   2.0000      -0.335576        -9.1315
 261   2.0000      -0.332696        -9.0531
 262   2.0000      -0.326609        -8.8875
 263   2.0000      -0.325237        -8.8501
 264   2.0000      -0.324470        -8.8293
 265   2.0000      -0.320658        -8.7255
 266   2.0000      -0.319815        -8.7026
 267   2.0000      -0.315622        -8.5885
 268   2.0000      -0.314475        -8.5573
 269   2.0000      -0.307270        -8.3612
 270   2.0000      -0.302650        -8.2355
 271   2.0000      -0.300751        -8.1838
 272   2.0000      -0.284223        -7.7341
 273   2.0000      -0.281881        -7.6704
 274   2.0000      -0.259783        -7.0691
 275   2.0000      -0.237729        -6.4689
 276   2.0000      -0.219892        -5.9836
 277   0.0000      -0.099304        -2.7022
 278   0.0000      -0.089860        -2.4452
 279   0.0000      -0.078898        -2.1469
 280   0.0000      -0.074716        -2.0331
 281   0.0000      -0.045986        -1.2513

MULLIKEN ATOMIC CHARGES
-----------------------
   0 C :   -0.079106
   1 C :    0.036724
   2 C :   -0.053023
   3 N :   -0.027810
   4 C :    0.030699
   5 C :    0.020594
   6 N :   -0.018044
   7 C :    0.122863
   8 C :   -0.051621
   9 C :    0.033014
  10 N :   -0.016451
  11 C :    0.020059
  12 C :    0.025355
  13 N :   -0.014898
  14 C :   -0.101437
  15 C :    0.082746
  16 C :   -0.076993
  17 C :   -0.030403
  18 C :    0.007123
  19 C :   -0.108174
  20 S :    0.180584
  21 C :   -0.095443
  22 C :    0.006843
  23 C :    0.330009
  24 C :   -0.297610
  25 C :   -0.200044
  26 N :    0.165618
  27 C :   -0.190973
  28 N :    0.177560
  29 C :   -0.073843
  30 C :   -0.083134
  31 S :    0.187539
  32 C :   -0.054757
  33 S :    0.076011
  34 C :    0.001440
  35 C :   -0.121161
  36 S :    0.124086
  37 C :   -0.122953
  38 C :   -0.004719
  39 S :    0.103640
  40 C :   -0.032219
  41 C :   -0.073397
  42 C :    0.050578
  43 C :   -0.085911
  44 C :   -0.006065
  45 C :    0.008590
  46 C :   -0.105913
  47 S :    0.181400
  48 C :   -0.064039
  49 C :    0.035262
  50 C :    0.323969
  51 C :   -0.322680
  52 C :   -0.185258
  53 N :    0.166138
  54 C :   -0.154296
  55 N :    0.136760
  56 C :   -0.063327
  57 C :   -0.180534
  58 S :    0.187529
  59 C :    0.186926
  60 C :   -0.069256
  61 C :   -0.050946
  62 N :   -0.019947
  63 C :    0.027863
  64 C :    0.039590
  65 N :   -0.020194
  66 C :    0.060231
  67 C :   -0.059694
  68 C :   -0.020944
  69 N :   -0.094643
  70 C :    0.051786
  71 C :    0.027670
  72 N :   -0.011535
  73 C :   -0.069576
  74 C :    0.024089
  75 H :   -0.037002
  76 H :    0.010787
  77 H :    0.014171
  78 H :    0.015896
  79 H :    0.019448
  80 H :    0.005099
  81 H :   -0.008087
  82 H :    0.012291
  83 H :    0.028582
  84 H :    0.027535
  85 H :    0.026392
  86 H :    0.042074
  87 H :   -0.008182
  88 H :   -0.009210
  89 H :    0.018080
  90 H :    0.017372
  91 H :    0.029234
  92 H :    0.014675
  93 H :    0.017783
  94 H :   -0.001366
  95 H :    0.024680
  96 H :    0.011831
Sum of atomic charges:   -0.0000000

LOEWDIN ATOMIC CHARGES
----------------------
   0 C :   -0.008992
   1 C :   -0.011853
   2 C :   -0.011500
   3 N :   -0.027888
   4 C :    0.006129
   5 C :    0.003979
   6 N :   -0.033289
   7 C :   -0.009182
   8 C :   -0.009471
   9 C :   -0.013793
  10 N :   -0.036761
  11 C :    0.007116
  12 C :    0.008268
  13 N :   -0.030121
  14 C :   -0.020866
  15 C :   -0.025684
  16 C :   -0.161523
  17 C :   -0.021058
  18 C :   -0.064007
  19 C :   -0.187274
  20 S :    0.472093
  21 C :   -0.179849
  22 C :   -0.071285
  23 C :    0.087483
  24 C :   -0.100128
  25 C :   -0.009453
  26 N :   -0.046018
  27 C :   -0.015260
  28 N :   -0.037078
  29 C :   -0.033351
  30 C :   -0.181791
  31 S :    0.467937
  32 C :   -0.201749
  33 S :    0.328277
  34 C :   -0.211892
  35 C :   -0.202851
  36 S :    0.448799
  37 C :   -0.202449
  38 C :   -0.216035
  39 S :    0.367090
  40 C :   -0.160938
  41 C :   -0.046334
  42 C :   -0.040752
  43 C :   -0.167463
  44 C :   -0.017014
  45 C :   -0.061447
  46 C :   -0.180307
  47 S :    0.472777
  48 C :   -0.183026
  49 C :   -0.082934
  50 C :    0.093967
  51 C :   -0.115130
  52 C :   -0.013545
  53 N :   -0.042452
  54 C :    0.000486
  55 N :   -0.056573
  56 C :   -0.010794
  57 C :   -0.169889
  58 S :    0.501435
  59 C :   -0.029046
  60 C :   -0.008032
  61 C :   -0.002395
  62 N :   -0.027197
  63 C :    0.010825
  64 C :    0.018987
  65 N :   -0.022126
  66 C :   -0.018683
  67 C :   -0.004962
  68 C :   -0.014376
  69 N :   -0.050687
  70 C :    0.017961
  71 C :    0.010675
  72 N :   -0.015622
  73 C :   -0.033555
  74 C :   -0.020132
  75 H :    0.040865
  76 H :    0.025415
  77 H :    0.026716
  78 H :    0.027228
  79 H :    0.029204
  80 H :    0.030747
  81 H :    0.023102
  82 H :    0.041773
  83 H :    0.042227
  84 H :    0.026644
  85 H :    0.025962
  86 H :    0.037589
  87 H :    0.022210
  88 H :    0.033180
  89 H :    0.034916
  90 H :    0.028469
  91 H :    0.033286
  92 H :    0.028498
  93 H :    0.028137
  94 H :    0.029870
  95 H :    0.016992
  96 H :    0.020546

  Mayer bond orders larger than 0.100000
B(  0-C ,  1-C ) :   1.2405 B(  0-C ,  7-C ) :   0.1368 B(  0-C ,  9-C ) :   1.2450
B(  0-C , 75-H ) :   1.0557 B(  1-C ,  2-C ) :   1.1716 B(  1-C ,  6-N ) :   1.3738
B(  2-C ,  3-N ) :   1.4310 B(  2-C ,  7-C ) :   1.2313 B(  3-N ,  4-C ) :   1.6835
B(  4-C ,  5-C ) :   1.1843 B(  4-C , 76-H ) :   0.9728 B(  5-C ,  6-N ) :   1.7193
B(  5-C , 77-H ) :   0.9738 B(  7-C ,  8-C ) :   1.2443 B(  7-C , 14-C ) :   1.1764
B(  8-C ,  9-C ) :   1.1750 B(  8-C , 13-N ) :   1.4464 B(  9-C , 10-N ) :   1.3725
B( 10-N , 11-C ) :   1.7226 B( 11-C , 12-C ) :   1.1758 B( 11-C , 78-H ) :   0.9735
B( 12-C , 13-N ) :   1.7039 B( 12-C , 79-H ) :   0.9748 B( 14-C , 15-C ) :   1.6503
B( 14-C , 80-H ) :   0.9570 B( 15-C , 16-C ) :   1.1006 B( 15-C , 81-H ) :   0.9389
B( 16-C , 17-C ) :   1.4524 B( 16-C , 20-S ) :   1.1048 B( 17-C , 18-C ) :   1.2992
B( 17-C , 82-H ) :   0.9923 B( 18-C , 19-C ) :   1.4277 B( 18-C , 23-C ) :   1.0009
B( 19-C , 20-S ) :   1.1225 B( 19-C , 21-C ) :   1.1974 B( 21-C , 22-C ) :   1.4438
B( 21-C , 31-S ) :   1.1204 B( 22-C , 23-C ) :   1.0002 B( 22-C , 29-C ) :   1.2744
B( 23-C , 24-C ) :   1.7128 B( 24-C , 25-C ) :   1.1438 B( 24-C , 27-C ) :   1.1347
B( 25-C , 26-N ) :   2.9508 B( 27-C , 28-N ) :   2.9977 B( 29-C , 30-C ) :   1.4635
B( 29-C , 83-H ) :   0.9975 B( 30-C , 31-S ) :   1.1010 B( 30-C , 32-C ) :   1.1374
B( 32-C , 33-S ) :   0.9889 B( 32-C , 40-C ) :   1.6365 B( 33-S , 34-C ) :   0.9912
B( 34-C , 35-C ) :   1.5933 B( 34-C , 38-C ) :   1.2625 B( 35-C , 36-S ) :   1.1737
B( 35-C , 84-H ) :   0.9711 B( 36-S , 37-C ) :   1.1779 B( 37-C , 38-C ) :   1.5918
B( 37-C , 85-H ) :   0.9712 B( 38-C , 39-S ) :   0.9797 B( 39-S , 40-C ) :   1.0320
B( 40-C , 41-C ) :   1.1642 B( 41-C , 42-C ) :   1.6907 B( 41-C , 86-H ) :   0.9565
B( 42-C , 43-C ) :   1.1312 B( 42-C , 87-H ) :   0.9559 B( 43-C , 44-C ) :   1.4448
B( 43-C , 47-S ) :   1.1001 B( 44-C , 45-C ) :   1.3164 B( 44-C , 88-H ) :   0.9836
B( 45-C , 46-C ) :   1.4295 B( 45-C , 50-C ) :   0.9945 B( 46-C , 47-S ) :   1.1223
B( 46-C , 48-C ) :   1.1966 B( 48-C , 49-C ) :   1.4091 B( 48-C , 58-S ) :   1.0752
B( 49-C , 50-C ) :   0.9999 B( 49-C , 56-C ) :   1.2434 B( 50-C , 51-C ) :   1.6917
B( 51-C , 52-C ) :   1.1371 B( 51-C , 54-C ) :   1.1523 B( 52-C , 53-N ) :   2.9918
B( 54-C , 55-N ) :   2.9120 B( 56-C , 57-C ) :   1.4342 B( 56-C , 89-H ) :   0.9810
B( 57-C , 58-S ) :   1.0813 B( 57-C , 59-C ) :   1.1772 B( 59-C , 60-C ) :   1.2480
B( 59-C , 66-C ) :   0.1319 B( 59-C , 68-C ) :   1.2450 B( 60-C , 61-C ) :   1.1442
B( 60-C , 65-N ) :   1.4720 B( 61-C , 62-N ) :   1.4511 B( 61-C , 66-C ) :   1.2529
B( 62-N , 63-C ) :   1.7006 B( 63-C , 64-C ) :   1.1836 B( 63-C , 90-H ) :   0.9755
B( 64-C , 65-N ) :   1.6691 B( 64-C , 91-H ) :   0.9739 B( 66-C , 67-C ) :   1.2512
B( 66-C , 73-C ) :   1.1669 B( 67-C , 68-C ) :   1.1528 B( 67-C , 72-N ) :   1.4502
B( 68-C , 69-N ) :   1.3904 B( 69-N , 70-C ) :   1.6415 B( 70-C , 71-C ) :   1.2024
B( 70-C , 92-H ) :   0.9724 B( 71-C , 72-N ) :   1.6817 B( 71-C , 93-H ) :   0.9745
B( 73-C , 74-C ) :   1.8963 B( 73-C , 94-H ) :   0.9421 B( 74-C , 95-H ) :   0.9296
B( 74-C , 96-H ) :   0.9423

-----------------------------------------------------------------------------
         ABSORPTION SPECTRUM VIA TRANSITION ELECTRIC DIPOLE MOMENTS
-----------------------------------------------------------------------------
State   Energy  Wavelength   fosc         T2         TX        TY        TZ
        (cm-1)    (nm)                  (au**2)     (au)      (au)      (au)
-----------------------------------------------------------------------------
   0   10244.9    976.1   0.265820500   8.54193   0.94125   0.85111  -2.63279
   1   11855.1    843.5   0.159442237   4.42765   0.05872  -1.76476  -1.14448
   2   14788.1    676.2   0.454792951  10.12456   0.75695  -0.05115  -3.09014
   3   16884.0    592.3   0.030632374   0.59728  -0.04496   0.67911   0.36616
   4   17526.6    570.6   0.623768837  11.71660   0.75228   3.18820  -0.99299
   5   18388.2    543.8   0.024685179   0.44195   0.16122  -0.63300   0.12358
   6   21708.0    460.7   0.200377580   3.03882   0.93927   0.10174  -1.46500
   7   22285.6    448.7   0.001991011   0.02941   0.09710  -0.08761   0.11094
   8   22677.5    441.0   0.119137875   1.72954  -0.55034   0.04346   1.19364
   9   23959.9    417.4   0.023269216   0.31972  -0.21497   0.42277   0.30785
  10   24187.2    413.4   0.002523280   0.03434  -0.17133  -0.04081  -0.05766
  11   24563.8    407.1   0.104404945   1.39927   0.38857   0.99842  -0.50144
  12   25893.7    386.2   0.016651378   0.21171   0.01606  -0.26014  -0.37917
  13   25912.4    385.9   0.001572134   0.01997   0.06304   0.00463  -0.12640
  14   26007.0    384.5   0.020378085   0.25796  -0.31327   0.39297   0.07340
  15   26128.9    382.7   0.000252580   0.00318   0.02088   0.04807   0.02089
  16   26915.3    371.5   0.278929592   3.41170   0.08212  -1.50879  -1.06231
  17   27079.4    369.3   0.002601238   0.03162   0.07896  -0.05073  -0.15105
  18   27799.3    359.7   0.391577154   4.63724   0.02834   2.14097   0.22954
  19   28401.1    352.1   0.293696079   3.40438  -0.35780  -0.13946   1.80469
  20   28804.1    347.2   0.049107892   0.56127  -0.08826  -0.29043   0.68493
  21   29377.4    340.4   0.051519000   0.57734   0.08039   0.52763  -0.54081
  22   29449.1    339.6   0.008120267   0.09078  -0.08732   0.21792  -0.18884
  23   29857.5    334.9   0.155646275   1.71617   0.21449   0.25807  -1.26632
  24   30144.5    331.7   0.063310455   0.69142   0.06536  -0.75785   0.33587
  25   30373.7    329.2   0.163042810   1.76717  -0.05672   1.32739  -0.04451
  26   30580.5    327.0   0.046506887   0.50067   0.06789  -0.50373  -0.49226
  27   30630.8    326.5   0.091947950   0.98823  -0.07524  -0.49937   0.85627
  28   30848.8    324.2   0.248929509   2.65653   0.24308  -0.60343  -1.49443
  29   31032.0    322.2   0.104513622   1.10876   0.11926   0.63265  -0.83324
  30   31328.1    319.2   0.071191641   0.74812  -0.06794  -0.73758   0.44663
  31   31608.8    316.4   0.228076964   2.37546  -0.19943  -0.76514  -1.32297
  32   32072.2    311.8   0.176278596   1.80945   0.26665  -1.07123  -0.76865
  33   32741.8    305.4   0.048954348   0.49223  -0.09373   0.36240   0.59339
  34   32956.8    303.4   0.329479182   3.29124  -0.07921   0.00001   1.81245
  35   33008.7    303.0   0.164263785   1.63828  -0.18650  -0.92084   0.86923
  36   33054.9    302.5   0.193903067   1.93119   0.11223   0.76370  -1.15557
  37   33405.1    299.4   0.048629244   0.47925   0.20952   0.65975   0.00906
  38   33673.7    297.0   0.004068199   0.03977  -0.15251   0.12676   0.02111
  39   33929.2    294.7   0.323602154   3.13988   0.04316  -1.59295  -0.77495
  40   34367.8    291.0   0.284100515   2.72143  -0.20945  -1.59815  -0.35138
  41   34747.6    287.8   0.019235829   0.18225  -0.09198  -0.22004   0.35408
  42   35060.8    285.2   0.423799917   3.97937   0.01263   1.79597  -0.86817
  43   35121.3    284.7   0.027420813   0.25703  -0.03055   0.44564  -0.23980
  44   35285.2    283.4   0.003866981   0.03608  -0.01101   0.15281   0.11228
  45   35636.5    280.6   0.020335701   0.18786   0.03326  -0.33954   0.26734
  46   35790.0    279.4   0.057009222   0.52440   0.40733  -0.58631  -0.12131
  47   35995.4    277.8   0.150865813   1.37981  -0.01669  -1.15783  -0.19740
  48   36207.1    276.2   0.246384181   2.24024  -0.26671   0.43331   1.40760
  49   36259.1    275.8   0.000635269   0.00577  -0.06576   0.03442  -0.01610
  50   36445.8    274.4   0.083682573   0.75590  -0.07445   0.83746   0.22138
  51   36752.0    272.1   0.463391411   4.15090  -0.23944   0.93933   1.79199
  52   36761.1    272.0   0.107066107   0.95882  -0.20874   0.85941   0.42031
  53   37094.8    269.6   0.009747825   0.08651  -0.04417   0.07852  -0.27999
  54   37414.2    267.3   0.046403756   0.40831  -0.10021  -0.33948   0.53200
  55   37449.6    267.0   0.013849024   0.12174   0.03714   0.15844  -0.30865
  56   37578.9    266.1   0.010476260   0.09178  -0.08143  -0.20341   0.20921
  57   37747.3    264.9   0.000069152   0.00060  -0.01031   0.02129  -0.00662
  58   37927.7    263.7   0.037430352   0.32490  -0.15364  -0.54851   0.02071
  59   38183.9    261.9   0.035284599   0.30421   0.20842   0.24116  -0.45013
  60   38607.9    259.0   0.108112264   0.92188   0.04845   0.30843   0.90797
  61   38943.3    256.8   0.009207672   0.07784  -0.04384  -0.27010   0.05444
  62   39159.0    255.4   0.087279498   0.73376  -0.04207   0.84890  -0.10656
  63   39236.5    254.9   0.003504935   0.02941   0.10821   0.02532   0.13060
  64   39366.6    254.0   0.049717284   0.41577  -0.00563  -0.58959   0.26101
  65   39447.2    253.5   0.031519380   0.26305   0.07576  -0.38744  -0.32741
  66   39551.2    252.8   0.016495287   0.13730   0.04774  -0.13484  -0.34182
  67   39651.2    252.2   0.015374410   0.12765  -0.12308  -0.14618   0.30188
  68   39866.5    250.8   0.001704091   0.01407   0.04583   0.03378   0.10407
  69   39888.3    250.7   0.001869953   0.01543   0.02204   0.08184  -0.09083
  70   40126.1    249.2   0.008118859   0.06661   0.01977  -0.25418   0.04014
  71   40219.7    248.6   0.081839113   0.66988  -0.05407   0.80528  -0.13596

FINAL SINGLE POINT ENERGY     -5586.967634999808

DIPOLE MOMENT
-------------
                                X             Y             Z
Electronic contribution:     -1.80462      28.30208      23.14217
Nuclear contribution   :      1.80044     -26.30064     -23.20931
                        -----------------------------------------
Total Dipole Moment    :     -0.00418       2.00143      -0.06714
                        -----------------------------------------
Magnitude (a.u.)       :      2.00256
Magnitude (Debye)      :      5.09011

Rotational constants in cm-1:     0.000720     0.000382     0.000254
Rotational constants in MHz :    21.572314    11.440879     7.610757

                             ****ORCA TERMINATED NORMALLY****
TOTAL RUN TIME: 0 days 0 hours 16 minutes 18 seconds 346 msec
