                         Program Version 4.2.0 -  RELEASE  -
|  1> # ORCA input file
|  2> # SCF done       -201.964972803608          0.000793307009
|  3> ! CAM-B3LYP def2-SVP def2/J RIJCOSX Grid4 TightSCF
|  4> %maxcore 5000
|  5> %tddft
|  6>     Mode sTDDFT
|  7>     Ethresh 5.0
|  8>     maxcore 5000
|  9> end
| 10>
| 11> %pal
| 12>   nprocs 6
| 13>   end
| 14> * xyz 0 1
| 15>    C       -0.05587        -0.18814        -2.99686
| 16>    O       -0.75064        -1.04446        -3.50083
| 17>    C        0.11950         1.19236        -3.48592
| 18>    C        1.02899         1.87546        -2.65906
| 19>    C        1.33361         3.20014        -2.92931
| 20>    C        0.72838         3.81509        -4.01952
| 21>    C       -0.16976         3.12402        -4.83819
| 22>    C       -0.48059         1.79743        -4.57117
| 23>   Br       -0.97511         3.98360        -6.31432
| 24>   Br        1.14168         5.62263        -4.38230
| 25>    C        1.49178         0.96870        -1.61090
| 26>    C        2.45547         1.25612        -0.68510
| 27>    C        3.11719         2.50221        -0.59984
| 28>    N        3.68697         3.49100        -0.48497
| 29>    C        2.95649         0.36759         0.29340
| 30>    N        3.43126        -0.28363         1.11001
| 31>    C        0.77536        -0.28951        -1.77790
| 32>    C        0.80425        -1.34293        -0.91443
| 33>    C        0.13520        -2.58632        -0.98772
| 34>    S       -0.86345        -3.23820        -2.27761
| 35>    C       -1.03222        -4.64731        -1.26298
| 36>    N       -0.38353        -4.53697        -0.11670
| 37>    N        0.24920        -3.42724         0.02242
| 38>    C       -1.79669        -5.78235        -1.63512
| 39>    C       -1.93269        -6.84835        -0.80383
| 40>    C       -2.68286        -7.99968        -1.14178
| 41>    N       -2.85994        -9.06806        -0.30025
| 42>    C       -2.40415        -9.17901         1.06503
| 43>    C       -3.27597        -8.36682         2.01912
| 44>    C       -3.64174       -10.08032        -0.88956
| 45>    O       -3.93876       -11.11190        -0.33013
| 46>    C       -3.94251        -9.57265        -2.21272
| 47>    C       -3.35032        -8.29729        -2.33473
| 48>    C       -3.66433        -7.78362        -3.65258
| 49>    O       -3.38539        -6.73941        -4.20540
| 50>    N       -4.44090        -8.79356        -4.24164
| 51>    C       -4.91150        -8.67332        -5.60085
| 52>    C       -4.05203        -9.47712        -6.57337
| 53>    C       -4.61172        -9.87286        -3.40249
| 54>    C       -5.35260       -11.01870        -3.75303
| 55>    C       -5.46172       -12.13589        -2.97472
| 56>    C       -6.25972       -13.23476        -3.36154
| 57>    S       -7.48067       -12.97176        -4.56275
| 58>    C       -8.20713       -14.52296        -4.32963
| 59>    C       -7.43524       -15.28948        -3.44280
| 60>    C       -6.32729       -14.56561        -2.88294
| 61>    C       -5.45399       -15.25651        -2.01181
| 62>    C       -4.18616       -14.64563        -1.46857
| 63>    F       -4.41235       -13.80045        -0.46178
| 64>    F       -3.34863       -15.57994        -0.98890
| 65>    F       -3.48157       -13.99077        -2.41007
| 66>    C       -5.71528       -16.56233        -1.65452
| 67>    C       -6.77542       -17.26918        -2.21725
| 68>    C       -7.60399       -16.66562        -3.14315
| 69>    C       -8.51065       -17.49990        -3.83181
| 70>    N       -9.18074       -18.25135        -4.38223
| 71>    C       -9.42903       -14.76768        -4.99557
| 72>    C      -10.51099       -15.50928        -4.62693
| 73>    C      -11.51652       -15.86317        -5.66776
| 74>    O      -11.60981       -15.38885        -6.77367
| 75>    C      -12.32655       -16.93979        -5.06151
| 76>    C      -11.93231       -17.12880        -3.72400
| 77>    C      -10.89555       -16.15420        -3.39169
| 78>    C      -10.51849       -15.79603        -2.12346
| 79>    C      -10.94663       -16.46128        -0.95592
| 80>    N      -11.23898       -16.98582         0.02164
| 81>    C       -9.72751       -14.66756        -1.83597
| 82>    N       -9.12169       -13.73274        -1.55816
| 83>    C      -12.52949       -18.11706        -2.96189
| 84>    C      -13.51644       -18.90133        -3.54819
| 85>    C      -13.91132       -18.69950        -4.87257
| 86>    C      -13.31224       -17.70982        -5.64183
| 87>   Br      -15.26262       -19.77115        -5.63979
| 88>   Br      -14.32276       -20.26011        -2.51535
| 89>    H        2.01883         3.76801        -2.32142
| 90>    H       -1.17370         1.25174        -5.19255
| 91>    H        1.39530        -1.26089        -0.01023
| 92>    H       -2.27081        -5.76743        -2.60672
| 93>    H       -1.44153        -6.81133         0.15765
| 94>    H       -1.35937        -8.86430         1.12872
| 95>    H       -2.47200       -10.24043         1.31919
| 96>    H       -3.25249        -7.30926         1.76563
| 97>    H       -2.91713        -8.48993         3.03699
| 98>    H       -4.30510        -8.71460         1.96965
| 99>    H       -4.84698        -7.61003        -5.84817
|100>    H       -5.95878        -8.98342        -5.65551
|101>    H       -3.02514        -9.12151        -6.54178
|102>    H       -4.42999        -9.35518        -7.58452
|103>    H       -4.05889       -10.53519        -6.32089
|104>    H       -5.84833       -11.00836        -4.71533
|105>    H       -4.94664       -12.16059        -2.02603
|106>    H       -5.05825       -17.07149        -0.96758
|107>    H       -6.92039       -18.30887        -1.96758
|108>    H       -9.53982       -14.27250        -5.95720
|109>    H      -12.24288       -18.30494        -1.93971
|110>    H      -13.60641       -17.54954        -6.66749
|111> *
|112>
|113>                          ****END OF INPUT****

CARTESIAN COORDINATES (ANGSTROEM)
---------------------------------
  C     -0.055870   -0.188140   -2.996860
  O     -0.750640   -1.044460   -3.500830
  C      0.119500    1.192360   -3.485920
  C      1.028990    1.875460   -2.659060
  C      1.333610    3.200140   -2.929310
  C      0.728380    3.815090   -4.019520
  C     -0.169760    3.124020   -4.838190
  C     -0.480590    1.797430   -4.571170
  Br    -0.975110    3.983600   -6.314320
  Br     1.141680    5.622630   -4.382300
  C      1.491780    0.968700   -1.610900
  C      2.455470    1.256120   -0.685100
  C      3.117190    2.502210   -0.599840
  N      3.686970    3.491000   -0.484970
  C      2.956490    0.367590    0.293400
  N      3.431260   -0.283630    1.110010
  C      0.775360   -0.289510   -1.777900
  C      0.804250   -1.342930   -0.914430
  C      0.135200   -2.586320   -0.987720
  S     -0.863450   -3.238200   -2.277610
  C     -1.032220   -4.647310   -1.262980
  N     -0.383530   -4.536970   -0.116700
  N      0.249200   -3.427240    0.022420
  C     -1.796690   -5.782350   -1.635120
  C     -1.932690   -6.848350   -0.803830
  C     -2.682860   -7.999680   -1.141780
  N     -2.859940   -9.068060   -0.300250
  C     -2.404150   -9.179010    1.065030
  C     -3.275970   -8.366820    2.019120
  C     -3.641740  -10.080320   -0.889560
  O     -3.938760  -11.111900   -0.330130
  C     -3.942510   -9.572650   -2.212720
  C     -3.350320   -8.297290   -2.334730
  C     -3.664330   -7.783620   -3.652580
  O     -3.385390   -6.739410   -4.205400
  N     -4.440900   -8.793560   -4.241640
  C     -4.911500   -8.673320   -5.600850
  C     -4.052030   -9.477120   -6.573370
  C     -4.611720   -9.872860   -3.402490
  C     -5.352600  -11.018700   -3.753030
  C     -5.461720  -12.135890   -2.974720
  C     -6.259720  -13.234760   -3.361540
  S     -7.480670  -12.971760   -4.562750
  C     -8.207130  -14.522960   -4.329630
  C     -7.435240  -15.289480   -3.442800
  C     -6.327290  -14.565610   -2.882940
  C     -5.453990  -15.256510   -2.011810
  C     -4.186160  -14.645630   -1.468570
  F     -4.412350  -13.800450   -0.461780
  F     -3.348630  -15.579940   -0.988900
  F     -3.481570  -13.990770   -2.410070
  C     -5.715280  -16.562330   -1.654520
  C     -6.775420  -17.269180   -2.217250
  C     -7.603990  -16.665620   -3.143150
  C     -8.510650  -17.499900   -3.831810
  N     -9.180740  -18.251350   -4.382230
  C     -9.429030  -14.767680   -4.995570
  C    -10.510990  -15.509280   -4.626930
  C    -11.516520  -15.863170   -5.667760
  O    -11.609810  -15.388850   -6.773670
  C    -12.326550  -16.939790   -5.061510
  C    -11.932310  -17.128800   -3.724000
  C    -10.895550  -16.154200   -3.391690
  C    -10.518490  -15.796030   -2.123460
  C    -10.946630  -16.461280   -0.955920
  N    -11.238980  -16.985820    0.021640
  C     -9.727510  -14.667560   -1.835970
  N     -9.121690  -13.732740   -1.558160
  C    -12.529490  -18.117060   -2.961890
  C    -13.516440  -18.901330   -3.548190
  C    -13.911320  -18.699500   -4.872570
  C    -13.312240  -17.709820   -5.641830
  Br   -15.262620  -19.771150   -5.639790
  Br   -14.322760  -20.260110   -2.515350
  H      2.018830    3.768010   -2.321420
  H     -1.173700    1.251740   -5.192550
  H      1.395300   -1.260890   -0.010230
  H     -2.270810   -5.767430   -2.606720
  H     -1.441530   -6.811330    0.157650
  H     -1.359370   -8.864300    1.128720
  H     -2.472000  -10.240430    1.319190
  H     -3.252490   -7.309260    1.765630
  H     -2.917130   -8.489930    3.036990
  H     -4.305100   -8.714600    1.969650
  H     -4.846980   -7.610030   -5.848170
  H     -5.958780   -8.983420   -5.655510
  H     -3.025140   -9.121510   -6.541780
  H     -4.429990   -9.355180   -7.584520
  H     -4.058890  -10.535190   -6.320890
  H     -5.848330  -11.008360   -4.715330
  H     -4.946640  -12.160590   -2.026030
  H     -5.058250  -17.071490   -0.967580
  H     -6.920390  -18.308870   -1.967580
  H     -9.539820  -14.272500   -5.957200
  H    -12.242880  -18.304940   -1.939710
  H    -13.606410  -17.549540   -6.667490

 Total Charge           Charge          ....    0
 Multiplicity           Mult            ....    1
 Number of Electrons    NEL             ....  628
 Basis Dimension        Dim             .... 1226

ORBITAL ENERGIES
----------------

  NO   OCC          E(Eh)            E(eV)
   0   2.0000    -482.885061    -13139.9705
   1   2.0000    -482.883492    -13139.9278
   2   2.0000    -482.875389    -13139.7073
   3   2.0000    -482.874443    -13139.6816
   4   2.0000     -89.000694     -2421.8320
   5   2.0000     -88.988107     -2421.4895
   6   2.0000     -62.562676     -1702.4170
   7   2.0000     -62.561078     -1702.3735
   8   2.0000     -62.553027     -1702.1544
   9   2.0000     -62.552083     -1702.1287
  10   2.0000     -56.396633     -1534.6304
  11   2.0000     -56.395051     -1534.5874
  12   2.0000     -56.393972     -1534.5580
  13   2.0000     -56.393866     -1534.5551
  14   2.0000     -56.392367     -1534.5143
  15   2.0000     -56.392266     -1534.5116
  16   2.0000     -56.386965     -1534.3673
  17   2.0000     -56.386034     -1534.3420
  18   2.0000     -56.384323     -1534.2954
  19   2.0000     -56.384237     -1534.2931
  20   2.0000     -56.383380     -1534.2698
  21   2.0000     -56.383284     -1534.2672
  22   2.0000     -24.810980      -675.1411
  23   2.0000     -24.809991      -675.1142
  24   2.0000     -24.806976      -675.0321
  25   2.0000     -19.244026      -523.6566
  26   2.0000     -19.225238      -523.1453
  27   2.0000     -19.203753      -522.5607
  28   2.0000     -19.201599      -522.5021
  29   2.0000     -14.465103      -393.6155
  30   2.0000     -14.463200      -393.5637
  31   2.0000     -14.458668      -393.4404
  32   2.0000     -14.448846      -393.1731
  33   2.0000     -14.430048      -392.6616
  34   2.0000     -14.429586      -392.6490
  35   2.0000     -14.427910      -392.6034
  36   2.0000     -14.423880      -392.4937
  37   2.0000     -14.422469      -392.4553
  38   2.0000     -10.531729      -286.5829
  39   2.0000     -10.392270      -282.7881
  40   2.0000     -10.386248      -282.6242
  41   2.0000     -10.383877      -282.5596
  42   2.0000     -10.375582      -282.3339
  43   2.0000     -10.363618      -282.0084
  44   2.0000     -10.363097      -281.9942
  45   2.0000     -10.362939      -281.9899
  46   2.0000     -10.359071      -281.8847
  47   2.0000     -10.353968      -281.7458
  48   2.0000     -10.352472      -281.7051
  49   2.0000     -10.352069      -281.6941
  50   2.0000     -10.351683      -281.6836
  51   2.0000     -10.351599      -281.6813
  52   2.0000     -10.351312      -281.6735
  53   2.0000     -10.350462      -281.6504
  54   2.0000     -10.349295      -281.6186
  55   2.0000     -10.348886      -281.6075
  56   2.0000     -10.344503      -281.4882
  57   2.0000     -10.341283      -281.4006
  58   2.0000     -10.338651      -281.3290
  59   2.0000     -10.334885      -281.2265
  60   2.0000     -10.333236      -281.1817
  61   2.0000     -10.332079      -281.1502
  62   2.0000     -10.331667      -281.1389
  63   2.0000     -10.331229      -281.1270
  64   2.0000     -10.330871      -281.1173
  65   2.0000     -10.329331      -281.0754
  66   2.0000     -10.328800      -281.0609
  67   2.0000     -10.326404      -280.9958
  68   2.0000     -10.326342      -280.9940
  69   2.0000     -10.324892      -280.9546
  70   2.0000     -10.322325      -280.8847
  71   2.0000     -10.321880      -280.8726
  72   2.0000     -10.321153      -280.8529
  73   2.0000     -10.319429      -280.8059
  74   2.0000     -10.317312      -280.7483
  75   2.0000     -10.316938      -280.7381
  76   2.0000     -10.315081      -280.6876
  77   2.0000     -10.313602      -280.6474
  78   2.0000     -10.313468      -280.6437
  79   2.0000     -10.310776      -280.5705
  80   2.0000     -10.310619      -280.5662
  81   2.0000     -10.309859      -280.5455
  82   2.0000     -10.309600      -280.5385
  83   2.0000     -10.306940      -280.4661
  84   2.0000     -10.305303      -280.4215
  85   2.0000     -10.302816      -280.3539
  86   2.0000     -10.275728      -279.6168
  87   2.0000     -10.275363      -279.6068
  88   2.0000     -10.273950      -279.5684
  89   2.0000     -10.266952      -279.3780
  90   2.0000      -8.792012      -239.2428
  91   2.0000      -8.790384      -239.1985
  92   2.0000      -8.782374      -238.9806
  93   2.0000      -8.781426      -238.9548
  94   2.0000      -8.095850      -220.2993
  95   2.0000      -8.082248      -219.9291
  96   2.0000      -6.628181      -180.3620
  97   2.0000      -6.626576      -180.3183
  98   2.0000      -6.618485      -180.0981
  99   2.0000      -6.617567      -180.0731
 100   2.0000      -6.614116      -179.9792
 101   2.0000      -6.613320      -179.9576
 102   2.0000      -6.612474      -179.9346
 103   2.0000      -6.611680      -179.9130
 104   2.0000      -6.604501      -179.7176
 105   2.0000      -6.603739      -179.6969
 106   2.0000      -6.603529      -179.6912
 107   2.0000      -6.602779      -179.6707
 108   2.0000      -6.064715      -165.0293
 109   2.0000      -6.060641      -164.9184
 110   2.0000      -6.058751      -164.8670
 111   2.0000      -6.050992      -164.6559
 112   2.0000      -6.047135      -164.5509
 113   2.0000      -6.044984      -164.4924
 114   2.0000      -2.744087       -74.6704
 115   2.0000      -2.742509       -74.6275
 116   2.0000      -2.740340       -74.5684
 117   2.0000      -2.739646       -74.5496
 118   2.0000      -2.738690       -74.5236
 119   2.0000      -2.738029       -74.5055
 120   2.0000      -2.734384       -74.4064
 121   2.0000      -2.733476       -74.3817
 122   2.0000      -2.730647       -74.3047
 123   2.0000      -2.730045       -74.2883
 124   2.0000      -2.729715       -74.2793
 125   2.0000      -2.729091       -74.2623
 126   2.0000      -2.728502       -74.2463
 127   2.0000      -2.728488       -74.2459
 128   2.0000      -2.726839       -74.2011
 129   2.0000      -2.726834       -74.2009
 130   2.0000      -2.718923       -73.9856
 131   2.0000      -2.718908       -73.9853
 132   2.0000      -2.717942       -73.9590
 133   2.0000      -2.717933       -73.9587
 134   2.0000      -1.401136       -38.1268
 135   2.0000      -1.303120       -35.4597
 136   2.0000      -1.301179       -35.4069
 137   2.0000      -1.161189       -31.5976
 138   2.0000      -1.157863       -31.5071
 139   2.0000      -1.145976       -31.1836
 140   2.0000      -1.141122       -31.0515
 141   2.0000      -1.139351       -31.0033
 142   2.0000      -1.076137       -29.2832
 143   2.0000      -1.067453       -29.0469
 144   2.0000      -1.043403       -28.3924
 145   2.0000      -1.037201       -28.2237
 146   2.0000      -1.026931       -27.9442
 147   2.0000      -1.020099       -27.7583
 148   2.0000      -1.015397       -27.6304
 149   2.0000      -1.010207       -27.4891
 150   2.0000      -1.007800       -27.4236
 151   2.0000      -1.001764       -27.2594
 152   2.0000      -0.990069       -26.9411
 153   2.0000      -0.982781       -26.7428
 154   2.0000      -0.976898       -26.5828
 155   2.0000      -0.959491       -26.1091
 156   2.0000      -0.946112       -25.7450
 157   2.0000      -0.942823       -25.6555
 158   2.0000      -0.937459       -25.5096
 159   2.0000      -0.931172       -25.3385
 160   2.0000      -0.922639       -25.1063
 161   2.0000      -0.921431       -25.0734
 162   2.0000      -0.917188       -24.9579
 163   2.0000      -0.912263       -24.8239
 164   2.0000      -0.906591       -24.6696
 165   2.0000      -0.903852       -24.5951
 166   2.0000      -0.895763       -24.3749
 167   2.0000      -0.879824       -23.9412
 168   2.0000      -0.875928       -23.8352
 169   2.0000      -0.868802       -23.6413
 170   2.0000      -0.863634       -23.5007
 171   2.0000      -0.857744       -23.3404
 172   2.0000      -0.852702       -23.2032
 173   2.0000      -0.841912       -22.9096
 174   2.0000      -0.829593       -22.5744
 175   2.0000      -0.819338       -22.2953
 176   2.0000      -0.814792       -22.1716
 177   2.0000      -0.797578       -21.7032
 178   2.0000      -0.790216       -21.5029
 179   2.0000      -0.779990       -21.2246
 180   2.0000      -0.778513       -21.1844
 181   2.0000      -0.769365       -20.9355
 182   2.0000      -0.766651       -20.8616
 183   2.0000      -0.754461       -20.5299
 184   2.0000      -0.743207       -20.2237
 185   2.0000      -0.737016       -20.0552
 186   2.0000      -0.729870       -19.8608
 187   2.0000      -0.724762       -19.7218
 188   2.0000      -0.717580       -19.5264
 189   2.0000      -0.713687       -19.4204
 190   2.0000      -0.707728       -19.2582
 191   2.0000      -0.707229       -19.2447
 192   2.0000      -0.700089       -19.0504
 193   2.0000      -0.695175       -18.9167
 194   2.0000      -0.687179       -18.6991
 195   2.0000      -0.683840       -18.6082
 196   2.0000      -0.683117       -18.5886
 197   2.0000      -0.682621       -18.5751
 198   2.0000      -0.672552       -18.3011
 199   2.0000      -0.663783       -18.0625
 200   2.0000      -0.660443       -17.9716
 201   2.0000      -0.647826       -17.6282
 202   2.0000      -0.640976       -17.4418
 203   2.0000      -0.638331       -17.3699
 204   2.0000      -0.632664       -17.2157
 205   2.0000      -0.628997       -17.1159
 206   2.0000      -0.622955       -16.9515
 207   2.0000      -0.612151       -16.6575
 208   2.0000      -0.604901       -16.4602
 209   2.0000      -0.603438       -16.4204
 210   2.0000      -0.600978       -16.3534
 211   2.0000      -0.596490       -16.2313
 212   2.0000      -0.593402       -16.1473
 213   2.0000      -0.585133       -15.9223
 214   2.0000      -0.582809       -15.8590
 215   2.0000      -0.576648       -15.6914
 216   2.0000      -0.573906       -15.6168
 217   2.0000      -0.569289       -15.4912
 218   2.0000      -0.566891       -15.4259
 219   2.0000      -0.564051       -15.3486
 220   2.0000      -0.562554       -15.3079
 221   2.0000      -0.560693       -15.2572
 222   2.0000      -0.556664       -15.1476
 223   2.0000      -0.553861       -15.0713
 224   2.0000      -0.553486       -15.0611
 225   2.0000      -0.552954       -15.0466
 226   2.0000      -0.550288       -14.9741
 227   2.0000      -0.550065       -14.9680
 228   2.0000      -0.548355       -14.9215
 229   2.0000      -0.547014       -14.8850
 230   2.0000      -0.541162       -14.7258
 231   2.0000      -0.539367       -14.6769
 232   2.0000      -0.537543       -14.6273
 233   2.0000      -0.534218       -14.5368
 234   2.0000      -0.532829       -14.4990
 235   2.0000      -0.528407       -14.3787
 236   2.0000      -0.525152       -14.2901
 237   2.0000      -0.520269       -14.1572
 238   2.0000      -0.518549       -14.1104
 239   2.0000      -0.517172       -14.0730
 240   2.0000      -0.513770       -13.9804
 241   2.0000      -0.513026       -13.9601
 242   2.0000      -0.512585       -13.9481
 243   2.0000      -0.509154       -13.8548
 244   2.0000      -0.506897       -13.7934
 245   2.0000      -0.505183       -13.7467
 246   2.0000      -0.499668       -13.5967
 247   2.0000      -0.499219       -13.5844
 248   2.0000      -0.498517       -13.5653
 249   2.0000      -0.494852       -13.4656
 250   2.0000      -0.493115       -13.4183
 251   2.0000      -0.489952       -13.3323
 252   2.0000      -0.485060       -13.1992
 253   2.0000      -0.484477       -13.1833
 254   2.0000      -0.479980       -13.0609
 255   2.0000      -0.478099       -13.0097
 256   2.0000      -0.475773       -12.9464
 257   2.0000      -0.473294       -12.8790
 258   2.0000      -0.470745       -12.8096
 259   2.0000      -0.467827       -12.7302
 260   2.0000      -0.467254       -12.7146
 261   2.0000      -0.465416       -12.6646
 262   2.0000      -0.464017       -12.6266
 263   2.0000      -0.460977       -12.5438
 264   2.0000      -0.460511       -12.5311
 265   2.0000      -0.459182       -12.4950
 266   2.0000      -0.457404       -12.4466
 267   2.0000      -0.456756       -12.4290
 268   2.0000      -0.455509       -12.3950
 269   2.0000      -0.454506       -12.3677
 270   2.0000      -0.451914       -12.2972
 271   2.0000      -0.450590       -12.2612
 272   2.0000      -0.446985       -12.1631
 273   2.0000      -0.445610       -12.1257
 274   2.0000      -0.444154       -12.0861
 275   2.0000      -0.442134       -12.0311
 276   2.0000      -0.440419       -11.9844
 277   2.0000      -0.439409       -11.9569
 278   2.0000      -0.437169       -11.8960
 279   2.0000      -0.434931       -11.8351
 280   2.0000      -0.433147       -11.7865
 281   2.0000      -0.429453       -11.6860
 282   2.0000      -0.424350       -11.5471
 283   2.0000      -0.422008       -11.4834
 284   2.0000      -0.421568       -11.4714
 285   2.0000      -0.416562       -11.3352
 286   2.0000      -0.409191       -11.1347
 287   2.0000      -0.405650       -11.0383
 288   2.0000      -0.405315       -11.0292
 289   2.0000      -0.398667       -10.8483
 290   2.0000      -0.397691       -10.8217
 291   2.0000      -0.397331       -10.8119
 292   2.0000      -0.388890       -10.5822
 293   2.0000      -0.382413       -10.4060
 294   2.0000      -0.377861       -10.2821
 295   2.0000      -0.364601        -9.9213
 296   2.0000      -0.362909        -9.8753
 297   2.0000      -0.360191        -9.8013
 298   2.0000      -0.357951        -9.7403
 299   2.0000      -0.357133        -9.7181
 300   2.0000      -0.354342        -9.6421
 301   2.0000      -0.352125        -9.5818
 302   2.0000      -0.346585        -9.4311
 303   2.0000      -0.343820        -9.3558
 304   2.0000      -0.342941        -9.3319
 305   2.0000      -0.342143        -9.3102
 306   2.0000      -0.331707        -9.0262
 307   2.0000      -0.330795        -9.0014
 308   2.0000      -0.327411        -8.9093
 309   2.0000      -0.322934        -8.7875
 310   2.0000      -0.311135        -8.4664
 311   2.0000      -0.310805        -8.4574
 312   2.0000      -0.289905        -7.8887
 313   2.0000      -0.243578        -6.6281
 314   0.0000      -0.128277        -3.4906
 315   0.0000      -0.109311        -2.9745
 316   0.0000      -0.086175        -2.3449
 317   0.0000      -0.078269        -2.1298
 318   0.0000      -0.068707        -1.8696

MULLIKEN ATOMIC CHARGES
-----------------------
   0 C :    0.173667
   1 O :   -0.156290
   2 C :   -0.019441
   3 C :    0.036772
   4 C :   -0.009273
   5 C :   -0.024635
   6 C :   -0.013997
   7 C :   -0.018257
   8 Br:    0.021828
   9 Br:    0.030017
  10 C :    0.308773
  11 C :   -0.327120
  12 C :   -0.189007
  13 N :    0.167375
  14 C :   -0.199773
  15 N :    0.179067
  16 C :   -0.082532
  17 C :    0.020376
  18 C :   -0.109561
  19 S :    0.204100
  20 C :   -0.081998
  21 N :   -0.057399
  22 N :   -0.026425
  23 C :    0.061372
  24 C :   -0.020321
  25 C :    0.139819
  26 N :   -0.253052
  27 C :    0.095531
  28 C :    0.001278
  29 C :    0.155897
  30 O :   -0.189263
  31 C :   -0.053924
  32 C :   -0.057105
  33 C :    0.163810
  34 O :   -0.204541
  35 N :   -0.255664
  36 C :    0.095444
  37 C :    0.002575
  38 C :    0.141243
  39 C :   -0.051845
  40 C :    0.017283
  41 C :   -0.114948
  42 S :    0.196571
  43 C :   -0.195643
  44 C :    0.183415
  45 C :    0.149559
  46 C :   -0.123853
  47 C :    0.523152
  48 F :   -0.131210
  49 F :   -0.157381
  50 F :   -0.163462
  51 C :   -0.001714
  52 C :    0.035573
  53 C :   -0.115824
  54 C :   -0.197595
  55 N :    0.138614
  56 C :    0.079820
  57 C :   -0.110789
  58 C :    0.141367
  59 O :   -0.133182
  60 C :    0.014794
  61 C :    0.048993
  62 C :    0.222743
  63 C :   -0.326551
  64 C :   -0.185940
  65 N :    0.166491
  66 C :   -0.195686
  67 N :    0.168600
  68 C :   -0.005729
  69 C :   -0.020626
  70 C :   -0.018031
  71 C :   -0.020436
  72 Br:    0.012708
  73 Br:    0.019529
  74 H :    0.010866
  75 H :    0.010501
  76 H :    0.037035
  77 H :    0.014447
  78 H :    0.008488
  79 H :    0.031258
  80 H :    0.046632
  81 H :    0.021213
  82 H :    0.028387
  83 H :    0.030097
  84 H :    0.046418
  85 H :    0.025771
  86 H :    0.031242
  87 H :    0.026502
  88 H :    0.017287
  89 H :   -0.012952
  90 H :    0.057365
  91 H :    0.017748
  92 H :    0.012223
  93 H :    0.028473
  94 H :    0.006555
  95 H :    0.006313
Sum of atomic charges:   -0.0000000

LOEWDIN ATOMIC CHARGES
----------------------
   0 C :    0.085758
   1 O :   -0.146648
   2 C :   -0.044392
   3 C :   -0.010446
   4 C :   -0.005822
   5 C :   -0.116272
   6 C :   -0.121881
   7 C :    0.009134
   8 Br:    0.143742
   9 Br:    0.148019
  10 C :    0.070658
  11 C :   -0.119050
  12 C :   -0.018765
  13 N :   -0.035625
  14 C :   -0.026108
  15 N :   -0.026069
  16 C :   -0.088809
  17 C :    0.057088
  18 C :   -0.177374
  19 S :    0.490647
  20 C :   -0.153204
  21 N :   -0.079977
  22 N :   -0.041035
  23 C :   -0.011196
  24 C :   -0.002799
  25 C :    0.072607
  26 N :    0.003730
  27 C :    0.037357
  28 C :   -0.059733
  29 C :    0.078848
  30 O :   -0.182898
  31 C :   -0.109734
  32 C :   -0.111890
  33 C :    0.080625
  34 O :   -0.195616
  35 N :    0.000032
  36 C :    0.036380
  37 C :   -0.060714
  38 C :    0.071864
  39 C :   -0.042255
  40 C :    0.005243
  41 C :   -0.138052
  42 S :    0.534722
  43 C :   -0.183295
  44 C :   -0.015799
  45 C :   -0.024365
  46 C :   -0.042393
  47 C :    0.169377
  48 F :   -0.031668
  49 F :   -0.054480
  50 F :   -0.054313
  51 C :   -0.001758
  52 C :    0.037096
  53 C :   -0.060912
  54 C :   -0.020036
  55 N :   -0.051201
  56 C :    0.029463
  57 C :   -0.080863
  58 C :    0.089168
  59 O :   -0.132535
  60 C :   -0.039153
  61 C :   -0.001007
  62 C :    0.068282
  63 C :   -0.138779
  64 C :   -0.021781
  65 N :   -0.044303
  66 C :   -0.015179
  67 N :   -0.051701
  68 C :   -0.005368
  69 C :   -0.116169
  70 C :   -0.123293
  71 C :    0.009497
  72 Br:    0.137641
  73 Br:    0.142020
  74 H :    0.045553
  75 H :    0.047744
  76 H :    0.060354
  77 H :    0.038434
  78 H :    0.039422
  79 H :    0.026650
  80 H :    0.038938
  81 H :    0.024264
  82 H :    0.033241
  83 H :    0.032364
  84 H :    0.039174
  85 H :    0.023260
  86 H :    0.033266
  87 H :    0.032068
  88 H :    0.022195
  89 H :    0.020107
  90 H :    0.039973
  91 H :    0.043260
  92 H :    0.049095
  93 H :    0.047977
  94 H :    0.043946
  95 H :    0.046431

  Mayer bond orders larger than 0.100000
B(  0-C ,  1-O ) :   2.1671 B(  0-C ,  2-C ) :   0.9588 B(  0-C , 16-C ) :   0.9535
B(  2-C ,  3-C ) :   1.3262 B(  2-C ,  7-C ) :   1.3660 B(  3-C ,  4-C ) :   1.3609
B(  3-C , 10-C ) :   0.9967 B(  4-C ,  5-C ) :   1.3716 B(  4-C , 74-H ) :   0.9796
B(  5-C ,  6-C ) :   1.4139 B(  5-C ,  9-Br) :   1.0637 B(  6-C ,  7-C ) :   1.3542
B(  6-C ,  8-Br) :   1.0385 B(  7-C , 75-H ) :   1.0090 B( 10-C , 11-C ) :   1.6651
B( 10-C , 16-C ) :   1.0566 B( 11-C , 12-C ) :   1.1395 B( 11-C , 14-C ) :   1.1370
B( 12-C , 13-N ) :   2.9724 B( 14-C , 15-N ) :   2.9798 B( 16-C , 17-C ) :   1.5744
B( 17-C , 18-C ) :   1.1684 B( 17-C , 76-H ) :   0.9443 B( 18-C , 19-S ) :   1.0942
B( 18-C , 22-N ) :   1.5791 B( 19-S , 20-C ) :   1.1221 B( 19-S , 22-N ) :   0.1006
B( 20-C , 21-N ) :   1.5554 B( 20-C , 23-C ) :   1.1347 B( 21-N , 22-N ) :   1.3059
B( 23-C , 24-C ) :   1.6354 B( 23-C , 77-H ) :   0.9285 B( 24-C , 25-C ) :   1.1369
B( 24-C , 78-H ) :   0.9689 B( 25-C , 26-N ) :   1.1732 B( 25-C , 32-C ) :   1.3213
B( 26-N , 27-C ) :   0.9400 B( 26-N , 29-C ) :   1.0512 B( 27-C , 28-C ) :   1.1209
B( 27-C , 79-H ) :   0.9498 B( 27-C , 80-H ) :   0.9285 B( 28-C , 81-H ) :   0.9686
B( 28-C , 82-H ) :   0.9681 B( 28-C , 83-H ) :   0.9640 B( 29-C , 30-O ) :   2.0649
B( 29-C , 31-C ) :   0.9756 B( 31-C , 32-C ) :   1.2748 B( 31-C , 38-C ) :   1.3272
B( 32-C , 33-C ) :   0.9793 B( 33-C , 34-O ) :   2.0368 B( 33-C , 35-N ) :   1.0623
B( 34-O , 77-H ) :   0.1060 B( 35-N , 36-C ) :   0.9446 B( 35-N , 38-C ) :   1.1570
B( 36-C , 37-C ) :   1.1193 B( 36-C , 84-H ) :   0.9276 B( 36-C , 85-H ) :   0.9495
B( 37-C , 86-H ) :   0.9635 B( 37-C , 87-H ) :   0.9681 B( 37-C , 88-H ) :   0.9685
B( 38-C , 39-C ) :   1.1889 B( 39-C , 40-C ) :   1.5727 B( 39-C , 89-H ) :   0.9463
B( 40-C , 41-C ) :   1.1684 B( 40-C , 90-H ) :   0.9325 B( 41-C , 42-S ) :   1.1868
B( 41-C , 43-C ) :   0.1055 B( 41-C , 45-C ) :   1.2937 B( 42-S , 43-C ) :   1.1521
B( 43-C , 44-C ) :   1.3210 B( 43-C , 56-C ) :   1.1182 B( 44-C , 45-C ) :   1.2184
B( 44-C , 53-C ) :   1.2355 B( 45-C , 46-C ) :   1.2495 B( 46-C , 47-C ) :   0.9370
B( 46-C , 51-C ) :   1.5174 B( 47-C , 48-F ) :   1.1690 B( 47-C , 49-F ) :   1.1539
B( 47-C , 50-F ) :   1.1381 B( 51-C , 52-C ) :   1.2179 B( 51-C , 91-H ) :   0.9876
B( 52-C , 53-C ) :   1.5096 B( 52-C , 92-H ) :   0.9986 B( 53-C , 54-C ) :   1.1032
B( 54-C , 55-N ) :   3.0135 B( 56-C , 57-C ) :   1.6841 B( 56-C , 93-H ) :   0.9190
B( 57-C , 58-C ) :   0.9408 B( 57-C , 62-C ) :   1.0373 B( 58-C , 59-O ) :   2.2751
B( 58-C , 60-C ) :   0.9243 B( 60-C , 61-C ) :   1.3261 B( 60-C , 71-C ) :   1.3726
B( 61-C , 62-C ) :   1.0114 B( 61-C , 68-C ) :   1.3745 B( 62-C , 63-C ) :   1.6473
B( 63-C , 64-C ) :   1.1248 B( 63-C , 66-C ) :   1.1739 B( 64-C , 65-N ) :   2.9908
B( 66-C , 67-N ) :   3.0000 B( 68-C , 69-C ) :   1.3697 B( 68-C , 94-H ) :   0.9799
B( 69-C , 70-C ) :   1.4207 B( 69-C , 73-Br) :   1.0522 B( 70-C , 71-C ) :   1.3563
B( 70-C , 72-Br) :   1.0322 B( 71-C , 95-H ) :   1.0061

-----------------------------------------------------------------------------
         ABSORPTION SPECTRUM VIA TRANSITION ELECTRIC DIPOLE MOMENTS
-----------------------------------------------------------------------------
State   Energy  Wavelength   fosc         T2         TX        TY        TZ
        (cm-1)    (nm)                  (au**2)     (au)      (au)      (au)
-----------------------------------------------------------------------------
   0   10701.0    934.5   1.138964386  35.03965  -3.61232  -4.53056  -1.21030
   1   16304.6    613.3   0.112965543   2.28093   0.17623   1.47955   0.24658
   2   19769.6    505.8   0.249395077   4.15304   1.71260   0.99007  -0.48971
   3   21700.0    460.8   0.048078631   0.72940  -0.04535  -0.02943  -0.85234
   4   23081.5    433.2   0.022702691   0.32381   0.41285  -0.34459   0.18607
   5   23192.0    431.2   0.001095255   0.01555   0.10282   0.04842  -0.05129
   6   24150.2    414.1   0.053779686   0.73312  -0.63151  -0.17211  -0.55198
   7   24954.7    400.7   0.056011892   0.73893  -0.37737  -0.72624   0.26286
   8   25259.2    395.9   0.021701123   0.28284  -0.03944   0.19060   0.49493
   9   25505.5    392.1   0.558909930   7.21411   1.57418   2.17116   0.14882
  10   25704.7    389.0   0.402332817   5.15286  -0.64864  -2.13872   0.39751
  11   26882.6    372.0   0.001139653   0.01396   0.06122   0.04205  -0.09187
  12   27819.8    359.5   0.067562121   0.79951  -0.37284   0.79278  -0.17887
  13   28615.7    349.5   0.166682107   1.91761  -0.37303   0.95187  -0.93403
  14   28659.0    348.9   0.008923947   0.10251  -0.28418  -0.11656  -0.09039
  15   29209.6    342.4   0.029574576   0.33333  -0.24514  -0.50443  -0.13705
  16   29817.5    335.4   0.006530937   0.07211  -0.10347  -0.18681  -0.16280
  17   30356.1    329.4   0.001199523   0.01301  -0.06439  -0.09414   0.00089
  18   30464.3    328.3   0.002859525   0.03090  -0.03585  -0.13656   0.10472
  19   30638.5    326.4   0.016582594   0.17818  -0.30205   0.11306  -0.27233
  20   31085.6    321.7   0.020728919   0.21953   0.09599  -0.20703   0.40921
  21   31611.2    316.3   0.004320177   0.04499   0.19495  -0.08113   0.02011
  22   32116.3    311.4   0.034553159   0.35419   0.02356  -0.59292  -0.04569
  23   32400.5    308.6   0.042559625   0.43244  -0.07278   0.46053  -0.46374
  24   32591.4    306.8   0.022901301   0.23133   0.20201  -0.40318   0.16724
  25   32768.4    305.2   0.058750956   0.59025  -0.16833   0.49675  -0.56138
  26   32937.9    303.6   0.055709486   0.55681   0.23133   0.05293   0.70746
  27   33043.2    302.6   0.181757862   1.81087   0.22123  -1.09672   0.74775
  28   33199.5    301.2   0.046709372   0.46318  -0.19323  -0.65006   0.05706
  29   33783.7    296.0   0.053187947   0.51830  -0.49453  -0.52277   0.02131
  30   34063.5    293.6   0.234711046   2.26840  -0.72209  -1.15812  -0.63698
  31   34347.5    291.1   0.035322337   0.33856   0.29151   0.14521  -0.48217
  32   34392.7    290.8   0.523325932   5.00936   1.49582  -0.31618   1.63460
  33   34768.7    287.6   0.062295019   0.58985   0.70571   0.08473   0.29094
  34   35186.9    284.2   0.443932757   4.15347   1.07454   0.30469   1.70470
  35   35755.0    279.7   0.003062564   0.02820  -0.10469  -0.08354  -0.10129
  36   36193.0    276.3   0.002615264   0.02379   0.01963  -0.13418   0.07347
  37   36387.2    274.8   0.014370025   0.13001  -0.03536   0.28591  -0.21683
  38   36598.4    273.2   0.052958367   0.47637  -0.10361  -0.29855   0.61360
  39   36900.2    271.0   0.197750725   1.76427   0.17873   1.29323  -0.24468
  40   37204.0    268.8   0.169402798   1.49902  -0.57541  -1.07120  -0.14301
  41   37272.6    268.3   0.004483042   0.03960  -0.05279   0.04469  -0.18658
  42   37459.6    267.0   0.098989727   0.86997   0.14507   0.49326  -0.77822
  43   37656.1    265.6   0.021055170   0.18408   0.28797   0.30877   0.07622
  44   37862.5    264.1   0.005706692   0.04962   0.01405  -0.20640   0.08259
  45   38153.7    262.1   0.001678460   0.01448  -0.04091  -0.11144   0.01975
  46   38317.6    261.0   0.000283838   0.00244  -0.02523  -0.00462   0.04220
  47   38820.1    257.6   0.156954012   1.33104   0.33286   1.10463   0.00670
  48   38928.3    256.9   0.007514858   0.06355  -0.00713  -0.25164   0.01342
  49   38971.0    256.6   0.021842063   0.18451   0.21733   0.09768   0.35741
  50   39458.9    253.4   0.011955472   0.09975  -0.26216   0.12026  -0.12867
  51   39533.3    253.0   0.005601771   0.04665  -0.16746  -0.13350   0.02798
  52   39919.7    250.5   0.074906387   0.61774  -0.41693  -0.59158   0.30651
  53   40043.5    249.7   0.028925397   0.23781  -0.28373  -0.39497  -0.03611
  54   40216.0    248.7   0.074702110   0.61152   0.00037  -0.75326   0.21006
  55   40271.2    248.3   0.077821703   0.63618   0.09561   0.49329  -0.61944

FINAL SINGLE POINT ENERGY    -14176.059470945573

DIPOLE MOMENT
-------------
                                X             Y             Z
Electronic contribution:    -92.19113      42.72261     -67.91253
Nuclear contribution   :     91.75314     -42.90171      65.71922
                        -----------------------------------------
Total Dipole Moment    :     -0.43798      -0.17911      -2.19332
                        -----------------------------------------
Magnitude (a.u.)       :      2.24378
Magnitude (Debye)      :      5.70323

Rotational constants in cm-1:     0.001566     0.000128     0.000121
Rotational constants in MHz :    46.941481     3.829404     3.627599

                             ****ORCA TERMINATED NORMALLY****
TOTAL RUN TIME: 0 days 0 hours 11 minutes 22 seconds 415 msec
