                         Program Version 4.2.0 -  RELEASE  -
|  1> # ORCA input file
|  2> # SCF done       -230.616349172632          0.000446092545
|  3> ! CAM-B3LYP def2-SVP def2/J RIJCOSX Grid4 TightSCF
|  4> %maxcore 5000
|  5> %tddft
|  6>     Mode sTDDFT
|  7>     Ethresh 5.0
|  8>     maxcore 5000
|  9> end
| 10>
| 11> %pal
| 12>   nprocs 6
| 13>   end
| 14> * xyz 0 1
| 15>    C        0.69449         1.06841        -2.04669
| 16>    C        1.43097        -0.07734        -1.91706
| 17>    C        1.43702        -1.12433        -2.86276
| 18>    N        1.49727        -1.99582        -3.60616
| 19>    C        2.19509        -0.37573        -0.76818
| 20>    N        2.78742        -0.66542         0.17082
| 21>    C       -0.34472         1.29461        -3.04841
| 22>    C       -1.23075         2.27870        -2.56782
| 23>    C       -2.34402         2.65950        -3.28777
| 24>    C       -2.57455         2.04518        -4.51777
| 25>    C       -1.68837         1.07829        -5.00540
| 26>    C       -0.56732         0.69643        -4.27785
| 27>    C       -1.90887         0.48835        -6.37484
| 28>    O       -1.50874         1.00531        -7.38227
| 29>    O       -2.50720        -0.69235        -6.29202
| 30>    C       -2.81479        -1.32176        -7.53099
| 31>    C       -3.76833         2.37024        -5.34493
| 32>    O       -4.13534         1.69923        -6.27769
| 33>    O       -4.38498         3.47847        -4.93735
| 34>    C       -5.53327         3.86092        -5.68350
| 35>    C       -0.75444         2.77787        -1.25836
| 36>    O       -1.28334         3.57618        -0.52459
| 37>    C        0.57155         2.12231        -1.05876
| 38>    C        1.43751         2.61463        -0.13643
| 39>    C        2.84179         2.42767        -0.04593
| 40>    S        3.84073         2.04601        -1.42500
| 41>    C        5.28312         2.05116        -0.46237
| 42>    C        4.98376         2.36635         0.86554
| 43>    C        3.61747         2.59920         1.08105
| 44>    C        5.93741         2.53402         1.88667
| 45>    N        6.68063         2.72510         2.73844
| 46>    C        6.52141         1.74894        -1.08363
| 47>    C        7.64300         1.36731        -0.42207
| 48>    C        8.88407         0.97665        -0.99131
| 49>    N        9.40383         1.26125        -2.23482
| 50>    C        8.94446         2.22543        -3.20869
| 51>    C        8.92503         3.64529        -2.65323
| 52>    C       10.63880         0.61147        -2.43901
| 53>    O       11.29556         0.72500        -3.45386
| 54>    C       10.86117        -0.14218        -1.22623
| 55>    C        9.78529         0.12854        -0.35173
| 56>    C        9.96794        -0.66062         0.85084
| 57>    O        9.31934        -0.76598         1.86514
| 58>    N       11.17031        -1.36398         0.61343
| 59>    C       11.68576        -2.30108         1.58229
| 60>    C       11.27359        -3.73538         1.25883
| 61>    C       11.69993        -1.07948        -0.62072
| 62>    C       12.86111        -1.69212        -1.15092
| 63>    C       13.39593        -1.32989        -2.34767
| 64>    C       14.51018        -1.98637        -2.92201
| 65>    O       15.02249        -3.11507        -2.37986
| 66>    C       16.04438        -3.53450        -3.15132
| 67>    C       16.21844        -2.65492        -4.22260
| 68>    C       15.22385        -1.65521        -4.07801
| 69>    C       15.01315        -0.55378        -4.92066
| 70>    N       14.86492         0.33921        -5.62271
| 71>    C       17.19839        -2.77362        -5.21752
| 72>    N       18.01114        -2.90293        -6.01516
| 73>    C       16.78694        -4.70391        -2.86022
| 74>    C       16.53642        -5.52736        -1.81169
| 75>    C       17.24638        -6.72619        -1.54110
| 76>    C       18.49672        -7.10861        -1.91723
| 77>    C       19.64335        -6.41335        -2.46852
| 78>    C       19.99930        -5.10772        -2.26516
| 79>    C       21.21930        -4.54724        -2.70469
| 80>    N       22.19607        -4.04099        -3.02820
| 81>    C       19.23261        -4.18424        -1.52664
| 82>    N       18.64800        -3.39900        -0.92779
| 83>    C       20.50799        -7.42820        -3.07264
| 84>    C       20.05047        -8.70553        -2.69727
| 85>    C       18.83407        -8.56485        -1.86910
| 86>    O       18.20695        -9.42803        -1.30595
| 87>    C       20.68848        -9.85764        -3.11383
| 88>    C       21.80967        -9.73096        -3.92623
| 89>    C       22.26204        -8.46492        -4.31278
| 90>    C       21.61698        -7.30349        -3.89003
| 91>    C       23.47630        -8.39646        -5.17538
| 92>    O       24.21079        -9.33503        -5.36255
| 93>    O       23.65815        -7.18902        -5.70082
| 94>    C       24.80057        -7.03129        -6.53252
| 95>    C       22.48916       -10.96179        -4.46720
| 96>    O       22.19566       -11.46011        -5.51969
| 97>    O       23.36362       -11.44973        -3.59588
| 98>    C       24.11511       -12.57478        -4.03782
| 99>    H       -3.02133         3.40740        -2.90695
|100>    H        0.10895        -0.04062        -4.68088
|101>    H       -1.92023        -1.39246        -8.15266
|102>    H       -3.57206        -0.73803        -8.05684
|103>    H       -3.19322        -2.30982        -7.28329
|104>    H       -6.31914         3.11024        -5.57866
|105>    H       -5.28052         3.96000        -6.74087
|106>    H       -5.85704         4.81400        -5.27396
|107>    H        1.00887         3.30035         0.58857
|108>    H        3.20653         2.85292         2.04228
|109>    H        6.49961         1.75940        -2.16367
|110>    H        7.60490         1.23710         0.65177
|111>    H        7.96225         1.93980        -3.59490
|112>    H        9.66189         2.16134        -4.03305
|113>    H        8.23008         3.73627        -1.82166
|114>    H        8.62603         4.33714        -3.43559
|115>    H        9.91741         3.92302        -2.30673
|116>    H       11.25689        -2.00897         2.54489
|117>    H       12.77347        -2.20722         1.63692
|118>    H       10.18955        -3.81648         1.25735
|119>    H       11.67051        -4.41037         2.01182
|120>    H       11.64428        -4.04044         0.28249
|121>    H       13.33087        -2.48048        -0.58016
|122>    H       12.97197        -0.51770        -2.92343
|123>    H       17.56610        -4.93373        -3.57418
|124>    H       15.68946        -5.30993        -1.17540
|125>    H       16.69160        -7.49334        -1.00774
|126>    H       20.31809       -10.82642        -2.81625
|127>    H       21.98667        -6.34566        -4.21749
|128>    H       24.71528        -7.66875        -7.41475
|129>    H       25.70601        -7.30373        -5.98679
|130>    H       24.82302        -5.98273        -6.81696
|131>    H       24.78283       -12.26953        -4.84507
|132>    H       23.44736       -13.35800        -4.40190
|133>    H       24.68323       -12.91815        -3.17749
|134> *
|135>
|136>                          ****END OF INPUT****

CARTESIAN COORDINATES (ANGSTROEM)
---------------------------------
  C      0.694490    1.068410   -2.046690
  C      1.430970   -0.077340   -1.917060
  C      1.437020   -1.124330   -2.862760
  N      1.497270   -1.995820   -3.606160
  C      2.195090   -0.375730   -0.768180
  N      2.787420   -0.665420    0.170820
  C     -0.344720    1.294610   -3.048410
  C     -1.230750    2.278700   -2.567820
  C     -2.344020    2.659500   -3.287770
  C     -2.574550    2.045180   -4.517770
  C     -1.688370    1.078290   -5.005400
  C     -0.567320    0.696430   -4.277850
  C     -1.908870    0.488350   -6.374840
  O     -1.508740    1.005310   -7.382270
  O     -2.507200   -0.692350   -6.292020
  C     -2.814790   -1.321760   -7.530990
  C     -3.768330    2.370240   -5.344930
  O     -4.135340    1.699230   -6.277690
  O     -4.384980    3.478470   -4.937350
  C     -5.533270    3.860920   -5.683500
  C     -0.754440    2.777870   -1.258360
  O     -1.283340    3.576180   -0.524590
  C      0.571550    2.122310   -1.058760
  C      1.437510    2.614630   -0.136430
  C      2.841790    2.427670   -0.045930
  S      3.840730    2.046010   -1.425000
  C      5.283120    2.051160   -0.462370
  C      4.983760    2.366350    0.865540
  C      3.617470    2.599200    1.081050
  C      5.937410    2.534020    1.886670
  N      6.680630    2.725100    2.738440
  C      6.521410    1.748940   -1.083630
  C      7.643000    1.367310   -0.422070
  C      8.884070    0.976650   -0.991310
  N      9.403830    1.261250   -2.234820
  C      8.944460    2.225430   -3.208690
  C      8.925030    3.645290   -2.653230
  C     10.638800    0.611470   -2.439010
  O     11.295560    0.725000   -3.453860
  C     10.861170   -0.142180   -1.226230
  C      9.785290    0.128540   -0.351730
  C      9.967940   -0.660620    0.850840
  O      9.319340   -0.765980    1.865140
  N     11.170310   -1.363980    0.613430
  C     11.685760   -2.301080    1.582290
  C     11.273590   -3.735380    1.258830
  C     11.699930   -1.079480   -0.620720
  C     12.861110   -1.692120   -1.150920
  C     13.395930   -1.329890   -2.347670
  C     14.510180   -1.986370   -2.922010
  O     15.022490   -3.115070   -2.379860
  C     16.044380   -3.534500   -3.151320
  C     16.218440   -2.654920   -4.222600
  C     15.223850   -1.655210   -4.078010
  C     15.013150   -0.553780   -4.920660
  N     14.864920    0.339210   -5.622710
  C     17.198390   -2.773620   -5.217520
  N     18.011140   -2.902930   -6.015160
  C     16.786940   -4.703910   -2.860220
  C     16.536420   -5.527360   -1.811690
  C     17.246380   -6.726190   -1.541100
  C     18.496720   -7.108610   -1.917230
  C     19.643350   -6.413350   -2.468520
  C     19.999300   -5.107720   -2.265160
  C     21.219300   -4.547240   -2.704690
  N     22.196070   -4.040990   -3.028200
  C     19.232610   -4.184240   -1.526640
  N     18.648000   -3.399000   -0.927790
  C     20.507990   -7.428200   -3.072640
  C     20.050470   -8.705530   -2.697270
  C     18.834070   -8.564850   -1.869100
  O     18.206950   -9.428030   -1.305950
  C     20.688480   -9.857640   -3.113830
  C     21.809670   -9.730960   -3.926230
  C     22.262040   -8.464920   -4.312780
  C     21.616980   -7.303490   -3.890030
  C     23.476300   -8.396460   -5.175380
  O     24.210790   -9.335030   -5.362550
  O     23.658150   -7.189020   -5.700820
  C     24.800570   -7.031290   -6.532520
  C     22.489160  -10.961790   -4.467200
  O     22.195660  -11.460110   -5.519690
  O     23.363620  -11.449730   -3.595880
  C     24.115110  -12.574780   -4.037820
  H     -3.021330    3.407400   -2.906950
  H      0.108950   -0.040620   -4.680880
  H     -1.920230   -1.392460   -8.152660
  H     -3.572060   -0.738030   -8.056840
  H     -3.193220   -2.309820   -7.283290
  H     -6.319140    3.110240   -5.578660
  H     -5.280520    3.960000   -6.740870
  H     -5.857040    4.814000   -5.273960
  H      1.008870    3.300350    0.588570
  H      3.206530    2.852920    2.042280
  H      6.499610    1.759400   -2.163670
  H      7.604900    1.237100    0.651770
  H      7.962250    1.939800   -3.594900
  H      9.661890    2.161340   -4.033050
  H      8.230080    3.736270   -1.821660
  H      8.626030    4.337140   -3.435590
  H      9.917410    3.923020   -2.306730
  H     11.256890   -2.008970    2.544890
  H     12.773470   -2.207220    1.636920
  H     10.189550   -3.816480    1.257350
  H     11.670510   -4.410370    2.011820
  H     11.644280   -4.040440    0.282490
  H     13.330870   -2.480480   -0.580160
  H     12.971970   -0.517700   -2.923430
  H     17.566100   -4.933730   -3.574180
  H     15.689460   -5.309930   -1.175400
  H     16.691600   -7.493340   -1.007740
  H     20.318090  -10.826420   -2.816250
  H     21.986670   -6.345660   -4.217490
  H     24.715280   -7.668750   -7.414750
  H     25.706010   -7.303730   -5.986790
  H     24.823020   -5.982730   -6.816960
  H     24.782830  -12.269530   -4.845070
  H     23.447360  -13.358000   -4.401900
  H     24.683230  -12.918150   -3.177490

 Total Charge           Charge          ....    0
 Multiplicity           Mult            ....    1
 Number of Electrons    NEL             ....  584
 Basis Dimension        Dim             .... 1355

ORBITAL ENERGIES
----------------

  NO   OCC          E(Eh)            E(eV)
   0   2.0000     -88.993227     -2421.6288
   1   2.0000     -19.342870      -526.3462
   2   2.0000     -19.278722      -524.6007
   3   2.0000     -19.275855      -524.5227
   4   2.0000     -19.259729      -524.0839
   5   2.0000     -19.259618      -524.0808
   6   2.0000     -19.233563      -523.3718
   7   2.0000     -19.230264      -523.2821
   8   2.0000     -19.222771      -523.0782
   9   2.0000     -19.220802      -523.0246
  10   2.0000     -19.204397      -522.5782
  11   2.0000     -19.203212      -522.5460
  12   2.0000     -19.203133      -522.5438
  13   2.0000     -19.202238      -522.5195
  14   2.0000     -14.465432      -393.6244
  15   2.0000     -14.465325      -393.6215
  16   2.0000     -14.432562      -392.7300
  17   2.0000     -14.429476      -392.6460
  18   2.0000     -14.429112      -392.6361
  19   2.0000     -14.427615      -392.5954
  20   2.0000     -14.427082      -392.5809
  21   2.0000     -14.422456      -392.4550
  22   2.0000     -14.416183      -392.2843
  23   2.0000     -10.418849      -283.5113
  24   2.0000     -10.417004      -283.4611
  25   2.0000     -10.404808      -283.1292
  26   2.0000     -10.404771      -283.1282
  27   2.0000     -10.388502      -282.6855
  28   2.0000     -10.387071      -282.6466
  29   2.0000     -10.386345      -282.6268
  30   2.0000     -10.386001      -282.6175
  31   2.0000     -10.383493      -282.5492
  32   2.0000     -10.381707      -282.5006
  33   2.0000     -10.361531      -281.9516
  34   2.0000     -10.361138      -281.9409
  35   2.0000     -10.358492      -281.8689
  36   2.0000     -10.357035      -281.8292
  37   2.0000     -10.357033      -281.8292
  38   2.0000     -10.350878      -281.6617
  39   2.0000     -10.350672      -281.6561
  40   2.0000     -10.348870      -281.6071
  41   2.0000     -10.347378      -281.5665
  42   2.0000     -10.337418      -281.2954
  43   2.0000     -10.337082      -281.2863
  44   2.0000     -10.334790      -281.2239
  45   2.0000     -10.332950      -281.1739
  46   2.0000     -10.332119      -281.1513
  47   2.0000     -10.331364      -281.1307
  48   2.0000     -10.330420      -281.1050
  49   2.0000     -10.330272      -281.1010
  50   2.0000     -10.330122      -281.0969
  51   2.0000     -10.329307      -281.0747
  52   2.0000     -10.328800      -281.0609
  53   2.0000     -10.328608      -281.0557
  54   2.0000     -10.326825      -281.0072
  55   2.0000     -10.322930      -280.9012
  56   2.0000     -10.321821      -280.8710
  57   2.0000     -10.321216      -280.8546
  58   2.0000     -10.320515      -280.8355
  59   2.0000     -10.320240      -280.8280
  60   2.0000     -10.318970      -280.7934
  61   2.0000     -10.318755      -280.7876
  62   2.0000     -10.318670      -280.7853
  63   2.0000     -10.318551      -280.7820
  64   2.0000     -10.318424      -280.7786
  65   2.0000     -10.318030      -280.7679
  66   2.0000     -10.317923      -280.7650
  67   2.0000     -10.317811      -280.7619
  68   2.0000     -10.317667      -280.7580
  69   2.0000     -10.317062      -280.7415
  70   2.0000     -10.316337      -280.7218
  71   2.0000     -10.315345      -280.6948
  72   2.0000     -10.314575      -280.6739
  73   2.0000     -10.314399      -280.6691
  74   2.0000     -10.313835      -280.6537
  75   2.0000     -10.313282      -280.6387
  76   2.0000     -10.313197      -280.6364
  77   2.0000     -10.313190      -280.6362
  78   2.0000     -10.312240      -280.6103
  79   2.0000     -10.308610      -280.5115
  80   2.0000     -10.278277      -279.6861
  81   2.0000     -10.276554      -279.6393
  82   2.0000     -10.273081      -279.5447
  83   2.0000     -10.269609      -279.4503
  84   2.0000      -8.088419      -220.0971
  85   2.0000      -6.057657      -164.8372
  86   2.0000      -6.053545      -164.7253
  87   2.0000      -6.050559      -164.6441
  88   2.0000      -1.262081       -34.3430
  89   2.0000      -1.211946       -32.9787
  90   2.0000      -1.209871       -32.9223
  91   2.0000      -1.192993       -32.4630
  92   2.0000      -1.192821       -32.4583
  93   2.0000      -1.149245       -31.2726
  94   2.0000      -1.146276       -31.1917
  95   2.0000      -1.146254       -31.1911
  96   2.0000      -1.139577       -31.0095
  97   2.0000      -1.116899       -30.3924
  98   2.0000      -1.114813       -30.3356
  99   2.0000      -1.099043       -29.9065
 100   2.0000      -1.098881       -29.9021
 101   2.0000      -1.076496       -29.2930
 102   2.0000      -1.067156       -29.0388
 103   2.0000      -1.036224       -28.1971
 104   2.0000      -1.034155       -28.1408
 105   2.0000      -1.026708       -27.9381
 106   2.0000      -1.017342       -27.6833
 107   2.0000      -1.013888       -27.5893
 108   2.0000      -1.012298       -27.5460
 109   2.0000      -1.007163       -27.4063
 110   2.0000      -1.006341       -27.3839
 111   2.0000      -1.005809       -27.3695
 112   2.0000      -0.996339       -27.1117
 113   2.0000      -0.974408       -26.5150
 114   2.0000      -0.971741       -26.4424
 115   2.0000      -0.962825       -26.1998
 116   2.0000      -0.959824       -26.1181
 117   2.0000      -0.942001       -25.6331
 118   2.0000      -0.937647       -25.5147
 119   2.0000      -0.933941       -25.4138
 120   2.0000      -0.919588       -25.0233
 121   2.0000      -0.918862       -25.0035
 122   2.0000      -0.908894       -24.7323
 123   2.0000      -0.902549       -24.5596
 124   2.0000      -0.889352       -24.2005
 125   2.0000      -0.888327       -24.1726
 126   2.0000      -0.884655       -24.0727
 127   2.0000      -0.879775       -23.9399
 128   2.0000      -0.866944       -23.5907
 129   2.0000      -0.863010       -23.4837
 130   2.0000      -0.837959       -22.8020
 131   2.0000      -0.835536       -22.7361
 132   2.0000      -0.832616       -22.6566
 133   2.0000      -0.830827       -22.6080
 134   2.0000      -0.828418       -22.5424
 135   2.0000      -0.816934       -22.2299
 136   2.0000      -0.807552       -21.9746
 137   2.0000      -0.802896       -21.8479
 138   2.0000      -0.791501       -21.5378
 139   2.0000      -0.783505       -21.3202
 140   2.0000      -0.777179       -21.1481
 141   2.0000      -0.774567       -21.0770
 142   2.0000      -0.770356       -20.9624
 143   2.0000      -0.760610       -20.6973
 144   2.0000      -0.745918       -20.2975
 145   2.0000      -0.739497       -20.1227
 146   2.0000      -0.734308       -19.9815
 147   2.0000      -0.728856       -19.8332
 148   2.0000      -0.724918       -19.7260
 149   2.0000      -0.722249       -19.6534
 150   2.0000      -0.713426       -19.4133
 151   2.0000      -0.700872       -19.0717
 152   2.0000      -0.699625       -19.0378
 153   2.0000      -0.697169       -18.9709
 154   2.0000      -0.694273       -18.8921
 155   2.0000      -0.688004       -18.7216
 156   2.0000      -0.684924       -18.6377
 157   2.0000      -0.670213       -18.2374
 158   2.0000      -0.665189       -18.1007
 159   2.0000      -0.662444       -18.0260
 160   2.0000      -0.660043       -17.9607
 161   2.0000      -0.653138       -17.7728
 162   2.0000      -0.648526       -17.6473
 163   2.0000      -0.645777       -17.5725
 164   2.0000      -0.640708       -17.4346
 165   2.0000      -0.634613       -17.2687
 166   2.0000      -0.630897       -17.1676
 167   2.0000      -0.628098       -17.0914
 168   2.0000      -0.626361       -17.0441
 169   2.0000      -0.622824       -16.9479
 170   2.0000      -0.616239       -16.7687
 171   2.0000      -0.610031       -16.5998
 172   2.0000      -0.607305       -16.5256
 173   2.0000      -0.606613       -16.5068
 174   2.0000      -0.598290       -16.2803
 175   2.0000      -0.594078       -16.1657
 176   2.0000      -0.591022       -16.0825
 177   2.0000      -0.590130       -16.0583
 178   2.0000      -0.585500       -15.9323
 179   2.0000      -0.584115       -15.8946
 180   2.0000      -0.582507       -15.8508
 181   2.0000      -0.581870       -15.8335
 182   2.0000      -0.579769       -15.7763
 183   2.0000      -0.577176       -15.7058
 184   2.0000      -0.576993       -15.7008
 185   2.0000      -0.575633       -15.6638
 186   2.0000      -0.566222       -15.4077
 187   2.0000      -0.559932       -15.2365
 188   2.0000      -0.555639       -15.1197
 189   2.0000      -0.554525       -15.0894
 190   2.0000      -0.553094       -15.0504
 191   2.0000      -0.552791       -15.0422
 192   2.0000      -0.551206       -14.9991
 193   2.0000      -0.548187       -14.9169
 194   2.0000      -0.546976       -14.8840
 195   2.0000      -0.546513       -14.8714
 196   2.0000      -0.545954       -14.8562
 197   2.0000      -0.543382       -14.7862
 198   2.0000      -0.542355       -14.7582
 199   2.0000      -0.539505       -14.6807
 200   2.0000      -0.537674       -14.6309
 201   2.0000      -0.537104       -14.6153
 202   2.0000      -0.535118       -14.5613
 203   2.0000      -0.530668       -14.4402
 204   2.0000      -0.530589       -14.4380
 205   2.0000      -0.529604       -14.4113
 206   2.0000      -0.524994       -14.2858
 207   2.0000      -0.523567       -14.2470
 208   2.0000      -0.521105       -14.1800
 209   2.0000      -0.518688       -14.1142
 210   2.0000      -0.514333       -13.9957
 211   2.0000      -0.511195       -13.9103
 212   2.0000      -0.510335       -13.8869
 213   2.0000      -0.510152       -13.8819
 214   2.0000      -0.509108       -13.8535
 215   2.0000      -0.500986       -13.6325
 216   2.0000      -0.500706       -13.6249
 217   2.0000      -0.497087       -13.5264
 218   2.0000      -0.492847       -13.4110
 219   2.0000      -0.492121       -13.3913
 220   2.0000      -0.489163       -13.3108
 221   2.0000      -0.488954       -13.3051
 222   2.0000      -0.487128       -13.2554
 223   2.0000      -0.485618       -13.2143
 224   2.0000      -0.483880       -13.1670
 225   2.0000      -0.479439       -13.0462
 226   2.0000      -0.477036       -12.9808
 227   2.0000      -0.475584       -12.9413
 228   2.0000      -0.475346       -12.9348
 229   2.0000      -0.474195       -12.9035
 230   2.0000      -0.469425       -12.7737
 231   2.0000      -0.469081       -12.7644
 232   2.0000      -0.467779       -12.7289
 233   2.0000      -0.463748       -12.6192
 234   2.0000      -0.463727       -12.6187
 235   2.0000      -0.462893       -12.5960
 236   2.0000      -0.461598       -12.5607
 237   2.0000      -0.459890       -12.5143
 238   2.0000      -0.459726       -12.5098
 239   2.0000      -0.458505       -12.4766
 240   2.0000      -0.457840       -12.4585
 241   2.0000      -0.456686       -12.4271
 242   2.0000      -0.455744       -12.4014
 243   2.0000      -0.452427       -12.3112
 244   2.0000      -0.452185       -12.3046
 245   2.0000      -0.451464       -12.2850
 246   2.0000      -0.448486       -12.2039
 247   2.0000      -0.448098       -12.1934
 248   2.0000      -0.446741       -12.1564
 249   2.0000      -0.445167       -12.1136
 250   2.0000      -0.443134       -12.0583
 251   2.0000      -0.440178       -11.9779
 252   2.0000      -0.440130       -11.9765
 253   2.0000      -0.436742       -11.8843
 254   2.0000      -0.436341       -11.8734
 255   2.0000      -0.435284       -11.8447
 256   2.0000      -0.435113       -11.8400
 257   2.0000      -0.429974       -11.7002
 258   2.0000      -0.429467       -11.6864
 259   2.0000      -0.429113       -11.6768
 260   2.0000      -0.423778       -11.5316
 261   2.0000      -0.423123       -11.5138
 262   2.0000      -0.420835       -11.4515
 263   2.0000      -0.420565       -11.4441
 264   2.0000      -0.415003       -11.2928
 265   2.0000      -0.410313       -11.1652
 266   2.0000      -0.401340       -10.9210
 267   2.0000      -0.396640       -10.7931
 268   2.0000      -0.394546       -10.7361
 269   2.0000      -0.392706       -10.6861
 270   2.0000      -0.378226       -10.2920
 271   2.0000      -0.375424       -10.2158
 272   2.0000      -0.374986       -10.2039
 273   2.0000      -0.373416       -10.1612
 274   2.0000      -0.370528       -10.0826
 275   2.0000      -0.369435       -10.0528
 276   2.0000      -0.364971        -9.9314
 277   2.0000      -0.361454        -9.8357
 278   2.0000      -0.360112        -9.7992
 279   2.0000      -0.357553        -9.7295
 280   2.0000      -0.355712        -9.6794
 281   2.0000      -0.353562        -9.6209
 282   2.0000      -0.349064        -9.4985
 283   2.0000      -0.347265        -9.4496
 284   2.0000      -0.343636        -9.3508
 285   2.0000      -0.342846        -9.3293
 286   2.0000      -0.330482        -8.9929
 287   2.0000      -0.329080        -8.9547
 288   2.0000      -0.326654        -8.8887
 289   2.0000      -0.304472        -8.2851
 290   2.0000      -0.296421        -8.0660
 291   2.0000      -0.249673        -6.7939
 292   0.0000      -0.124420        -3.3857
 293   0.0000      -0.109852        -2.9892
 294   0.0000      -0.093776        -2.5518
 295   0.0000      -0.082004        -2.2314
 296   0.0000      -0.073851        -2.0096

MULLIKEN ATOMIC CHARGES
-----------------------
   0 C :    0.241862
   1 C :   -0.314630
   2 C :   -0.169513
   3 N :    0.169731
   4 C :   -0.205527
   5 N :    0.182391
   6 C :    0.035635
   7 C :    0.019900
   8 C :   -0.055036
   9 C :    0.017353
  10 C :    0.027465
  11 C :   -0.041504
  12 C :    0.184550
  13 O :   -0.209680
  14 O :   -0.290632
  15 C :    0.188830
  16 C :    0.205054
  17 O :   -0.203719
  18 O :   -0.290925
  19 C :    0.187354
  20 C :    0.141718
  21 O :   -0.130756
  22 C :   -0.129010
  23 C :    0.063897
  24 C :   -0.103154
  25 S :    0.170326
  26 C :   -0.061168
  27 C :   -0.038796
  28 C :    0.068650
  29 C :   -0.196614
  30 N :    0.147567
  31 C :    0.049880
  32 C :   -0.031912
  33 C :    0.096614
  34 N :   -0.266884
  35 C :    0.093478
  36 C :   -0.004241
  37 C :    0.170296
  38 O :   -0.198461
  39 C :   -0.074950
  40 C :   -0.022190
  41 C :    0.154717
  42 O :   -0.168487
  43 N :   -0.265935
  44 C :    0.093912
  45 C :    0.003372
  46 C :    0.157806
  47 C :   -0.024426
  48 C :   -0.045501
  49 C :    0.145603
  50 O :   -0.182578
  51 C :    0.136961
  52 C :   -0.000975
  53 C :    0.008700
  54 C :   -0.291659
  55 N :    0.245318
  56 C :   -0.300002
  57 N :    0.237853
  58 C :   -0.028457
  59 C :    0.030042
  60 C :    0.040857
  61 C :   -0.117133
  62 C :    0.263990
  63 C :   -0.324629
  64 C :   -0.176939
  65 N :    0.176554
  66 C :   -0.194636
  67 N :    0.171423
  68 C :    0.035610
  69 C :    0.010675
  70 C :    0.140127
  71 O :   -0.125461
  72 C :   -0.038706
  73 C :    0.025661
  74 C :    0.017311
  75 C :   -0.047427
  76 C :    0.209050
  77 O :   -0.205695
  78 O :   -0.286561
  79 C :    0.189100
  80 C :    0.184566
  81 O :   -0.208916
  82 O :   -0.292617
  83 C :    0.189084
  84 H :    0.010090
  85 H :    0.011308
  86 H :    0.035145
  87 H :    0.039808
  88 H :    0.035461
  89 H :    0.037672
  90 H :    0.042266
  91 H :    0.040876
  92 H :    0.035489
  93 H :    0.011933
  94 H :   -0.014326
  95 H :    0.042542
  96 H :    0.025947
  97 H :    0.054734
  98 H :    0.027360
  99 H :    0.027415
 100 H :    0.029117
 101 H :    0.049463
 102 H :    0.027833
 103 H :    0.036955
 104 H :    0.027728
 105 H :    0.009367
 106 H :   -0.005363
 107 H :    0.048821
 108 H :    0.040611
 109 H :    0.016164
 110 H :    0.034967
 111 H :    0.004842
 112 H :    0.018769
 113 H :    0.039420
 114 H :    0.037873
 115 H :    0.046755
 116 H :    0.041418
 117 H :    0.033174
 118 H :    0.033567
Sum of atomic charges:   -0.0000000

LOEWDIN ATOMIC CHARGES
----------------------
   0 C :    0.056517
   1 C :   -0.127591
   2 C :   -0.021764
   3 N :   -0.036292
   4 C :   -0.035129
   5 N :   -0.036313
   6 C :    0.004075
   7 C :   -0.047991
   8 C :    0.042905
   9 C :   -0.044220
  10 C :    0.008312
  11 C :    0.011074
  12 C :    0.075239
  13 O :   -0.163751
  14 O :   -0.076694
  15 C :    0.085632
  16 C :    0.093161
  17 O :   -0.156142
  18 O :   -0.079444
  19 C :    0.085815
  20 C :    0.085074
  21 O :   -0.130419
  22 C :   -0.091626
  23 C :    0.052904
  24 C :   -0.180716
  25 S :    0.489198
  26 C :   -0.116823
  27 C :   -0.099842
  28 C :    0.020324
  29 C :   -0.033980
  30 N :   -0.039191
  31 C :   -0.038272
  32 C :    0.005128
  33 C :    0.066419
  34 N :   -0.003600
  35 C :    0.035817
  36 C :   -0.061830
  37 C :    0.082550
  38 O :   -0.186340
  39 C :   -0.117570
  40 C :   -0.097506
  41 C :    0.082591
  42 O :   -0.172686
  43 N :   -0.003306
  44 C :    0.036768
  45 C :   -0.060851
  46 C :    0.079356
  47 C :   -0.019781
  48 C :    0.006849
  49 C :    0.074019
  50 O :    0.037827
  51 C :    0.072087
  52 C :   -0.070653
  53 C :   -0.070589
  54 C :   -0.034895
  55 N :   -0.013078
  56 C :   -0.034353
  57 N :   -0.022322
  58 C :    0.005681
  59 C :   -0.010064
  60 C :    0.058706
  61 C :   -0.076207
  62 C :    0.061962
  63 C :   -0.127642
  64 C :   -0.022035
  65 N :   -0.033643
  66 C :   -0.015036
  67 N :   -0.038347
  68 C :   -0.013159
  69 C :   -0.031932
  70 C :    0.085716
  71 O :   -0.124773
  72 C :    0.029769
  73 C :    0.003566
  74 C :   -0.036808
  75 C :    0.027991
  76 C :    0.094062
  77 O :   -0.156919
  78 O :   -0.073341
  79 C :    0.087611
  80 C :    0.074974
  81 O :   -0.162433
  82 O :   -0.079149
  83 C :    0.085024
  84 H :    0.045962
  85 H :    0.044532
  86 H :    0.023716
  87 H :    0.027707
  88 H :    0.026813
  89 H :    0.026388
  90 H :    0.028001
  91 H :    0.028918
  92 H :    0.055238
  93 H :    0.047704
  94 H :    0.031437
  95 H :    0.055647
  96 H :    0.018504
  97 H :    0.040783
  98 H :    0.022836
  99 H :    0.033384
 100 H :    0.032651
 101 H :    0.040863
 102 H :    0.025021
 103 H :    0.034989
 104 H :    0.032410
 105 H :    0.019581
 106 H :    0.034546
 107 H :    0.051204
 108 H :    0.048943
 109 H :    0.040190
 110 H :    0.050860
 111 H :    0.046190
 112 H :    0.044491
 113 H :    0.027565
 114 H :    0.026431
 115 H :    0.031628
 116 H :    0.028492
 117 H :    0.022768
 118 H :    0.025953

  Mayer bond orders larger than 0.100000
B(  0-C ,  1-C ) :   1.6784 B(  0-C ,  6-C ) :   0.9986 B(  0-C , 22-C ) :   1.0237
B(  1-C ,  2-C ) :   1.1280 B(  1-C ,  4-C ) :   1.1556 B(  2-C ,  3-N ) :   2.9931
B(  4-C ,  5-N ) :   3.0179 B(  6-C ,  7-C ) :   1.3321 B(  6-C , 11-C ) :   1.3537
B(  7-C ,  8-C ) :   1.3424 B(  7-C , 20-C ) :   0.9146 B(  8-C ,  9-C ) :   1.3149
B(  8-C , 84-H ) :   1.0177 B(  9-C , 10-C ) :   1.4560 B(  9-C , 16-C ) :   0.9040
B( 10-C , 11-C ) :   1.4049 B( 10-C , 12-C ) :   0.8437 B( 11-C , 85-H ) :   0.9899
B( 12-C , 13-O ) :   2.1136 B( 12-C , 14-O ) :   1.2322 B( 14-O , 15-C ) :   0.9135
B( 15-C , 86-H ) :   0.9729 B( 15-C , 87-H ) :   0.9762 B( 15-C , 88-H ) :   0.9808
B( 16-C , 17-O ) :   2.0463 B( 16-C , 18-O ) :   1.2643 B( 18-O , 19-C ) :   0.9115
B( 19-C , 89-H ) :   0.9776 B( 19-C , 90-H ) :   0.9745 B( 19-C , 91-H ) :   0.9809
B( 20-C , 21-O ) :   2.2827 B( 20-C , 22-C ) :   0.9322 B( 22-C , 23-C ) :   1.6807
B( 23-C , 24-C ) :   1.1009 B( 23-C , 92-H ) :   0.9474 B( 24-C , 25-S ) :   1.1090
B( 24-C , 28-C ) :   1.4410 B( 25-S , 26-C ) :   1.1568 B( 26-C , 27-C ) :   1.4324
B( 26-C , 31-C ) :   1.1573 B( 27-C , 28-C ) :   1.2995 B( 27-C , 29-C ) :   1.1070
B( 28-C , 93-H ) :   1.0081 B( 29-C , 30-N ) :   3.0012 B( 31-C , 32-C ) :   1.6039
B( 31-C , 94-H ) :   0.9482 B( 32-C , 33-C ) :   1.1900 B( 32-C , 95-H ) :   0.9381
B( 33-C , 34-N ) :   1.1678 B( 33-C , 40-C ) :   1.3625 B( 34-N , 35-C ) :   0.9400
B( 34-N , 37-C ) :   1.0578 B( 35-C , 36-C ) :   1.1166 B( 35-C , 96-H ) :   0.9493
B( 35-C , 97-H ) :   0.9241 B( 36-C , 98-H ) :   0.9649 B( 36-C , 99-H ) :   0.9666
B( 36-C ,100-H ) :   0.9634 B( 37-C , 38-O ) :   2.0313 B( 37-C , 39-C ) :   0.9896
B( 38-O ,107-H ) :   0.1086 B( 39-C , 40-C ) :   1.2527 B( 39-C , 46-C ) :   1.3350
B( 40-C , 41-C ) :   0.9611 B( 41-C , 42-O ) :   2.1573 B( 41-C , 43-N ) :   1.0249
B( 43-N , 44-C ) :   0.9418 B( 43-N , 46-C ) :   1.1724 B( 44-C , 45-C ) :   1.1209
B( 44-C ,101-H ) :   0.9290 B( 44-C ,102-H ) :   0.9510 B( 45-C ,103-H ) :   0.9635
B( 45-C ,104-H ) :   0.9677 B( 45-C ,105-H ) :   0.9685 B( 46-C , 47-C ) :   1.1378
B( 47-C , 48-C ) :   1.5711 B( 47-C ,106-H ) :   0.9773 B( 48-C , 49-C ) :   1.2030
B( 48-C ,107-H ) :   0.9277 B( 49-C , 50-O ) :   1.1495 B( 49-C , 53-C ) :   1.3556
B( 50-O , 51-C ) :   1.1606 B( 51-C , 52-C ) :   1.3746 B( 51-C , 58-C ) :   1.2438
B( 52-C , 53-C ) :   1.3295 B( 52-C , 56-C ) :   1.1528 B( 53-C , 54-C ) :   1.1578
B( 54-C , 55-N ) :   3.0157 B( 56-C , 57-N ) :   3.0156 B( 58-C , 59-C ) :   1.6150
B( 58-C ,108-H ) :   0.9357 B( 59-C , 60-C ) :   1.1278 B( 59-C ,109-H ) :   0.9705
B( 60-C , 61-C ) :   1.6915 B( 60-C ,110-H ) :   0.9276 B( 61-C , 62-C ) :   1.0255
B( 61-C , 70-C ) :   0.9345 B( 62-C , 63-C ) :   1.6680 B( 62-C , 68-C ) :   0.9905
B( 63-C , 64-C ) :   1.1245 B( 63-C , 66-C ) :   1.1697 B( 64-C , 65-N ) :   2.9970
B( 66-C , 67-N ) :   2.9865 B( 68-C , 69-C ) :   1.3327 B( 68-C , 75-C ) :   1.3394
B( 69-C , 70-C ) :   0.9143 B( 69-C , 72-C ) :   1.3635 B( 70-C , 71-O ) :   2.2767
B( 72-C , 73-C ) :   1.3809 B( 72-C ,111-H ) :   1.0144 B( 73-C , 74-C ) :   1.4608
B( 73-C , 80-C ) :   0.8441 B( 74-C , 75-C ) :   1.3349 B( 74-C , 76-C ) :   0.8979
B( 75-C ,112-H ) :   0.9898 B( 76-C , 77-O ) :   2.0419 B( 76-C , 78-O ) :   1.2624
B( 78-O , 79-C ) :   0.9087 B( 79-C ,113-H ) :   0.9772 B( 79-C ,114-H ) :   0.9749
B( 79-C ,115-H ) :   0.9808 B( 80-C , 81-O ) :   2.1138 B( 80-C , 82-O ) :   1.2293
B( 82-O , 83-C ) :   0.9150 B( 83-C ,116-H ) :   0.9762 B( 83-C ,117-H ) :   0.9723
B( 83-C ,118-H ) :   0.9810

-----------------------------------------------------------------------------
         ABSORPTION SPECTRUM VIA TRANSITION ELECTRIC DIPOLE MOMENTS
-----------------------------------------------------------------------------
State   Energy  Wavelength   fosc         T2         TX        TY        TZ
        (cm-1)    (nm)                  (au**2)     (au)      (au)      (au)
-----------------------------------------------------------------------------
   0   12779.9    782.5   1.169366055  30.12312   4.93756  -2.39632   0.03624
   1   17621.2    567.5   0.075358867   1.40791   0.38095   1.08357   0.29777
   2   20527.6    487.1   0.047510093   0.76194   0.67319   0.30439   0.46487
   3   22451.5    445.4   0.316867237   4.64630   1.56901  -1.45165  -0.27787
   4   23855.0    419.2   0.295370495   4.07627   2.01067   0.17356   0.05775
   5   24972.1    400.4   0.034531503   0.45523   0.57525   0.30511   0.17671
   6   25542.0    391.5   0.020135724   0.25953   0.09048  -0.49399  -0.08552
   7   26076.6    383.5   0.058607540   0.73991  -0.79991   0.31472  -0.03155
   8   27042.7    369.8   0.016506218   0.20094   0.03925  -0.18498  -0.40643
   9   27248.4    367.0   0.112251614   1.35621   0.50279  -0.86437  -0.59689
  10   27673.6    361.4   0.089767927   1.06790   0.15710   0.07961  -1.01828
  11   28358.3    352.6   0.051746598   0.60073  -0.39240   0.11349   0.65869
  12   28765.8    347.6   0.026063002   0.29828  -0.43221  -0.30124  -0.14397
  13   28976.3    345.1   0.174293381   1.98022  -1.09339   0.88552  -0.02401
  14   29733.0    336.3   0.061276613   0.67847  -0.34167   0.51563   0.54393
  15   30568.4    327.1   0.000283423   0.00305  -0.05108  -0.00379   0.02072
  16   30810.5    324.6   0.094573980   1.01053   0.82791  -0.37406   0.43031
  17   31644.2    316.0   0.089887881   0.93515   0.24481  -0.91372   0.20083
  18   32057.5    311.9   0.061794930   0.63460   0.55596  -0.55981   0.11010
  19   32125.5    311.3   0.106092354   1.08720  -0.04294  -1.02881  -0.16404
  20   32485.8    307.8   0.057128937   0.57895   0.41373   0.35152   0.53311
  21   33300.2    300.3   0.015218621   0.15045   0.36302  -0.12881  -0.04555
  22   33332.2    300.0   0.038793271   0.38315  -0.47709  -0.15913  -0.36085
  23   33666.0    297.0   0.230387057   2.25290  -1.27725   0.78779   0.03020
  24   33833.6    295.6   0.093389681   0.90871  -0.65768  -0.10946  -0.68131
  25   34197.3    292.4   0.015271489   0.14702   0.12270   0.18996   0.30964
  26   34338.9    291.2   0.191454440   1.83550  -0.39639   1.28010   0.19932
  27   34692.9    288.2   0.102170544   0.96953   0.44787  -0.67568   0.55892
  28   35258.4    283.6   0.072744576   0.67922  -0.71593  -0.13775  -0.38430
  29   35846.2    279.0   0.251138015   2.30646   0.06223  -1.48800  -0.29740
  30   36182.1    276.4   0.252519493   2.29761   1.06392  -0.18660  -1.06342
  31   36703.7    272.5   0.397627192   3.56650   0.96743  -0.83122   1.39272
  32   36818.1    271.6   0.028772650   0.25727   0.10241  -0.04762  -0.49449
  33   37310.5    268.0   0.150297338   1.32616   0.49087  -0.48459  -0.92216
  34   37521.8    266.5   0.030484386   0.26747  -0.00106   0.08361   0.51037
  35   37567.7    266.2   0.035250801   0.30891  -0.33897  -0.42584   0.11255
  36   37637.3    265.7   0.115365417   1.00910   0.56149   0.51077  -0.65798
  37   37794.3    264.6   0.088931485   0.77465   0.27490   0.14135   0.82408
  38   38431.7    260.2   0.161617443   1.38444  -0.83551   0.79807  -0.22234
  39   38552.3    259.4   0.088328733   0.75427   0.14869   0.08950   0.85097
  40   38971.3    256.6   0.037327249   0.31532  -0.47581  -0.16517   0.24829
  41   39532.1    253.0   0.071906221   0.59881  -0.03150   0.61437  -0.46943
  42   39666.8    252.1   0.007956660   0.06604  -0.12415   0.05520   0.21812
  43   39807.0    251.2   0.038583639   0.31909   0.49642  -0.16719  -0.21146
  44   40135.7    249.2   0.030182473   0.24757  -0.38660   0.29086   0.11625
  45   40261.7    248.4   0.246130058   2.01256   0.58154  -1.18330  -0.52363

FINAL SINGLE POINT ENERGY     -4209.501734792763

DIPOLE MOMENT
-------------
                                X             Y             Z
Electronic contribution:      1.10587       6.10489       9.86000
Nuclear contribution   :     -2.98566      -6.46335      -9.76300
                        -----------------------------------------
Total Dipole Moment    :     -1.87980      -0.35846       0.09700
                        -----------------------------------------
Magnitude (a.u.)       :      1.91613
Magnitude (Debye)      :      4.87041

Rotational constants in cm-1:     0.001452     0.000148     0.000143
Rotational constants in MHz :    43.535865     4.438162     4.282832

                             ****ORCA TERMINATED NORMALLY****
TOTAL RUN TIME: 0 days 0 hours 12 minutes 50 seconds 821 msec
