                         Program Version 4.2.0 -  RELEASE  -
|  1> # ORCA input file
|  2> # SCF done       -175.842298980642          0.000227007016
|  3> ! CAM-B3LYP def2-SVP def2/J RIJCOSX Grid4 TightSCF
|  4> %maxcore 5000
|  5> %tddft
|  6>     Mode sTDDFT
|  7>     Ethresh 5.0
|  8>     maxcore 5000
|  9> end
| 10>
| 11> %pal
| 12>   nprocs 6
| 13>   end
| 14> * xyz 0 1
| 15>    C       -1.92222        -1.37331         2.49607
| 16>    N       -2.66717        -1.27465         1.36695
| 17>    C       -3.42173        -2.33840         0.75347
| 18>    C       -4.73600        -2.58917         1.48838
| 19>    C       -2.68116         0.05576         0.86873
| 20>    O       -3.27907         0.38356        -0.13213
| 21>    C       -1.85556         0.77860         1.80827
| 22>    C       -1.40223        -0.14444         2.79999
| 23>    C       -0.57420         0.58949         3.73203
| 24>    O        0.01971         0.25917         4.73371
| 25>    N       -0.57910         1.91418         3.23672
| 26>    C        0.18200         2.92376         3.93061
| 27>    C        1.55323         3.14056         3.29311
| 28>    C       -1.33588         2.03400         2.08916
| 29>    C       -1.61233         3.18080         1.29330
| 30>    C       -1.11451         4.43709         1.37710
| 31>    C       -1.53320         5.46315         0.48581
| 32>    S       -0.84752         7.08618         0.55809
| 33>    C       -1.93907         7.46048        -0.78692
| 34>    N       -2.65208         6.42647        -1.13376
| 35>    N       -2.43461         5.34790        -0.44860
| 36>    C       -2.01668         8.72871        -1.41156
| 37>    C       -1.24341         9.78309        -1.05212
| 38>    C       -1.30681        11.04777        -1.68852
| 39>    N       -0.49367        12.10931        -1.35677
| 40>    C        0.56442        12.11384        -0.37629
| 41>    C        1.82230        11.41726        -0.88994
| 42>    C       -0.75553        13.24102        -2.14701
| 43>    O       -0.15292        14.29106        -2.03452
| 44>    C       -1.83072        12.82637        -3.01909
| 45>    C       -2.14498        11.47774        -2.71346
| 46>    C       -3.23172        11.06760        -3.57603
| 47>    O       -3.83473        10.01960        -3.68527
| 48>    N       -3.51219        12.20978        -4.34629
| 49>    C       -4.51856        12.18417        -5.38004
| 50>    C       -3.90329        12.01944        -6.76745
| 51>    C       -2.68221        13.26130        -4.03350
| 52>    C       -2.74819        14.52754        -4.66578
| 53>    C       -1.88467        15.53627        -4.38692
| 54>    C       -1.96554        16.79019        -5.04653
| 55>    S       -0.80976        18.08512        -4.76205
| 56>    C       -1.73876        18.99725        -5.94304
| 57>    N       -2.75521        18.31749        -6.41084
| 58>    N       -2.87638        17.11987        -5.92669
| 59>    C       -1.39558        20.31958        -6.32935
| 60>    C       -2.14792        21.01849        -7.21475
| 61>    C       -1.82529        22.33445        -7.63427
| 62>    N       -2.60412        23.06809        -8.50131
| 63>    C       -3.88017        22.67818        -9.04959
| 64>    C       -5.00344        22.80819        -8.02372
| 65>    C       -2.05089        24.33162        -8.77033
| 66>    O       -2.57196        25.14620        -9.50651
| 67>    C       -0.82442        24.35453        -8.00500
| 68>    C       -0.71990        23.11450        -7.31425
| 69>    C        0.51051        23.13097        -6.56039
| 70>    O        1.03229        22.31572        -5.82412
| 71>    N        1.08007        24.38500        -6.85286
| 72>    C        2.31915        24.79687        -6.23982
| 73>    C        2.08551        25.73576        -5.05852
| 74>    C        0.29285        25.12062        -7.70611
| 75>    C        0.64500        26.43038        -8.17447
| 76>    C       -0.13564        27.14224        -8.99037
| 77>    H       -1.80638        -2.31368         3.00337
| 78>    H       -2.81273        -3.24692         0.73814
| 79>    H       -3.62496        -2.02286        -0.27340
| 80>    H       -4.55049        -2.87315         2.52209
| 81>    H       -5.28588        -3.38821         0.99932
| 82>    H       -5.34584        -1.68925         1.47794
| 83>    H        0.31918         2.54558         4.94869
| 84>    H       -0.39499         3.84994         3.97963
| 85>    H        2.13637         2.22587         3.36416
| 86>    H        2.08412         3.93176         3.81580
| 87>    H        1.46364         3.40808         2.24248
| 88>    H       -2.32524         2.98631         0.50126
| 89>    H       -0.37476         4.73339         2.10243
| 90>    H       -2.73813         8.80975        -2.21403
| 91>    H       -0.53398         9.66406        -0.24325
| 92>    H        0.21041        11.64813         0.54791
| 93>    H        0.78486        13.16657        -0.17766
| 94>    H        1.62236        10.37578        -1.13196
| 95>    H        2.60037        11.45792        -0.13267
| 96>    H        2.18233        11.91719        -1.78569
| 97>    H       -5.12045        13.09535        -5.32743
| 98>    H       -5.15649        11.32428        -5.15688
| 99>    H       -3.23948        12.84883        -7.00073
|100>    H       -4.69017        11.98011        -7.51539
|101>    H       -3.33384        11.09431        -6.81322
|102>    H       -3.51478        14.69959        -5.40692
|103>    H       -1.10002        15.40949        -3.65430
|104>    H       -0.50653        20.75114        -5.89184
|105>    H       -3.03009        20.54600        -7.62122
|106>    H       -3.81883        21.65486        -9.43004
|107>    H       -4.06674        23.35660        -9.88702
|108>    H       -4.82177        22.16716        -7.16405
|109>    H       -5.94960        22.52578        -8.47691
|110>    H       -5.07540        23.83752        -7.68072
|111>    H        2.96273        25.26571        -6.98951
|112>    H        2.79997        23.87955        -5.88798
|113>    H        1.56630        26.63830        -5.37355
|114>    H        3.03789        26.01478        -4.61609
|115>    H        1.48387        25.23682        -4.30280
|116>    H        1.59169        26.83089        -7.83882
|117>    H       -1.08208        26.76339        -9.33844
|118>    H        0.15864        28.12080        -9.32861
|119> *
|120>
|121>                          ****END OF INPUT****

CARTESIAN COORDINATES (ANGSTROEM)
---------------------------------
  C     -1.922220   -1.373310    2.496070
  N     -2.667170   -1.274650    1.366950
  C     -3.421730   -2.338400    0.753470
  C     -4.736000   -2.589170    1.488380
  C     -2.681160    0.055760    0.868730
  O     -3.279070    0.383560   -0.132130
  C     -1.855560    0.778600    1.808270
  C     -1.402230   -0.144440    2.799990
  C     -0.574200    0.589490    3.732030
  O      0.019710    0.259170    4.733710
  N     -0.579100    1.914180    3.236720
  C      0.182000    2.923760    3.930610
  C      1.553230    3.140560    3.293110
  C     -1.335880    2.034000    2.089160
  C     -1.612330    3.180800    1.293300
  C     -1.114510    4.437090    1.377100
  C     -1.533200    5.463150    0.485810
  S     -0.847520    7.086180    0.558090
  C     -1.939070    7.460480   -0.786920
  N     -2.652080    6.426470   -1.133760
  N     -2.434610    5.347900   -0.448600
  C     -2.016680    8.728710   -1.411560
  C     -1.243410    9.783090   -1.052120
  C     -1.306810   11.047770   -1.688520
  N     -0.493670   12.109310   -1.356770
  C      0.564420   12.113840   -0.376290
  C      1.822300   11.417260   -0.889940
  C     -0.755530   13.241020   -2.147010
  O     -0.152920   14.291060   -2.034520
  C     -1.830720   12.826370   -3.019090
  C     -2.144980   11.477740   -2.713460
  C     -3.231720   11.067600   -3.576030
  O     -3.834730   10.019600   -3.685270
  N     -3.512190   12.209780   -4.346290
  C     -4.518560   12.184170   -5.380040
  C     -3.903290   12.019440   -6.767450
  C     -2.682210   13.261300   -4.033500
  C     -2.748190   14.527540   -4.665780
  C     -1.884670   15.536270   -4.386920
  C     -1.965540   16.790190   -5.046530
  S     -0.809760   18.085120   -4.762050
  C     -1.738760   18.997250   -5.943040
  N     -2.755210   18.317490   -6.410840
  N     -2.876380   17.119870   -5.926690
  C     -1.395580   20.319580   -6.329350
  C     -2.147920   21.018490   -7.214750
  C     -1.825290   22.334450   -7.634270
  N     -2.604120   23.068090   -8.501310
  C     -3.880170   22.678180   -9.049590
  C     -5.003440   22.808190   -8.023720
  C     -2.050890   24.331620   -8.770330
  O     -2.571960   25.146200   -9.506510
  C     -0.824420   24.354530   -8.005000
  C     -0.719900   23.114500   -7.314250
  C      0.510510   23.130970   -6.560390
  O      1.032290   22.315720   -5.824120
  N      1.080070   24.385000   -6.852860
  C      2.319150   24.796870   -6.239820
  C      2.085510   25.735760   -5.058520
  C      0.292850   25.120620   -7.706110
  C      0.645000   26.430380   -8.174470
  C     -0.135640   27.142240   -8.990370
  H     -1.806380   -2.313680    3.003370
  H     -2.812730   -3.246920    0.738140
  H     -3.624960   -2.022860   -0.273400
  H     -4.550490   -2.873150    2.522090
  H     -5.285880   -3.388210    0.999320
  H     -5.345840   -1.689250    1.477940
  H      0.319180    2.545580    4.948690
  H     -0.394990    3.849940    3.979630
  H      2.136370    2.225870    3.364160
  H      2.084120    3.931760    3.815800
  H      1.463640    3.408080    2.242480
  H     -2.325240    2.986310    0.501260
  H     -0.374760    4.733390    2.102430
  H     -2.738130    8.809750   -2.214030
  H     -0.533980    9.664060   -0.243250
  H      0.210410   11.648130    0.547910
  H      0.784860   13.166570   -0.177660
  H      1.622360   10.375780   -1.131960
  H      2.600370   11.457920   -0.132670
  H      2.182330   11.917190   -1.785690
  H     -5.120450   13.095350   -5.327430
  H     -5.156490   11.324280   -5.156880
  H     -3.239480   12.848830   -7.000730
  H     -4.690170   11.980110   -7.515390
  H     -3.333840   11.094310   -6.813220
  H     -3.514780   14.699590   -5.406920
  H     -1.100020   15.409490   -3.654300
  H     -0.506530   20.751140   -5.891840
  H     -3.030090   20.546000   -7.621220
  H     -3.818830   21.654860   -9.430040
  H     -4.066740   23.356600   -9.887020
  H     -4.821770   22.167160   -7.164050
  H     -5.949600   22.525780   -8.476910
  H     -5.075400   23.837520   -7.680720
  H      2.962730   25.265710   -6.989510
  H      2.799970   23.879550   -5.887980
  H      1.566300   26.638300   -5.373550
  H      3.037890   26.014780   -4.616090
  H      1.483870   25.236820   -4.302800
  H      1.591690   26.830890   -7.838820
  H     -1.082080   26.763390   -9.338440
  H      0.158640   28.120800   -9.328610

 Total Charge           Charge          ....    0
 Multiplicity           Mult            ....    1
 Number of Electrons    NEL             ....  456
 Basis Dimension        Dim             .... 1086

ORBITAL ENERGIES
----------------

  NO   OCC          E(Eh)            E(eV)
   0   2.0000     -88.972204     -2421.0568
   1   2.0000     -88.972164     -2421.0557
   2   2.0000     -19.192288      -522.2487
   3   2.0000     -19.192055      -522.2424
   4   2.0000     -19.191965      -522.2399
   5   2.0000     -19.191300      -522.2218
   6   2.0000     -19.185378      -522.0607
   7   2.0000     -19.184769      -522.0441
   8   2.0000     -14.454816      -393.3355
   9   2.0000     -14.454626      -393.3304
  10   2.0000     -14.452933      -393.2843
  11   2.0000     -14.452762      -393.2796
  12   2.0000     -14.450889      -393.2287
  13   2.0000     -14.449237      -393.1837
  14   2.0000     -14.438590      -392.8940
  15   2.0000     -14.438227      -392.8841
  16   2.0000     -14.437772      -392.8718
  17   2.0000     -14.436297      -392.8316
  18   2.0000     -10.374873      -282.3147
  19   2.0000     -10.374396      -282.3017
  20   2.0000     -10.373741      -282.2838
  21   2.0000     -10.373118      -282.2669
  22   2.0000     -10.371402      -282.2202
  23   2.0000     -10.369251      -282.1617
  24   2.0000     -10.344711      -281.4939
  25   2.0000     -10.341093      -281.3954
  26   2.0000     -10.340272      -281.3731
  27   2.0000     -10.339973      -281.3650
  28   2.0000     -10.339702      -281.3576
  29   2.0000     -10.339674      -281.3568
  30   2.0000     -10.339487      -281.3517
  31   2.0000     -10.336744      -281.2771
  32   2.0000     -10.336113      -281.2599
  33   2.0000     -10.335086      -281.2320
  34   2.0000     -10.311215      -280.5824
  35   2.0000     -10.309373      -280.5323
  36   2.0000     -10.308282      -280.5026
  37   2.0000     -10.307309      -280.4761
  38   2.0000     -10.305241      -280.4199
  39   2.0000     -10.303527      -280.3732
  40   2.0000     -10.303138      -280.3626
  41   2.0000     -10.299712      -280.2694
  42   2.0000     -10.298606      -280.2393
  43   2.0000     -10.296943      -280.1941
  44   2.0000     -10.295935      -280.1666
  45   2.0000     -10.293261      -280.0939
  46   2.0000     -10.292892      -280.0838
  47   2.0000     -10.291811      -280.0544
  48   2.0000     -10.286616      -279.9130
  49   2.0000     -10.278084      -279.6809
  50   2.0000     -10.266990      -279.3790
  51   2.0000     -10.264484      -279.3108
  52   2.0000     -10.264412      -279.3089
  53   2.0000     -10.264051      -279.2990
  54   2.0000     -10.263710      -279.2897
  55   2.0000     -10.263084      -279.2727
  56   2.0000     -10.262257      -279.2502
  57   2.0000     -10.259946      -279.1873
  58   2.0000     -10.259789      -279.1831
  59   2.0000     -10.259228      -279.1678
  60   2.0000     -10.259199      -279.1670
  61   2.0000     -10.256236      -279.0864
  62   2.0000      -8.068379      -219.5518
  63   2.0000      -8.068358      -219.5512
  64   2.0000      -6.036949      -164.2737
  65   2.0000      -6.036948      -164.2737
  66   2.0000      -6.033868      -164.1899
  67   2.0000      -6.033578      -164.1820
  68   2.0000      -6.030867      -164.1082
  69   2.0000      -6.030726      -164.1044
  70   2.0000      -1.142895       -31.0998
  71   2.0000      -1.141617       -31.0650
  72   2.0000      -1.134400       -30.8686
  73   2.0000      -1.132138       -30.8070
  74   2.0000      -1.131709       -30.7954
  75   2.0000      -1.127707       -30.6865
  76   2.0000      -1.124520       -30.5997
  77   2.0000      -1.123689       -30.5771
  78   2.0000      -1.064585       -28.9688
  79   2.0000      -1.062849       -28.9216
  80   2.0000      -1.061445       -28.8834
  81   2.0000      -1.056171       -28.7399
  82   2.0000      -1.052489       -28.6397
  83   2.0000      -1.052327       -28.6353
  84   2.0000      -0.949799       -25.8453
  85   2.0000      -0.948214       -25.8022
  86   2.0000      -0.933333       -25.3973
  87   2.0000      -0.929461       -25.2919
  88   2.0000      -0.927700       -25.2440
  89   2.0000      -0.926033       -25.1986
  90   2.0000      -0.923646       -25.1337
  91   2.0000      -0.894304       -24.3352
  92   2.0000      -0.891025       -24.2460
  93   2.0000      -0.887250       -24.1433
  94   2.0000      -0.883491       -24.0410
  95   2.0000      -0.875640       -23.8274
  96   2.0000      -0.870415       -23.6852
  97   2.0000      -0.868313       -23.6280
  98   2.0000      -0.864785       -23.5320
  99   2.0000      -0.820705       -22.3325
 100   2.0000      -0.820635       -22.3306
 101   2.0000      -0.817918       -22.2567
 102   2.0000      -0.817695       -22.2506
 103   2.0000      -0.810011       -22.0415
 104   2.0000      -0.799818       -21.7642
 105   2.0000      -0.788996       -21.4697
 106   2.0000      -0.782506       -21.2931
 107   2.0000      -0.775620       -21.1057
 108   2.0000      -0.761117       -20.7110
 109   2.0000      -0.761020       -20.7084
 110   2.0000      -0.758547       -20.6411
 111   2.0000      -0.732747       -19.9390
 112   2.0000      -0.720223       -19.5983
 113   2.0000      -0.717735       -19.5306
 114   2.0000      -0.713761       -19.4224
 115   2.0000      -0.709197       -19.2982
 116   2.0000      -0.707291       -19.2464
 117   2.0000      -0.705477       -19.1970
 118   2.0000      -0.700033       -19.0489
 119   2.0000      -0.691273       -18.8105
 120   2.0000      -0.680449       -18.5159
 121   2.0000      -0.671766       -18.2797
 122   2.0000      -0.664356       -18.0780
 123   2.0000      -0.656184       -17.8557
 124   2.0000      -0.653175       -17.7738
 125   2.0000      -0.650005       -17.6875
 126   2.0000      -0.645810       -17.5734
 127   2.0000      -0.635797       -17.3009
 128   2.0000      -0.614940       -16.7334
 129   2.0000      -0.613017       -16.6810
 130   2.0000      -0.605795       -16.4845
 131   2.0000      -0.599732       -16.3195
 132   2.0000      -0.595684       -16.2094
 133   2.0000      -0.587687       -15.9918
 134   2.0000      -0.584512       -15.9054
 135   2.0000      -0.583808       -15.8862
 136   2.0000      -0.581240       -15.8164
 137   2.0000      -0.578441       -15.7402
 138   2.0000      -0.577564       -15.7163
 139   2.0000      -0.574422       -15.6308
 140   2.0000      -0.571323       -15.5465
 141   2.0000      -0.565230       -15.3807
 142   2.0000      -0.561334       -15.2747
 143   2.0000      -0.556569       -15.1450
 144   2.0000      -0.550840       -14.9891
 145   2.0000      -0.549726       -14.9588
 146   2.0000      -0.546891       -14.8817
 147   2.0000      -0.546265       -14.8646
 148   2.0000      -0.540841       -14.7170
 149   2.0000      -0.539743       -14.6872
 150   2.0000      -0.534697       -14.5498
 151   2.0000      -0.531922       -14.4743
 152   2.0000      -0.531471       -14.4621
 153   2.0000      -0.529537       -14.4094
 154   2.0000      -0.527760       -14.3611
 155   2.0000      -0.523312       -14.2400
 156   2.0000      -0.520393       -14.1606
 157   2.0000      -0.518138       -14.0993
 158   2.0000      -0.517272       -14.0757
 159   2.0000      -0.514465       -13.9993
 160   2.0000      -0.514021       -13.9872
 161   2.0000      -0.511035       -13.9060
 162   2.0000      -0.510082       -13.8800
 163   2.0000      -0.508188       -13.8285
 164   2.0000      -0.506511       -13.7829
 165   2.0000      -0.501520       -13.6471
 166   2.0000      -0.499895       -13.6028
 167   2.0000      -0.499548       -13.5934
 168   2.0000      -0.495623       -13.4866
 169   2.0000      -0.493308       -13.4236
 170   2.0000      -0.482419       -13.1273
 171   2.0000      -0.476896       -12.9770
 172   2.0000      -0.475281       -12.9330
 173   2.0000      -0.474366       -12.9082
 174   2.0000      -0.473554       -12.8861
 175   2.0000      -0.472143       -12.8477
 176   2.0000      -0.470354       -12.7990
 177   2.0000      -0.466070       -12.6824
 178   2.0000      -0.464672       -12.6444
 179   2.0000      -0.463032       -12.5998
 180   2.0000      -0.462453       -12.5840
 181   2.0000      -0.458766       -12.4837
 182   2.0000      -0.457316       -12.4442
 183   2.0000      -0.456234       -12.4148
 184   2.0000      -0.454294       -12.3620
 185   2.0000      -0.453582       -12.3426
 186   2.0000      -0.451848       -12.2954
 187   2.0000      -0.449825       -12.2404
 188   2.0000      -0.449143       -12.2218
 189   2.0000      -0.445656       -12.1269
 190   2.0000      -0.444926       -12.1070
 191   2.0000      -0.444470       -12.0946
 192   2.0000      -0.439486       -11.9590
 193   2.0000      -0.437633       -11.9086
 194   2.0000      -0.435302       -11.8452
 195   2.0000      -0.432274       -11.7628
 196   2.0000      -0.431888       -11.7523
 197   2.0000      -0.429068       -11.6755
 198   2.0000      -0.424981       -11.5643
 199   2.0000      -0.423793       -11.5320
 200   2.0000      -0.422049       -11.4845
 201   2.0000      -0.418066       -11.3762
 202   2.0000      -0.406045       -11.0490
 203   2.0000      -0.404092       -10.9959
 204   2.0000      -0.400328       -10.8935
 205   2.0000      -0.391067       -10.6415
 206   2.0000      -0.388471       -10.5708
 207   2.0000      -0.380352       -10.3499
 208   2.0000      -0.377329       -10.2676
 209   2.0000      -0.352915        -9.6033
 210   2.0000      -0.350252        -9.5309
 211   2.0000      -0.349141        -9.5006
 212   2.0000      -0.346878        -9.4390
 213   2.0000      -0.345670        -9.4062
 214   2.0000      -0.343354        -9.3431
 215   2.0000      -0.333011        -9.0617
 216   2.0000      -0.329116        -8.9557
 217   2.0000      -0.329010        -8.9528
 218   2.0000      -0.323383        -8.7997
 219   2.0000      -0.320432        -8.7194
 220   2.0000      -0.316337        -8.6080
 221   2.0000      -0.314565        -8.5598
 222   2.0000      -0.312298        -8.4981
 223   2.0000      -0.309541        -8.4230
 224   2.0000      -0.305250        -8.3063
 225   2.0000      -0.253014        -6.8849
 226   2.0000      -0.243983        -6.6391
 227   2.0000      -0.232376        -6.3233
 228   0.0000      -0.100589        -2.7372
 229   0.0000      -0.081543        -2.2189
 230   0.0000      -0.065243        -1.7754
 231   0.0000      -0.033646        -0.9156
 232   0.0000      -0.010501        -0.2857

MULLIKEN ATOMIC CHARGES
-----------------------
   0 C :    0.058599
   1 N :   -0.266832
   2 C :    0.109177
   3 C :   -0.003281
   4 C :    0.164313
   5 O :   -0.176134
   6 C :   -0.068135
   7 C :   -0.002718
   8 C :    0.164105
   9 O :   -0.190533
  10 N :   -0.280703
  11 C :    0.102496
  12 C :    0.000570
  13 C :    0.137390
  14 C :   -0.025693
  15 C :    0.063407
  16 C :   -0.097398
  17 S :    0.063962
  18 C :   -0.087942
  19 N :   -0.016976
  20 N :   -0.035867
  21 C :    0.059591
  22 C :   -0.039469
  23 C :    0.144746
  24 N :   -0.261863
  25 C :    0.096694
  26 C :    0.002548
  27 C :    0.167588
  28 O :   -0.212466
  29 C :   -0.069149
  30 C :   -0.068114
  31 C :    0.165759
  32 O :   -0.197108
  33 N :   -0.261674
  34 C :    0.093116
  35 C :    0.003874
  36 C :    0.152688
  37 C :   -0.032008
  38 C :    0.074148
  39 C :   -0.113737
  40 S :    0.143436
  41 C :   -0.111086
  42 N :   -0.046547
  43 N :   -0.044745
  44 C :    0.069863
  45 C :   -0.024345
  46 C :    0.141142
  47 N :   -0.260250
  48 C :    0.097327
  49 C :    0.005143
  50 C :    0.161784
  51 O :   -0.210135
  52 C :   -0.061410
  53 C :   -0.062364
  54 C :    0.163673
  55 O :   -0.211811
  56 N :   -0.260975
  57 C :    0.098208
  58 C :    0.006722
  59 C :    0.108806
  60 C :   -0.035650
  61 C :    0.015565
  62 H :    0.018731
  63 H :    0.019308
  64 H :    0.044736
  65 H :    0.013992
  66 H :    0.025013
  67 H :    0.034699
  68 H :    0.042935
  69 H :    0.020577
  70 H :    0.032257
  71 H :    0.020184
  72 H :    0.017795
  73 H :    0.042389
  74 H :   -0.014836
  75 H :    0.040070
  76 H :   -0.016990
  77 H :    0.022883
  78 H :    0.044427
  79 H :    0.015158
  80 H :    0.025129
  81 H :    0.030788
  82 H :    0.029094
  83 H :    0.046439
  84 H :    0.020111
  85 H :    0.026263
  86 H :    0.027893
  87 H :    0.003976
  88 H :    0.013870
  89 H :    0.011626
  90 H :    0.002663
  91 H :    0.027276
  92 H :    0.042413
  93 H :    0.019547
  94 H :    0.023070
  95 H :    0.026300
  96 H :    0.023824
  97 H :    0.043113
  98 H :    0.015939
  99 H :    0.022093
 100 H :    0.028853
 101 H :   -0.019369
 102 H :    0.056904
 103 H :    0.029537
Sum of atomic charges:    0.0000000

LOEWDIN ATOMIC CHARGES
----------------------
   0 C :    0.105478
   1 N :   -0.003046
   2 C :    0.038162
   3 C :   -0.060546
   4 C :    0.080384
   5 O :   -0.178683
   6 C :   -0.108810
   7 C :   -0.135543
   8 C :    0.081928
   9 O :   -0.192825
  10 N :   -0.011880
  11 C :    0.033924
  12 C :   -0.064166
  13 C :    0.069612
  14 C :    0.012937
  15 C :   -0.048774
  16 C :   -0.140681
  17 S :    0.365875
  18 C :   -0.146938
  19 N :   -0.052890
  20 N :   -0.068341
  21 C :    0.007807
  22 C :   -0.043235
  23 C :    0.071244
  24 N :   -0.000926
  25 C :    0.035686
  26 C :   -0.061366
  27 C :    0.079820
  28 O :   -0.203508
  29 C :   -0.119601
  30 C :   -0.114766
  31 C :    0.080868
  32 O :   -0.188955
  33 N :    0.001643
  34 C :    0.036402
  35 C :   -0.060315
  36 C :    0.076406
  37 C :   -0.015894
  38 C :   -0.006436
  39 C :   -0.154916
  40 S :    0.419738
  41 C :   -0.151549
  42 N :   -0.075707
  43 N :   -0.073334
  44 C :   -0.012984
  45 C :   -0.011701
  46 C :    0.070428
  47 N :    0.000242
  48 C :    0.036246
  49 C :   -0.060424
  50 C :    0.080444
  51 O :   -0.201728
  52 C :   -0.125731
  53 C :   -0.117307
  54 C :    0.081355
  55 O :   -0.200841
  56 N :    0.000304
  57 C :    0.036142
  58 C :   -0.060734
  59 C :    0.082043
  60 C :   -0.055224
  61 C :    0.026577
  62 H :    0.034706
  63 H :    0.025054
  64 H :    0.037520
  65 H :    0.022143
  66 H :    0.030826
  67 H :    0.033034
  68 H :    0.037669
  69 H :    0.020376
  70 H :    0.034325
  71 H :    0.029362
  72 H :    0.020524
  73 H :    0.057031
  74 H :    0.029581
  75 H :    0.052375
  76 H :    0.022062
  77 H :    0.022454
  78 H :    0.038240
  79 H :    0.021649
  80 H :    0.031046
  81 H :    0.032854
  82 H :    0.025613
  83 H :    0.038558
  84 H :    0.023903
  85 H :    0.032004
  86 H :    0.031578
  87 H :    0.037400
  88 H :    0.037845
  89 H :    0.037342
  90 H :    0.036964
  91 H :    0.024895
  92 H :    0.037094
  93 H :    0.023786
  94 H :    0.030918
  95 H :    0.030933
  96 H :    0.023087
  97 H :    0.037351
  98 H :    0.022437
  99 H :    0.030208
 100 H :    0.032047
 101 H :    0.029324
 102 H :    0.033012
 103 H :    0.029482

  Mayer bond orders larger than 0.100000
B(  0-C ,  1-N ) :   1.2090 B(  0-C ,  7-C ) :   1.4384 B(  0-C , 62-H ) :   0.9894
B(  1-N ,  2-C ) :   0.9400 B(  1-N ,  4-C ) :   1.0161 B(  2-C ,  3-C ) :   1.1190
B(  2-C , 63-H ) :   0.9542 B(  2-C , 64-H ) :   0.9347 B(  3-C , 65-H ) :   0.9688
B(  3-C , 66-H ) :   0.9688 B(  3-C , 67-H ) :   0.9677 B(  4-C ,  5-O ) :   2.1455
B(  4-C ,  6-C ) :   0.9805 B(  6-C ,  7-C ) :   1.2016 B(  6-C , 13-C ) :   1.4006
B(  7-C ,  8-C ) :   0.9564 B(  8-C ,  9-O ) :   2.1648 B(  8-C , 10-N ) :   1.0204
B( 10-N , 11-C ) :   0.9473 B( 10-N , 13-C ) :   1.1522 B( 11-C , 12-C ) :   1.1163
B( 11-C , 68-H ) :   0.9244 B( 11-C , 69-H ) :   0.9508 B( 12-C , 70-H ) :   0.9612
B( 12-C , 71-H ) :   0.9683 B( 12-C , 72-H ) :   0.9678 B( 13-C , 14-C ) :   1.1433
B( 14-C , 15-C ) :   1.6420 B( 14-C , 73-H ) :   0.9546 B( 15-C , 16-C ) :   1.1059
B( 15-C , 74-H ) :   0.9483 B( 16-C , 17-S ) :   1.0929 B( 16-C , 20-N ) :   1.6730
B( 17-S , 18-C ) :   1.0682 B( 18-C , 19-N ) :   1.6647 B( 18-C , 21-C ) :   1.1225
B( 19-N , 20-N ) :   1.2357 B( 21-C , 22-C ) :   1.5761 B( 21-C , 75-H ) :   0.9627
B( 22-C , 23-C ) :   1.1622 B( 22-C , 76-H ) :   0.9578 B( 23-C , 24-N ) :   1.1530
B( 23-C , 30-C ) :   1.3569 B( 24-N , 25-C ) :   0.9490 B( 24-N , 27-C ) :   1.0598
B( 25-C , 26-C ) :   1.1199 B( 25-C , 77-H ) :   0.9502 B( 25-C , 78-H ) :   0.9277
B( 26-C , 79-H ) :   0.9686 B( 26-C , 80-H ) :   0.9678 B( 26-C , 81-H ) :   0.9634
B( 27-C , 28-O ) :   2.0295 B( 27-C , 29-C ) :   0.9876 B( 28-O , 88-H ) :   0.1074
B( 29-C , 30-C ) :   1.2566 B( 29-C , 36-C ) :   1.3369 B( 30-C , 31-C ) :   0.9780
B( 31-C , 32-O ) :   2.0536 B( 31-C , 33-N ) :   1.0541 B( 33-N , 34-C ) :   0.9445
B( 33-N , 36-C ) :   1.1629 B( 34-C , 35-C ) :   1.1211 B( 34-C , 82-H ) :   0.9500
B( 34-C , 83-H ) :   0.9285 B( 35-C , 84-H ) :   0.9684 B( 35-C , 85-H ) :   0.9676
B( 35-C , 86-H ) :   0.9639 B( 36-C , 37-C ) :   1.1324 B( 37-C , 38-C ) :   1.6517
B( 37-C , 87-H ) :   0.9708 B( 38-C , 39-C ) :   1.1109 B( 38-C , 88-H ) :   0.9286
B( 39-C , 40-S ) :   1.1040 B( 39-C , 43-N ) :   1.6451 B( 40-S , 41-C ) :   1.1075
B( 41-C , 42-N ) :   1.6435 B( 41-C , 44-C ) :   1.1079 B( 42-N , 43-N ) :   1.2494
B( 44-C , 45-C ) :   1.6607 B( 44-C , 89-H ) :   0.9299 B( 45-C , 46-C ) :   1.1270
B( 45-C , 90-H ) :   0.9690 B( 46-C , 47-N ) :   1.1572 B( 46-C , 53-C ) :   1.3580
B( 47-N , 48-C ) :   0.9454 B( 47-N , 50-C ) :   1.0574 B( 48-C , 49-C ) :   1.1219
B( 48-C , 91-H ) :   0.9499 B( 48-C , 92-H ) :   0.9281 B( 49-C , 93-H ) :   0.9682
B( 49-C , 94-H ) :   0.9680 B( 49-C , 95-H ) :   0.9637 B( 50-C , 51-O ) :   2.0460
B( 50-C , 52-C ) :   0.9824 B( 52-C , 53-C ) :   1.2416 B( 52-C , 59-C ) :   1.3715
B( 53-C , 54-C ) :   0.9877 B( 54-C , 55-O ) :   2.0301 B( 54-C , 56-N ) :   1.0546
B( 55-O , 89-H ) :   0.1052 B( 56-N , 57-C ) :   0.9465 B( 56-N , 59-C ) :   1.1692
B( 57-C , 58-C ) :   1.1198 B( 57-C , 96-H ) :   0.9507 B( 57-C , 97-H ) :   0.9285
B( 58-C , 98-H ) :   0.9686 B( 58-C , 99-H ) :   0.9677 B( 58-C ,100-H ) :   0.9639
B( 59-C , 60-C ) :   1.1255 B( 60-C , 61-C ) :   1.8879 B( 60-C ,101-H ) :   0.9535
B( 61-C ,102-H ) :   0.9266 B( 61-C ,103-H ) :   0.9446

-----------------------------------------------------------------------------
         ABSORPTION SPECTRUM VIA TRANSITION ELECTRIC DIPOLE MOMENTS
-----------------------------------------------------------------------------
State   Energy  Wavelength   fosc         T2         TX        TY        TZ
        (cm-1)    (nm)                  (au**2)     (au)      (au)      (au)
-----------------------------------------------------------------------------
   0   14336.5    697.5   1.588177405  36.46953   0.03618   5.47099  -2.55666
   1   18081.3    553.1   0.112868092   2.05502   1.29321   0.49976   0.36452
   2   19958.8    501.0   0.389253613   6.42056   1.14995   2.20568   0.48287
   3   21099.3    473.9   0.017894119   0.27920   0.34655   0.39068   0.08045
   4   23344.0    428.4   0.098424327   1.38804   0.95541   0.45276   0.51985
   5   25208.0    396.7   0.073592913   0.96111  -0.33412  -0.90439  -0.17761
   6   26063.7    383.7   0.000367624   0.00464  -0.02162   0.03846  -0.05193
   7   26191.5    381.8   0.059051897   0.74225  -0.07334   0.60867  -0.60530
   8   26530.9    376.9   0.000609325   0.00756  -0.04825   0.02126  -0.06914
   9   27255.7    366.9   0.000182301   0.00220   0.02849   0.03243  -0.01840
  10   27489.6    363.8   0.004728267   0.05663   0.15912   0.17631   0.01490
  11   28162.9    355.1   0.012777519   0.14936  -0.17781  -0.30301  -0.16104
  12   28589.7    349.8   0.002962913   0.03412  -0.15130  -0.09038   0.05529
  13   28808.9    347.1   0.012952244   0.14801   0.20165   0.32697  -0.02087
  14   29279.2    341.5   0.597414951   6.71726  -0.00336   2.38469  -1.01513
  15   29748.8    336.1   0.258494963   2.86061  -0.34421  -1.58376   0.48356
  16   29818.0    335.4   0.098400799   1.08642   0.13904   1.00627  -0.23348
  17   30210.7    331.0   0.014409917   0.15703   0.00040   0.38126  -0.10804
  18   31264.3    319.9   0.018909519   0.19912   0.06297  -0.39223   0.20324
  19   31746.7    315.0   0.042878515   0.44465  -0.30826   0.22924  -0.54505
  20   32007.5    312.4   0.001968813   0.02025   0.03566   0.11863  -0.07004
  21   32435.7    308.3   0.067293765   0.68301  -0.08413   0.76400  -0.30369
  22   33412.2    299.3   0.000485875   0.00479   0.05127  -0.04563   0.00877
  23   34243.3    292.0   0.003926874   0.03775   0.15049  -0.05652  -0.10914
  24   34542.1    289.5   0.005052435   0.04815  -0.12555   0.07738   0.16249
  25   35407.7    282.4   0.111045493   1.03247  -0.18249   0.86789  -0.49592
  26   35695.6    280.1   0.069679020   0.64263  -0.17304   0.53400  -0.57230
  27   36343.2    275.2   0.172260110   1.56040   0.12074  -1.02175   0.70842
  28   36788.1    271.8   0.020311600   0.18177   0.32570   0.06153   0.26814
  29   37486.0    266.8   0.034661580   0.30441  -0.28044  -0.46289  -0.10722
  30   37518.1    266.5   0.018409456   0.16154   0.20907   0.32085   0.12198
  31   38172.9    262.0   0.001638565   0.01413   0.09461  -0.04774   0.05387
  32   38455.9    260.0   0.107845974   0.92324   0.59859   0.69722   0.28075
  33   39000.9    256.4   0.001161425   0.00980   0.04109  -0.01015   0.08951
  34   39695.2    251.9   0.033222429   0.27553   0.17607  -0.32527   0.37246
  35   39743.0    251.6   0.015374198   0.12735   0.21166   0.16998   0.23164

FINAL SINGLE POINT ENERGY     -3493.612648523831

DIPOLE MOMENT
-------------
                                X             Y             Z
Electronic contribution:     -3.30212     -10.45108       4.42825
Nuclear contribution   :      4.74836      11.15539      -3.60909
                        -----------------------------------------
Total Dipole Moment    :      1.44624       0.70431       0.81915
                        -----------------------------------------
Magnitude (a.u.)       :      1.80518
Magnitude (Debye)      :      4.58840

Rotational constants in cm-1:     0.004147     0.000206     0.000198
Rotational constants in MHz :   124.316756     6.188812     5.927938

                             ****ORCA TERMINATED NORMALLY****
TOTAL RUN TIME: 0 days 0 hours 7 minutes 51 seconds 403 msec
