                         Program Version 4.2.0 -  RELEASE  -
|  1> # ORCA input file
|  2> # SCF done       -189.145753036749          0.000703240629
|  3> ! CAM-B3LYP def2-SVP def2/J RIJCOSX Grid4 TightSCF
|  4> %maxcore 5000
|  5> %tddft
|  6>     Mode sTDDFT
|  7>     Ethresh 5.0
|  8>     maxcore 5000
|  9> end
| 10>
| 11> %pal
| 12>   nprocs 6
| 13>   end
| 14> * xyz 0 1
| 15>    C        2.88434        -1.72787         5.17816
| 16>    S        2.62017        -1.11850         6.75312
| 17>    C        2.85626         0.51408         6.19600
| 18>    C        3.22746         0.52738         4.86042
| 19>    C        3.22179        -0.75512         4.27591
| 20>    C        3.50786        -0.97760         2.82220
| 21>    C        3.65929         0.30225         2.02681
| 22>    O        4.23851         0.36385         0.97554
| 23>    C        3.07997         1.53695         2.71374
| 24>    O        2.21790         2.24404         2.27120
| 25>    C        3.72581         1.70198         4.07045
| 26>    C        2.58768         1.64951         7.01732
| 27>    C        2.97705         1.93807         8.31021
| 28>    N        3.64009         1.09367         9.20766
| 29>    O        4.16212         1.59788        10.18552
| 30>    O        3.65665        -0.10679         8.96405
| 31>    C        2.66546         3.31758         8.59868
| 32>    C        2.08119         3.87728         7.50914
| 33>    C        1.93063         2.86676         6.50321
| 34>    C        1.09490         2.86711         5.39956
| 35>    C        0.41628         1.71361         4.89987
| 36>    C       -0.45681         2.10318         3.93177
| 37>    C       -0.31126         3.50613         3.70105
| 38>    N       -1.16656         4.14940         2.79127
| 39>    O       -1.87579         3.44135         2.09804
| 40>    O       -1.20394         5.37228         2.75501
| 41>    C        0.66426         4.01559         4.57380
| 42>    C        1.36520         5.23393         4.59913
| 43>    C        1.32843         6.20292         3.62787
| 44>    C        2.00959         7.42496         3.73073
| 45>    N        1.97054         8.39055         2.75185
| 46>    C        1.25609         8.31735         1.49691
| 47>    C       -0.24352         8.54388         1.66934
| 48>    C        2.68343         9.54449         3.11213
| 49>    O        2.79508        10.53023         2.41589
| 50>    C        3.20646         9.23435         4.42902
| 51>    C        2.79330         7.93947         4.78145
| 52>    C        3.31563         7.66934         6.10204
| 53>    O        3.22924         6.69861         6.82764
| 54>    N        4.01167         8.84377         6.46556
| 55>    C        4.70073         8.89874         7.73264
| 56>    C        6.20307         8.67740         7.57494
| 57>    C        3.95617         9.78968         5.47172
| 58>    C        4.46911        11.10929         5.39913
| 59>    C        5.18734        11.82261         6.29953
| 60>    C        5.62377        13.17974         6.10715
| 61>    C        6.36458        13.80074         7.11510
| 62>    C        6.79008        15.11559         7.01803
| 63>    N        7.51906        15.57638         8.17542
| 64>    O        8.35904        14.82582         8.62201
| 65>    O        7.22591        16.64779         8.66309
| 66>    C        6.54349        15.88452         5.86165
| 67>    C        5.82255        15.22520         4.84380
| 68>    C        5.35827        13.94139         4.95624
| 69>    C        7.00747        17.20963         5.53837
| 70>    C        7.44022        18.21036         6.33355
| 71>    C        7.87516        19.47283         5.83996
| 72>    S        7.95447        19.83780         4.13394
| 73>    C        8.54490        21.41040         4.45762
| 74>    C        8.67283        21.66067         5.79296
| 75>    C        8.29390        20.55558         6.59006
| 76>    C        8.35300        20.57936         8.08766
| 77>    C        8.61745        21.97674         8.60218
| 78>    O        8.03136        22.48696         9.51668
| 79>    C        9.68267        22.68702         7.77270
| 80>    O       10.78622        22.95355         8.15809
| 81>    C        9.16161        22.95337         6.37757
| 82>    H        2.79942        -2.78097         4.99535
| 83>    H        2.67754        -1.52969         2.36793
| 84>    H        4.40255        -1.59055         2.67349
| 85>    H        3.47267         2.65871         4.52203
| 86>    H        4.81317         1.62512         3.96750
| 87>    H        2.86957         3.78115         9.54458
| 88>    H        1.69653         4.87488         7.45360
| 89>    H        0.48931         0.72972         5.31970
| 90>    H       -1.16624         1.49106         3.40782
| 91>    H        2.03087         5.38848         5.43686
| 92>    H        0.73514         6.04876         2.74276
| 93>    H        1.45006         7.35180         1.02300
| 94>    H        1.67842         9.10885         0.87105
| 95>    H       -0.70527         7.74255         2.24033
| 96>    H       -0.71465         8.58290         0.69137
| 97>    H       -0.42179         9.48874         2.17732
| 98>    H        4.27869         8.08953         8.33632
| 99>    H        4.48233         9.84867         8.22642
|100>    H        6.38858         7.68525         7.17104
|101>    H        6.68908         8.75184         8.54370
|102>    H        6.64326         9.41015         6.90230
|103>    H        4.20763        11.57300         4.45688
|104>    H        5.47863        11.38830         7.24354
|105>    H        6.61485        13.25202         8.01233
|106>    H        5.62184        15.77362         3.93547
|107>    H        4.79614        13.51572         4.14089
|108>    H        6.95977        17.42687         4.47608
|109>    H        7.45342        18.11376         7.40815
|110>    H        8.76385        22.07105         3.64234
|111>    H        9.17883        19.94613         8.43350
|112>    H        7.43342        20.19454         8.53634
|113>    H        9.94145        23.40130         5.75873
|114>    H        8.32844        23.66059         6.45479
|115> *
|116>
|117>                          ****END OF INPUT****

CARTESIAN COORDINATES (ANGSTROEM)
---------------------------------
  C      2.884340   -1.727870    5.178160
  S      2.620170   -1.118500    6.753120
  C      2.856260    0.514080    6.196000
  C      3.227460    0.527380    4.860420
  C      3.221790   -0.755120    4.275910
  C      3.507860   -0.977600    2.822200
  C      3.659290    0.302250    2.026810
  O      4.238510    0.363850    0.975540
  C      3.079970    1.536950    2.713740
  O      2.217900    2.244040    2.271200
  C      3.725810    1.701980    4.070450
  C      2.587680    1.649510    7.017320
  C      2.977050    1.938070    8.310210
  N      3.640090    1.093670    9.207660
  O      4.162120    1.597880   10.185520
  O      3.656650   -0.106790    8.964050
  C      2.665460    3.317580    8.598680
  C      2.081190    3.877280    7.509140
  C      1.930630    2.866760    6.503210
  C      1.094900    2.867110    5.399560
  C      0.416280    1.713610    4.899870
  C     -0.456810    2.103180    3.931770
  C     -0.311260    3.506130    3.701050
  N     -1.166560    4.149400    2.791270
  O     -1.875790    3.441350    2.098040
  O     -1.203940    5.372280    2.755010
  C      0.664260    4.015590    4.573800
  C      1.365200    5.233930    4.599130
  C      1.328430    6.202920    3.627870
  C      2.009590    7.424960    3.730730
  N      1.970540    8.390550    2.751850
  C      1.256090    8.317350    1.496910
  C     -0.243520    8.543880    1.669340
  C      2.683430    9.544490    3.112130
  O      2.795080   10.530230    2.415890
  C      3.206460    9.234350    4.429020
  C      2.793300    7.939470    4.781450
  C      3.315630    7.669340    6.102040
  O      3.229240    6.698610    6.827640
  N      4.011670    8.843770    6.465560
  C      4.700730    8.898740    7.732640
  C      6.203070    8.677400    7.574940
  C      3.956170    9.789680    5.471720
  C      4.469110   11.109290    5.399130
  C      5.187340   11.822610    6.299530
  C      5.623770   13.179740    6.107150
  C      6.364580   13.800740    7.115100
  C      6.790080   15.115590    7.018030
  N      7.519060   15.576380    8.175420
  O      8.359040   14.825820    8.622010
  O      7.225910   16.647790    8.663090
  C      6.543490   15.884520    5.861650
  C      5.822550   15.225200    4.843800
  C      5.358270   13.941390    4.956240
  C      7.007470   17.209630    5.538370
  C      7.440220   18.210360    6.333550
  C      7.875160   19.472830    5.839960
  S      7.954470   19.837800    4.133940
  C      8.544900   21.410400    4.457620
  C      8.672830   21.660670    5.792960
  C      8.293900   20.555580    6.590060
  C      8.353000   20.579360    8.087660
  C      8.617450   21.976740    8.602180
  O      8.031360   22.486960    9.516680
  C      9.682670   22.687020    7.772700
  O     10.786220   22.953550    8.158090
  C      9.161610   22.953370    6.377570
  H      2.799420   -2.780970    4.995350
  H      2.677540   -1.529690    2.367930
  H      4.402550   -1.590550    2.673490
  H      3.472670    2.658710    4.522030
  H      4.813170    1.625120    3.967500
  H      2.869570    3.781150    9.544580
  H      1.696530    4.874880    7.453600
  H      0.489310    0.729720    5.319700
  H     -1.166240    1.491060    3.407820
  H      2.030870    5.388480    5.436860
  H      0.735140    6.048760    2.742760
  H      1.450060    7.351800    1.023000
  H      1.678420    9.108850    0.871050
  H     -0.705270    7.742550    2.240330
  H     -0.714650    8.582900    0.691370
  H     -0.421790    9.488740    2.177320
  H      4.278690    8.089530    8.336320
  H      4.482330    9.848670    8.226420
  H      6.388580    7.685250    7.171040
  H      6.689080    8.751840    8.543700
  H      6.643260    9.410150    6.902300
  H      4.207630   11.573000    4.456880
  H      5.478630   11.388300    7.243540
  H      6.614850   13.252020    8.012330
  H      5.621840   15.773620    3.935470
  H      4.796140   13.515720    4.140890
  H      6.959770   17.426870    4.476080
  H      7.453420   18.113760    7.408150
  H      8.763850   22.071050    3.642340
  H      9.178830   19.946130    8.433500
  H      7.433420   20.194540    8.536340
  H      9.941450   23.401300    5.758730
  H      8.328440   23.660590    6.454790

 Total Charge           Charge          ....    0
 Multiplicity           Mult            ....    1
 Number of Electrons    NEL             ....  484
 Basis Dimension        Dim             .... 1111

ORBITAL ENERGIES
----------------

  NO   OCC          E(Eh)            E(eV)
   0   2.0000     -88.973090     -2421.0809
   1   2.0000     -88.965940     -2420.8863
   2   2.0000     -19.258767      -524.0577
   3   2.0000     -19.256892      -524.0067
   4   2.0000     -19.238993      -523.5196
   5   2.0000     -19.238394      -523.5033
   6   2.0000     -19.238374      -523.5028
   7   2.0000     -19.237262      -523.4725
   8   2.0000     -19.235548      -523.4259
   9   2.0000     -19.234259      -523.3908
  10   2.0000     -19.229062      -523.2494
  11   2.0000     -19.228838      -523.2433
  12   2.0000     -19.209277      -522.7110
  13   2.0000     -19.196538      -522.3643
  14   2.0000     -14.660783      -398.9402
  15   2.0000     -14.646565      -398.5533
  16   2.0000     -14.645915      -398.5356
  17   2.0000     -14.467629      -393.6842
  18   2.0000     -14.459383      -393.4598
  19   2.0000     -10.389608      -282.7156
  20   2.0000     -10.380733      -282.4741
  21   2.0000     -10.379543      -282.4417
  22   2.0000     -10.378852      -282.4229
  23   2.0000     -10.371334      -282.2183
  24   2.0000     -10.370993      -282.2091
  25   2.0000     -10.351010      -281.6653
  26   2.0000     -10.348910      -281.6082
  27   2.0000     -10.342842      -281.4431
  28   2.0000     -10.329674      -281.0847
  29   2.0000     -10.329059      -281.0680
  30   2.0000     -10.327860      -281.0353
  31   2.0000     -10.327677      -281.0304
  32   2.0000     -10.325790      -280.9790
  33   2.0000     -10.322896      -280.9003
  34   2.0000     -10.321578      -280.8644
  35   2.0000     -10.321465      -280.8613
  36   2.0000     -10.318869      -280.7907
  37   2.0000     -10.309600      -280.5385
  38   2.0000     -10.309263      -280.5293
  39   2.0000     -10.308625      -280.5119
  40   2.0000     -10.308596      -280.5112
  41   2.0000     -10.308388      -280.5055
  42   2.0000     -10.308200      -280.5004
  43   2.0000     -10.307152      -280.4719
  44   2.0000     -10.305637      -280.4306
  45   2.0000     -10.303068      -280.3607
  46   2.0000     -10.302430      -280.3434
  47   2.0000     -10.301552      -280.3195
  48   2.0000     -10.300959      -280.3033
  49   2.0000     -10.300832      -280.2999
  50   2.0000     -10.300122      -280.2806
  51   2.0000     -10.298856      -280.2461
  52   2.0000     -10.298133      -280.2264
  53   2.0000     -10.297919      -280.2206
  54   2.0000     -10.296208      -280.1741
  55   2.0000     -10.295956      -280.1672
  56   2.0000     -10.294820      -280.1363
  57   2.0000     -10.294751      -280.1344
  58   2.0000     -10.294511      -280.1279
  59   2.0000     -10.294284      -280.1217
  60   2.0000     -10.292774      -280.0806
  61   2.0000     -10.283026      -279.8154
  62   2.0000     -10.282262      -279.7946
  63   2.0000     -10.276888      -279.6483
  64   2.0000     -10.273130      -279.5461
  65   2.0000     -10.272531      -279.5298
  66   2.0000     -10.255603      -279.0692
  67   2.0000      -8.067514      -219.5282
  68   2.0000      -8.061644      -219.3685
  69   2.0000      -6.036819      -164.2702
  70   2.0000      -6.032232      -164.1454
  71   2.0000      -6.030772      -164.1057
  72   2.0000      -6.030026      -164.0853
  73   2.0000      -6.026693      -163.9946
  74   2.0000      -6.024040      -163.9225
  75   2.0000      -1.337905       -36.4063
  76   2.0000      -1.316901       -35.8347
  77   2.0000      -1.315602       -35.7993
  78   2.0000      -1.162722       -31.6393
  79   2.0000      -1.156398       -31.4672
  80   2.0000      -1.155302       -31.4374
  81   2.0000      -1.147445       -31.2236
  82   2.0000      -1.140147       -31.0250
  83   2.0000      -1.135625       -30.9019
  84   2.0000      -1.134425       -30.8693
  85   2.0000      -1.133810       -30.8525
  86   2.0000      -1.131333       -30.7851
  87   2.0000      -1.074949       -29.2508
  88   2.0000      -1.064457       -28.9654
  89   2.0000      -1.023017       -27.8377
  90   2.0000      -1.004741       -27.3404
  91   2.0000      -1.002709       -27.2851
  92   2.0000      -0.998238       -27.1634
  93   2.0000      -0.992972       -27.0201
  94   2.0000      -0.939624       -25.5685
  95   2.0000      -0.936333       -25.4789
  96   2.0000      -0.924328       -25.1522
  97   2.0000      -0.920993       -25.0615
  98   2.0000      -0.916499       -24.9392
  99   2.0000      -0.912431       -24.8285
 100   2.0000      -0.908296       -24.7160
 101   2.0000      -0.898355       -24.4455
 102   2.0000      -0.889086       -24.1933
 103   2.0000      -0.883320       -24.0364
 104   2.0000      -0.881064       -23.9750
 105   2.0000      -0.875363       -23.8198
 106   2.0000      -0.855556       -23.2809
 107   2.0000      -0.847025       -23.0487
 108   2.0000      -0.846251       -23.0277
 109   2.0000      -0.826268       -22.4839
 110   2.0000      -0.816209       -22.2102
 111   2.0000      -0.815257       -22.1843
 112   2.0000      -0.810983       -22.0680
 113   2.0000      -0.809011       -22.0143
 114   2.0000      -0.802909       -21.8483
 115   2.0000      -0.777670       -21.1615
 116   2.0000      -0.773721       -21.0540
 117   2.0000      -0.766003       -20.8440
 118   2.0000      -0.762814       -20.7572
 119   2.0000      -0.736157       -20.0318
 120   2.0000      -0.731717       -19.9110
 121   2.0000      -0.728499       -19.8235
 122   2.0000      -0.723201       -19.6793
 123   2.0000      -0.720886       -19.6163
 124   2.0000      -0.715850       -19.4793
 125   2.0000      -0.709957       -19.3189
 126   2.0000      -0.702068       -19.1042
 127   2.0000      -0.691586       -18.8190
 128   2.0000      -0.683442       -18.5974
 129   2.0000      -0.672226       -18.2922
 130   2.0000      -0.668163       -18.1816
 131   2.0000      -0.662383       -18.0243
 132   2.0000      -0.658675       -17.9235
 133   2.0000      -0.656855       -17.8739
 134   2.0000      -0.650752       -17.7079
 135   2.0000      -0.645910       -17.5761
 136   2.0000      -0.635230       -17.2855
 137   2.0000      -0.633290       -17.2327
 138   2.0000      -0.628973       -17.1152
 139   2.0000      -0.626680       -17.0528
 140   2.0000      -0.620154       -16.8752
 141   2.0000      -0.619321       -16.8526
 142   2.0000      -0.617599       -16.8057
 143   2.0000      -0.612821       -16.6757
 144   2.0000      -0.607690       -16.5361
 145   2.0000      -0.602422       -16.3927
 146   2.0000      -0.597261       -16.2523
 147   2.0000      -0.597123       -16.2485
 148   2.0000      -0.594809       -16.1856
 149   2.0000      -0.593306       -16.1447
 150   2.0000      -0.590915       -16.0796
 151   2.0000      -0.587055       -15.9746
 152   2.0000      -0.582088       -15.8394
 153   2.0000      -0.580839       -15.8054
 154   2.0000      -0.579279       -15.7630
 155   2.0000      -0.575980       -15.6732
 156   2.0000      -0.574041       -15.6204
 157   2.0000      -0.571928       -15.5629
 158   2.0000      -0.566218       -15.4076
 159   2.0000      -0.562543       -15.3076
 160   2.0000      -0.554431       -15.0868
 161   2.0000      -0.552802       -15.0425
 162   2.0000      -0.551563       -15.0088
 163   2.0000      -0.547726       -14.9044
 164   2.0000      -0.540734       -14.7141
 165   2.0000      -0.540091       -14.6966
 166   2.0000      -0.538028       -14.6405
 167   2.0000      -0.536352       -14.5949
 168   2.0000      -0.535618       -14.5749
 169   2.0000      -0.534132       -14.5345
 170   2.0000      -0.531975       -14.4758
 171   2.0000      -0.527915       -14.3653
 172   2.0000      -0.524448       -14.2710
 173   2.0000      -0.523936       -14.2570
 174   2.0000      -0.521582       -14.1930
 175   2.0000      -0.515954       -14.0398
 176   2.0000      -0.512984       -13.9590
 177   2.0000      -0.512093       -13.9348
 178   2.0000      -0.509829       -13.8732
 179   2.0000      -0.507358       -13.8059
 180   2.0000      -0.506127       -13.7724
 181   2.0000      -0.502490       -13.6734
 182   2.0000      -0.499040       -13.5796
 183   2.0000      -0.498385       -13.5617
 184   2.0000      -0.494719       -13.4620
 185   2.0000      -0.489624       -13.3233
 186   2.0000      -0.487771       -13.2729
 187   2.0000      -0.484685       -13.1889
 188   2.0000      -0.481539       -13.1033
 189   2.0000      -0.479468       -13.0470
 190   2.0000      -0.477461       -12.9924
 191   2.0000      -0.473871       -12.8947
 192   2.0000      -0.472216       -12.8496
 193   2.0000      -0.470427       -12.8010
 194   2.0000      -0.469371       -12.7722
 195   2.0000      -0.468800       -12.7567
 196   2.0000      -0.465617       -12.6701
 197   2.0000      -0.463517       -12.6129
 198   2.0000      -0.460846       -12.5402
 199   2.0000      -0.459039       -12.4911
 200   2.0000      -0.455511       -12.3951
 201   2.0000      -0.453453       -12.3391
 202   2.0000      -0.451589       -12.2884
 203   2.0000      -0.448225       -12.1968
 204   2.0000      -0.447168       -12.1681
 205   2.0000      -0.444634       -12.0991
 206   2.0000      -0.443523       -12.0689
 207   2.0000      -0.438427       -11.9302
 208   2.0000      -0.436440       -11.8761
 209   2.0000      -0.433198       -11.7879
 210   2.0000      -0.431465       -11.7408
 211   2.0000      -0.422591       -11.4993
 212   2.0000      -0.422449       -11.4954
 213   2.0000      -0.417831       -11.3698
 214   2.0000      -0.399098       -10.8600
 215   2.0000      -0.395093       -10.7510
 216   2.0000      -0.394697       -10.7403
 217   2.0000      -0.390295       -10.6205
 218   2.0000      -0.388328       -10.5669
 219   2.0000      -0.388143       -10.5619
 220   2.0000      -0.386798       -10.5253
 221   2.0000      -0.380001       -10.3404
 222   2.0000      -0.379076       -10.3152
 223   2.0000      -0.376172       -10.2362
 224   2.0000      -0.373362       -10.1597
 225   2.0000      -0.366716        -9.9788
 226   2.0000      -0.362651        -9.8682
 227   2.0000      -0.358884        -9.7657
 228   2.0000      -0.349546        -9.5116
 229   2.0000      -0.346985        -9.4419
 230   2.0000      -0.341773        -9.3001
 231   2.0000      -0.333605        -9.0778
 232   2.0000      -0.332984        -9.0609
 233   2.0000      -0.328102        -8.9281
 234   2.0000      -0.326356        -8.8806
 235   2.0000      -0.323160        -8.7936
 236   2.0000      -0.313055        -8.5187
 237   2.0000      -0.309468        -8.4211
 238   2.0000      -0.301347        -8.2001
 239   2.0000      -0.284332        -7.7371
 240   2.0000      -0.276524        -7.5246
 241   2.0000      -0.240196        -6.5361
 242   0.0000      -0.141188        -3.8419
 243   0.0000      -0.092351        -2.5130
 244   0.0000      -0.065286        -1.7765
 245   0.0000      -0.047391        -1.2896
 246   0.0000      -0.037028        -1.0076

MULLIKEN ATOMIC CHARGES
-----------------------
   0 C :   -0.118480
   1 S :    0.229441
   2 C :   -0.279479
   3 C :   -0.065222
   4 C :   -0.085223
   5 C :    0.215975
   6 C :   -0.017321
   7 O :   -0.144955
   8 C :    0.016591
   9 O :   -0.146469
  10 C :    0.215813
  11 C :    0.059192
  12 C :    0.064453
  13 N :    0.280957
  14 O :   -0.245144
  15 O :   -0.268369
  16 C :    0.013375
  17 C :    0.042444
  18 C :   -0.005264
  19 C :   -0.011072
  20 C :    0.034286
  21 C :    0.021343
  22 C :    0.086327
  23 N :    0.278247
  24 O :   -0.241258
  25 O :   -0.268958
  26 C :    0.075383
  27 C :   -0.030309
  28 C :    0.028457
  29 C :    0.126415
  30 N :   -0.259474
  31 C :    0.096699
  32 C :   -0.001212
  33 C :    0.152316
  34 O :   -0.194608
  35 C :   -0.048391
  36 C :   -0.042976
  37 C :    0.153872
  38 O :   -0.207459
  39 N :   -0.258929
  40 C :    0.101121
  41 C :    0.001479
  42 C :    0.120516
  43 C :   -0.019781
  44 C :    0.008704
  45 C :    0.097403
  46 C :   -0.043672
  47 C :    0.102276
  48 N :    0.246925
  49 O :   -0.222128
  50 O :   -0.230567
  51 C :    0.132498
  52 C :   -0.040752
  53 C :    0.023114
  54 C :   -0.054818
  55 C :   -0.006033
  56 C :   -0.129376
  57 S :    0.120023
  58 C :   -0.112747
  59 C :   -0.087031
  60 C :   -0.081466
  61 C :    0.187272
  62 C :    0.001933
  63 O :   -0.141739
  64 C :    0.000166
  65 O :   -0.141627
  66 C :    0.198066
  67 H :    0.021819
  68 H :    0.059623
  69 H :    0.046101
  70 H :    0.026217
  71 H :    0.059472
  72 H :    0.000897
  73 H :    0.001038
  74 H :   -0.004678
  75 H :    0.002514
  76 H :    0.002981
  77 H :   -0.007268
  78 H :    0.029225
  79 H :    0.040832
  80 H :    0.040425
  81 H :    0.024175
  82 H :    0.018311
  83 H :    0.043558
  84 H :    0.027165
  85 H :    0.027278
  86 H :    0.026510
  87 H :    0.023818
  88 H :    0.006220
  89 H :   -0.023822
  90 H :   -0.003835
  91 H :   -0.009469
  92 H :    0.003115
  93 H :   -0.006524
  94 H :    0.020110
  95 H :    0.020535
  96 H :    0.065267
  97 H :    0.050922
  98 H :    0.028506
  99 H :    0.058188
Sum of atomic charges:   -0.0000000

LOEWDIN ATOMIC CHARGES
----------------------
   0 C :   -0.177569
   1 S :    0.517400
   2 C :   -0.189206
   3 C :   -0.043865
   4 C :   -0.081071
   5 C :   -0.048304
   6 C :    0.063832
   7 O :   -0.101151
   8 C :    0.067388
   9 O :   -0.100587
  10 C :   -0.041768
  11 C :   -0.006112
  12 C :   -0.052671
  13 N :    0.284637
  14 O :   -0.209069
  15 O :   -0.233613
  16 C :    0.016910
  17 C :   -0.029754
  18 C :    0.030523
  19 C :    0.050552
  20 C :   -0.045542
  21 C :    0.022135
  22 C :   -0.039543
  23 N :    0.289405
  24 O :   -0.205814
  25 O :   -0.225157
  26 C :    0.007286
  27 C :    0.010285
  28 C :    0.002193
  29 C :    0.075165
  30 N :    0.002518
  31 C :    0.037439
  32 C :   -0.061579
  33 C :    0.077136
  34 O :   -0.196523
  35 C :   -0.108792
  36 C :   -0.110300
  37 C :    0.084981
  38 O :   -0.192786
  39 N :   -0.000191
  40 C :    0.035733
  41 C :   -0.062076
  42 C :    0.074137
  43 C :   -0.029773
  44 C :    0.004939
  45 C :   -0.030860
  46 C :    0.009236
  47 C :   -0.022930
  48 N :    0.287123
  49 O :   -0.188853
  50 O :   -0.191502
  51 C :    0.000443
  52 C :   -0.005412
  53 C :    0.013077
  54 C :   -0.047751
  55 C :   -0.012741
  56 C :   -0.179037
  57 S :    0.446784
  58 C :   -0.178085
  59 C :   -0.071192
  60 C :   -0.054104
  61 C :   -0.047220
  62 C :    0.065681
  63 O :   -0.100230
  64 C :    0.063905
  65 O :   -0.099612
  66 C :   -0.043211
  67 H :    0.026493
  68 H :    0.064894
  69 H :    0.053832
  70 H :    0.040639
  71 H :    0.052517
  72 H :    0.038232
  73 H :    0.031434
  74 H :    0.029431
  75 H :    0.037877
  76 H :    0.037351
  77 H :    0.029990
  78 H :    0.026331
  79 H :    0.036760
  80 H :    0.027804
  81 H :    0.032851
  82 H :    0.028235
  83 H :    0.037561
  84 H :    0.022166
  85 H :    0.032865
  86 H :    0.032690
  87 H :    0.022975
  88 H :    0.044701
  89 H :    0.029737
  90 H :    0.037726
  91 H :    0.036078
  92 H :    0.039312
  93 H :    0.024178
  94 H :    0.028883
  95 H :    0.025788
  96 H :    0.063542
  97 H :    0.050723
  98 H :    0.044827
  99 H :    0.056290

  Mayer bond orders larger than 0.100000
B(  0-C ,  1-S ) :   1.1906 B(  0-C ,  4-C ) :   1.5404 B(  0-C , 67-H ) :   0.9739
B(  1-S ,  2-C ) :   1.1747 B(  2-C ,  3-C ) :   1.5004 B(  2-C , 11-C ) :   1.0823
B(  3-C ,  4-C ) :   1.3062 B(  3-C , 10-C ) :   1.0313 B(  4-C ,  5-C ) :   0.9824
B(  5-C ,  6-C ) :   0.9462 B(  5-C , 68-H ) :   0.9008 B(  5-C , 69-H ) :   0.8972
B(  6-C ,  7-O ) :   2.2296 B(  6-C ,  8-C ) :   0.8619 B(  8-C ,  9-O ) :   2.2121
B(  8-C , 10-C ) :   0.9581 B( 10-C , 70-H ) :   0.8815 B( 10-C , 71-H ) :   0.9122
B( 11-C , 12-C ) :   1.5626 B( 11-C , 18-C ) :   1.0481 B( 12-C , 13-N ) :   0.9561
B( 12-C , 16-C ) :   1.1104 B( 13-N , 14-O ) :   1.5358 B( 13-N , 15-O ) :   1.4644
B( 14-O , 15-O ) :   0.2591 B( 16-C , 17-C ) :   1.5925 B( 16-C , 72-H ) :   1.0137
B( 17-C , 18-C ) :   1.1324 B( 17-C , 73-H ) :   0.9967 B( 18-C , 19-C ) :   1.4585
B( 19-C , 20-C ) :   1.1758 B( 19-C , 26-C ) :   1.0196 B( 20-C , 21-C ) :   1.5361
B( 20-C , 74-H ) :   0.9973 B( 21-C , 22-C ) :   1.1668 B( 21-C , 75-H ) :   1.0064
B( 22-C , 23-N ) :   0.9614 B( 22-C , 26-C ) :   1.4119 B( 23-N , 24-O ) :   1.5400
B( 23-N , 25-O ) :   1.4543 B( 24-O , 25-O ) :   0.2445 B( 26-C , 27-C ) :   1.2171
B( 27-C , 28-C ) :   1.5191 B( 27-C , 76-H ) :   0.9425 B( 28-C , 29-C ) :   1.2223
B( 28-C , 77-H ) :   0.9374 B( 29-C , 30-N ) :   1.1667 B( 29-C , 36-C ) :   1.2678
B( 30-N , 31-C ) :   0.9332 B( 30-N , 33-C ) :   1.0517 B( 31-C , 32-C ) :   1.1231
B( 31-C , 78-H ) :   0.9495 B( 31-C , 79-H ) :   0.9275 B( 32-C , 80-H ) :   0.9648
B( 32-C , 81-H ) :   0.9657 B( 32-C , 82-H ) :   0.9611 B( 33-C , 34-O ) :   2.1223
B( 33-C , 35-C ) :   0.9721 B( 35-C , 36-C ) :   1.2784 B( 35-C , 42-C ) :   1.3194
B( 36-C , 37-C ) :   0.9939 B( 37-C , 38-O ) :   2.0147 B( 37-C , 39-N ) :   1.0579
B( 39-N , 40-C ) :   0.9386 B( 39-N , 42-C ) :   1.1731 B( 40-C , 41-C ) :   1.1160
B( 40-C , 83-H ) :   0.9245 B( 40-C , 84-H ) :   0.9513 B( 41-C , 85-H ) :   0.9617
B( 41-C , 86-H ) :   0.9684 B( 41-C , 87-H ) :   0.9686 B( 42-C , 43-C ) :   1.1874
B( 43-C , 44-C ) :   1.5740 B( 43-C , 88-H ) :   0.9396 B( 44-C , 45-C ) :   1.0867
B( 44-C , 89-H ) :   0.9918 B( 45-C , 46-C ) :   1.3011 B( 45-C , 53-C ) :   1.2961
B( 46-C , 47-C ) :   1.3880 B( 46-C , 90-H ) :   0.9964 B( 47-C , 48-N ) :   0.8590
B( 47-C , 51-C ) :   1.3470 B( 48-N , 49-O ) :   1.5613 B( 48-N , 50-O ) :   1.4985
B( 49-O , 50-O ) :   0.2658 B( 51-C , 52-C ) :   1.2892 B( 51-C , 54-C ) :   1.1063
B( 52-C , 53-C ) :   1.4436 B( 52-C , 91-H ) :   0.9900 B( 53-C , 92-H ) :   0.9907
B( 54-C , 55-C ) :   1.6771 B( 54-C , 93-H ) :   0.9645 B( 55-C , 56-C ) :   1.1541
B( 55-C , 94-H ) :   0.9478 B( 56-C , 57-S ) :   1.1242 B( 56-C , 60-C ) :   1.5279
B( 57-S , 58-C ) :   1.1734 B( 58-C , 59-C ) :   1.5876 B( 58-C , 95-H ) :   0.9703
B( 59-C , 60-C ) :   1.2899 B( 59-C , 66-C ) :   0.9963 B( 60-C , 61-C ) :   1.0198
B( 61-C , 62-C ) :   0.9550 B( 61-C , 96-H ) :   0.8886 B( 61-C , 97-H ) :   0.8994
B( 62-C , 63-O ) :   2.2526 B( 62-C , 64-C ) :   0.8372 B( 64-C , 65-O ) :   2.2526
B( 64-C , 66-C ) :   0.9716 B( 66-C , 98-H ) :   0.9087 B( 66-C , 99-H ) :   0.8989

-----------------------------------------------------------------------------
         ABSORPTION SPECTRUM VIA TRANSITION ELECTRIC DIPOLE MOMENTS
-----------------------------------------------------------------------------
State   Energy  Wavelength   fosc         T2         TX        TY        TZ
        (cm-1)    (nm)                  (au**2)     (au)      (au)      (au)
-----------------------------------------------------------------------------
   0    6211.0   1610.1   0.255524999  13.54409   1.23688   3.46474   0.09900
   1   12259.5    815.7   0.028091083   0.75434   0.71097  -0.49821   0.02570
   2   15943.7    627.2   0.242250397   5.00210  -1.13602  -1.68259  -0.93832
   3   17164.6    582.6   0.438106525   8.40273   1.65006   2.24270   0.80644
   4   18831.6    531.0   0.005824604   0.10183  -0.03148  -0.07887   0.30759
   5   20413.7    489.9   0.228003085   3.67701   0.61335   1.80786  -0.18016
   6   22190.8    450.6   0.023951062   0.35533   0.22780   0.49888   0.23358
   7   22653.4    441.4   0.015635736   0.22723   0.14015   0.44674   0.08950
   8   23630.3    423.2   0.156367360   2.17847  -0.52675  -1.34706  -0.29399
   9   24508.7    408.0   0.035018949   0.47039   0.11417  -0.62586   0.25623
  10   24867.1    402.1   0.280654077   3.71554  -0.78679   0.63404  -1.64149
  11   25182.9    397.1   0.025472944   0.33300  -0.16597   0.49839   0.23888
  12   25784.7    387.8   0.117771946   1.50368  -0.93678   0.64778  -0.45443
  13   26253.0    380.9   0.170722431   2.14085   0.01805  -0.72103   1.27305
  14   26384.5    379.0   0.009399121   0.11728  -0.16843   0.15470   0.25490
  15   27957.7    357.7   0.199396642   2.34797  -0.51459  -1.43178  -0.18213
  16   28171.3    355.0   0.044640745   0.52168  -0.17544  -0.70046   0.01569
  17   28783.9    347.4   0.009926311   0.11353   0.11777   0.31566   0.00487
  18   29272.4    341.6   0.400241899   4.50131  -0.99043  -1.87300  -0.11068
  19   29461.3    339.4   0.051143505   0.57150   0.03546  -0.56824   0.49734
  20   29926.0    334.2   0.124243233   1.36679   0.28256  -0.91958   0.66432
  21   30352.5    329.5   0.037648138   0.40834  -0.34739  -0.49606  -0.20393
  22   30485.0    328.0   0.045908053   0.49577   0.27425   0.64727  -0.03990
  23   30647.0    326.3   0.099595943   1.06987  -0.82189  -0.29379  -0.55502
  24   30902.6    323.6   0.026755597   0.28503  -0.26641  -0.45372  -0.09053
  25   31430.5    318.2   0.036287797   0.38009  -0.34988  -0.48565   0.14770
  26   32060.2    311.9   0.051640320   0.53027  -0.13750  -0.66806   0.25507
  27   32131.3    311.2   0.000229707   0.00235   0.02495  -0.04058   0.00918
  28   32423.1    308.4   0.217076938   2.20412  -0.93796  -0.24691  -1.12401
  29   32557.1    307.2   0.010012902   0.10125  -0.26952  -0.16834  -0.01652
  30   32757.4    305.3   0.007669468   0.07708  -0.00931   0.04295  -0.27413
  31   32988.7    303.1   0.043649762   0.43560   0.32126   0.39599   0.41903
  32   33010.9    302.9   0.046647349   0.46521   0.17624   0.24609   0.61122
  33   33372.8    299.6   0.044282852   0.43684  -0.27129   0.01691  -0.60245
  34   33672.6    297.0   0.064979688   0.63530   0.30136   0.04161   0.73671
  35   33881.6    295.1   0.006796579   0.06604   0.04434   0.11716   0.22438
  36   33935.0    294.7   0.001061796   0.01030   0.05500   0.04156   0.07449
  37   34336.3    291.2   0.051021825   0.48919  -0.37686  -0.18050  -0.56088
  38   35188.7    284.2   0.130845303   1.22414  -0.03934   0.89417  -0.65043
  39   35551.4    281.3   0.012671137   0.11734  -0.25693   0.12936  -0.18599
  40   36397.8    274.7   0.013397186   0.12118  -0.19710  -0.03012  -0.28534
  41   36484.6    274.1   0.020129652   0.18164  -0.07907   0.19360  -0.37135
  42   36955.3    270.6   0.009013917   0.08030  -0.12067   0.15160   0.20677
  43   37005.3    270.2   0.049341387   0.43896   0.38966   0.40049   0.35599
  44   37173.9    269.0   0.029438554   0.26071   0.19270  -0.38309   0.27715
  45   37500.9    266.7   0.056154791   0.49297  -0.33708   0.12809  -0.60245
  46   37698.6    265.3   0.068108126   0.59477   0.31029  -0.23356   0.66629
  47   37958.1    263.4   0.075401557   0.65396   0.45538   0.48023   0.46473
  48   38346.4    260.8   0.010868137   0.09331   0.18623   0.19234   0.14707
  49   38569.6    259.3   0.041409558   0.35345   0.17461   0.51522   0.23982
  50   38628.8    258.9   0.134454022   1.14588   0.24826   0.99446  -0.30870
  51   38782.0    257.9   0.013846953   0.11754  -0.25737  -0.12524  -0.18873
  52   38933.1    256.9   0.004730319   0.04000  -0.06085   0.18686   0.03717
  53   39046.0    256.1   0.087685208   0.73931  -0.22551  -0.75985  -0.33329
  54   39202.4    255.1   0.093382935   0.78421  -0.31057  -0.24724  -0.79160
  55   39939.6    250.4   0.055705065   0.45916   0.24266  -0.43011   0.46399
  56   40058.4    249.6   0.052097342   0.42815  -0.24853   0.23886  -0.55617
  57   40087.8    249.5   0.058677770   0.48188  -0.39403  -0.37351  -0.43257

FINAL SINGLE POINT ENERGY     -3817.456059161991

DIPOLE MOMENT
-------------
                                X             Y             Z
Electronic contribution:      0.18502     -17.02331       9.98055
Nuclear contribution   :     -0.24350      16.56637     -11.32895
                        -----------------------------------------
Total Dipole Moment    :     -0.05848      -0.45694      -1.34841
                        -----------------------------------------
Magnitude (a.u.)       :      1.42492
Magnitude (Debye)      :      3.62187

Rotational constants in cm-1:     0.002403     0.000269     0.000253
Rotational constants in MHz :    72.052190     8.050015     7.584642

                             ****ORCA TERMINATED NORMALLY****
TOTAL RUN TIME: 0 days 0 hours 11 minutes 30 seconds 416 msec
