                         Program Version 4.2.0 -  RELEASE  -
|  1> # ORCA input file
|  2> # SCF done       -139.303132245386          0.000850346373
|  3> ! CAM-B3LYP def2-SVP def2/J RIJCOSX Grid4 TightSCF
|  4> %maxcore 5000
|  5> %tddft
|  6>     Mode sTDDFT
|  7>     Ethresh 5.0
|  8>     maxcore 5000
|  9> end
| 10>
| 11> %pal
| 12>   nprocs 6
| 13>   end
| 14> * xyz 0 1
| 15>    C       -0.86047         0.88167        -0.51798
| 16>    S        0.54558         1.10351         0.43206
| 17>    C        0.98550         2.53038        -0.48111
| 18>    C        0.06579         2.77073        -1.48462
| 19>    C       -0.98990         1.82744        -1.49213
| 20>    C       -2.11756         1.83032        -2.48746
| 21>    C       -1.98784         0.62295        -3.37503
| 22>    C       -2.90010        -0.32461        -3.47345
| 23>    C       -2.11096         3.12824        -3.30906
| 24>    C       -0.69796         3.51338        -3.73101
| 25>    C        0.14586         3.85999        -2.50580
| 26>    C        2.18303         3.20198        -0.10131
| 27>    C        2.52994         4.46905        -0.43120
| 28>    C        3.74193         5.12615        -0.08887
| 29>    S        3.74226         6.86159        -0.11085
| 30>    C        5.39374         6.98178         0.39950
| 31>    C        5.93805         5.70050         0.55993
| 32>    C        5.00833         4.64689         0.27326
| 33>    C        5.45182         3.30851         0.31608
| 34>    C        6.73655         3.04361         0.68759
| 35>    F        7.17137         1.77079         0.72749
| 36>    C        7.63490         4.08196         1.02297
| 37>    F        8.88839         3.76568         1.39548
| 38>    C        7.25557         5.38884         0.95135
| 39>    C        6.02850         8.23122         0.59602
| 40>    C        5.41570         9.43384         0.48859
| 41>    C        6.08960        10.67485         0.69328
| 42>    C        5.50085        11.88396         0.73673
| 43>    C        4.02580        12.08656         0.56454
| 44>    C        6.32324        13.12304         0.99514
| 45>    N        6.08724        14.16242         0.02267
| 46>    C        5.24101        15.19712         0.24266
| 47>    C        4.73276        16.01218        -0.71697
| 48>    C        3.91305        17.11719        -0.41551
| 49>    C        3.35941        17.96837        -1.33238
| 50>    C        2.52480        19.08076        -1.06351
| 51>    C        2.11410        19.75809        -2.16964
| 52>    C        2.59725        19.22458        -3.38640
| 53>    S        3.59710        17.82085        -3.07441
| 54>    C        2.35714        19.69344        -4.66215
| 55>    C        1.57415        20.80651        -5.03713
| 56>    C        1.52738        21.02568        -6.38068
| 57>    C        2.26936        20.09977        -7.15186
| 58>    S        3.03559        18.92806        -6.08791
| 59>    C        2.39722        20.08251        -8.51921
| 60>    C        3.14186        19.14117        -9.24380
| 61>    C        3.24587        19.15221       -10.60543
| 62>    C        3.97555        18.23436       -11.40502
| 63>    C        4.69880        17.17244       -10.97102
| 64>    C        5.40606        16.29671       -11.85366
| 65>    C        6.12980        15.25091       -11.44593
| 66>    H       -1.51844         0.06085        -0.31137
| 67>    H       -3.06822         1.75450        -1.94741
| 68>    H       -1.07184         0.55955        -3.94638
| 69>    H       -3.82090        -0.28640        -2.91356
| 70>    H       -2.77374        -1.17499        -4.12188
| 71>    H       -2.53394         3.93555        -2.70650
| 72>    H       -2.74615         2.99526        -4.18706
| 73>    H       -0.73225         4.37333        -4.40264
| 74>    H       -0.23427         2.68704        -4.27186
| 75>    H       -0.22576         4.79385        -2.06947
| 76>    H        1.18685         4.01844        -2.79842
| 77>    H        2.82368         2.63440         0.55840
| 78>    H        1.81454         5.09445        -0.94471
| 79>    H        4.80778         2.49361         0.03440
| 80>    H        7.96613         6.16316         1.18890
| 81>    H        7.07711         8.19640         0.85931
| 82>    H        4.36200         9.45968         0.24888
| 83>    H        7.15950        10.61126         0.85096
| 84>    H        3.48112        11.62005         1.38527
| 85>    H        3.67473        11.63750        -0.36356
| 86>    H        3.77669        13.14485         0.54661
| 87>    H        7.38829        12.86813         0.98974
| 88>    H        6.07543        13.52927         1.98187
| 89>    H        6.24711        13.90677        -0.94149
| 90>    H        5.01942        15.38893         1.28510
| 91>    H        4.95448        15.82067        -1.75816
| 92>    H        3.69439        17.31118         0.62725
| 93>    H        2.25658        19.34380        -0.05489
| 94>    H        1.47915        20.62565        -2.14554
| 95>    H        1.06721        21.41436        -4.30884
| 96>    H        0.98070        21.82678        -6.84707
| 97>    H        1.87904        20.85835        -9.06914
| 98>    H        3.64955        18.37816        -8.66923
| 99>    H        2.72256        19.93743       -11.13814
|100>    H        3.94082        18.41240       -12.47412
|101>    H        4.76379        16.95027        -9.91526
|102>    H        5.33210        16.51660       -12.91213
|103>    H        6.22095        15.00431       -10.40102
|104>    H        6.65032        14.61222       -12.13828
|105> *
|106>
|107>                          ****END OF INPUT****

CARTESIAN COORDINATES (ANGSTROEM)
---------------------------------
  C     -0.860470    0.881670   -0.517980
  S      0.545580    1.103510    0.432060
  C      0.985500    2.530380   -0.481110
  C      0.065790    2.770730   -1.484620
  C     -0.989900    1.827440   -1.492130
  C     -2.117560    1.830320   -2.487460
  C     -1.987840    0.622950   -3.375030
  C     -2.900100   -0.324610   -3.473450
  C     -2.110960    3.128240   -3.309060
  C     -0.697960    3.513380   -3.731010
  C      0.145860    3.859990   -2.505800
  C      2.183030    3.201980   -0.101310
  C      2.529940    4.469050   -0.431200
  C      3.741930    5.126150   -0.088870
  S      3.742260    6.861590   -0.110850
  C      5.393740    6.981780    0.399500
  C      5.938050    5.700500    0.559930
  C      5.008330    4.646890    0.273260
  C      5.451820    3.308510    0.316080
  C      6.736550    3.043610    0.687590
  F      7.171370    1.770790    0.727490
  C      7.634900    4.081960    1.022970
  F      8.888390    3.765680    1.395480
  C      7.255570    5.388840    0.951350
  C      6.028500    8.231220    0.596020
  C      5.415700    9.433840    0.488590
  C      6.089600   10.674850    0.693280
  C      5.500850   11.883960    0.736730
  C      4.025800   12.086560    0.564540
  C      6.323240   13.123040    0.995140
  N      6.087240   14.162420    0.022670
  C      5.241010   15.197120    0.242660
  C      4.732760   16.012180   -0.716970
  C      3.913050   17.117190   -0.415510
  C      3.359410   17.968370   -1.332380
  C      2.524800   19.080760   -1.063510
  C      2.114100   19.758090   -2.169640
  C      2.597250   19.224580   -3.386400
  S      3.597100   17.820850   -3.074410
  C      2.357140   19.693440   -4.662150
  C      1.574150   20.806510   -5.037130
  C      1.527380   21.025680   -6.380680
  C      2.269360   20.099770   -7.151860
  S      3.035590   18.928060   -6.087910
  C      2.397220   20.082510   -8.519210
  C      3.141860   19.141170   -9.243800
  C      3.245870   19.152210  -10.605430
  C      3.975550   18.234360  -11.405020
  C      4.698800   17.172440  -10.971020
  C      5.406060   16.296710  -11.853660
  C      6.129800   15.250910  -11.445930
  H     -1.518440    0.060850   -0.311370
  H     -3.068220    1.754500   -1.947410
  H     -1.071840    0.559550   -3.946380
  H     -3.820900   -0.286400   -2.913560
  H     -2.773740   -1.174990   -4.121880
  H     -2.533940    3.935550   -2.706500
  H     -2.746150    2.995260   -4.187060
  H     -0.732250    4.373330   -4.402640
  H     -0.234270    2.687040   -4.271860
  H     -0.225760    4.793850   -2.069470
  H      1.186850    4.018440   -2.798420
  H      2.823680    2.634400    0.558400
  H      1.814540    5.094450   -0.944710
  H      4.807780    2.493610    0.034400
  H      7.966130    6.163160    1.188900
  H      7.077110    8.196400    0.859310
  H      4.362000    9.459680    0.248880
  H      7.159500   10.611260    0.850960
  H      3.481120   11.620050    1.385270
  H      3.674730   11.637500   -0.363560
  H      3.776690   13.144850    0.546610
  H      7.388290   12.868130    0.989740
  H      6.075430   13.529270    1.981870
  H      6.247110   13.906770   -0.941490
  H      5.019420   15.388930    1.285100
  H      4.954480   15.820670   -1.758160
  H      3.694390   17.311180    0.627250
  H      2.256580   19.343800   -0.054890
  H      1.479150   20.625650   -2.145540
  H      1.067210   21.414360   -4.308840
  H      0.980700   21.826780   -6.847070
  H      1.879040   20.858350   -9.069140
  H      3.649550   18.378160   -8.669230
  H      2.722560   19.937430  -11.138140
  H      3.940820   18.412400  -12.474120
  H      4.763790   16.950270   -9.915260
  H      5.332100   16.516600  -12.912130
  H      6.220950   15.004310  -10.401020
  H      6.650320   14.612220  -12.138280

 Total Charge           Charge          ....    0
 Multiplicity           Mult            ....    1
 Number of Electrons    NEL             ....  392
 Basis Dimension        Dim             ....  925

ORBITAL ENERGIES
----------------

  NO   OCC          E(Eh)            E(eV)
   0   2.0000     -88.964705     -2420.8527
   1   2.0000     -88.946048     -2420.3450
   2   2.0000     -88.925934     -2419.7977
   3   2.0000     -88.923060     -2419.7195
   4   2.0000     -24.783293      -674.3877
   5   2.0000     -24.781867      -674.3489
   6   2.0000     -14.437571      -392.8663
   7   2.0000     -10.364686      -282.0375
   8   2.0000     -10.363120      -281.9948
   9   2.0000     -10.317071      -280.7418
  10   2.0000     -10.315294      -280.6934
  11   2.0000     -10.307527      -280.4821
  12   2.0000     -10.303570      -280.3744
  13   2.0000     -10.293975      -280.1133
  14   2.0000     -10.290864      -280.0287
  15   2.0000     -10.290794      -280.0267
  16   2.0000     -10.289797      -279.9996
  17   2.0000     -10.286797      -279.9180
  18   2.0000     -10.286369      -279.9063
  19   2.0000     -10.285520      -279.8832
  20   2.0000     -10.285455      -279.8815
  21   2.0000     -10.285441      -279.8811
  22   2.0000     -10.284563      -279.8572
  23   2.0000     -10.282980      -279.8141
  24   2.0000     -10.282776      -279.8086
  25   2.0000     -10.282429      -279.7991
  26   2.0000     -10.280856      -279.7563
  27   2.0000     -10.275837      -279.6197
  28   2.0000     -10.273828      -279.5651
  29   2.0000     -10.272809      -279.5373
  30   2.0000     -10.271167      -279.4927
  31   2.0000     -10.270621      -279.4778
  32   2.0000     -10.270026      -279.4616
  33   2.0000     -10.269107      -279.4366
  34   2.0000     -10.269032      -279.4346
  35   2.0000     -10.268236      -279.4129
  36   2.0000     -10.267680      -279.3978
  37   2.0000     -10.266480      -279.3651
  38   2.0000     -10.265259      -279.3319
  39   2.0000     -10.262639      -279.2606
  40   2.0000     -10.262202      -279.2487
  41   2.0000     -10.262111      -279.2462
  42   2.0000     -10.255551      -279.0677
  43   2.0000     -10.255371      -279.0628
  44   2.0000     -10.254531      -279.0400
  45   2.0000     -10.254106      -279.0284
  46   2.0000     -10.253605      -279.0148
  47   2.0000     -10.253524      -279.0126
  48   2.0000     -10.250606      -278.9332
  49   2.0000     -10.249984      -278.9163
  50   2.0000     -10.244983      -278.7802
  51   2.0000      -8.059922      -219.3216
  52   2.0000      -8.042064      -218.8357
  53   2.0000      -8.022115      -218.2929
  54   2.0000      -8.019254      -218.2150
  55   2.0000      -6.028815      -164.0524
  56   2.0000      -6.024902      -163.9459
  57   2.0000      -6.022730      -163.8868
  58   2.0000      -6.011225      -163.5737
  59   2.0000      -6.007143      -163.4627
  60   2.0000      -6.004379      -163.3875
  61   2.0000      -5.991846      -163.0464
  62   2.0000      -5.988996      -162.9689
  63   2.0000      -5.987963      -162.9407
  64   2.0000      -5.985083      -162.8624
  65   2.0000      -5.982954      -162.8045
  66   2.0000      -5.980094      -162.7266
  67   2.0000      -1.303722       -35.4761
  68   2.0000      -1.288859       -35.0716
  69   2.0000      -1.038787       -28.2668
  70   2.0000      -1.000925       -27.2365
  71   2.0000      -0.980955       -26.6931
  72   2.0000      -0.974104       -26.5067
  73   2.0000      -0.952506       -25.9190
  74   2.0000      -0.941429       -25.6176
  75   2.0000      -0.923669       -25.1343
  76   2.0000      -0.918913       -25.0049
  77   2.0000      -0.904500       -24.6127
  78   2.0000      -0.896912       -24.4062
  79   2.0000      -0.887691       -24.1553
  80   2.0000      -0.878924       -23.9167
  81   2.0000      -0.870791       -23.6954
  82   2.0000      -0.865734       -23.5578
  83   2.0000      -0.856852       -23.3161
  84   2.0000      -0.843410       -22.9504
  85   2.0000      -0.832658       -22.6578
  86   2.0000      -0.825822       -22.4718
  87   2.0000      -0.824159       -22.4265
  88   2.0000      -0.819086       -22.2885
  89   2.0000      -0.818009       -22.2592
  90   2.0000      -0.803550       -21.8657
  91   2.0000      -0.801435       -21.8081
  92   2.0000      -0.793383       -21.5890
  93   2.0000      -0.783463       -21.3191
  94   2.0000      -0.773961       -21.0606
  95   2.0000      -0.753815       -20.5123
  96   2.0000      -0.742588       -20.2068
  97   2.0000      -0.732474       -19.9316
  98   2.0000      -0.718747       -19.5581
  99   2.0000      -0.715849       -19.4792
 100   2.0000      -0.712343       -19.3838
 101   2.0000      -0.697192       -18.9716
 102   2.0000      -0.692791       -18.8518
 103   2.0000      -0.674718       -18.3600
 104   2.0000      -0.668389       -18.1878
 105   2.0000      -0.658815       -17.9273
 106   2.0000      -0.656263       -17.8578
 107   2.0000      -0.649767       -17.6811
 108   2.0000      -0.646885       -17.6026
 109   2.0000      -0.631083       -17.1726
 110   2.0000      -0.629011       -17.1163
 111   2.0000      -0.624058       -16.9815
 112   2.0000      -0.619991       -16.8708
 113   2.0000      -0.612720       -16.6730
 114   2.0000      -0.609468       -16.5845
 115   2.0000      -0.604962       -16.4619
 116   2.0000      -0.602285       -16.3890
 117   2.0000      -0.599894       -16.3240
 118   2.0000      -0.594183       -16.1685
 119   2.0000      -0.587447       -15.9852
 120   2.0000      -0.586466       -15.9586
 121   2.0000      -0.579868       -15.7790
 122   2.0000      -0.575107       -15.6494
 123   2.0000      -0.569463       -15.4959
 124   2.0000      -0.564518       -15.3613
 125   2.0000      -0.564305       -15.3555
 126   2.0000      -0.555939       -15.1279
 127   2.0000      -0.543799       -14.7975
 128   2.0000      -0.543510       -14.7897
 129   2.0000      -0.539841       -14.6898
 130   2.0000      -0.535204       -14.5636
 131   2.0000      -0.533135       -14.5073
 132   2.0000      -0.531535       -14.4638
 133   2.0000      -0.527401       -14.3513
 134   2.0000      -0.518331       -14.1045
 135   2.0000      -0.517404       -14.0793
 136   2.0000      -0.513642       -13.9769
 137   2.0000      -0.507975       -13.8227
 138   2.0000      -0.504956       -13.7406
 139   2.0000      -0.500652       -13.6234
 140   2.0000      -0.499173       -13.5832
 141   2.0000      -0.495197       -13.4750
 142   2.0000      -0.492503       -13.4017
 143   2.0000      -0.490360       -13.3434
 144   2.0000      -0.484990       -13.1972
 145   2.0000      -0.484289       -13.1782
 146   2.0000      -0.480568       -13.0769
 147   2.0000      -0.477763       -13.0006
 148   2.0000      -0.476116       -12.9558
 149   2.0000      -0.474601       -12.9145
 150   2.0000      -0.468438       -12.7469
 151   2.0000      -0.467426       -12.7193
 152   2.0000      -0.462803       -12.5935
 153   2.0000      -0.461201       -12.5499
 154   2.0000      -0.457603       -12.4520
 155   2.0000      -0.456822       -12.4307
 156   2.0000      -0.454527       -12.3683
 157   2.0000      -0.453808       -12.3488
 158   2.0000      -0.451942       -12.2980
 159   2.0000      -0.447726       -12.1832
 160   2.0000      -0.446535       -12.1508
 161   2.0000      -0.441375       -12.0104
 162   2.0000      -0.439936       -11.9713
 163   2.0000      -0.433558       -11.7977
 164   2.0000      -0.429742       -11.6939
 165   2.0000      -0.425286       -11.5726
 166   2.0000      -0.421375       -11.4662
 167   2.0000      -0.418869       -11.3980
 168   2.0000      -0.417480       -11.3602
 169   2.0000      -0.414021       -11.2661
 170   2.0000      -0.413645       -11.2559
 171   2.0000      -0.411750       -11.2043
 172   2.0000      -0.407835       -11.0978
 173   2.0000      -0.406654       -11.0656
 174   2.0000      -0.404676       -11.0118
 175   2.0000      -0.400130       -10.8881
 176   2.0000      -0.399398       -10.8682
 177   2.0000      -0.394612       -10.7379
 178   2.0000      -0.384080       -10.4514
 179   2.0000      -0.382135       -10.3984
 180   2.0000      -0.377775       -10.2798
 181   2.0000      -0.377293       -10.2667
 182   2.0000      -0.356577        -9.7030
 183   2.0000      -0.354067        -9.6346
 184   2.0000      -0.330261        -8.9869
 185   2.0000      -0.324557        -8.8316
 186   2.0000      -0.317498        -8.6396
 187   2.0000      -0.313641        -8.5346
 188   2.0000      -0.310496        -8.4490
 189   2.0000      -0.304248        -8.2790
 190   2.0000      -0.302440        -8.2298
 191   2.0000      -0.283034        -7.7017
 192   2.0000      -0.278309        -7.5732
 193   2.0000      -0.240963        -6.5569
 194   2.0000      -0.224048        -6.0967
 195   2.0000      -0.182530        -4.9669
 196   0.0000      -0.065676        -1.7871
 197   0.0000      -0.056543        -1.5386
 198   0.0000      -0.006260        -0.1703
 199   0.0000      -0.001760        -0.0479
 200   0.0000       0.006082         0.1655

MULLIKEN ATOMIC CHARGES
-----------------------
   0 C :   -0.122159
   1 S :    0.110317
   2 C :   -0.164196
   3 C :   -0.052001
   4 C :   -0.011650
   5 C :    0.039926
   6 C :   -0.015173
   7 C :   -0.030597
   8 C :    0.063375
   9 C :    0.027517
  10 C :    0.101469
  11 C :    0.024710
  12 C :    0.022095
  13 C :   -0.127956
  14 S :    0.140293
  15 C :   -0.106463
  16 C :    0.129208
  17 C :    0.121843
  18 C :   -0.118178
  19 C :    0.224986
  20 F :   -0.183638
  21 C :    0.226094
  22 F :   -0.182012
  23 C :   -0.116552
  24 C :    0.007575
  25 C :   -0.009405
  26 C :    0.006636
  27 C :   -0.216094
  28 C :    0.085741
  29 C :    0.219020
  30 N :   -0.149662
  31 C :    0.047901
  32 C :   -0.021761
  33 C :   -0.017167
  34 C :   -0.036793
  35 C :    0.041741
  36 C :    0.009155
  37 C :   -0.040414
  38 S :    0.057372
  39 C :   -0.058780
  40 C :    0.027880
  41 C :    0.023712
  42 C :   -0.014540
  43 S :    0.054717
  44 C :   -0.027335
  45 C :    0.025065
  46 C :    0.001627
  47 C :    0.014518
  48 C :    0.011114
  49 C :    0.005193
  50 C :   -0.029034
  51 H :    0.011786
  52 H :   -0.005870
  53 H :   -0.000933
  54 H :    0.008829
  55 H :    0.017930
  56 H :    0.001136
  57 H :    0.004509
  58 H :    0.002464
  59 H :    0.004285
  60 H :    0.020427
  61 H :    0.016628
  62 H :   -0.011289
  63 H :   -0.017126
  64 H :   -0.010905
  65 H :   -0.014307
  66 H :   -0.018694
  67 H :   -0.011342
  68 H :   -0.032182
  69 H :    0.033005
  70 H :    0.034814
  71 H :    0.014483
  72 H :    0.006423
  73 H :    0.023012
  74 H :    0.120171
  75 H :    0.002090
  76 H :   -0.015040
  77 H :   -0.025302
  78 H :   -0.022764
  79 H :   -0.021634
  80 H :   -0.021241
  81 H :   -0.021961
  82 H :   -0.026264
  83 H :   -0.006534
  84 H :   -0.026019
  85 H :   -0.022056
  86 H :   -0.017610
  87 H :   -0.015170
  88 H :    0.008252
  89 H :    0.014755
Sum of atomic charges:   -0.0000000

LOEWDIN ATOMIC CHARGES
----------------------
   0 C :   -0.182643
   1 S :    0.431014
   2 C :   -0.181667
   3 C :   -0.054513
   4 C :   -0.060575
   5 C :   -0.024609
   6 C :   -0.008747
   7 C :   -0.064980
   8 C :   -0.021201
   9 C :   -0.028727
  10 C :   -0.029393
  11 C :   -0.038465
  12 C :   -0.057467
  13 C :   -0.169317
  14 S :    0.474207
  15 C :   -0.185899
  16 C :   -0.042083
  17 C :   -0.049761
  18 C :   -0.040567
  19 C :    0.058952
  20 F :   -0.061110
  21 C :    0.061017
  22 F :   -0.060193
  23 C :   -0.042303
  24 C :   -0.036602
  25 C :   -0.036869
  26 C :   -0.049031
  27 C :   -0.048488
  28 C :   -0.056528
  29 C :    0.044083
  30 N :   -0.001244
  31 C :    0.041827
  32 C :   -0.122937
  33 C :   -0.035635
  34 C :   -0.177582
  35 C :   -0.028987
  36 C :   -0.053157
  37 C :   -0.168915
  38 S :    0.351141
  39 C :   -0.197383
  40 C :   -0.031147
  41 C :   -0.050160
  42 C :   -0.141189
  43 S :    0.353593
  44 C :   -0.073081
  45 C :   -0.017112
  46 C :   -0.046474
  47 C :   -0.033054
  48 C :   -0.025820
  49 C :   -0.025402
  50 C :   -0.060234
  51 H :    0.021997
  52 H :    0.033240
  53 H :    0.022877
  54 H :    0.018507
  55 H :    0.022865
  56 H :    0.022500
  57 H :    0.025550
  58 H :    0.025459
  59 H :    0.021132
  60 H :    0.029804
  61 H :    0.032295
  62 H :    0.026365
  63 H :    0.028016
  64 H :    0.039731
  65 H :    0.038514
  66 H :    0.031119
  67 H :    0.018198
  68 H :    0.023646
  69 H :    0.039214
  70 H :    0.037994
  71 H :    0.030779
  72 H :    0.026304
  73 H :    0.032778
  74 H :    0.080507
  75 H :    0.025960
  76 H :    0.019165
  77 H :    0.029163
  78 H :    0.029438
  79 H :    0.028001
  80 H :    0.028719
  81 H :    0.029452
  82 H :    0.028785
  83 H :    0.019429
  84 H :    0.023744
  85 H :    0.025373
  86 H :    0.023432
  87 H :    0.026103
  88 H :    0.018663
  89 H :    0.020593

  Mayer bond orders larger than 0.100000
B(  0-C ,  1-S ) :   1.1641 B(  0-C ,  4-C ) :   1.5494 B(  0-C , 51-H ) :   0.9696
B(  1-S ,  2-C ) :   1.1264 B(  2-C ,  3-C ) :   1.5047 B(  2-C , 11-C ) :   1.1325
B(  3-C ,  4-C ) :   1.3178 B(  3-C , 10-C ) :   1.0592 B(  4-C ,  5-C ) :   0.9589
B(  5-C ,  6-C ) :   1.0080 B(  5-C ,  8-C ) :   1.0596 B(  5-C , 52-H ) :   0.9074
B(  6-C ,  7-C ) :   2.0238 B(  6-C , 53-H ) :   0.9605 B(  7-C , 54-H ) :   0.9584
B(  7-C , 55-H ) :   0.9510 B(  8-C ,  9-C ) :   1.0676 B(  8-C , 56-H ) :   0.9392
B(  8-C , 57-H ) :   0.9362 B(  9-C , 10-C ) :   1.0795 B(  9-C , 58-H ) :   0.9319
B(  9-C , 59-H ) :   0.9475 B( 10-C , 60-H ) :   0.9041 B( 10-C , 61-H ) :   0.9148
B( 11-C , 12-C ) :   1.6784 B( 11-C , 62-H ) :   0.9503 B( 12-C , 13-C ) :   1.1445
B( 12-C , 63-H ) :   0.9450 B( 13-C , 14-S ) :   1.1567 B( 13-C , 15-C ) :   0.1079
B( 13-C , 17-C ) :   1.3632 B( 14-S , 15-C ) :   1.1334 B( 15-C , 16-C ) :   1.3402
B( 15-C , 24-C ) :   1.1561 B( 16-C , 17-C ) :   1.2068 B( 16-C , 23-C ) :   1.1574
B( 17-C , 18-C ) :   1.1512 B( 18-C , 19-C ) :   1.5104 B( 18-C , 23-C ) :   0.1122
B( 18-C , 64-H ) :   0.9957 B( 19-C , 20-F ) :   1.1216 B( 19-C , 21-C ) :   1.1495
B( 21-C , 22-F ) :   1.1245 B( 21-C , 23-C ) :   1.5147 B( 23-C , 65-H ) :   0.9978
B( 24-C , 25-C ) :   1.6670 B( 24-C , 66-H ) :   0.9740 B( 25-C , 26-C ) :   1.1198
B( 25-C , 67-H ) :   0.9685 B( 26-C , 27-C ) :   1.7548 B( 26-C , 68-H ) :   0.9781
B( 27-C , 28-C ) :   1.0662 B( 27-C , 29-C ) :   1.0475 B( 28-C , 69-H ) :   0.9451
B( 28-C , 70-H ) :   0.9462 B( 28-C , 71-H ) :   0.9504 B( 29-C , 30-N ) :   1.0026
B( 29-C , 72-H ) :   0.9403 B( 29-C , 73-H ) :   0.9262 B( 30-N , 31-C ) :   1.2251
B( 30-N , 74-H ) :   0.9396 B( 31-C , 32-C ) :   1.5941 B( 31-C , 75-H ) :   0.9641
B( 32-C , 33-C ) :   1.1687 B( 32-C , 76-H ) :   0.9646 B( 33-C , 34-C ) :   1.5861
B( 33-C , 77-H ) :   0.9782 B( 34-C , 35-C ) :   1.1466 B( 34-C , 38-S ) :   1.0067
B( 35-C , 36-C ) :   1.5880 B( 35-C , 78-H ) :   0.9977 B( 36-C , 37-C ) :   1.1901
B( 36-C , 79-H ) :   0.9932 B( 37-C , 38-S ) :   1.0513 B( 37-C , 39-C ) :   1.5055
B( 39-C , 40-C ) :   1.1996 B( 39-C , 43-S ) :   1.0287 B( 40-C , 41-C ) :   1.5777
B( 40-C , 80-H ) :   0.9929 B( 41-C , 42-C ) :   1.1511 B( 41-C , 81-H ) :   0.9984
B( 42-C , 43-S ) :   1.0342 B( 42-C , 44-C ) :   1.5428 B( 44-C , 45-C ) :   1.1820
B( 44-C , 82-H ) :   0.9818 B( 45-C , 46-C ) :   1.6418 B( 45-C , 83-H ) :   0.9627
B( 46-C , 47-C ) :   1.1361 B( 46-C , 84-H ) :   0.9766 B( 47-C , 48-C ) :   1.6917
B( 47-C , 85-H ) :   0.9723 B( 48-C , 49-C ) :   1.1306 B( 48-C , 86-H ) :   0.9671
B( 49-C , 50-C ) :   1.8825 B( 49-C , 87-H ) :   0.9756 B( 50-C , 88-H ) :   0.9570
B( 50-C , 89-H ) :   0.9528

-----------------------------------------------------------------------------
         ABSORPTION SPECTRUM VIA TRANSITION ELECTRIC DIPOLE MOMENTS
-----------------------------------------------------------------------------
State   Energy  Wavelength   fosc         T2         TX        TY        TZ
        (cm-1)    (nm)                  (au**2)     (au)      (au)      (au)
-----------------------------------------------------------------------------
   0   14525.7    688.4   1.259137707  28.53723   0.06717  -1.85597   5.00880
   1   16800.8    595.2   0.139975595   2.74282  -0.23549  -1.10166  -1.21397
   2   19778.3    505.6   1.017606599  16.93813  -2.01500  -3.44526  -1.00406
   3   23195.7    431.1   0.032817587   0.46577   0.12543  -0.26851   0.61477
   4   27396.4    365.0   0.923274734  11.09462  -2.09745   2.56529   0.33856
   5   28266.2    353.8   0.285267777   3.32246  -1.12406   1.42728   0.14768
   6   29165.0    342.9   0.188972433   2.13310   0.86201  -1.15641  -0.22966
   7   29580.7    338.1   0.005363905   0.05970   0.03004  -0.24245  -0.00334
   8   30585.0    327.0   0.040716404   0.43826  -0.21698  -0.61765  -0.09847
   9   31305.9    319.4   0.159600107   1.67835  -0.98522  -0.82992  -0.13755
  10   31515.7    317.3   0.012914874   0.13491  -0.09001   0.35148   0.05719
  11   31834.9    314.1   0.000281927   0.00292  -0.01570   0.04632   0.02289
  12   33188.6    301.3   0.241670433   2.39723   1.40572  -0.63032   0.15448
  13   33423.3    299.2   0.079799109   0.78600   0.87382  -0.03719   0.14511
  14   33869.9    295.2   0.052082872   0.50624   0.45147  -0.51518  -0.19237
  15   35834.7    279.1   0.156284907   1.43578  -0.57858   1.01247  -0.27555
  16   36100.4    277.0   0.393608577   3.58946   1.18551  -1.47525   0.08749
  17   36308.0    275.4   0.095413550   0.86513   0.36136  -0.75214   0.41090
  18   37374.7    267.6   0.034126696   0.30060   0.45716   0.23514   0.19056
  19   38281.3    261.2   0.029009192   0.24947   0.36473  -0.23107  -0.25110
  20   38352.5    260.7   0.079052303   0.67857  -0.03114  -0.80679  -0.16340
  21   39361.9    254.1   0.085242972   0.71295   0.14138  -0.25278   0.79313
  22   39587.3    252.6   0.007503902   0.06240   0.09023  -0.22485  -0.06085
  23   40204.9    248.7   0.001957997   0.01603   0.04636  -0.10336   0.05657

FINAL SINGLE POINT ENERGY     -3544.221140593938

DIPOLE MOMENT
-------------
                                X             Y             Z
Electronic contribution:     31.65095     -28.31553      38.08934
Nuclear contribution   :    -32.57350      27.83406     -36.42898
                        -----------------------------------------
Total Dipole Moment    :     -0.92255      -0.48147       1.66037
                        -----------------------------------------
Magnitude (a.u.)       :      1.95952
Magnitude (Debye)      :      4.98071

Rotational constants in cm-1:     0.001403     0.000358     0.000325
Rotational constants in MHz :    42.060967    10.736702     9.732932

                             ****ORCA TERMINATED NORMALLY****
TOTAL RUN TIME: 0 days 0 hours 6 minutes 31 seconds 181 msec
