                         Program Version 4.2.0 -  RELEASE  -
|  1> # ORCA input file
|  2> # SCF done       -152.630424541536          0.000888159131
|  3> ! CAM-B3LYP def2-SVP def2/J RIJCOSX Grid4 TightSCF
|  4> %maxcore 5000
|  5> %tddft
|  6>     Mode sTDDFT
|  7>     Ethresh 5.0
|  8>     maxcore 5000
|  9> end
| 10>
| 11> %pal
| 12>   nprocs 6
| 13>   end
| 14> * xyz 0 1
| 15>    C       -1.11605        -0.25792         0.37715
| 16>    C       -1.43845        -1.57032         0.10765
| 17>    C       -0.49443        -2.56823        -0.20067
| 18>    N        0.21997        -3.43074        -0.45896
| 19>    C       -2.73640        -2.11605         0.10594
| 20>    N       -3.75620        -2.64639         0.08348
| 21>    C        0.24270         0.28435         0.38753
| 22>    C        0.17884         1.65560         0.73327
| 23>    C        1.29323         2.45150         0.82142
| 24>    C        2.53594         1.86638         0.55227
| 25>    C        2.59050         0.49676         0.20794
| 26>    C        1.46075        -0.30949         0.12113
| 27>    S        4.22274        -0.02311        -0.08840
| 28>    C        4.79985         1.58714         0.24954
| 29>    C        3.82400         2.46916         0.56857
| 30>   Br        6.63766         1.95221         0.14806
| 31>    C       -1.23364         2.03555         0.95279
| 32>    O       -1.63685         3.13885         1.27008
| 33>    C       -2.01784         0.81310         0.70135
| 34>    C       -3.40091         0.74708         0.73986
| 35>    C       -4.23791         1.81038         1.04107
| 36>    C       -5.62186         1.72001         1.00420
| 37>    C       -6.53991         2.75648         1.25469
| 38>    C       -7.85091         2.39155         1.09233
| 39>    C       -8.01663         1.05020         0.71340
| 40>    S       -6.47176         0.25162         0.57985
| 41>    C       -9.20795         0.38271         0.42372
| 42>    C      -10.50687         0.91015         0.39262
| 43>    C      -11.45879         0.00076         0.00248
| 44>    C      -10.94922        -1.27570        -0.27275
| 45>    S       -9.21958        -1.30152        -0.02133
| 46>    C      -11.66640        -2.38633        -0.71381
| 47>    C      -11.12555        -3.63469        -0.91426
| 48>    C      -11.82544        -4.73002        -1.41515
| 49>    C      -11.33056        -6.03365        -1.58136
| 50>    C      -12.23529        -6.90891        -2.12283
| 51>    C      -13.47705        -6.32162        -2.42185
| 52>    S      -13.48044        -4.63658        -1.96731
| 53>    C      -14.58110        -6.91245        -3.02456
| 54>    C      -14.71965        -8.25555        -3.43907
| 55>    C      -15.91597        -8.51598        -4.03109
| 56>    C      -16.77578        -7.38516        -4.13889
| 57>    S      -16.00305        -5.99001        -3.43289
| 58>    C      -18.03878        -7.45166        -4.66795
| 59>    C      -19.00441        -6.44896        -4.90703
| 60>    C      -19.03507        -5.05283        -5.00781
| 61>    C      -17.90145        -4.12820        -4.96165
| 62>    O      -16.79786        -4.42875        -5.34406
| 63>    O      -18.13064        -2.90850        -4.44018
| 64>    C      -20.40862        -4.77052        -5.28757
| 65>    N      -21.10281        -5.87873        -5.33667
| 66>    O      -20.26362        -6.90734        -5.10704
| 67>    C      -21.05765        -3.48581        -5.57791
| 68>    C      -22.31540        -3.24114        -5.19469
| 69>    C      -20.29106        -2.56004        -6.32246
| 70>    C      -19.60604        -1.80884        -6.97616
| 71>    C      -18.79293        -0.93852        -7.72093
| 72>    C      -19.21906         0.21784        -8.22091
| 73>    H        1.21072         3.49385         1.08684
| 74>    H        1.55734        -1.34801        -0.14750
| 75>    H        4.00204         3.50238         0.80490
| 76>    H       -3.87482        -0.19701         0.50047
| 77>    H       -3.80325         2.76558         1.29818
| 78>    H       -6.21239         3.74087         1.53763
| 79>    H       -8.68417         3.05558         1.23581
| 80>    H      -10.71748         1.93462         0.64007
| 81>    H      -12.50674         0.22428        -0.09146
| 82>    H      -12.72094        -2.23920        -0.91116
| 83>    H      -10.08193        -3.79334        -0.67276
| 84>    H      -10.32578        -6.29612        -1.30135
| 85>    H      -12.02812        -7.94451        -2.32183
| 86>    H      -13.94414        -8.98512        -3.29187
| 87>    H      -16.21179        -9.47722        -4.41178
| 88>    H      -18.39503        -8.44213        -4.92435
| 89>    H      -19.06195        -2.75727        -4.23014
| 90>    H      -22.87430        -3.97823        -4.64723
| 91>    H      -22.79930        -2.30990        -5.43254
| 92>    H      -17.77304        -1.27449        -7.86169
| 93>    H      -20.23310         0.55301        -8.08353
| 94>    H      -18.56589         0.85963        -8.78623
| 95> *
| 96>
| 97>                          ****END OF INPUT****

CARTESIAN COORDINATES (ANGSTROEM)
---------------------------------
  C     -1.116050   -0.257920    0.377150
  C     -1.438450   -1.570320    0.107650
  C     -0.494430   -2.568230   -0.200670
  N      0.219970   -3.430740   -0.458960
  C     -2.736400   -2.116050    0.105940
  N     -3.756200   -2.646390    0.083480
  C      0.242700    0.284350    0.387530
  C      0.178840    1.655600    0.733270
  C      1.293230    2.451500    0.821420
  C      2.535940    1.866380    0.552270
  C      2.590500    0.496760    0.207940
  C      1.460750   -0.309490    0.121130
  S      4.222740   -0.023110   -0.088400
  C      4.799850    1.587140    0.249540
  C      3.824000    2.469160    0.568570
  Br     6.637660    1.952210    0.148060
  C     -1.233640    2.035550    0.952790
  O     -1.636850    3.138850    1.270080
  C     -2.017840    0.813100    0.701350
  C     -3.400910    0.747080    0.739860
  C     -4.237910    1.810380    1.041070
  C     -5.621860    1.720010    1.004200
  C     -6.539910    2.756480    1.254690
  C     -7.850910    2.391550    1.092330
  C     -8.016630    1.050200    0.713400
  S     -6.471760    0.251620    0.579850
  C     -9.207950    0.382710    0.423720
  C    -10.506870    0.910150    0.392620
  C    -11.458790    0.000760    0.002480
  C    -10.949220   -1.275700   -0.272750
  S     -9.219580   -1.301520   -0.021330
  C    -11.666400   -2.386330   -0.713810
  C    -11.125550   -3.634690   -0.914260
  C    -11.825440   -4.730020   -1.415150
  C    -11.330560   -6.033650   -1.581360
  C    -12.235290   -6.908910   -2.122830
  C    -13.477050   -6.321620   -2.421850
  S    -13.480440   -4.636580   -1.967310
  C    -14.581100   -6.912450   -3.024560
  C    -14.719650   -8.255550   -3.439070
  C    -15.915970   -8.515980   -4.031090
  C    -16.775780   -7.385160   -4.138890
  S    -16.003050   -5.990010   -3.432890
  C    -18.038780   -7.451660   -4.667950
  C    -19.004410   -6.448960   -4.907030
  C    -19.035070   -5.052830   -5.007810
  C    -17.901450   -4.128200   -4.961650
  O    -16.797860   -4.428750   -5.344060
  O    -18.130640   -2.908500   -4.440180
  C    -20.408620   -4.770520   -5.287570
  N    -21.102810   -5.878730   -5.336670
  O    -20.263620   -6.907340   -5.107040
  C    -21.057650   -3.485810   -5.577910
  C    -22.315400   -3.241140   -5.194690
  C    -20.291060   -2.560040   -6.322460
  C    -19.606040   -1.808840   -6.976160
  C    -18.792930   -0.938520   -7.720930
  C    -19.219060    0.217840   -8.220910
  H      1.210720    3.493850    1.086840
  H      1.557340   -1.348010   -0.147500
  H      4.002040    3.502380    0.804900
  H     -3.874820   -0.197010    0.500470
  H     -3.803250    2.765580    1.298180
  H     -6.212390    3.740870    1.537630
  H     -8.684170    3.055580    1.235810
  H    -10.717480    1.934620    0.640070
  H    -12.506740    0.224280   -0.091460
  H    -12.720940   -2.239200   -0.911160
  H    -10.081930   -3.793340   -0.672760
  H    -10.325780   -6.296120   -1.301350
  H    -12.028120   -7.944510   -2.321830
  H    -13.944140   -8.985120   -3.291870
  H    -16.211790   -9.477220   -4.411780
  H    -18.395030   -8.442130   -4.924350
  H    -19.061950   -2.757270   -4.230140
  H    -22.874300   -3.978230   -4.647230
  H    -22.799300   -2.309900   -5.432540
  H    -17.773040   -1.274490   -7.861690
  H    -20.233100    0.553010   -8.083530
  H    -18.565890    0.859630   -8.786230

 Total Charge           Charge          ....    0
 Multiplicity           Mult            ....    1
 Number of Electrons    NEL             ....  460
 Basis Dimension        Dim             ....  960

ORBITAL ENERGIES
----------------

  NO   OCC          E(Eh)            E(eV)
   0   2.0000    -482.873440    -13139.6543
   1   2.0000     -88.964798     -2420.8552
   2   2.0000     -88.963383     -2420.8167
   3   2.0000     -88.961253     -2420.7588
   4   2.0000     -88.960413     -2420.7359
   5   2.0000     -88.955330     -2420.5976
   6   2.0000     -62.551141     -1702.1031
   7   2.0000     -56.385075     -1534.3159
   8   2.0000     -56.382393     -1534.2429
   9   2.0000     -56.382351     -1534.2418
  10   2.0000     -19.317439      -525.6542
  11   2.0000     -19.259036      -524.0650
  12   2.0000     -19.201185      -522.4908
  13   2.0000     -19.193641      -522.2855
  14   2.0000     -14.462855      -393.5543
  15   2.0000     -14.394800      -391.7024
  16   2.0000     -14.392269      -391.6336
  17   2.0000     -10.407314      -283.1974
  18   2.0000     -10.362906      -281.9890
  19   2.0000     -10.343994      -281.4744
  20   2.0000     -10.343759      -281.4680
  21   2.0000     -10.332208      -281.1537
  22   2.0000     -10.330716      -281.1131
  23   2.0000     -10.330528      -281.1079
  24   2.0000     -10.328501      -281.0528
  25   2.0000     -10.328329      -281.0481
  26   2.0000     -10.328035      -281.0401
  27   2.0000     -10.320947      -280.8473
  28   2.0000     -10.319798      -280.8160
  29   2.0000     -10.318834      -280.7898
  30   2.0000     -10.317757      -280.7604
  31   2.0000     -10.317099      -280.7425
  32   2.0000     -10.314718      -280.6777
  33   2.0000     -10.308063      -280.4967
  34   2.0000     -10.305502      -280.4270
  35   2.0000     -10.304789      -280.4076
  36   2.0000     -10.302790      -280.3532
  37   2.0000     -10.301940      -280.3300
  38   2.0000     -10.300697      -280.2962
  39   2.0000     -10.299725      -280.2698
  40   2.0000     -10.299325      -280.2589
  41   2.0000     -10.299180      -280.2549
  42   2.0000     -10.299141      -280.2539
  43   2.0000     -10.298633      -280.2401
  44   2.0000     -10.297865      -280.2192
  45   2.0000     -10.297716      -280.2151
  46   2.0000     -10.297048      -280.1969
  47   2.0000     -10.295738      -280.1613
  48   2.0000     -10.292425      -280.0711
  49   2.0000     -10.289944      -280.0036
  50   2.0000     -10.289910      -280.0027
  51   2.0000     -10.288226      -279.9569
  52   2.0000     -10.286369      -279.9063
  53   2.0000     -10.286257      -279.9033
  54   2.0000     -10.282642      -279.8049
  55   2.0000     -10.282562      -279.8027
  56   2.0000     -10.282546      -279.8023
  57   2.0000     -10.282503      -279.8011
  58   2.0000     -10.277590      -279.6674
  59   2.0000     -10.271965      -279.5144
  60   2.0000     -10.269233      -279.4400
  61   2.0000     -10.267709      -279.3986
  62   2.0000      -8.780554      -238.9310
  63   2.0000      -8.061243      -219.3576
  64   2.0000      -8.059696      -219.3155
  65   2.0000      -8.056859      -219.2383
  66   2.0000      -8.056342      -219.2242
  67   2.0000      -8.051348      -219.0883
  68   2.0000      -6.616786      -180.0519
  69   2.0000      -6.602302      -179.6578
  70   2.0000      -6.602156      -179.6538
  71   2.0000      -6.030808      -164.1066
  72   2.0000      -6.029232      -164.0637
  73   2.0000      -6.026800      -163.9976
  74   2.0000      -6.026491      -163.9892
  75   2.0000      -6.026033      -163.9767
  76   2.0000      -6.025182      -163.9535
  77   2.0000      -6.022393      -163.8777
  78   2.0000      -6.022267      -163.8742
  79   2.0000      -6.021787      -163.8612
  80   2.0000      -6.020978      -163.8391
  81   2.0000      -6.020858      -163.8359
  82   2.0000      -6.018030      -163.7589
  83   2.0000      -6.017580      -163.7467
  84   2.0000      -6.016854      -163.7269
  85   2.0000      -6.012672      -163.6131
  86   2.0000      -2.732663       -74.3596
  87   2.0000      -2.728620       -74.2495
  88   2.0000      -2.728473       -74.2455
  89   2.0000      -2.716974       -73.9326
  90   2.0000      -2.716970       -73.9325
  91   2.0000      -1.256363       -34.1874
  92   2.0000      -1.182636       -32.1812
  93   2.0000      -1.106878       -30.1197
  94   2.0000      -1.098163       -29.8825
  95   2.0000      -1.014213       -27.5981
  96   2.0000      -1.009701       -27.4754
  97   2.0000      -1.004306       -27.3286
  98   2.0000      -0.993434       -27.0327
  99   2.0000      -0.992907       -27.0184
 100   2.0000      -0.986078       -26.8326
 101   2.0000      -0.984817       -26.7982
 102   2.0000      -0.972910       -26.4742
 103   2.0000      -0.968719       -26.3602
 104   2.0000      -0.932937       -25.3865
 105   2.0000      -0.925715       -25.1900
 106   2.0000      -0.921364       -25.0716
 107   2.0000      -0.906745       -24.6738
 108   2.0000      -0.900206       -24.4959
 109   2.0000      -0.889958       -24.2170
 110   2.0000      -0.888108       -24.1666
 111   2.0000      -0.884886       -24.0790
 112   2.0000      -0.870262       -23.6810
 113   2.0000      -0.867665       -23.6104
 114   2.0000      -0.860596       -23.4180
 115   2.0000      -0.857805       -23.3421
 116   2.0000      -0.853377       -23.2216
 117   2.0000      -0.838534       -22.8177
 118   2.0000      -0.833155       -22.6713
 119   2.0000      -0.829495       -22.5717
 120   2.0000      -0.818193       -22.2642
 121   2.0000      -0.812006       -22.0958
 122   2.0000      -0.807109       -21.9626
 123   2.0000      -0.785232       -21.3672
 124   2.0000      -0.768233       -20.9047
 125   2.0000      -0.753608       -20.5067
 126   2.0000      -0.743646       -20.2356
 127   2.0000      -0.738728       -20.1018
 128   2.0000      -0.732917       -19.9437
 129   2.0000      -0.715902       -19.4807
 130   2.0000      -0.709905       -19.3175
 131   2.0000      -0.701384       -19.0856
 132   2.0000      -0.694859       -18.9081
 133   2.0000      -0.691000       -18.8031
 134   2.0000      -0.678047       -18.4506
 135   2.0000      -0.670841       -18.2545
 136   2.0000      -0.667067       -18.1518
 137   2.0000      -0.659130       -17.9358
 138   2.0000      -0.655421       -17.8349
 139   2.0000      -0.648550       -17.6479
 140   2.0000      -0.641736       -17.4625
 141   2.0000      -0.638431       -17.3726
 142   2.0000      -0.635087       -17.2816
 143   2.0000      -0.629497       -17.1295
 144   2.0000      -0.620862       -16.8945
 145   2.0000      -0.614411       -16.7190
 146   2.0000      -0.613065       -16.6823
 147   2.0000      -0.610264       -16.6061
 148   2.0000      -0.604482       -16.4488
 149   2.0000      -0.599052       -16.3010
 150   2.0000      -0.585408       -15.9298
 151   2.0000      -0.582475       -15.8499
 152   2.0000      -0.581056       -15.8113
 153   2.0000      -0.577160       -15.7053
 154   2.0000      -0.575425       -15.6581
 155   2.0000      -0.566140       -15.4055
 156   2.0000      -0.550708       -14.9855
 157   2.0000      -0.544340       -14.8123
 158   2.0000      -0.541705       -14.7406
 159   2.0000      -0.535468       -14.5708
 160   2.0000      -0.533323       -14.5125
 161   2.0000      -0.532244       -14.4831
 162   2.0000      -0.527113       -14.3435
 163   2.0000      -0.522579       -14.2201
 164   2.0000      -0.519600       -14.1390
 165   2.0000      -0.519454       -14.1351
 166   2.0000      -0.516388       -14.0516
 167   2.0000      -0.514016       -13.9871
 168   2.0000      -0.513802       -13.9813
 169   2.0000      -0.510347       -13.8873
 170   2.0000      -0.509094       -13.8531
 171   2.0000      -0.507055       -13.7977
 172   2.0000      -0.506097       -13.7716
 173   2.0000      -0.500628       -13.6228
 174   2.0000      -0.496428       -13.5085
 175   2.0000      -0.491662       -13.3788
 176   2.0000      -0.489765       -13.3272
 177   2.0000      -0.486086       -13.2271
 178   2.0000      -0.483123       -13.1465
 179   2.0000      -0.479366       -13.0442
 180   2.0000      -0.476934       -12.9780
 181   2.0000      -0.475022       -12.9260
 182   2.0000      -0.474909       -12.9229
 183   2.0000      -0.471563       -12.8319
 184   2.0000      -0.471415       -12.8278
 185   2.0000      -0.468170       -12.7396
 186   2.0000      -0.464300       -12.6342
 187   2.0000      -0.458845       -12.4858
 188   2.0000      -0.454948       -12.3798
 189   2.0000      -0.453534       -12.3413
 190   2.0000      -0.449699       -12.2369
 191   2.0000      -0.447891       -12.1877
 192   2.0000      -0.442189       -12.0326
 193   2.0000      -0.441109       -12.0032
 194   2.0000      -0.434074       -11.8118
 195   2.0000      -0.431716       -11.7476
 196   2.0000      -0.429596       -11.6899
 197   2.0000      -0.427946       -11.6450
 198   2.0000      -0.423979       -11.5371
 199   2.0000      -0.421864       -11.4795
 200   2.0000      -0.420351       -11.4383
 201   2.0000      -0.412354       -11.2207
 202   2.0000      -0.408313       -11.1108
 203   2.0000      -0.406727       -11.0676
 204   2.0000      -0.405341       -11.0299
 205   2.0000      -0.403096       -10.9688
 206   2.0000      -0.396754       -10.7962
 207   2.0000      -0.390690       -10.6312
 208   2.0000      -0.387353       -10.5404
 209   2.0000      -0.386971       -10.5300
 210   2.0000      -0.380000       -10.3403
 211   2.0000      -0.370900       -10.0927
 212   2.0000      -0.366710        -9.9787
 213   2.0000      -0.363082        -9.8800
 214   2.0000      -0.361707        -9.8426
 215   2.0000      -0.355469        -9.6728
 216   2.0000      -0.350319        -9.5327
 217   2.0000      -0.347833        -9.4650
 218   2.0000      -0.347033        -9.4433
 219   2.0000      -0.342158        -9.3106
 220   2.0000      -0.331630        -9.0241
 221   2.0000      -0.328805        -8.9472
 222   2.0000      -0.320061        -8.7093
 223   2.0000      -0.314134        -8.5480
 224   2.0000      -0.298615        -8.1257
 225   2.0000      -0.297427        -8.0934
 226   2.0000      -0.292369        -7.9558
 227   2.0000      -0.276847        -7.5334
 228   2.0000      -0.252866        -6.8808
 229   2.0000      -0.206806        -5.6275
 230   0.0000      -0.126288        -3.4365
 231   0.0000      -0.076291        -2.0760
 232   0.0000      -0.049609        -1.3499
 233   0.0000      -0.035742        -0.9726
 234   0.0000      -0.032690        -0.8895

MULLIKEN ATOMIC CHARGES
-----------------------
   0 C :    0.330525
   1 C :   -0.369199
   2 C :   -0.186992
   3 N :    0.131715
   4 C :   -0.190638
   5 N :    0.124197
   6 C :    0.012914
   7 C :   -0.011546
   8 C :   -0.077501
   9 C :    0.117528
  10 C :   -0.094735
  11 C :   -0.024780
  12 S :    0.176854
  13 C :   -0.123833
  14 C :    0.037253
  15 Br:    0.010912
  16 C :    0.134661
  17 O :   -0.167719
  18 C :   -0.094324
  19 C :   -0.041274
  20 C :   -0.021418
  21 C :    0.002100
  22 C :    0.022663
  23 C :    0.036360
  24 C :   -0.049203
  25 S :    0.113212
  26 C :   -0.030648
  27 C :    0.015724
  28 C :    0.042180
  29 C :   -0.040168
  30 S :    0.117734
  31 C :    0.011638
  32 C :   -0.010638
  33 C :   -0.023416
  34 C :    0.034799
  35 C :    0.028359
  36 C :   -0.046789
  37 S :    0.110109
  38 C :   -0.046300
  39 C :    0.038627
  40 C :    0.029974
  41 C :    0.008571
  42 S :    0.151459
  43 C :   -0.068133
  44 C :    0.190853
  45 C :   -0.124302
  46 C :    0.143200
  47 O :   -0.186757
  48 O :   -0.148842
  49 C :   -0.002349
  50 N :    0.017353
  51 O :   -0.180139
  52 C :   -0.136289
  53 C :    0.053520
  54 C :    0.027874
  55 C :   -0.031831
  56 C :   -0.099210
  57 C :    0.010153
  58 H :   -0.017368
  59 H :   -0.011264
  60 H :   -0.007800
  61 H :    0.011994
  62 H :    0.015059
  63 H :   -0.003155
  64 H :   -0.007653
  65 H :   -0.008739
  66 H :   -0.003418
  67 H :    0.004460
  68 H :    0.007094
  69 H :    0.001001
  70 H :   -0.004317
  71 H :   -0.005632
  72 H :   -0.003237
  73 H :    0.011363
  74 H :    0.185858
  75 H :    0.039957
  76 H :    0.028526
  77 H :    0.044225
  78 H :    0.032315
  79 H :    0.036678
Sum of atomic charges:   -0.0000000

LOEWDIN ATOMIC CHARGES
----------------------
   0 C :    0.071694
   1 C :   -0.161440
   2 C :   -0.019220
   3 N :   -0.073947
   4 C :   -0.020431
   5 N :   -0.073476
   6 C :   -0.016930
   7 C :   -0.048292
   8 C :    0.015670
   9 C :   -0.037242
  10 C :   -0.146543
  11 C :   -0.015127
  12 S :    0.425202
  13 C :   -0.276147
  14 C :   -0.071053
  15 Br:    0.126986
  16 C :    0.080668
  17 O :   -0.161675
  18 C :   -0.110813
  19 C :    0.042971
  20 C :   -0.070862
  21 C :   -0.108294
  22 C :   -0.045439
  23 C :   -0.013644
  24 C :   -0.194517
  25 S :    0.417767
  26 C :   -0.150402
  27 C :   -0.042560
  28 C :   -0.018220
  29 C :   -0.157262
  30 S :    0.412520
  31 C :   -0.029863
  32 C :   -0.060366
  33 C :   -0.131747
  34 C :   -0.029486
  35 C :   -0.022563
  36 C :   -0.170139
  37 S :    0.403716
  38 C :   -0.171448
  39 C :   -0.027332
  40 C :   -0.024151
  41 C :   -0.122904
  42 S :    0.454768
  43 C :   -0.083311
  44 C :    0.069182
  45 C :   -0.152930
  46 C :    0.063600
  47 O :   -0.170435
  48 O :   -0.021873
  49 C :   -0.025825
  50 N :   -0.031951
  51 O :    0.026824
  52 C :   -0.070712
  53 C :    0.024839
  54 C :   -0.061143
  55 C :   -0.008667
  56 C :   -0.040938
  57 C :   -0.003022
  58 H :    0.038012
  59 H :    0.039565
  60 H :    0.036935
  61 H :    0.030634
  62 H :    0.038003
  63 H :    0.037560
  64 H :    0.034086
  65 H :    0.033744
  66 H :    0.037453
  67 H :    0.033173
  68 H :    0.033540
  69 H :    0.039351
  70 H :    0.035596
  71 H :    0.034910
  72 H :    0.036586
  73 H :    0.048125
  74 H :    0.091711
  75 H :    0.035289
  76 H :    0.034129
  77 H :    0.049581
  78 H :    0.029833
  79 H :    0.030119

  Mayer bond orders larger than 0.100000
B(  0-C ,  1-C ) :   1.5669 B(  0-C ,  6-C ) :   0.9871 B(  0-C , 18-C ) :   1.1288
B(  1-C ,  2-C ) :   1.1511 B(  1-C ,  4-C ) :   1.1570 B(  2-C ,  3-N ) :   2.9584
B(  4-C ,  5-N ) :   2.9537 B(  6-C ,  7-C ) :   1.2770 B(  6-C , 11-C ) :   1.4237
B(  7-C ,  8-C ) :   1.4354 B(  7-C , 16-C ) :   0.9349 B(  8-C ,  9-C ) :   1.2364
B(  8-C , 58-H ) :   1.0155 B(  9-C , 10-C ) :   1.3181 B(  9-C , 14-C ) :   1.1617
B( 10-C , 11-C ) :   1.3182 B( 10-C , 12-S ) :   1.0825 B( 11-C , 59-H ) :   0.9784
B( 12-S , 13-C ) :   1.0847 B( 13-C , 14-C ) :   1.6220 B( 13-C , 15-Br) :   1.0105
B( 14-C , 60-H ) :   0.9992 B( 16-C , 17-O ) :   2.1815 B( 16-C , 18-C ) :   0.9720
B( 18-C , 19-C ) :   1.4436 B( 19-C , 20-C ) :   1.2974 B( 19-C , 61-H ) :   0.9438
B( 20-C , 21-C ) :   1.3722 B( 20-C , 62-H ) :   0.9774 B( 21-C , 22-C ) :   1.2158
B( 21-C , 25-S ) :   1.0908 B( 22-C , 23-C ) :   1.4938 B( 22-C , 63-H ) :   1.0021
B( 23-C , 24-C ) :   1.2605 B( 23-C , 64-H ) :   0.9958 B( 24-C , 25-S ) :   1.0604
B( 24-C , 26-C ) :   1.3853 B( 26-C , 27-C ) :   1.2593 B( 26-C , 30-S ) :   1.0943
B( 27-C , 28-C ) :   1.4994 B( 27-C , 65-H ) :   0.9950 B( 28-C , 29-C ) :   1.2231
B( 28-C , 66-H ) :   1.0008 B( 29-C , 30-S ) :   1.0516 B( 29-C , 31-C ) :   1.4526
B( 31-C , 32-C ) :   1.2775 B( 31-C , 67-H ) :   0.9726 B( 32-C , 33-C ) :   1.4545
B( 32-C , 68-H ) :   0.9727 B( 33-C , 34-C ) :   1.2072 B( 33-C , 37-S ) :   1.0683
B( 34-C , 35-C ) :   1.5256 B( 34-C , 69-H ) :   1.0008 B( 35-C , 36-C ) :   1.2291
B( 35-C , 70-H ) :   0.9949 B( 36-C , 37-S ) :   1.0637 B( 36-C , 38-C ) :   1.4536
B( 38-C , 39-C ) :   1.1848 B( 38-C , 42-S ) :   1.0848 B( 39-C , 40-C ) :   1.5925
B( 39-C , 71-H ) :   0.9935 B( 40-C , 41-C ) :   1.1333 B( 40-C , 72-H ) :   1.0001
B( 41-C , 42-S ) :   1.0758 B( 41-C , 43-C ) :   1.5737 B( 43-C , 44-C ) :   1.1590
B( 43-C , 73-H ) :   0.9487 B( 44-C , 45-C ) :   1.4318 B( 44-C , 51-O ) :   1.1494
B( 45-C , 46-C ) :   0.9239 B( 45-C , 49-C ) :   1.1893 B( 46-C , 47-O ) :   2.1343
B( 46-C , 48-O ) :   1.2355 B( 48-O , 74-H ) :   0.9503 B( 49-C , 50-N ) :   1.7313
B( 49-C , 52-C ) :   0.9934 B( 50-N , 51-O ) :   1.0018 B( 52-C , 53-C ) :   1.9646
B( 52-C , 54-C ) :   0.8867 B( 53-C , 75-H ) :   0.9376 B( 53-C , 76-H ) :   0.9375
B( 54-C , 55-C ) :   2.3631 B( 55-C , 56-C ) :   1.0130 B( 56-C , 57-C ) :   1.9363
B( 56-C , 77-H ) :   0.9600 B( 57-C , 78-H ) :   0.9633 B( 57-C , 79-H ) :   0.9551

-----------------------------------------------------------------------------
         ABSORPTION SPECTRUM VIA TRANSITION ELECTRIC DIPOLE MOMENTS
-----------------------------------------------------------------------------
State   Energy  Wavelength   fosc         T2         TX        TY        TZ
        (cm-1)    (nm)                  (au**2)     (au)      (au)      (au)
-----------------------------------------------------------------------------
   0    6353.2   1574.0   1.202946573  62.33490  -6.80450  -3.38120  -2.14503
   1   14128.2    707.8   0.004784814   0.11149  -0.31572  -0.03355  -0.10340
   2   16961.0    589.6   0.292472052   5.67685  -0.53412   1.64455   1.63921
   3   20737.5    482.2   0.019355660   0.30727  -0.36562   0.40219  -0.10879
   4   22511.1    444.2   0.120655052   1.76451  -0.06900  -1.32655   0.00473
   5   23071.8    433.4   0.017741151   0.25315   0.33651   0.36147  -0.09617
   6   25653.0    389.8   0.469545038   6.02580  -2.00118   1.41907  -0.08554
   7   25777.0    387.9   0.037115820   0.47403  -0.56330   0.39558  -0.01529
   8   26373.7    379.2   0.158645911   1.98031  -1.26278   0.61503  -0.08619
   9   26431.1    378.3   0.172366480   2.14691  -0.59076   1.34029   0.03919
  10   26853.5    372.4   0.019101522   0.23418   0.47799   0.04830   0.05800
  11   27051.0    369.7   0.011246209   0.13687  -0.18792   0.31865   0.00373
  12   27485.5    363.8   0.089431652   1.07118   0.83728  -0.59878   0.10774
  13   28048.6    356.5   0.062751989   0.73653  -0.47491   0.71070  -0.07681
  14   28692.8    348.5   0.146366343   1.67936   1.16633  -0.55809  -0.08698
  15   30233.7    330.8   0.034276181   0.37323   0.51587   0.04710   0.32387
  16   31418.3    318.3   0.385260291   4.03690  -1.98390  -0.31463  -0.04511
  17   31523.5    317.2   0.204677112   2.13752  -1.19350  -0.84345  -0.04086
  18   31888.3    313.6   0.000431823   0.00446  -0.06627   0.00786   0.00202
  19   32153.3    311.0   0.034868456   0.35701  -0.48605  -0.28050  -0.20516
  20   32574.3    307.0   0.076754920   0.77572   0.68287   0.55350  -0.05526
  21   33013.9    302.9   0.008353792   0.08330  -0.23707  -0.06794   0.14995
  22   33194.2    301.3   0.009938002   0.09856   0.31190  -0.02260   0.02775
  23   33809.4    295.8   0.109206617   1.06338  -0.43592   0.91802  -0.17490
  24   33989.8    294.2   0.036470435   0.35324   0.53366   0.25919   0.03555
  25   34903.0    286.5   0.003339861   0.03150  -0.09023  -0.14620   0.04458
  26   35347.0    282.9   0.062174560   0.57908   0.15695   0.74291  -0.05026
  27   35480.8    281.8   0.018039800   0.16738   0.16345   0.37361  -0.03289
  28   36262.9    275.8   0.083689788   0.75978   0.42759   0.72976   0.21069
  29   36502.0    274.0   0.073243401   0.66058  -0.39630  -0.67763  -0.21057
  30   36729.0    272.3   0.044356652   0.39758  -0.18511  -0.59268  -0.10976
  31   37068.6    269.8   0.000149016   0.00132  -0.03461  -0.01071  -0.00332
  32   37267.3    268.3   0.000572301   0.00506   0.02901   0.00037   0.06491
  33   37543.6    266.4   0.136303183   1.19521  -0.46741  -0.98828  -0.00624
  34   37742.4    265.0   0.000647185   0.00565   0.07264   0.01783  -0.00711
  35   38401.7    260.4   0.006463656   0.05541   0.17104   0.14726   0.06688
  36   39325.3    254.3   0.070102136   0.58686  -0.45804  -0.58542  -0.18532
  37   39659.6    252.1   0.022104580   0.18349  -0.39405   0.12582   0.11127
  38   40061.2    249.6   0.008535228   0.07014  -0.03369  -0.19564  -0.17530
  39   40216.3    248.7   0.069293201   0.56724   0.01021  -0.73919  -0.14400

FINAL SINGLE POINT ENERGY     -6754.490453772009

DIPOLE MOMENT
-------------
                                X             Y             Z
Electronic contribution:    204.33576      35.25646      30.83126
Nuclear contribution   :   -208.76289     -34.58946     -30.82341
                        -----------------------------------------
Total Dipole Moment    :     -4.42713       0.66700       0.00784
                        -----------------------------------------
Magnitude (a.u.)       :      4.47710
Magnitude (Debye)      :     11.37989

Rotational constants in cm-1:     0.002684     0.000202     0.000196
Rotational constants in MHz :    80.458951     6.044831     5.862383

                             ****ORCA TERMINATED NORMALLY****
TOTAL RUN TIME: 0 days 0 hours 12 minutes 13 seconds 425 msec
