                         Program Version 4.2.0 -  RELEASE  -
|  1> # ORCA input file
|  2> # SCF done       -174.803950816385          0.000895763357
|  3> ! CAM-B3LYP def2-SVP def2/J RIJCOSX Grid4 TightSCF
|  4> %maxcore 5000
|  5> %tddft
|  6>     Mode sTDDFT
|  7>     Ethresh 5.0
|  8>     maxcore 5000
|  9> end
| 10>
| 11> %pal
| 12>   nprocs 6
| 13>   end
| 14> * xyz 0 1
| 15>    C       -3.00583         5.98270        -6.35333
| 16>    C       -2.34771         7.18403        -6.28198
| 17>    C       -1.12979         7.45703        -6.93810
| 18>    N       -0.14331         7.73907        -7.45335
| 19>    C       -2.76652         8.29355        -5.51842
| 20>    N       -3.02732         9.22313        -4.89642
| 21>    C       -2.52392         4.79105        -7.04372
| 22>    C       -3.41302         3.72220        -6.77307
| 23>    C       -3.22904         2.45918        -7.27857
| 24>    C       -2.10993         2.23806        -8.08930
| 25>    C       -1.22958         3.31234        -8.35755
| 26>    C       -1.41750         4.59133        -7.84710
| 27>    S        0.08127         2.82264        -9.38833
| 28>    C       -0.56143         1.20330        -9.44168
| 29>    C       -1.69911         1.03534        -8.72637
| 30>   Br        0.32877        -0.11366       -10.43733
| 31>    C       -4.51972         4.21304        -5.92984
| 32>    O       -5.50798         3.57942        -5.59868
| 33>    C       -4.24285         5.63358        -5.68515
| 34>    C       -5.09895         6.52159        -5.07734
| 35>    C       -6.19400         6.24534        -4.25144
| 36>    S       -7.35509         7.54310        -3.97124
| 37>    C       -8.30694         6.61584        -2.86142
| 38>    C       -7.72789         5.35914        -2.68522
| 39>    C       -6.56053         5.15319        -3.47166
| 40>    S       -5.88678         3.61201        -3.11605
| 41>    C       -7.20438         3.37473        -1.98163
| 42>    N       -8.06028         4.31933        -1.87450
| 43>    C       -9.48032         7.14810        -2.27319
| 44>    C      -10.25099         6.45133        -1.40405
| 45>    C      -11.43245         6.99301        -0.81567
| 46>    C      -12.23817         6.34070         0.04113
| 47>    C      -11.99941         4.93747         0.50397
| 48>    C      -13.47110         6.98297         0.63523
| 49>    N      -13.65445         8.38234         0.35779
| 50>    C      -14.10654         8.87325        -0.81998
| 51>    C      -14.54504         8.14602        -1.87607
| 52>    C      -15.05240         8.72815        -3.06383
| 53>    S      -15.56164         7.70887        -4.38631
| 54>    C      -16.00119         9.05217        -5.41904
| 55>    C      -15.76584        10.24306        -4.73070
| 56>    C      -15.23246        10.05072        -3.42870
| 57>    S      -14.95143        11.59782        -2.69010
| 58>    C      -15.56907        12.33348        -4.15968
| 59>    N      -15.94260        11.54244        -5.08628
| 60>    C      -16.43461         8.86835        -6.73898
| 61>    C      -16.69069         9.92246        -7.57149
| 62>    C      -17.05105         9.78452        -8.91785
| 63>    C      -17.14208        10.80765        -9.82784
| 64>    C      -16.71059        12.17990        -9.73515
| 65>    C      -15.66791        12.67161        -8.98630
| 66>    C      -15.30350        14.03135        -8.94792
| 67>    N      -14.98072        15.12975        -8.85283
| 68>    C      -14.75503        11.88179        -8.25658
| 69>    N      -13.92773        11.30591        -7.70601
| 70>    C      -17.43537        12.93149       -10.75867
| 71>    C      -18.12188        12.01327       -11.59232
| 72>    C      -17.91243        10.64072       -11.07858
| 73>    O      -18.32460         9.60495       -11.55482
| 74>    C      -18.86300        12.41364       -12.67633
| 75>    C      -18.94106        13.78514       -12.94435
| 76>    C      -18.26313        14.69323       -12.09877
| 77>    C      -17.50422        14.28822       -11.00684
| 78>    S      -18.50400        16.33897       -12.60367
| 79>    C      -19.49604        15.79040       -13.92870
| 80>    C      -19.64163        14.44622       -13.99110
| 81>   Br      -20.24785        17.04607       -15.10269
| 82>    H       -3.92508         1.66556        -7.05648
| 83>    H       -0.72187         5.37818        -8.08620
| 84>    H       -2.22852         0.10308        -8.65140
| 85>    H       -4.93725         7.57666        -5.26160
| 86>    H       -7.27509         2.45766        -1.42954
| 87>    H       -9.74539         8.15843        -2.55544
| 88>    H       -9.94894         5.44785        -1.14563
| 89>    H      -11.67711         8.00701        -1.10414
| 90>    H      -11.68309         4.30001        -0.31760
| 91>    H      -12.90108         4.51858         0.94480
| 92>    H      -11.21310         4.92006         1.25928
| 93>    H      -13.43661         6.85815         1.72304
| 94>    H      -14.35486         6.44083         0.27742
| 95>    H      -13.17709         9.02527         0.96808
| 96>    H      -14.13553         9.95316        -0.86820
| 97>    H      -14.50371         7.06845        -1.86488
| 98>    H      -15.61628        13.40207        -4.23520
| 99>    H      -16.50282         7.85290        -7.10607
|100>    H      -16.60314        10.91496        -7.15538
|101>    H      -17.35270         8.80602        -9.27543
|102>    H      -19.36862        11.69290       -13.29966
|103>    H      -17.00771        15.01756       -10.38854
|104>    H      -20.21907        13.93904       -14.74231
|105> *
|106>
|107>                          ****END OF INPUT****

CARTESIAN COORDINATES (ANGSTROEM)
---------------------------------
  C     -3.005830    5.982700   -6.353330
  C     -2.347710    7.184030   -6.281980
  C     -1.129790    7.457030   -6.938100
  N     -0.143310    7.739070   -7.453350
  C     -2.766520    8.293550   -5.518420
  N     -3.027320    9.223130   -4.896420
  C     -2.523920    4.791050   -7.043720
  C     -3.413020    3.722200   -6.773070
  C     -3.229040    2.459180   -7.278570
  C     -2.109930    2.238060   -8.089300
  C     -1.229580    3.312340   -8.357550
  C     -1.417500    4.591330   -7.847100
  S      0.081270    2.822640   -9.388330
  C     -0.561430    1.203300   -9.441680
  C     -1.699110    1.035340   -8.726370
  Br     0.328770   -0.113660  -10.437330
  C     -4.519720    4.213040   -5.929840
  O     -5.507980    3.579420   -5.598680
  C     -4.242850    5.633580   -5.685150
  C     -5.098950    6.521590   -5.077340
  C     -6.194000    6.245340   -4.251440
  S     -7.355090    7.543100   -3.971240
  C     -8.306940    6.615840   -2.861420
  C     -7.727890    5.359140   -2.685220
  C     -6.560530    5.153190   -3.471660
  S     -5.886780    3.612010   -3.116050
  C     -7.204380    3.374730   -1.981630
  N     -8.060280    4.319330   -1.874500
  C     -9.480320    7.148100   -2.273190
  C    -10.250990    6.451330   -1.404050
  C    -11.432450    6.993010   -0.815670
  C    -12.238170    6.340700    0.041130
  C    -11.999410    4.937470    0.503970
  C    -13.471100    6.982970    0.635230
  N    -13.654450    8.382340    0.357790
  C    -14.106540    8.873250   -0.819980
  C    -14.545040    8.146020   -1.876070
  C    -15.052400    8.728150   -3.063830
  S    -15.561640    7.708870   -4.386310
  C    -16.001190    9.052170   -5.419040
  C    -15.765840   10.243060   -4.730700
  C    -15.232460   10.050720   -3.428700
  S    -14.951430   11.597820   -2.690100
  C    -15.569070   12.333480   -4.159680
  N    -15.942600   11.542440   -5.086280
  C    -16.434610    8.868350   -6.738980
  C    -16.690690    9.922460   -7.571490
  C    -17.051050    9.784520   -8.917850
  C    -17.142080   10.807650   -9.827840
  C    -16.710590   12.179900   -9.735150
  C    -15.667910   12.671610   -8.986300
  C    -15.303500   14.031350   -8.947920
  N    -14.980720   15.129750   -8.852830
  C    -14.755030   11.881790   -8.256580
  N    -13.927730   11.305910   -7.706010
  C    -17.435370   12.931490  -10.758670
  C    -18.121880   12.013270  -11.592320
  C    -17.912430   10.640720  -11.078580
  O    -18.324600    9.604950  -11.554820
  C    -18.863000   12.413640  -12.676330
  C    -18.941060   13.785140  -12.944350
  C    -18.263130   14.693230  -12.098770
  C    -17.504220   14.288220  -11.006840
  S    -18.504000   16.338970  -12.603670
  C    -19.496040   15.790400  -13.928700
  C    -19.641630   14.446220  -13.991100
  Br   -20.247850   17.046070  -15.102690
  H     -3.925080    1.665560   -7.056480
  H     -0.721870    5.378180   -8.086200
  H     -2.228520    0.103080   -8.651400
  H     -4.937250    7.576660   -5.261600
  H     -7.275090    2.457660   -1.429540
  H     -9.745390    8.158430   -2.555440
  H     -9.948940    5.447850   -1.145630
  H    -11.677110    8.007010   -1.104140
  H    -11.683090    4.300010   -0.317600
  H    -12.901080    4.518580    0.944800
  H    -11.213100    4.920060    1.259280
  H    -13.436610    6.858150    1.723040
  H    -14.354860    6.440830    0.277420
  H    -13.177090    9.025270    0.968080
  H    -14.135530    9.953160   -0.868200
  H    -14.503710    7.068450   -1.864880
  H    -15.616280   13.402070   -4.235200
  H    -16.502820    7.852900   -7.106070
  H    -16.603140   10.914960   -7.155380
  H    -17.352700    8.806020   -9.275430
  H    -19.368620   11.692900  -13.299660
  H    -17.007710   15.017560  -10.388540
  H    -20.219070   13.939040  -14.742310

 Total Charge           Charge          ....    0
 Multiplicity           Mult            ....    1
 Number of Electrons    NEL             ....  554
 Basis Dimension        Dim             .... 1113

ORBITAL ENERGIES
----------------

  NO   OCC          E(Eh)            E(eV)
   0   2.0000    -482.883072    -13139.9164
   1   2.0000    -482.876067    -13139.7258
   2   2.0000     -88.976929     -2421.1853
   3   2.0000     -88.972889     -2421.0754
   4   2.0000     -88.971834     -2421.0467
   5   2.0000     -88.969316     -2420.9782
   6   2.0000     -88.966397     -2420.8987
   7   2.0000     -88.963765     -2420.8271
   8   2.0000     -62.560755     -1702.3647
   9   2.0000     -62.553790     -1702.1752
  10   2.0000     -56.394703     -1534.5779
  11   2.0000     -56.391995     -1534.5042
  12   2.0000     -56.391962     -1534.5033
  13   2.0000     -56.387727     -1534.3881
  14   2.0000     -56.385037     -1534.3149
  15   2.0000     -56.384996     -1534.3138
  16   2.0000     -19.212631      -522.8023
  17   2.0000     -19.195353      -522.3321
  18   2.0000     -14.458008      -393.4224
  19   2.0000     -14.425290      -392.5321
  20   2.0000     -14.422239      -392.4491
  21   2.0000     -14.410350      -392.1256
  22   2.0000     -14.409542      -392.1036
  23   2.0000     -14.399970      -391.8431
  24   2.0000     -14.393632      -391.6706
  25   2.0000     -10.361189      -281.9423
  26   2.0000     -10.355561      -281.7892
  27   2.0000     -10.347156      -281.5604
  28   2.0000     -10.346983      -281.5557
  29   2.0000     -10.346536      -281.5436
  30   2.0000     -10.343431      -281.4591
  31   2.0000     -10.336815      -281.2790
  32   2.0000     -10.336146      -281.2608
  33   2.0000     -10.335561      -281.2449
  34   2.0000     -10.333692      -281.1940
  35   2.0000     -10.333616      -281.1920
  36   2.0000     -10.326709      -281.0040
  37   2.0000     -10.323292      -280.9111
  38   2.0000     -10.322673      -280.8942
  39   2.0000     -10.322630      -280.8931
  40   2.0000     -10.321899      -280.8732
  41   2.0000     -10.321031      -280.8495
  42   2.0000     -10.319891      -280.8185
  43   2.0000     -10.317794      -280.7614
  44   2.0000     -10.315591      -280.7015
  45   2.0000     -10.313535      -280.6455
  46   2.0000     -10.312810      -280.6258
  47   2.0000     -10.312404      -280.6148
  48   2.0000     -10.304709      -280.4054
  49   2.0000     -10.303713      -280.3783
  50   2.0000     -10.303527      -280.3732
  51   2.0000     -10.303462      -280.3715
  52   2.0000     -10.302823      -280.3541
  53   2.0000     -10.302190      -280.3369
  54   2.0000     -10.301171      -280.3091
  55   2.0000     -10.298051      -280.2242
  56   2.0000     -10.297456      -280.2080
  57   2.0000     -10.296706      -280.1876
  58   2.0000     -10.294872      -280.1377
  59   2.0000     -10.293852      -280.1099
  60   2.0000     -10.293827      -280.1093
  61   2.0000     -10.293537      -280.1014
  62   2.0000     -10.293281      -280.0944
  63   2.0000     -10.291570      -280.0479
  64   2.0000     -10.290988      -280.0320
  65   2.0000     -10.290929      -280.0304
  66   2.0000     -10.287784      -279.9448
  67   2.0000     -10.286967      -279.9226
  68   2.0000     -10.285650      -279.8868
  69   2.0000     -10.283418      -279.8260
  70   2.0000     -10.279521      -279.7200
  71   2.0000     -10.278759      -279.6993
  72   2.0000     -10.276992      -279.6512
  73   2.0000     -10.272076      -279.5174
  74   2.0000     -10.265566      -279.3403
  75   2.0000      -8.790158      -239.1924
  76   2.0000      -8.783211      -239.0033
  77   2.0000      -8.072220      -219.6563
  78   2.0000      -8.067908      -219.5389
  79   2.0000      -8.067768      -219.5351
  80   2.0000      -8.065037      -219.4608
  81   2.0000      -8.061713      -219.3704
  82   2.0000      -8.059785      -219.3179
  83   2.0000      -6.626435      -180.3145
  84   2.0000      -6.619463      -180.1247
  85   2.0000      -6.611911      -179.9193
  86   2.0000      -6.611700      -179.9135
  87   2.0000      -6.604956      -179.7300
  88   2.0000      -6.604803      -179.7258
  89   2.0000      -6.041478      -164.3970
  90   2.0000      -6.037599      -164.2914
  91   2.0000      -6.037434      -164.2869
  92   2.0000      -6.037196      -164.2805
  93   2.0000      -6.034542      -164.2082
  94   2.0000      -6.034289      -164.2013
  95   2.0000      -6.033321      -164.1750
  96   2.0000      -6.032763      -164.1598
  97   2.0000      -6.031047      -164.1131
  98   2.0000      -6.030497      -164.0982
  99   2.0000      -6.029752      -164.0779
 100   2.0000      -6.029495      -164.0709
 101   2.0000      -6.029106      -164.0603
 102   2.0000      -6.027081      -164.0052
 103   2.0000      -6.026575      -163.9914
 104   2.0000      -6.025210      -163.9543
 105   2.0000      -6.023604      -163.9106
 106   2.0000      -6.020986      -163.8394
 107   2.0000      -2.742329       -74.6226
 108   2.0000      -2.738202       -74.5103
 109   2.0000      -2.738102       -74.5076
 110   2.0000      -2.735336       -74.4323
 111   2.0000      -2.731263       -74.3215
 112   2.0000      -2.731149       -74.3183
 113   2.0000      -2.726536       -74.1928
 114   2.0000      -2.726519       -74.1923
 115   2.0000      -2.719628       -74.0048
 116   2.0000      -2.719610       -74.0043
 117   2.0000      -1.127427       -30.6788
 118   2.0000      -1.109577       -30.1931
 119   2.0000      -1.079406       -29.3721
 120   2.0000      -1.076491       -29.2928
 121   2.0000      -1.057377       -28.7727
 122   2.0000      -1.018562       -27.7165
 123   2.0000      -1.008786       -27.4505
 124   2.0000      -1.008329       -27.4380
 125   2.0000      -0.996988       -27.1294
 126   2.0000      -0.993821       -27.0432
 127   2.0000      -0.988841       -26.9077
 128   2.0000      -0.984282       -26.7837
 129   2.0000      -0.983719       -26.7683
 130   2.0000      -0.976070       -26.5602
 131   2.0000      -0.972237       -26.4559
 132   2.0000      -0.941360       -25.6157
 133   2.0000      -0.935699       -25.4617
 134   2.0000      -0.930613       -25.3233
 135   2.0000      -0.922530       -25.1033
 136   2.0000      -0.918323       -24.9888
 137   2.0000      -0.904334       -24.6082
 138   2.0000      -0.895977       -24.3808
 139   2.0000      -0.895711       -24.3735
 140   2.0000      -0.892247       -24.2793
 141   2.0000      -0.886986       -24.1361
 142   2.0000      -0.881667       -23.9914
 143   2.0000      -0.877251       -23.8712
 144   2.0000      -0.871900       -23.7256
 145   2.0000      -0.865708       -23.5571
 146   2.0000      -0.860940       -23.4274
 147   2.0000      -0.836312       -22.7572
 148   2.0000      -0.834786       -22.7157
 149   2.0000      -0.829909       -22.5830
 150   2.0000      -0.825757       -22.4700
 151   2.0000      -0.820658       -22.3312
 152   2.0000      -0.815551       -22.1923
 153   2.0000      -0.806261       -21.9395
 154   2.0000      -0.787804       -21.4372
 155   2.0000      -0.781559       -21.2673
 156   2.0000      -0.757337       -20.6082
 157   2.0000      -0.753735       -20.5102
 158   2.0000      -0.751228       -20.4420
 159   2.0000      -0.740880       -20.1604
 160   2.0000      -0.716083       -19.4856
 161   2.0000      -0.712865       -19.3981
 162   2.0000      -0.710383       -19.3305
 163   2.0000      -0.706101       -19.2140
 164   2.0000      -0.696297       -18.9472
 165   2.0000      -0.689827       -18.7712
 166   2.0000      -0.685814       -18.6620
 167   2.0000      -0.685282       -18.6475
 168   2.0000      -0.680494       -18.5172
 169   2.0000      -0.670663       -18.2497
 170   2.0000      -0.660468       -17.9722
 171   2.0000      -0.655788       -17.8449
 172   2.0000      -0.651557       -17.7298
 173   2.0000      -0.649383       -17.6706
 174   2.0000      -0.638529       -17.3753
 175   2.0000      -0.631706       -17.1896
 176   2.0000      -0.627869       -17.0852
 177   2.0000      -0.622351       -16.9350
 178   2.0000      -0.618916       -16.8416
 179   2.0000      -0.612130       -16.6569
 180   2.0000      -0.608060       -16.5461
 181   2.0000      -0.599153       -16.3038
 182   2.0000      -0.594255       -16.1705
 183   2.0000      -0.590584       -16.0706
 184   2.0000      -0.583080       -15.8664
 185   2.0000      -0.580153       -15.7868
 186   2.0000      -0.578658       -15.7461
 187   2.0000      -0.570473       -15.5234
 188   2.0000      -0.566900       -15.4261
 189   2.0000      -0.553197       -15.0532
 190   2.0000      -0.549232       -14.9454
 191   2.0000      -0.546433       -14.8692
 192   2.0000      -0.545366       -14.8402
 193   2.0000      -0.543726       -14.7955
 194   2.0000      -0.540012       -14.6945
 195   2.0000      -0.538535       -14.6543
 196   2.0000      -0.536277       -14.5928
 197   2.0000      -0.535091       -14.5606
 198   2.0000      -0.533085       -14.5060
 199   2.0000      -0.529442       -14.4068
 200   2.0000      -0.529221       -14.4008
 201   2.0000      -0.527502       -14.3541
 202   2.0000      -0.525484       -14.2991
 203   2.0000      -0.521611       -14.1938
 204   2.0000      -0.518692       -14.1143
 205   2.0000      -0.514506       -14.0004
 206   2.0000      -0.513810       -13.9815
 207   2.0000      -0.509203       -13.8561
 208   2.0000      -0.506791       -13.7905
 209   2.0000      -0.504678       -13.7330
 210   2.0000      -0.497663       -13.5421
 211   2.0000      -0.495863       -13.4931
 212   2.0000      -0.492217       -13.3939
 213   2.0000      -0.490823       -13.3560
 214   2.0000      -0.490366       -13.3435
 215   2.0000      -0.489233       -13.3127
 216   2.0000      -0.482381       -13.1263
 217   2.0000      -0.480520       -13.0756
 218   2.0000      -0.478804       -13.0289
 219   2.0000      -0.477255       -12.9868
 220   2.0000      -0.476159       -12.9569
 221   2.0000      -0.470270       -12.7967
 222   2.0000      -0.464345       -12.6355
 223   2.0000      -0.459943       -12.5157
 224   2.0000      -0.458235       -12.4692
 225   2.0000      -0.456835       -12.4311
 226   2.0000      -0.455549       -12.3961
 227   2.0000      -0.450310       -12.2536
 228   2.0000      -0.448188       -12.1958
 229   2.0000      -0.444816       -12.1041
 230   2.0000      -0.443838       -12.0774
 231   2.0000      -0.442501       -12.0411
 232   2.0000      -0.439167       -11.9503
 233   2.0000      -0.439066       -11.9476
 234   2.0000      -0.437628       -11.9085
 235   2.0000      -0.435602       -11.8533
 236   2.0000      -0.435105       -11.8398
 237   2.0000      -0.432266       -11.7626
 238   2.0000      -0.431924       -11.7533
 239   2.0000      -0.431023       -11.7287
 240   2.0000      -0.428022       -11.6471
 241   2.0000      -0.426733       -11.6120
 242   2.0000      -0.423922       -11.5355
 243   2.0000      -0.422010       -11.4835
 244   2.0000      -0.421765       -11.4768
 245   2.0000      -0.418468       -11.3871
 246   2.0000      -0.417618       -11.3640
 247   2.0000      -0.408607       -11.1188
 248   2.0000      -0.407727       -11.0948
 249   2.0000      -0.404001       -10.9934
 250   2.0000      -0.403467       -10.9789
 251   2.0000      -0.393632       -10.7113
 252   2.0000      -0.392143       -10.6707
 253   2.0000      -0.386662       -10.5216
 254   2.0000      -0.384825       -10.4716
 255   2.0000      -0.377318       -10.2673
 256   2.0000      -0.372519       -10.1367
 257   2.0000      -0.370208       -10.0739
 258   2.0000      -0.366168        -9.9639
 259   2.0000      -0.365745        -9.9524
 260   2.0000      -0.361949        -9.8491
 261   2.0000      -0.354520        -9.6470
 262   2.0000      -0.350124        -9.5274
 263   2.0000      -0.346045        -9.4164
 264   2.0000      -0.332133        -9.0378
 265   2.0000      -0.327018        -8.8986
 266   2.0000      -0.323465        -8.8019
 267   2.0000      -0.318924        -8.6784
 268   2.0000      -0.317800        -8.6478
 269   2.0000      -0.314960        -8.5705
 270   2.0000      -0.309915        -8.4332
 271   2.0000      -0.301980        -8.2173
 272   2.0000      -0.294193        -8.0054
 273   2.0000      -0.289918        -7.8891
 274   2.0000      -0.280072        -7.6211
 275   2.0000      -0.257333        -7.0024
 276   2.0000      -0.231516        -6.2999
 277   0.0000      -0.095208        -2.5907
 278   0.0000      -0.083698        -2.2775
 279   0.0000      -0.064058        -1.7431
 280   0.0000      -0.047876        -1.3028
 281   0.0000      -0.031590        -0.8596

MULLIKEN ATOMIC CHARGES
-----------------------
   0 C :    0.311365
   1 C :   -0.347926
   2 C :   -0.184927
   3 N :    0.146444
   4 C :   -0.204542
   5 N :    0.154758
   6 C :    0.012949
   7 C :   -0.007861
   8 C :   -0.077024
   9 C :    0.119607
  10 C :   -0.091999
  11 C :   -0.022636
  12 S :    0.184604
  13 C :   -0.122561
  14 C :    0.036552
  15 Br:    0.020188
  16 C :    0.133261
  17 O :   -0.180703
  18 C :   -0.103203
  19 C :    0.034828
  20 C :   -0.210493
  21 S :    0.180540
  22 C :   -0.118087
  23 C :    0.051102
  24 C :    0.030511
  25 S :    0.174823
  26 C :    0.010271
  27 N :   -0.063769
  28 C :    0.021344
  29 C :    0.024219
  30 C :    0.025977
  31 C :   -0.224248
  32 C :    0.081166
  33 C :    0.193713
  34 N :   -0.149509
  35 C :    0.053602
  36 C :    0.000039
  37 C :   -0.167476
  38 S :    0.148670
  39 C :   -0.148766
  40 C :    0.098841
  41 C :   -0.030683
  42 S :    0.070578
  43 C :    0.042270
  44 N :   -0.048150
  45 C :    0.041060
  46 C :   -0.009704
  47 C :    0.038506
  48 C :   -0.124158
  49 C :    0.281847
  50 C :   -0.338402
  51 C :   -0.185470
  52 N :    0.133398
  53 C :   -0.212375
  54 N :    0.160615
  55 C :    0.007801
  56 C :   -0.007752
  57 C :    0.138775
  58 O :   -0.153179
  59 C :   -0.074587
  60 C :    0.113153
  61 C :   -0.089970
  62 C :   -0.024561
  63 S :    0.176745
  64 C :   -0.125336
  65 C :    0.039118
  66 Br:    0.013367
  67 H :   -0.014578
  68 H :   -0.007183
  69 H :   -0.005339
  70 H :    0.020947
  71 H :    0.041271
  72 H :   -0.019366
  73 H :    0.007286
  74 H :   -0.022617
  75 H :    0.046360
  76 H :    0.013428
  77 H :    0.044725
  78 H :    0.031054
  79 H :    0.037925
  80 H :    0.131771
  81 H :    0.008420
  82 H :   -0.026955
  83 H :    0.054527
  84 H :   -0.014652
  85 H :    0.038200
  86 H :    0.006101
  87 H :   -0.013319
  88 H :   -0.008995
  89 H :   -0.005564
Sum of atomic charges:   -0.0000000

LOEWDIN ATOMIC CHARGES
----------------------
   0 C :    0.076968
   1 C :   -0.145039
   2 C :   -0.018426
   3 N :   -0.057095
   4 C :   -0.024607
   5 N :   -0.054852
   6 C :   -0.021337
   7 C :   -0.048003
   8 C :    0.017442
   9 C :   -0.033571
  10 C :   -0.145837
  11 C :   -0.009782
  12 S :    0.431384
  13 C :   -0.272734
  14 C :   -0.071225
  15 Br:    0.134336
  16 C :    0.069062
  17 O :   -0.173703
  18 C :   -0.112093
  19 C :    0.040655
  20 C :   -0.201422
  21 S :    0.478224
  22 C :   -0.135193
  23 C :   -0.075533
  24 C :   -0.171346
  25 S :    0.467331
  26 C :   -0.105018
  27 N :   -0.094398
  28 C :   -0.053883
  29 C :    0.020735
  30 C :   -0.056786
  31 C :   -0.022539
  32 C :   -0.048999
  33 C :    0.036255
  34 N :    0.005563
  35 C :    0.047216
  36 C :   -0.144514
  37 C :   -0.150029
  38 S :    0.450309
  39 C :   -0.200661
  40 C :   -0.034281
  41 C :   -0.227104
  42 S :    0.372072
  43 C :   -0.078180
  44 N :   -0.073731
  45 C :    0.018592
  46 C :   -0.041720
  47 C :    0.067573
  48 C :   -0.109157
  49 C :    0.070871
  50 C :   -0.147552
  51 C :   -0.017974
  52 N :   -0.068757
  53 C :   -0.020157
  54 N :   -0.061354
  55 C :   -0.015652
  56 C :   -0.050945
  57 C :    0.078896
  58 O :   -0.155889
  59 C :    0.018389
  60 C :   -0.036942
  61 C :   -0.145005
  62 C :   -0.016467
  63 S :    0.425387
  64 C :   -0.275408
  65 C :   -0.070572
  66 Br:    0.128979
  67 H :    0.039183
  68 H :    0.040860
  69 H :    0.037975
  70 H :    0.044749
  71 H :    0.019970
  72 H :    0.030165
  73 H :    0.029937
  74 H :    0.025347
  75 H :    0.042291
  76 H :    0.030245
  77 H :    0.045781
  78 H :    0.037869
  79 H :    0.037966
  80 H :    0.084238
  81 H :    0.019118
  82 H :    0.025089
  83 H :    0.025829
  84 H :    0.033019
  85 H :    0.032617
  86 H :    0.040501
  87 H :    0.039475
  88 H :    0.039308
  89 H :    0.037697

  Mayer bond orders larger than 0.100000
B(  0-C ,  1-C ) :   1.6248 B(  0-C ,  6-C ) :   0.9984 B(  0-C , 18-C ) :   1.0870
B(  1-C ,  2-C ) :   1.1432 B(  1-C ,  4-C ) :   1.1430 B(  2-C ,  3-N ) :   2.9698
B(  4-C ,  5-N ) :   2.9880 B(  6-C ,  7-C ) :   1.2761 B(  6-C , 11-C ) :   1.4160
B(  7-C ,  8-C ) :   1.4276 B(  7-C , 16-C ) :   0.9360 B(  8-C ,  9-C ) :   1.2410
B(  8-C , 67-H ) :   1.0163 B(  9-C , 10-C ) :   1.3125 B(  9-C , 14-C ) :   1.1617
B( 10-C , 11-C ) :   1.3245 B( 10-C , 12-S ) :   1.0835 B( 11-C , 68-H ) :   0.9802
B( 12-S , 13-C ) :   1.0878 B( 13-C , 14-C ) :   1.6182 B( 13-C , 15-Br) :   1.0170
B( 14-C , 69-H ) :   1.0003 B( 16-C , 17-O ) :   2.1495 B( 16-C , 18-C ) :   0.9936
B( 18-C , 19-C ) :   1.5084 B( 19-C , 20-C ) :   1.2817 B( 19-C , 70-H ) :   0.9261
B( 20-C , 21-S ) :   1.0869 B( 20-C , 24-C ) :   1.4122 B( 21-S , 22-C ) :   1.1726
B( 22-C , 23-C ) :   1.3679 B( 22-C , 28-C ) :   1.1273 B( 23-C , 24-C ) :   1.2790
B( 23-C , 27-N ) :   1.3032 B( 24-C , 25-S ) :   1.1103 B( 25-S , 26-C ) :   1.1113
B( 26-C , 27-N ) :   1.7497 B( 26-C , 71-H ) :   0.9637 B( 28-C , 29-C ) :   1.6599
B( 28-C , 72-H ) :   0.9680 B( 29-C , 30-C ) :   1.1159 B( 29-C , 73-H ) :   0.9524
B( 30-C , 31-C ) :   1.7630 B( 30-C , 74-H ) :   0.9661 B( 31-C , 32-C ) :   1.0821
B( 31-C , 33-C ) :   1.0022 B( 32-C , 75-H ) :   0.9451 B( 32-C , 76-H ) :   0.9548
B( 32-C , 77-H ) :   0.9456 B( 33-C , 34-N ) :   1.0448 B( 33-C , 78-H ) :   0.9366
B( 33-C , 79-H ) :   0.9121 B( 34-N , 35-C ) :   1.2330 B( 34-N , 80-H ) :   0.9384
B( 35-C , 36-C ) :   1.6191 B( 35-C , 81-H ) :   0.9609 B( 36-C , 37-C ) :   1.1674
B( 36-C , 82-H ) :   0.9466 B( 37-C , 38-S ) :   1.1614 B( 37-C , 41-C ) :   1.4716
B( 38-S , 39-C ) :   1.0696 B( 39-C , 40-C ) :   1.3795 B( 39-C , 45-C ) :   1.2006
B( 40-C , 41-C ) :   1.2801 B( 40-C , 44-N ) :   1.2925 B( 41-C , 42-S ) :   1.0378
B( 42-S , 43-C ) :   1.0949 B( 42-S , 44-N ) :   0.1065 B( 43-C , 44-N ) :   1.7667
B( 43-C , 83-H ) :   0.9624 B( 45-C , 46-C ) :   1.5724 B( 45-C , 84-H ) :   0.9680
B( 46-C , 47-C ) :   1.1883 B( 46-C , 85-H ) :   0.9384 B( 47-C , 48-C ) :   1.5270
B( 47-C , 86-H ) :   0.9644 B( 48-C , 49-C ) :   1.0775 B( 48-C , 57-C ) :   0.9586
B( 49-C , 50-C ) :   1.6084 B( 49-C , 55-C ) :   1.0109 B( 50-C , 51-C ) :   1.1410
B( 50-C , 53-C ) :   1.1617 B( 51-C , 52-N ) :   2.9756 B( 53-C , 54-N ) :   3.0063
B( 55-C , 56-C ) :   1.2772 B( 55-C , 62-C ) :   1.4221 B( 56-C , 57-C ) :   0.9173
B( 56-C , 59-C ) :   1.4310 B( 57-C , 58-O ) :   2.2628 B( 59-C , 60-C ) :   1.2472
B( 59-C , 87-H ) :   1.0161 B( 60-C , 61-C ) :   1.3169 B( 60-C , 65-C ) :   1.1608
B( 61-C , 62-C ) :   1.3197 B( 61-C , 63-S ) :   1.0810 B( 62-C , 88-H ) :   0.9824
B( 63-S , 64-C ) :   1.0850 B( 64-C , 65-C ) :   1.6219 B( 64-C , 66-Br) :   1.0122
B( 65-C , 89-H ) :   0.9998

-----------------------------------------------------------------------------
         ABSORPTION SPECTRUM VIA TRANSITION ELECTRIC DIPOLE MOMENTS
-----------------------------------------------------------------------------
State   Energy  Wavelength   fosc         T2         TX        TY        TZ
        (cm-1)    (nm)                  (au**2)     (au)      (au)      (au)
-----------------------------------------------------------------------------
   0   16090.1    621.5   0.904009557  18.49655   1.86109  -1.80669   3.43056
   1   18480.4    541.1   0.312765588   5.57163   1.68042   0.03137  -1.65735
   2   19764.5    506.0   1.139793361  18.98519  -3.38455   0.02500   2.74397
   3   24083.3    415.2   0.211117974   2.88592  -0.70831  -0.12348  -1.53915
   4   25057.9    399.1   0.128948759   1.69413   0.82506  -0.47937  -0.88522
   5   27058.3    369.6   0.259228139   3.15397   1.24778  -0.49421   1.16308
   6   27421.3    364.7   0.355758237   4.27112  -0.58162   1.33216   1.46908
   7   27559.0    362.9   0.061818352   0.73846  -0.48492   0.34016  -0.62258
   8   27806.4    359.6   0.051407031   0.60863   0.36599  -0.51292  -0.46000
   9   27880.8    358.7   0.066763680   0.78833  -0.24621   0.76247   0.38257
  10   29291.1    341.4   0.069853614   0.78511  -0.33599   0.66695  -0.47686
  11   29697.9    336.7   0.021922492   0.24302  -0.45937   0.12832   0.12464
  12   30305.4    330.0   0.001985306   0.02157  -0.09724   0.02391  -0.10742
  13   30345.9    329.5   0.017589323   0.19082  -0.01543  -0.10123   0.42466
  14   30923.5    323.4   0.001913206   0.02037   0.01946   0.03673   0.13653
  15   31014.8    322.4   0.077891743   0.82679  -0.33971  -0.84134   0.05946
  16   31851.3    314.0   0.000776406   0.00802   0.02549  -0.05921   0.06220
  17   32075.7    311.8   0.086713812   0.89000  -0.33126  -0.86593  -0.17445
  18   32450.2    308.2   0.109639121   1.11230   0.62017  -0.37842   0.76452
  19   32574.7    307.0   0.222492719   2.24860  -0.44260   1.42750   0.12232
  20   32764.9    305.2   0.275454141   2.76768   0.16243   1.48180   0.73863
  21   33192.7    301.3   0.014359207   0.14242   0.35153  -0.10481  -0.08865
  22   33481.5    298.7   0.001672072   0.01644   0.00927  -0.08635   0.09433
  23   33666.7    297.0   0.635754465   6.21677   1.42381  -0.88397   1.84611
  24   34044.6    293.7   0.128910688   1.24657  -0.04719  -1.11470  -0.04218
  25   34575.1    289.2   0.002281991   0.02173   0.14732  -0.00432  -0.00239
  26   36045.0    277.4   0.087234577   0.79675   0.52931   0.71822  -0.02721
  27   36276.9    275.7   0.013184313   0.11965   0.12526   0.19377  -0.25770
  28   36303.6    275.5   0.008812575   0.07992   0.16993   0.05754  -0.21846
  29   36468.0    274.2   0.072724798   0.65652  -0.14879   0.34590  -0.71745
  30   36662.7    272.8   0.038492722   0.34564   0.35864   0.04670   0.46351
  31   36926.8    270.8   0.080177454   0.71480  -0.38270   0.29742  -0.69274
  32   37519.5    266.5   0.027682253   0.24290  -0.39934  -0.01163  -0.28860
  33   37606.3    265.9   0.000177865   0.00156   0.02038   0.00829   0.03276
  34   37789.0    264.6   0.001899719   0.01655  -0.10214   0.00676  -0.07793
  35   37852.0    264.2   0.196558319   1.70954   1.08347   0.05975  -0.72942
  36   38212.5    261.7   0.015227873   0.13119  -0.14371  -0.33203  -0.01716
  37   38448.5    260.1   0.096546847   0.82667   0.15579  -0.85682   0.26129
  38   38571.2    259.3   0.007330231   0.06256  -0.12559   0.16086  -0.14463
  39   38903.1    257.0   0.167407867   1.41667   0.65190   0.91138   0.40135
  40   38957.6    256.7   0.063100524   0.53323   0.23172   0.68555   0.09775
  41   39654.3    252.2   0.021745070   0.18053   0.19354   0.36677   0.09247
  42   40294.0    248.2   0.114665498   0.93685   0.20383   0.92522  -0.19817

FINAL SINGLE POINT ENERGY     -9985.990222986746

DIPOLE MOMENT
-------------
                                X             Y             Z
Electronic contribution:     42.45900      16.37167    -161.22002
Nuclear contribution   :    -44.37010     -19.54680     165.48605
                        -----------------------------------------
Total Dipole Moment    :     -1.91110      -3.17514       4.26603
                        -----------------------------------------
Magnitude (a.u.)       :      5.65091
Magnitude (Debye)      :     14.36348

Rotational constants in cm-1:     0.000766     0.000203     0.000172
Rotational constants in MHz :    22.952396     6.075286     5.149360

                             ****ORCA TERMINATED NORMALLY****
TOTAL RUN TIME: 0 days 0 hours 8 minutes 16 seconds 536 msec
