                         Program Version 4.2.0 -  RELEASE  -
|  1> # ORCA input file
|  2> # SCF done       -182.073845361404          0.000414576040
|  3> ! CAM-B3LYP def2-SVP def2/J RIJCOSX Grid4 TightSCF
|  4> %maxcore 5000
|  5> %tddft
|  6>     Mode sTDDFT
|  7>     Ethresh 5.0
|  8>     maxcore 5000
|  9> end
| 10>
| 11> %pal
| 12>   nprocs 6
| 13>   end
| 14> * xyz 0 1
| 15>    C       -7.39667        -2.01546         1.20370
| 16>    C       -7.32694        -1.64910         2.52240
| 17>    C       -7.22294        -2.56234         3.59231
| 18>    N       -7.14477        -3.25720         4.50270
| 19>    C       -7.32253        -0.32018         2.99567
| 20>    N       -7.30405         0.73172         3.45656
| 21>    C       -7.32987        -3.37901         0.69557
| 22>    C       -7.30769        -3.33655        -0.71979
| 23>    C       -7.24460        -4.46896        -1.49484
| 24>    C       -7.20200        -5.70479        -0.84162
| 25>    C       -7.22828        -5.73845         0.57347
| 26>    C       -7.29145        -4.59327         1.35685
| 27>    S       -7.17189        -7.36794         1.17460
| 28>    C       -7.11367        -7.97292        -0.45979
| 29>    C       -7.13478        -7.00674        -1.40850
| 30>   Br       -7.02998        -9.82236        -0.75875
| 31>    C       -7.35716        -1.93266        -1.17595
| 32>    O       -7.33349        -1.55392        -2.32625
| 33>    C       -7.48798        -1.12038         0.06170
| 34>    C       -7.85788         0.18802         0.11077
| 35>    C       -7.87210         1.09123        -1.00581
| 36>    C       -6.82876         1.10345        -1.89534
| 37>    S       -6.93482         2.29947        -3.10307
| 38>    C       -8.47843         2.80077        -2.47793
| 39>    C       -8.86753         2.09045        -1.33297
| 40>    C      -10.14939         2.32526        -0.77901
| 41>    C      -10.52908         1.58727         0.47399
| 42>    C       -9.95345         2.28777         1.70985
| 43>    C      -11.01307         3.23749        -1.37566
| 44>    C      -12.45085         3.36619        -0.94003
| 45>    C      -12.66417         4.31225         0.24520
| 46>    C      -10.57176         4.01640        -2.47294
| 47>    C      -11.25625         5.03836        -3.23098
| 48>    C      -10.51642         5.46480        -4.29199
| 49>    S       -8.97257         4.72166        -4.43535
| 50>    C       -9.30429         3.76782        -3.02445
| 51>    C      -12.54352         5.63872        -2.92970
| 52>    C      -13.45964         5.93785        -3.86291
| 53>    C      -14.75462         6.52645        -3.60867
| 54>    C      -15.66607         6.65427        -4.65292
| 55>    C      -16.93912         7.17226        -4.46527
| 56>    N      -17.74629         7.25397        -5.64577
| 57>    O      -17.49061         6.47938        -6.55017
| 58>    O      -18.62808         8.09279        -5.70990
| 59>    C      -17.39236         7.55923        -3.17554
| 60>    C      -16.43502         7.46217        -2.14452
| 61>    C      -15.17046         6.97818        -2.34487
| 62>    C      -18.73103         7.97317        -2.92617
| 63>    C      -19.39965         8.08417        -1.73607
| 64>    C      -20.76307         8.47952        -1.63518
| 65>    C      -21.27082         8.47496        -0.37348
| 66>    C      -20.34300         8.07778         0.61356
| 67>    S      -18.79776         7.71364        -0.12699
| 68>    C      -20.52654         7.97241         1.97686
| 69>    C      -21.68752         8.22517         2.73791
| 70>    C      -21.52438         8.02996         4.07638
| 71>    C      -20.22826         7.60881         4.46271
| 72>    S      -19.22079         7.47300         3.03078
| 73>    C      -19.83919         7.37532         5.75972
| 74>    C      -18.61664         6.95991         6.29706
| 75>    S      -18.50327         6.90374         8.05474
| 76>    C      -16.85286         6.36636         8.08315
| 77>    C      -16.40180         6.22046         6.77309
| 78>    C      -17.38073         6.54996         5.78625
| 79>    N      -16.78676         6.33144         4.58975
| 80>    N      -15.52576         5.90139         4.73674
| 81>    C      -15.26795         5.82550         6.01626
| 82>    C      -16.20349         6.15696         9.33559
| 83>    C      -14.93087         5.78076         9.49029
| 84>    H       -7.22824        -4.40229        -2.57138
| 85>    H       -7.31400        -4.67123         2.43095
| 86>    H       -7.10484        -7.20195        -2.46488
| 87>    H       -8.14006         0.59474         1.07007
| 88>    H       -5.95099         0.48942        -1.85041
| 89>    H      -10.15253         0.56285         0.41289
| 90>    H      -11.61014         1.52563         0.58378
| 91>    H       -8.88278         2.45253         1.61658
| 92>    H      -10.13488         1.69386         2.60296
| 93>    H      -10.41695         3.26112         1.84409
| 94>    H      -12.84745         2.38176        -0.68537
| 95>    H      -13.02924         3.72103        -1.79420
| 96>    H      -12.36654         3.84401         1.17827
| 97>    H      -13.71628         4.57765         0.32607
| 98>    H      -12.07997         5.22257         0.12745
| 99>    H      -10.78607         6.23310        -4.99019
|100>    H      -12.72654         5.87336        -1.89327
|101>    H      -13.26378         5.67467        -4.89427
|102>    H      -15.38770         6.34987        -5.65187
|103>    H      -16.70046         7.81113        -1.16043
|104>    H      -14.48744         6.95039        -1.51059
|105>    H      -19.33404         8.20132        -3.79385
|106>    H      -21.32188         8.75217        -2.51274
|107>    H      -22.28244         8.74289        -0.12637
|108>    H      -22.60631         8.54335         2.27956
|109>    H      -22.29994         8.17614         4.80749
|110>    H      -20.60896         7.55946         6.50027
|111>    H      -17.16351         6.45591         3.66517
|112>    H      -14.30647         5.49493         6.35104
|113>    H      -16.82313         6.33197        10.20567
|114>    H      -14.28295         5.60367         8.65134
|115>    H      -14.50740         5.64425        10.46905
|116> *
|117>
|118>                          ****END OF INPUT****

CARTESIAN COORDINATES (ANGSTROEM)
---------------------------------
  C     -7.396670   -2.015460    1.203700
  C     -7.326940   -1.649100    2.522400
  C     -7.222940   -2.562340    3.592310
  N     -7.144770   -3.257200    4.502700
  C     -7.322530   -0.320180    2.995670
  N     -7.304050    0.731720    3.456560
  C     -7.329870   -3.379010    0.695570
  C     -7.307690   -3.336550   -0.719790
  C     -7.244600   -4.468960   -1.494840
  C     -7.202000   -5.704790   -0.841620
  C     -7.228280   -5.738450    0.573470
  C     -7.291450   -4.593270    1.356850
  S     -7.171890   -7.367940    1.174600
  C     -7.113670   -7.972920   -0.459790
  C     -7.134780   -7.006740   -1.408500
  Br    -7.029980   -9.822360   -0.758750
  C     -7.357160   -1.932660   -1.175950
  O     -7.333490   -1.553920   -2.326250
  C     -7.487980   -1.120380    0.061700
  C     -7.857880    0.188020    0.110770
  C     -7.872100    1.091230   -1.005810
  C     -6.828760    1.103450   -1.895340
  S     -6.934820    2.299470   -3.103070
  C     -8.478430    2.800770   -2.477930
  C     -8.867530    2.090450   -1.332970
  C    -10.149390    2.325260   -0.779010
  C    -10.529080    1.587270    0.473990
  C     -9.953450    2.287770    1.709850
  C    -11.013070    3.237490   -1.375660
  C    -12.450850    3.366190   -0.940030
  C    -12.664170    4.312250    0.245200
  C    -10.571760    4.016400   -2.472940
  C    -11.256250    5.038360   -3.230980
  C    -10.516420    5.464800   -4.291990
  S     -8.972570    4.721660   -4.435350
  C     -9.304290    3.767820   -3.024450
  C    -12.543520    5.638720   -2.929700
  C    -13.459640    5.937850   -3.862910
  C    -14.754620    6.526450   -3.608670
  C    -15.666070    6.654270   -4.652920
  C    -16.939120    7.172260   -4.465270
  N    -17.746290    7.253970   -5.645770
  O    -17.490610    6.479380   -6.550170
  O    -18.628080    8.092790   -5.709900
  C    -17.392360    7.559230   -3.175540
  C    -16.435020    7.462170   -2.144520
  C    -15.170460    6.978180   -2.344870
  C    -18.731030    7.973170   -2.926170
  C    -19.399650    8.084170   -1.736070
  C    -20.763070    8.479520   -1.635180
  C    -21.270820    8.474960   -0.373480
  C    -20.343000    8.077780    0.613560
  S    -18.797760    7.713640   -0.126990
  C    -20.526540    7.972410    1.976860
  C    -21.687520    8.225170    2.737910
  C    -21.524380    8.029960    4.076380
  C    -20.228260    7.608810    4.462710
  S    -19.220790    7.473000    3.030780
  C    -19.839190    7.375320    5.759720
  C    -18.616640    6.959910    6.297060
  S    -18.503270    6.903740    8.054740
  C    -16.852860    6.366360    8.083150
  C    -16.401800    6.220460    6.773090
  C    -17.380730    6.549960    5.786250
  N    -16.786760    6.331440    4.589750
  N    -15.525760    5.901390    4.736740
  C    -15.267950    5.825500    6.016260
  C    -16.203490    6.156960    9.335590
  C    -14.930870    5.780760    9.490290
  H     -7.228240   -4.402290   -2.571380
  H     -7.314000   -4.671230    2.430950
  H     -7.104840   -7.201950   -2.464880
  H     -8.140060    0.594740    1.070070
  H     -5.950990    0.489420   -1.850410
  H    -10.152530    0.562850    0.412890
  H    -11.610140    1.525630    0.583780
  H     -8.882780    2.452530    1.616580
  H    -10.134880    1.693860    2.602960
  H    -10.416950    3.261120    1.844090
  H    -12.847450    2.381760   -0.685370
  H    -13.029240    3.721030   -1.794200
  H    -12.366540    3.844010    1.178270
  H    -13.716280    4.577650    0.326070
  H    -12.079970    5.222570    0.127450
  H    -10.786070    6.233100   -4.990190
  H    -12.726540    5.873360   -1.893270
  H    -13.263780    5.674670   -4.894270
  H    -15.387700    6.349870   -5.651870
  H    -16.700460    7.811130   -1.160430
  H    -14.487440    6.950390   -1.510590
  H    -19.334040    8.201320   -3.793850
  H    -21.321880    8.752170   -2.512740
  H    -22.282440    8.742890   -0.126370
  H    -22.606310    8.543350    2.279560
  H    -22.299940    8.176140    4.807490
  H    -20.608960    7.559460    6.500270
  H    -17.163510    6.455910    3.665170
  H    -14.306470    5.494930    6.351040
  H    -16.823130    6.331970   10.205670
  H    -14.282950    5.603670    8.651340
  H    -14.507400    5.644250   10.469050

 Total Charge           Charge          ....    0
 Multiplicity           Mult            ....    1
 Number of Electrons    NEL             ....  546
 Basis Dimension        Dim             .... 1168

ORBITAL ENERGIES
----------------

  NO   OCC          E(Eh)            E(eV)
   0   2.0000    -482.886852    -13140.0193
   1   2.0000     -88.976667     -2421.1782
   2   2.0000     -88.967849     -2420.9382
   3   2.0000     -88.962447     -2420.7912
   4   2.0000     -88.956009     -2420.6161
   5   2.0000     -88.951951     -2420.5057
   6   2.0000     -88.948560     -2420.4134
   7   2.0000     -62.564548     -1702.4679
   8   2.0000     -56.398504     -1534.6813
   9   2.0000     -56.395781     -1534.6072
  10   2.0000     -56.395750     -1534.6064
  11   2.0000     -19.232322      -523.3381
  12   2.0000     -19.230528      -523.2893
  13   2.0000     -19.215849      -522.8898
  14   2.0000     -14.637086      -398.2953
  15   2.0000     -14.481267      -394.0553
  16   2.0000     -14.438028      -392.8787
  17   2.0000     -14.416896      -392.3037
  18   2.0000     -14.415976      -392.2787
  19   2.0000     -10.368318      -282.1363
  20   2.0000     -10.360312      -281.9184
  21   2.0000     -10.342980      -281.4468
  22   2.0000     -10.342128      -281.4236
  23   2.0000     -10.327101      -281.0147
  24   2.0000     -10.322583      -280.8918
  25   2.0000     -10.319763      -280.8150
  26   2.0000     -10.319564      -280.8096
  27   2.0000     -10.319523      -280.8085
  28   2.0000     -10.318940      -280.7926
  29   2.0000     -10.318727      -280.7868
  30   2.0000     -10.317298      -280.7479
  31   2.0000     -10.313981      -280.6577
  32   2.0000     -10.312809      -280.6258
  33   2.0000     -10.311186      -280.5816
  34   2.0000     -10.310378      -280.5597
  35   2.0000     -10.309466      -280.5348
  36   2.0000     -10.309331      -280.5312
  37   2.0000     -10.308956      -280.5209
  38   2.0000     -10.307192      -280.4729
  39   2.0000     -10.302193      -280.3369
  40   2.0000     -10.301797      -280.3261
  41   2.0000     -10.301460      -280.3170
  42   2.0000     -10.301426      -280.3160
  43   2.0000     -10.300222      -280.2833
  44   2.0000     -10.297926      -280.2208
  45   2.0000     -10.297448      -280.2078
  46   2.0000     -10.296674      -280.1867
  47   2.0000     -10.293718      -280.1063
  48   2.0000     -10.293483      -280.0999
  49   2.0000     -10.292493      -280.0730
  50   2.0000     -10.290202      -280.0106
  51   2.0000     -10.289718      -279.9975
  52   2.0000     -10.289444      -279.9900
  53   2.0000     -10.288556      -279.9659
  54   2.0000     -10.285800      -279.8909
  55   2.0000     -10.284494      -279.8553
  56   2.0000     -10.284332      -279.8509
  57   2.0000     -10.283301      -279.8228
  58   2.0000     -10.282236      -279.7939
  59   2.0000     -10.281984      -279.7870
  60   2.0000     -10.281528      -279.7746
  61   2.0000     -10.279547      -279.7207
  62   2.0000     -10.279133      -279.7094
  63   2.0000     -10.279029      -279.7066
  64   2.0000     -10.277113      -279.6545
  65   2.0000     -10.276639      -279.6416
  66   2.0000     -10.275995      -279.6240
  67   2.0000     -10.275591      -279.6131
  68   2.0000     -10.270371      -279.4710
  69   2.0000     -10.267357      -279.3890
  70   2.0000     -10.264392      -279.3083
  71   2.0000     -10.257936      -279.1326
  72   2.0000     -10.253362      -279.0082
  73   2.0000      -8.793962      -239.2959
  74   2.0000      -8.072772      -219.6713
  75   2.0000      -8.062897      -219.4026
  76   2.0000      -8.058595      -219.2855
  77   2.0000      -8.052392      -219.1167
  78   2.0000      -8.048166      -219.0017
  79   2.0000      -8.044404      -218.8993
  80   2.0000      -6.630279      -180.4191
  81   2.0000      -6.615697      -180.0223
  82   2.0000      -6.615477      -180.0163
  83   2.0000      -6.042466      -164.4238
  84   2.0000      -6.038185      -164.3074
  85   2.0000      -6.033947      -164.1920
  86   2.0000      -6.032143      -164.1429
  87   2.0000      -6.028069      -164.0321
  88   2.0000      -6.027941      -164.0286
  89   2.0000      -6.025157      -163.9529
  90   2.0000      -6.023699      -163.9132
  91   2.0000      -6.022148      -163.8710
  92   2.0000      -6.020605      -163.8290
  93   2.0000      -6.018238      -163.7646
  94   2.0000      -6.017681      -163.7494
  95   2.0000      -6.014140      -163.6531
  96   2.0000      -6.013454      -163.6344
  97   2.0000      -6.013203      -163.6276
  98   2.0000      -6.010098      -163.5431
  99   2.0000      -6.009805      -163.5351
 100   2.0000      -6.005410      -163.4155
 101   2.0000      -2.746140       -74.7263
 102   2.0000      -2.742077       -74.6157
 103   2.0000      -2.741890       -74.6106
 104   2.0000      -2.730307       -74.2954
 105   2.0000      -2.730295       -74.2951
 106   2.0000      -1.309941       -35.6453
 107   2.0000      -1.145217       -31.1629
 108   2.0000      -1.131729       -30.7959
 109   2.0000      -1.127041       -30.6683
 110   2.0000      -1.024156       -27.8687
 111   2.0000      -1.014629       -27.6095
 112   2.0000      -1.006622       -27.3916
 113   2.0000      -1.000574       -27.2270
 114   2.0000      -0.995180       -27.0802
 115   2.0000      -0.990622       -26.9562
 116   2.0000      -0.988864       -26.9084
 117   2.0000      -0.980518       -26.6813
 118   2.0000      -0.976466       -26.5710
 119   2.0000      -0.971590       -26.4383
 120   2.0000      -0.943965       -25.6866
 121   2.0000      -0.927874       -25.2487
 122   2.0000      -0.924817       -25.1655
 123   2.0000      -0.915794       -24.9200
 124   2.0000      -0.909581       -24.7509
 125   2.0000      -0.906099       -24.6562
 126   2.0000      -0.899475       -24.4760
 127   2.0000      -0.888480       -24.1768
 128   2.0000      -0.887306       -24.1448
 129   2.0000      -0.883768       -24.0486
 130   2.0000      -0.875260       -23.8170
 131   2.0000      -0.873565       -23.7709
 132   2.0000      -0.861761       -23.4497
 133   2.0000      -0.856056       -23.2945
 134   2.0000      -0.853692       -23.2301
 135   2.0000      -0.848972       -23.1017
 136   2.0000      -0.840019       -22.8581
 137   2.0000      -0.830889       -22.6096
 138   2.0000      -0.826939       -22.5021
 139   2.0000      -0.824435       -22.4340
 140   2.0000      -0.819654       -22.3039
 141   2.0000      -0.809773       -22.0350
 142   2.0000      -0.791351       -21.5338
 143   2.0000      -0.787648       -21.4330
 144   2.0000      -0.783161       -21.3109
 145   2.0000      -0.764448       -20.8017
 146   2.0000      -0.761431       -20.7196
 147   2.0000      -0.756169       -20.5764
 148   2.0000      -0.734410       -19.9843
 149   2.0000      -0.720943       -19.6179
 150   2.0000      -0.715978       -19.4827
 151   2.0000      -0.709139       -19.2967
 152   2.0000      -0.707038       -19.2395
 153   2.0000      -0.702303       -19.1106
 154   2.0000      -0.702049       -19.1037
 155   2.0000      -0.696574       -18.9547
 156   2.0000      -0.695287       -18.9197
 157   2.0000      -0.693531       -18.8720
 158   2.0000      -0.688735       -18.7414
 159   2.0000      -0.678780       -18.4706
 160   2.0000      -0.676945       -18.4206
 161   2.0000      -0.660350       -17.9690
 162   2.0000      -0.659318       -17.9410
 163   2.0000      -0.649756       -17.6808
 164   2.0000      -0.646624       -17.5955
 165   2.0000      -0.636488       -17.3197
 166   2.0000      -0.634499       -17.2656
 167   2.0000      -0.626042       -17.0355
 168   2.0000      -0.625274       -17.0146
 169   2.0000      -0.621739       -16.9184
 170   2.0000      -0.618383       -16.8270
 171   2.0000      -0.613220       -16.6866
 172   2.0000      -0.612196       -16.6587
 173   2.0000      -0.602371       -16.3913
 174   2.0000      -0.600969       -16.3532
 175   2.0000      -0.597265       -16.2524
 176   2.0000      -0.589860       -16.0509
 177   2.0000      -0.588473       -16.0132
 178   2.0000      -0.581142       -15.8137
 179   2.0000      -0.577706       -15.7202
 180   2.0000      -0.569575       -15.4989
 181   2.0000      -0.562853       -15.3160
 182   2.0000      -0.557609       -15.1733
 183   2.0000      -0.554066       -15.0769
 184   2.0000      -0.552208       -15.0264
 185   2.0000      -0.547346       -14.8941
 186   2.0000      -0.546926       -14.8826
 187   2.0000      -0.545708       -14.8495
 188   2.0000      -0.541783       -14.7427
 189   2.0000      -0.538642       -14.6572
 190   2.0000      -0.533465       -14.5163
 191   2.0000      -0.533021       -14.5042
 192   2.0000      -0.531317       -14.4579
 193   2.0000      -0.527101       -14.3432
 194   2.0000      -0.525040       -14.2871
 195   2.0000      -0.523212       -14.2373
 196   2.0000      -0.520474       -14.1628
 197   2.0000      -0.514240       -13.9932
 198   2.0000      -0.511684       -13.9236
 199   2.0000      -0.508384       -13.8338
 200   2.0000      -0.505318       -13.7504
 201   2.0000      -0.502654       -13.6779
 202   2.0000      -0.501239       -13.6394
 203   2.0000      -0.499818       -13.6007
 204   2.0000      -0.498525       -13.5656
 205   2.0000      -0.496202       -13.5023
 206   2.0000      -0.494563       -13.4577
 207   2.0000      -0.489640       -13.3238
 208   2.0000      -0.485707       -13.2168
 209   2.0000      -0.483599       -13.1594
 210   2.0000      -0.481096       -13.0913
 211   2.0000      -0.479572       -13.0498
 212   2.0000      -0.476373       -12.9628
 213   2.0000      -0.472786       -12.8652
 214   2.0000      -0.469400       -12.7730
 215   2.0000      -0.467187       -12.7128
 216   2.0000      -0.465928       -12.6785
 217   2.0000      -0.462837       -12.5944
 218   2.0000      -0.460367       -12.5272
 219   2.0000      -0.459896       -12.5144
 220   2.0000      -0.458664       -12.4809
 221   2.0000      -0.456010       -12.4087
 222   2.0000      -0.454861       -12.3774
 223   2.0000      -0.450284       -12.2528
 224   2.0000      -0.449563       -12.2332
 225   2.0000      -0.447567       -12.1789
 226   2.0000      -0.445552       -12.1241
 227   2.0000      -0.444314       -12.0904
 228   2.0000      -0.443249       -12.0614
 229   2.0000      -0.442149       -12.0315
 230   2.0000      -0.439976       -11.9724
 231   2.0000      -0.438720       -11.9382
 232   2.0000      -0.435655       -11.8548
 233   2.0000      -0.431997       -11.7552
 234   2.0000      -0.430052       -11.7023
 235   2.0000      -0.428386       -11.6570
 236   2.0000      -0.427752       -11.6397
 237   2.0000      -0.426888       -11.6162
 238   2.0000      -0.423866       -11.5340
 239   2.0000      -0.420324       -11.4376
 240   2.0000      -0.419096       -11.4042
 241   2.0000      -0.413353       -11.2479
 242   2.0000      -0.409878       -11.1534
 243   2.0000      -0.406309       -11.0562
 244   2.0000      -0.400028       -10.8853
 245   2.0000      -0.398085       -10.8324
 246   2.0000      -0.389522       -10.5994
 247   2.0000      -0.389251       -10.5921
 248   2.0000      -0.382688       -10.4135
 249   2.0000      -0.376859       -10.2548
 250   2.0000      -0.376123       -10.2348
 251   2.0000      -0.374651       -10.1948
 252   2.0000      -0.373051       -10.1512
 253   2.0000      -0.368974       -10.0403
 254   2.0000      -0.365248        -9.9389
 255   2.0000      -0.360014        -9.7965
 256   2.0000      -0.357174        -9.7192
 257   2.0000      -0.349056        -9.4983
 258   2.0000      -0.343776        -9.3546
 259   2.0000      -0.342268        -9.3136
 260   2.0000      -0.338204        -9.2030
 261   2.0000      -0.333617        -9.0782
 262   2.0000      -0.329193        -8.9578
 263   2.0000      -0.324641        -8.8339
 264   2.0000      -0.319037        -8.6814
 265   2.0000      -0.316953        -8.6247
 266   2.0000      -0.316655        -8.6166
 267   2.0000      -0.300526        -8.1777
 268   2.0000      -0.294957        -8.0262
 269   2.0000      -0.271865        -7.3978
 270   2.0000      -0.267536        -7.2800
 271   2.0000      -0.256115        -6.9693
 272   2.0000      -0.207594        -5.6489
 273   0.0000      -0.087511        -2.3813
 274   0.0000      -0.085607        -2.3295
 275   0.0000      -0.056600        -1.5402
 276   0.0000      -0.047417        -1.2903
 277   0.0000      -0.025555        -0.6954

MULLIKEN ATOMIC CHARGES
-----------------------
   0 C :    0.295331
   1 C :   -0.343028
   2 C :   -0.188566
   3 N :    0.153356
   4 C :   -0.200581
   5 N :    0.163807
   6 C :    0.019377
   7 C :   -0.020343
   8 C :   -0.071009
   9 C :    0.117935
  10 C :   -0.089293
  11 C :   -0.022179
  12 S :    0.186222
  13 C :   -0.121360
  14 C :    0.036876
  15 Br:    0.025349
  16 C :    0.134520
  17 O :   -0.138883
  18 C :   -0.099401
  19 C :   -0.044543
  20 C :    0.041320
  21 C :   -0.035450
  22 S :    0.155436
  23 C :   -0.152451
  24 C :    0.129047
  25 C :   -0.114335
  26 C :    0.023404
  27 C :    0.044784
  28 C :   -0.109753
  29 C :    0.001813
  30 C :    0.025046
  31 C :    0.106014
  32 C :    0.068165
  33 C :   -0.117316
  34 S :    0.125243
  35 C :   -0.147590
  36 C :   -0.014841
  37 C :   -0.001563
  38 C :    0.111114
  39 C :   -0.078097
  40 C :    0.131944
  41 N :    0.250587
  42 O :   -0.241190
  43 O :   -0.240927
  44 C :    0.092074
  45 C :   -0.055932
  46 C :    0.009215
  47 C :   -0.084411
  48 C :   -0.002226
  49 C :    0.026164
  50 C :    0.038890
  51 C :   -0.051484
  52 S :    0.050349
  53 C :   -0.021655
  54 C :    0.020969
  55 C :    0.037159
  56 C :   -0.039034
  57 S :    0.022136
  58 C :    0.051007
  59 C :   -0.226526
  60 S :    0.141682
  61 C :   -0.123129
  62 C :    0.004179
  63 C :    0.163619
  64 N :   -0.046611
  65 N :   -0.056996
  66 C :   -0.015139
  67 C :    0.044033
  68 C :   -0.016454
  69 H :   -0.008137
  70 H :   -0.005540
  71 H :   -0.001209
  72 H :    0.023481
  73 H :    0.030818
  74 H :    0.007524
  75 H :   -0.005457
  76 H :    0.030686
  77 H :    0.022216
  78 H :    0.002651
  79 H :    0.013123
  80 H :    0.019930
  81 H :    0.019157
  82 H :    0.017462
  83 H :    0.021503
  84 H :    0.020861
  85 H :   -0.004446
  86 H :   -0.018283
  87 H :   -0.001906
  88 H :   -0.009642
  89 H :   -0.018882
  90 H :    0.007332
  91 H :   -0.005449
  92 H :   -0.013121
  93 H :   -0.012039
  94 H :   -0.009093
  95 H :   -0.016990
  96 H :    0.139752
  97 H :    0.001049
  98 H :   -0.011955
  99 H :    0.015969
 100 H :    0.032760
Sum of atomic charges:   -0.0000000

LOEWDIN ATOMIC CHARGES
----------------------
   0 C :    0.077277
   1 C :   -0.142224
   2 C :   -0.018670
   3 N :   -0.053717
   4 C :   -0.022952
   5 N :   -0.049497
   6 C :   -0.022132
   7 C :   -0.050130
   8 C :    0.021990
   9 C :   -0.031690
  10 C :   -0.143593
  11 C :   -0.009538
  12 S :    0.432730
  13 C :   -0.270827
  14 C :   -0.070321
  15 Br:    0.138081
  16 C :    0.080885
  17 O :   -0.135138
  18 C :   -0.100370
  19 C :    0.079896
  20 C :   -0.079737
  21 C :   -0.112060
  22 S :    0.448825
  23 C :   -0.179494
  24 C :   -0.035763
  25 C :   -0.018948
  26 C :   -0.031302
  27 C :   -0.049652
  28 C :   -0.016173
  29 C :   -0.031205
  30 C :   -0.053015
  31 C :   -0.041467
  32 C :   -0.060710
  33 C :   -0.165070
  34 S :    0.412027
  35 C :   -0.177000
  36 C :   -0.014737
  37 C :   -0.022262
  38 C :   -0.031675
  39 C :    0.005688
  40 C :   -0.032566
  41 N :    0.288918
  42 O :   -0.207975
  43 O :   -0.205941
  44 C :   -0.008432
  45 C :   -0.022908
  46 C :    0.007113
  47 C :   -0.071755
  48 C :   -0.128546
  49 C :   -0.032874
  50 C :   -0.029218
  51 C :   -0.192634
  52 S :    0.373790
  53 C :   -0.164256
  54 C :   -0.046015
  55 C :   -0.022112
  56 C :   -0.168325
  57 S :    0.369900
  58 C :   -0.059213
  59 C :   -0.213983
  60 S :    0.461280
  61 C :   -0.161519
  62 C :   -0.091867
  63 C :   -0.014974
  64 N :    0.090890
  65 N :   -0.051033
  66 C :   -0.040349
  67 C :   -0.044286
  68 C :   -0.029593
  69 H :    0.041501
  70 H :    0.041153
  71 H :    0.039459
  72 H :    0.043080
  73 H :    0.029002
  74 H :    0.026907
  75 H :    0.026812
  76 H :    0.024209
  77 H :    0.028131
  78 H :    0.024637
  79 H :    0.028936
  80 H :    0.032123
  81 H :    0.024989
  82 H :    0.026924
  83 H :    0.021588
  84 H :    0.024205
  85 H :    0.027959
  86 H :    0.029158
  87 H :    0.037174
  88 H :    0.014329
  89 H :    0.030614
  90 H :    0.033265
  91 H :    0.036300
  92 H :    0.032662
  93 H :    0.033180
  94 H :    0.034818
  95 H :    0.036830
  96 H :    0.056232
  97 H :    0.021515
  98 H :    0.030598
  99 H :    0.024046
 100 H :    0.029819

  Mayer bond orders larger than 0.100000
B(  0-C ,  1-C ) :   1.6496 B(  0-C ,  6-C ) :   1.0135 B(  0-C , 18-C ) :   1.0436
B(  1-C ,  2-C ) :   1.1348 B(  1-C ,  4-C ) :   1.1499 B(  2-C ,  3-N ) :   2.9749
B(  4-C ,  5-N ) :   2.9806 B(  6-C ,  7-C ) :   1.2706 B(  6-C , 11-C ) :   1.4056
B(  7-C ,  8-C ) :   1.4254 B(  7-C , 16-C ) :   0.9434 B(  8-C ,  9-C ) :   1.2468
B(  8-C , 69-H ) :   1.0168 B(  9-C , 10-C ) :   1.3030 B(  9-C , 14-C ) :   1.1640
B( 10-C , 11-C ) :   1.3343 B( 10-C , 12-S ) :   1.0852 B( 11-C , 70-H ) :   0.9805
B( 12-S , 13-C ) :   1.0859 B( 13-C , 14-C ) :   1.6167 B( 13-C , 15-Br) :   1.0197
B( 14-C , 71-H ) :   1.0007 B( 16-C , 17-O ) :   2.2343 B( 16-C , 18-C ) :   0.9285
B( 18-C , 19-C ) :   1.6647 B( 19-C , 20-C ) :   1.0596 B( 19-C , 72-H ) :   0.9276
B( 20-C , 21-C ) :   1.5654 B( 20-C , 24-C ) :   1.1456 B( 21-C , 22-S ) :   1.1710
B( 21-C , 73-H ) :   0.9581 B( 22-S , 23-C ) :   1.0658 B( 23-C , 24-C ) :   1.3787
B( 23-C , 35-C ) :   1.3852 B( 24-C , 25-C ) :   1.2606 B( 25-C , 26-C ) :   1.0704
B( 25-C , 28-C ) :   1.5058 B( 26-C , 27-C ) :   1.1110 B( 26-C , 74-H ) :   0.9139
B( 26-C , 75-H ) :   0.9072 B( 27-C , 76-H ) :   0.9555 B( 27-C , 77-H ) :   0.9655
B( 27-C , 78-H ) :   0.9481 B( 28-C , 29-C ) :   1.0514 B( 28-C , 31-C ) :   1.2719
B( 29-C , 30-C ) :   1.0989 B( 29-C , 79-H ) :   0.9238 B( 29-C , 80-H ) :   0.9202
B( 30-C , 81-H ) :   0.9613 B( 30-C , 82-H ) :   0.9633 B( 30-C , 83-H ) :   0.9580
B( 31-C , 32-C ) :   1.1538 B( 31-C , 35-C ) :   1.3634 B( 32-C , 33-C ) :   1.6224
B( 32-C , 36-C ) :   1.0081 B( 33-C , 34-S ) :   1.1087 B( 33-C , 84-H ) :   0.9650
B( 34-S , 35-C ) :   1.0806 B( 36-C , 37-C ) :   1.7653 B( 36-C , 85-H ) :   0.9426
B( 37-C , 38-C ) :   1.0678 B( 37-C , 86-H ) :   0.9864 B( 38-C , 39-C ) :   1.3030
B( 38-C , 46-C ) :   1.2949 B( 39-C , 40-C ) :   1.3663 B( 39-C , 87-H ) :   0.9980
B( 40-C , 41-N ) :   0.8952 B( 40-C , 44-C ) :   1.3230 B( 41-N , 42-O ) :   1.5482
B( 41-N , 43-O ) :   1.5062 B( 42-O , 43-O ) :   0.2580 B( 44-C , 45-C ) :   1.2767
B( 44-C , 47-C ) :   1.1404 B( 45-C , 46-C ) :   1.4666 B( 45-C , 88-H ) :   0.9648
B( 46-C , 89-H ) :   0.9873 B( 47-C , 48-C ) :   1.5670 B( 47-C , 90-H ) :   0.9561
B( 48-C , 49-C ) :   1.1449 B( 48-C , 52-S ) :   1.0343 B( 49-C , 50-C ) :   1.5882
B( 49-C , 91-H ) :   0.9996 B( 50-C , 51-C ) :   1.1876 B( 50-C , 92-H ) :   0.9925
B( 51-C , 52-S ) :   1.0263 B( 51-C , 53-C ) :   1.5036 B( 53-C , 54-C ) :   1.1975
B( 53-C , 57-S ) :   1.0536 B( 54-C , 55-C ) :   1.5755 B( 54-C , 93-H ) :   0.9916
B( 55-C , 56-C ) :   1.1622 B( 55-C , 94-H ) :   0.9987 B( 56-C , 57-S ) :   1.0059
B( 56-C , 58-C ) :   1.5904 B( 58-C , 59-C ) :   1.2149 B( 58-C , 95-H ) :   0.9301
B( 59-C , 60-S ) :   1.0984 B( 59-C , 61-C ) :   0.1080 B( 59-C , 63-C ) :   1.3223
B( 60-S , 61-C ) :   1.1608 B( 61-C , 62-C ) :   1.3361 B( 61-C , 67-C ) :   1.1340
B( 62-C , 63-C ) :   1.2650 B( 62-C , 66-C ) :   1.1553 B( 63-C , 64-N ) :   1.1662
B( 64-N , 65-N ) :   1.1358 B( 64-N , 96-H ) :   0.9320 B( 65-N , 66-C ) :   1.7408
B( 66-C , 97-H ) :   0.9972 B( 67-C , 68-C ) :   1.9064 B( 67-C , 98-H ) :   0.9516
B( 68-C , 99-H ) :   0.9556 B( 68-C ,100-H ) :   0.9484

-----------------------------------------------------------------------------
         ABSORPTION SPECTRUM VIA TRANSITION ELECTRIC DIPOLE MOMENTS
-----------------------------------------------------------------------------
State   Energy  Wavelength   fosc         T2         TX        TY        TZ
        (cm-1)    (nm)                  (au**2)     (au)      (au)      (au)
-----------------------------------------------------------------------------
   0   12822.5    779.9   1.136776197  29.18620   0.40220   0.15411  -5.38523
   1   19141.4    522.4   0.000381808   0.00657   0.07460  -0.02483   0.01960
   2   20227.4    494.4   0.120439529   1.96021  -1.17578   0.52846  -0.54634
   3   22256.7    449.3   0.531019942   7.85464  -0.71762   2.11236  -1.69635
   4   22997.0    434.8   0.236980165   3.39248  -1.72751   0.63882  -0.00980
   5   24466.2    408.7   0.031076684   0.41816   0.47086  -0.41618   0.15246
   6   25457.8    392.8   0.785003019  10.15140   3.02576  -0.99307   0.10003
   7   25707.6    389.0   0.000827100   0.01059  -0.01088  -0.10030  -0.02032
   8   26281.3    380.5   0.007194948   0.09013   0.08567   0.28771   0.00298
   9   27709.9    360.9   0.278565984   3.30955   1.74452  -0.50974  -0.07987
  10   28862.2    346.5   0.441370951   5.03442  -0.01878  -2.05295  -0.90524
  11   29125.4    343.3   0.071805881   0.81164   0.58392  -0.29650   0.61868
  12   30018.3    333.1   0.001288034   0.01413  -0.07269   0.08989  -0.02761
  13   30325.1    329.8   0.049732280   0.53990   0.14194  -0.70669   0.14261
  14   30630.8    326.5   0.035013628   0.37632  -0.01916  -0.36276  -0.49433
  15   30967.2    322.9   0.018085001   0.19226   0.05777  -0.37837  -0.21392
  16   31486.9    317.6   0.010640044   0.11125  -0.00104   0.33314   0.01626
  17   31746.3    315.0   0.002137993   0.02217   0.11813   0.03211   0.08477
  18   31869.2    313.8   0.014916279   0.15409   0.33853  -0.17758  -0.08917
  19   32916.8    303.8   0.014202358   0.14204   0.31680  -0.05703   0.19603
  20   33211.8    301.1   0.007249080   0.07186  -0.08639  -0.23992  -0.08265
  21   33261.4    300.6   0.002969431   0.02939   0.11197  -0.12671  -0.02824
  22   33752.8    296.3   0.005883199   0.05738   0.18118  -0.14636   0.05600
  23   33760.9    296.2   0.040324645   0.39322  -0.26394   0.02587  -0.56823
  24   34066.8    293.5   0.609530911   5.89034  -0.36302   2.38127   0.29680
  25   34155.5    292.8   0.346220302   3.33708  -0.29629  -0.14710  -1.79657
  26   34487.1    290.0   0.036924173   0.35248  -0.00204   0.09176   0.58656
  27   35095.1    284.9   0.058852998   0.55207   0.31991  -0.33354   0.58180
  28   35302.0    283.3   0.112553886   1.04963   0.85638  -0.49119   0.27383
  29   35559.4    281.2   0.118202179   1.09432   0.91226  -0.20611  -0.46865
  30   36239.6    275.9   0.034442818   0.31289   0.38472  -0.33997   0.22204
  31   36309.1    275.4   0.134736005   1.22164   1.07945  -0.23538   0.03196
  32   36925.1    270.8   0.077779710   0.69346  -0.51564   0.02790   0.65330
  33   37026.5    270.1   0.012466377   0.11084  -0.27161   0.10068  -0.16412
  34   37169.9    269.0   0.008242128   0.07300  -0.17174   0.04403  -0.20388
  35   37430.1    267.2   0.064589437   0.56809  -0.46609   0.41774  -0.41993
  36   37677.9    265.4   0.026063883   0.22773   0.09402   0.46782   0.00639
  37   38108.8    262.4   0.427797366   3.69563  -0.26729   1.84916  -0.45253
  38   38378.4    260.6   0.065885254   0.56517  -0.28669  -0.52893   0.45078
  39   38870.9    257.3   0.004869356   0.04124   0.19972   0.03422  -0.01354
  40   39008.2    256.4   0.074866101   0.63184   0.58413  -0.20546   0.49841
  41   39500.3    253.2   0.013122008   0.10936  -0.19654   0.16050  -0.21207
  42   39707.4    251.8   0.153835037   1.27544  -0.22810   0.45014  -1.01034
  43   39943.0    250.4   0.015168443   0.12502   0.17025  -0.01041   0.30972

FINAL SINGLE POINT ENERGY     -7535.351902593653

DIPOLE MOMENT
-------------
                                X             Y             Z
Electronic contribution:     85.44467    -166.82425     -26.47827
Nuclear contribution   :    -86.50759     166.55111      27.70205
                        -----------------------------------------
Total Dipole Moment    :     -1.06292      -0.27314       1.22378
                        -----------------------------------------
Magnitude (a.u.)       :      1.64379
Magnitude (Debye)      :      4.17819

Rotational constants in cm-1:     0.000855     0.000266     0.000228
Rotational constants in MHz :    25.625304     7.972094     6.834822

                             ****ORCA TERMINATED NORMALLY****
TOTAL RUN TIME: 0 days 0 hours 10 minutes 2 seconds 499 msec
