                         Program Version 4.2.0 -  RELEASE  -
|  1> # ORCA input file
|  2> # SCF done       -174.921971318995          0.000527269049
|  3> ! CAM-B3LYP def2-SVP def2/J RIJCOSX Grid4 TightSCF
|  4> %maxcore 5000
|  5> %tddft
|  6>     Mode sTDDFT
|  7>     Ethresh 5.0
|  8>     maxcore 5000
|  9> end
| 10>
| 11> %pal
| 12>   nprocs 6
| 13>   end
| 14> * xyz 0 1
| 15>    C       12.85732        -1.12458        -3.43567
| 16>    C       11.60933        -1.06601        -2.95338
| 17>    C       10.71762         0.05963        -2.96010
| 18>    C        9.51312        -0.17740        -2.39908
| 19>    C        9.34532        -1.50224        -1.90179
| 20>    S       10.80110        -2.44167        -2.18463
| 21>    C        8.24071        -2.02510        -1.28222
| 22>    C        7.00842        -1.37336        -1.00340
| 23>    C        6.10312        -2.15073        -0.36601
| 24>    C        6.54446        -3.48212        -0.09312
| 25>    S        8.19473        -3.67746        -0.68994
| 26>    C        5.78165        -4.45429         0.46865
| 27>    C        6.19090        -5.79570         0.79261
| 28>    C        7.47634        -6.04726         1.18874
| 29>    S        7.78759        -7.66616         1.64763
| 30>    C        6.14147        -8.08054         1.28437
| 31>    C        5.37772        -6.99854         0.81785
| 32>    C        4.04396        -7.24487         0.39719
| 33>    C        3.25334        -6.13541        -0.24967
| 34>    C        3.78972        -5.82418        -1.64825
| 35>    C        3.49606        -8.51617         0.50951
| 36>    C        2.09234        -8.81360         0.04744
| 37>    C        1.04590        -8.41329         1.08909
| 38>    C        4.25652        -9.57881         1.05394
| 39>    C        3.92115       -10.96630         1.25415
| 40>    C        4.97990       -11.68935         1.70078
| 41>    S        6.41828       -10.77365         1.94602
| 42>    C        5.59405        -9.34663         1.40616
| 43>    C        2.62943       -11.62890         1.04829
| 44>    C        1.61584       -11.58365         1.93464
| 45>    C        0.38324       -12.25753         1.74375
| 46>    C       -0.69412       -12.14528         2.57343
| 47>    C       -1.94927       -12.79851         2.43448
| 48>    C       -2.85125       -12.48147         3.39844
| 49>    C       -2.36854       -11.55593         4.35813
| 50>    S       -0.72169       -11.10774         3.99833
| 51>    C       -3.04584       -11.03170         5.44140
| 52>    C       -4.37599       -11.30489         5.83373
| 53>    C       -4.76308       -10.62078         6.94531
| 54>    C       -3.75660        -9.77895         7.47959
| 55>    S       -2.29653        -9.87587         6.53633
| 56>    C       -3.85655        -8.96879         8.58834
| 57>    C       -2.77421        -8.18957         9.00629
| 58>    S       -2.75818        -7.11274        10.38404
| 59>    C       -1.08541        -6.76740         9.92940
| 60>    N       -0.71551        -7.44245         8.85809
| 61>    N       -1.61494        -8.20491         8.35537
| 62>    C       -0.15673        -5.91323        10.54965
| 63>    C       -0.30581        -5.09723        11.63783
| 64>    C        0.72505        -4.24572        12.20365
| 65>    C        2.03918        -4.16198        11.81923
| 66>    C        2.98399        -3.30688        12.42408
| 67>    N        3.80110        -2.63352        12.86869
| 68>    C        2.65795        -4.90341        10.79057
| 69>    N        3.25737        -5.45750         9.98277
| 70>    C        0.12179        -3.48685        13.29479
| 71>    C       -1.23326        -3.87580        13.42558
| 72>    C       -1.54507        -4.89901        12.41079
| 73>    O       -2.61940        -5.44849        12.26107
| 74>    C       -2.07429        -3.34150        14.37069
| 75>    C       -1.55291        -2.37019        15.23165
| 76>    C       -0.19853        -1.98484        15.09392
| 77>    C        0.65144        -2.52746        14.13808
| 78>    S        0.24096        -0.76968        16.25603
| 79>    C       -1.37815        -0.79696        16.90200
| 80>    C       -2.20723        -1.66934        16.28144
| 81>   Br       -1.82188         0.32973        18.33435
| 82>    H       13.30841        -0.26372        -3.89681
| 83>    H       13.44394        -2.02305        -3.38004
| 84>    H       11.02489         0.99825        -3.38644
| 85>    H        8.72756         0.55308        -2.31813
| 86>    H        6.83403        -0.35194        -1.29093
| 87>    H        5.11787        -1.82763        -0.07803
| 88>    H        4.77407        -4.16401         0.72340
| 89>    H        8.26394        -5.32855         1.29843
| 90>    H        2.20523        -6.40714        -0.33560
| 91>    H        3.28631        -5.24363         0.37351
| 92>    H        3.71581        -6.70661        -2.28055
| 93>    H        4.83194        -5.51937        -1.61014
| 94>    H        3.21244        -5.02255        -2.10397
| 95>    H        2.00719        -9.88559        -0.13676
| 96>    H        1.88659        -8.31159        -0.89904
| 97>    H        1.24126        -8.91228         2.03348
| 98>    H        0.05131        -8.69547         0.75031
| 99>    H        1.05909        -7.34185         1.27141
|100>    H        4.98693       -12.73735         1.93086
|101>    H        2.54338       -12.25523         0.16672
|102>    H        1.72020       -10.99696         2.83774
|103>    H        0.28500       -12.89575         0.87491
|104>    H       -2.13543       -13.48071         1.62370
|105>    H       -3.84797       -12.88098         3.45031
|106>    H       -5.00857       -11.98856         5.29602
|107>    H       -5.73529       -10.69062         7.40054
|108>    H       -4.77876        -8.93154         9.14639
|109>    H        0.80280        -5.93600        10.04800
|110>    H       -3.10174        -3.66206        14.44298
|111>    H        1.67440        -2.19706        14.07540
|112>    H       -3.23749        -1.81383        16.55090
|113> *
|114>
|115>                          ****END OF INPUT****

CARTESIAN COORDINATES (ANGSTROEM)
---------------------------------
  C     12.857320   -1.124580   -3.435670
  C     11.609330   -1.066010   -2.953380
  C     10.717620    0.059630   -2.960100
  C      9.513120   -0.177400   -2.399080
  C      9.345320   -1.502240   -1.901790
  S     10.801100   -2.441670   -2.184630
  C      8.240710   -2.025100   -1.282220
  C      7.008420   -1.373360   -1.003400
  C      6.103120   -2.150730   -0.366010
  C      6.544460   -3.482120   -0.093120
  S      8.194730   -3.677460   -0.689940
  C      5.781650   -4.454290    0.468650
  C      6.190900   -5.795700    0.792610
  C      7.476340   -6.047260    1.188740
  S      7.787590   -7.666160    1.647630
  C      6.141470   -8.080540    1.284370
  C      5.377720   -6.998540    0.817850
  C      4.043960   -7.244870    0.397190
  C      3.253340   -6.135410   -0.249670
  C      3.789720   -5.824180   -1.648250
  C      3.496060   -8.516170    0.509510
  C      2.092340   -8.813600    0.047440
  C      1.045900   -8.413290    1.089090
  C      4.256520   -9.578810    1.053940
  C      3.921150  -10.966300    1.254150
  C      4.979900  -11.689350    1.700780
  S      6.418280  -10.773650    1.946020
  C      5.594050   -9.346630    1.406160
  C      2.629430  -11.628900    1.048290
  C      1.615840  -11.583650    1.934640
  C      0.383240  -12.257530    1.743750
  C     -0.694120  -12.145280    2.573430
  C     -1.949270  -12.798510    2.434480
  C     -2.851250  -12.481470    3.398440
  C     -2.368540  -11.555930    4.358130
  S     -0.721690  -11.107740    3.998330
  C     -3.045840  -11.031700    5.441400
  C     -4.375990  -11.304890    5.833730
  C     -4.763080  -10.620780    6.945310
  C     -3.756600   -9.778950    7.479590
  S     -2.296530   -9.875870    6.536330
  C     -3.856550   -8.968790    8.588340
  C     -2.774210   -8.189570    9.006290
  S     -2.758180   -7.112740   10.384040
  C     -1.085410   -6.767400    9.929400
  N     -0.715510   -7.442450    8.858090
  N     -1.614940   -8.204910    8.355370
  C     -0.156730   -5.913230   10.549650
  C     -0.305810   -5.097230   11.637830
  C      0.725050   -4.245720   12.203650
  C      2.039180   -4.161980   11.819230
  C      2.983990   -3.306880   12.424080
  N      3.801100   -2.633520   12.868690
  C      2.657950   -4.903410   10.790570
  N      3.257370   -5.457500    9.982770
  C      0.121790   -3.486850   13.294790
  C     -1.233260   -3.875800   13.425580
  C     -1.545070   -4.899010   12.410790
  O     -2.619400   -5.448490   12.261070
  C     -2.074290   -3.341500   14.370690
  C     -1.552910   -2.370190   15.231650
  C     -0.198530   -1.984840   15.093920
  C      0.651440   -2.527460   14.138080
  S      0.240960   -0.769680   16.256030
  C     -1.378150   -0.796960   16.902000
  C     -2.207230   -1.669340   16.281440
  Br    -1.821880    0.329730   18.334350
  H     13.308410   -0.263720   -3.896810
  H     13.443940   -2.023050   -3.380040
  H     11.024890    0.998250   -3.386440
  H      8.727560    0.553080   -2.318130
  H      6.834030   -0.351940   -1.290930
  H      5.117870   -1.827630   -0.078030
  H      4.774070   -4.164010    0.723400
  H      8.263940   -5.328550    1.298430
  H      2.205230   -6.407140   -0.335600
  H      3.286310   -5.243630    0.373510
  H      3.715810   -6.706610   -2.280550
  H      4.831940   -5.519370   -1.610140
  H      3.212440   -5.022550   -2.103970
  H      2.007190   -9.885590   -0.136760
  H      1.886590   -8.311590   -0.899040
  H      1.241260   -8.912280    2.033480
  H      0.051310   -8.695470    0.750310
  H      1.059090   -7.341850    1.271410
  H      4.986930  -12.737350    1.930860
  H      2.543380  -12.255230    0.166720
  H      1.720200  -10.996960    2.837740
  H      0.285000  -12.895750    0.874910
  H     -2.135430  -13.480710    1.623700
  H     -3.847970  -12.880980    3.450310
  H     -5.008570  -11.988560    5.296020
  H     -5.735290  -10.690620    7.400540
  H     -4.778760   -8.931540    9.146390
  H      0.802800   -5.936000   10.048000
  H     -3.101740   -3.662060   14.442980
  H      1.674400   -2.197060   14.075400
  H     -3.237490   -1.813830   16.550900

 Total Charge           Charge          ....    0
 Multiplicity           Mult            ....    1
 Number of Electrons    NEL             ....  548
 Basis Dimension        Dim             .... 1143

ORBITAL ENERGIES
----------------

  NO   OCC          E(Eh)            E(eV)
   0   2.0000    -482.884405    -13139.9527
   1   2.0000     -88.973864     -2421.1019
   2   2.0000     -88.961922     -2420.7770
   3   2.0000     -88.951654     -2420.4976
   4   2.0000     -88.943936     -2420.2875
   5   2.0000     -88.943733     -2420.2820
   6   2.0000     -88.942464     -2420.2475
   7   2.0000     -88.932599     -2419.9791
   8   2.0000     -88.928042     -2419.8551
   9   2.0000     -62.562107     -1702.4015
  10   2.0000     -56.396060     -1534.6148
  11   2.0000     -56.393342     -1534.5408
  12   2.0000     -56.393310     -1534.5400
  13   2.0000     -19.220560      -523.0180
  14   2.0000     -14.442813      -393.0089
  15   2.0000     -14.427953      -392.6046
  16   2.0000     -14.411008      -392.1435
  17   2.0000     -14.410018      -392.1165
  18   2.0000     -10.369009      -282.1551
  19   2.0000     -10.357436      -281.8402
  20   2.0000     -10.338634      -281.3285
  21   2.0000     -10.337983      -281.3108
  22   2.0000     -10.330277      -281.1011
  23   2.0000     -10.328686      -281.0578
  24   2.0000     -10.324180      -280.9352
  25   2.0000     -10.323982      -280.9298
  26   2.0000     -10.317323      -280.7486
  27   2.0000     -10.316447      -280.7248
  28   2.0000     -10.314025      -280.6589
  29   2.0000     -10.313883      -280.6550
  30   2.0000     -10.311997      -280.6037
  31   2.0000     -10.306205      -280.4461
  32   2.0000     -10.306044      -280.4417
  33   2.0000     -10.303164      -280.3633
  34   2.0000     -10.301031      -280.3053
  35   2.0000     -10.299889      -280.2742
  36   2.0000     -10.298990      -280.2498
  37   2.0000     -10.298327      -280.2317
  38   2.0000     -10.297775      -280.2167
  39   2.0000     -10.297352      -280.2052
  40   2.0000     -10.297108      -280.1986
  41   2.0000     -10.296273      -280.1758
  42   2.0000     -10.295667      -280.1593
  43   2.0000     -10.295396      -280.1520
  44   2.0000     -10.293065      -280.0885
  45   2.0000     -10.292460      -280.0721
  46   2.0000     -10.290560      -280.0204
  47   2.0000     -10.289615      -279.9947
  48   2.0000     -10.288968      -279.9771
  49   2.0000     -10.288118      -279.9539
  50   2.0000     -10.287798      -279.9452
  51   2.0000     -10.283964      -279.8409
  52   2.0000     -10.283550      -279.8296
  53   2.0000     -10.281079      -279.7624
  54   2.0000     -10.281059      -279.7618
  55   2.0000     -10.277924      -279.6765
  56   2.0000     -10.277621      -279.6683
  57   2.0000     -10.277150      -279.6555
  58   2.0000     -10.275725      -279.6167
  59   2.0000     -10.275470      -279.6098
  60   2.0000     -10.274873      -279.5935
  61   2.0000     -10.271416      -279.4994
  62   2.0000     -10.271260      -279.4952
  63   2.0000     -10.270979      -279.4876
  64   2.0000     -10.266759      -279.3727
  65   2.0000     -10.265735      -279.3449
  66   2.0000     -10.260180      -279.1937
  67   2.0000     -10.256507      -279.0937
  68   2.0000     -10.256118      -279.0832
  69   2.0000     -10.247685      -278.8537
  70   2.0000     -10.245054      -278.7821
  71   2.0000      -8.791527      -239.2296
  72   2.0000      -8.069921      -219.5937
  73   2.0000      -8.056146      -219.2189
  74   2.0000      -8.047867      -218.9936
  75   2.0000      -8.040056      -218.7810
  76   2.0000      -8.038666      -218.7432
  77   2.0000      -8.037981      -218.7246
  78   2.0000      -8.028598      -218.4693
  79   2.0000      -8.024720      -218.3637
  80   2.0000      -6.627842      -180.3527
  81   2.0000      -6.613262      -179.9560
  82   2.0000      -6.613046      -179.9501
  83   2.0000      -6.039614      -164.3462
  84   2.0000      -6.035323      -164.2295
  85   2.0000      -6.031128      -164.1153
  86   2.0000      -6.025231      -163.9549
  87   2.0000      -6.021356      -163.8494
  88   2.0000      -6.018242      -163.7647
  89   2.0000      -6.017554      -163.7460
  90   2.0000      -6.013560      -163.6373
  91   2.0000      -6.009576      -163.5289
  92   2.0000      -6.008796      -163.5076
  93   2.0000      -6.008116      -163.4891
  94   2.0000      -6.007932      -163.4841
  95   2.0000      -6.005356      -163.4141
  96   2.0000      -6.003924      -163.3751
  97   2.0000      -6.003309      -163.3583
  98   2.0000      -6.001692      -163.3143
  99   2.0000      -6.000420      -163.2797
 100   2.0000      -5.999097      -163.2437
 101   2.0000      -5.998431      -163.2256
 102   2.0000      -5.994571      -163.1206
 103   2.0000      -5.994422      -163.1165
 104   2.0000      -5.990681      -163.0147
 105   2.0000      -5.989286      -162.9767
 106   2.0000      -5.985176      -162.8649
 107   2.0000      -2.743682       -74.6594
 108   2.0000      -2.739607       -74.5485
 109   2.0000      -2.739499       -74.5456
 110   2.0000      -2.727888       -74.2296
 111   2.0000      -2.727867       -74.2290
 112   2.0000      -1.140035       -31.0219
 113   2.0000      -1.135267       -30.8922
 114   2.0000      -1.020778       -27.7768
 115   2.0000      -1.009891       -27.4805
 116   2.0000      -1.000191       -27.2166
 117   2.0000      -0.994067       -27.0499
 118   2.0000      -0.988843       -26.9078
 119   2.0000      -0.987477       -26.8706
 120   2.0000      -0.981552       -26.7094
 121   2.0000      -0.979055       -26.6414
 122   2.0000      -0.965065       -26.2608
 123   2.0000      -0.956516       -26.0281
 124   2.0000      -0.945138       -25.7185
 125   2.0000      -0.932508       -25.3748
 126   2.0000      -0.917541       -24.9676
 127   2.0000      -0.916811       -24.9477
 128   2.0000      -0.912456       -24.8292
 129   2.0000      -0.906150       -24.6576
 130   2.0000      -0.887329       -24.1454
 131   2.0000      -0.884499       -24.0685
 132   2.0000      -0.882921       -24.0255
 133   2.0000      -0.877345       -23.8738
 134   2.0000      -0.861617       -23.4458
 135   2.0000      -0.859700       -23.3936
 136   2.0000      -0.851541       -23.1716
 137   2.0000      -0.847158       -23.0523
 138   2.0000      -0.843085       -22.9415
 139   2.0000      -0.835679       -22.7400
 140   2.0000      -0.835147       -22.7255
 141   2.0000      -0.827430       -22.5155
 142   2.0000      -0.825547       -22.4643
 143   2.0000      -0.819218       -22.2921
 144   2.0000      -0.813689       -22.1416
 145   2.0000      -0.807038       -21.9606
 146   2.0000      -0.793561       -21.5939
 147   2.0000      -0.783592       -21.3226
 148   2.0000      -0.775995       -21.1159
 149   2.0000      -0.768743       -20.9186
 150   2.0000      -0.758080       -20.6284
 151   2.0000      -0.757188       -20.6041
 152   2.0000      -0.738618       -20.0988
 153   2.0000      -0.719737       -19.5850
 154   2.0000      -0.712827       -19.3970
 155   2.0000      -0.709395       -19.3036
 156   2.0000      -0.701198       -19.0806
 157   2.0000      -0.691141       -18.8069
 158   2.0000      -0.689230       -18.7549
 159   2.0000      -0.686236       -18.6734
 160   2.0000      -0.683076       -18.5874
 161   2.0000      -0.668634       -18.1944
 162   2.0000      -0.666263       -18.1299
 163   2.0000      -0.665198       -18.1010
 164   2.0000      -0.655041       -17.8246
 165   2.0000      -0.653138       -17.7728
 166   2.0000      -0.640819       -17.4376
 167   2.0000      -0.636631       -17.3236
 168   2.0000      -0.635816       -17.3014
 169   2.0000      -0.628254       -17.0957
 170   2.0000      -0.623188       -16.9578
 171   2.0000      -0.622038       -16.9265
 172   2.0000      -0.616506       -16.7760
 173   2.0000      -0.612062       -16.6551
 174   2.0000      -0.608286       -16.5523
 175   2.0000      -0.606648       -16.5077
 176   2.0000      -0.600145       -16.3308
 177   2.0000      -0.590169       -16.0593
 178   2.0000      -0.589582       -16.0433
 179   2.0000      -0.588912       -16.0251
 180   2.0000      -0.576097       -15.6764
 181   2.0000      -0.575292       -15.6545
 182   2.0000      -0.560664       -15.2564
 183   2.0000      -0.553898       -15.0723
 184   2.0000      -0.548634       -14.9291
 185   2.0000      -0.544275       -14.8105
 186   2.0000      -0.543735       -14.7958
 187   2.0000      -0.543528       -14.7901
 188   2.0000      -0.539896       -14.6913
 189   2.0000      -0.535375       -14.5683
 190   2.0000      -0.532210       -14.4822
 191   2.0000      -0.526090       -14.3157
 192   2.0000      -0.524007       -14.2589
 193   2.0000      -0.523051       -14.2329
 194   2.0000      -0.519402       -14.1336
 195   2.0000      -0.517333       -14.0773
 196   2.0000      -0.516016       -14.0415
 197   2.0000      -0.508375       -13.8336
 198   2.0000      -0.506688       -13.7877
 199   2.0000      -0.505521       -13.7559
 200   2.0000      -0.502070       -13.6620
 201   2.0000      -0.500957       -13.6317
 202   2.0000      -0.500929       -13.6310
 203   2.0000      -0.497638       -13.5414
 204   2.0000      -0.495406       -13.4807
 205   2.0000      -0.493973       -13.4417
 206   2.0000      -0.492351       -13.3975
 207   2.0000      -0.485056       -13.1990
 208   2.0000      -0.483365       -13.1530
 209   2.0000      -0.481469       -13.1014
 210   2.0000      -0.480306       -13.0698
 211   2.0000      -0.479076       -13.0363
 212   2.0000      -0.475242       -12.9320
 213   2.0000      -0.474574       -12.9138
 214   2.0000      -0.473045       -12.8722
 215   2.0000      -0.471188       -12.8217
 216   2.0000      -0.470266       -12.7966
 217   2.0000      -0.468333       -12.7440
 218   2.0000      -0.463558       -12.6141
 219   2.0000      -0.459021       -12.4906
 220   2.0000      -0.456223       -12.4145
 221   2.0000      -0.452589       -12.3156
 222   2.0000      -0.448229       -12.1969
 223   2.0000      -0.447087       -12.1659
 224   2.0000      -0.445714       -12.1285
 225   2.0000      -0.443438       -12.0665
 226   2.0000      -0.441235       -12.0066
 227   2.0000      -0.439596       -11.9620
 228   2.0000      -0.438998       -11.9458
 229   2.0000      -0.436092       -11.8667
 230   2.0000      -0.435242       -11.8435
 231   2.0000      -0.433729       -11.8024
 232   2.0000      -0.429343       -11.6830
 233   2.0000      -0.428002       -11.6465
 234   2.0000      -0.425246       -11.5715
 235   2.0000      -0.422611       -11.4998
 236   2.0000      -0.420703       -11.4479
 237   2.0000      -0.419188       -11.4067
 238   2.0000      -0.418601       -11.3907
 239   2.0000      -0.415708       -11.3120
 240   2.0000      -0.410955       -11.1827
 241   2.0000      -0.410067       -11.1585
 242   2.0000      -0.408047       -11.1035
 243   2.0000      -0.406753       -11.0683
 244   2.0000      -0.402074       -10.9410
 245   2.0000      -0.397628       -10.8200
 246   2.0000      -0.394174       -10.7260
 247   2.0000      -0.386642       -10.5211
 248   2.0000      -0.385984       -10.5032
 249   2.0000      -0.381520       -10.3817
 250   2.0000      -0.377065       -10.2605
 251   2.0000      -0.375098       -10.2069
 252   2.0000      -0.374566       -10.1925
 253   2.0000      -0.373346       -10.1593
 254   2.0000      -0.366462        -9.9719
 255   2.0000      -0.360555        -9.8112
 256   2.0000      -0.350414        -9.5352
 257   2.0000      -0.344845        -9.3837
 258   2.0000      -0.340774        -9.2729
 259   2.0000      -0.339331        -9.2337
 260   2.0000      -0.328500        -8.9389
 261   2.0000      -0.327709        -8.9174
 262   2.0000      -0.323591        -8.8053
 263   2.0000      -0.316066        -8.6006
 264   2.0000      -0.314859        -8.5678
 265   2.0000      -0.311666        -8.4809
 266   2.0000      -0.306103        -8.3295
 267   2.0000      -0.299587        -8.1522
 268   2.0000      -0.292313        -7.9542
 269   2.0000      -0.282828        -7.6961
 270   2.0000      -0.262732        -7.1493
 271   2.0000      -0.260804        -7.0968
 272   2.0000      -0.222942        -6.0666
 273   2.0000      -0.212418        -5.7802
 274   0.0000      -0.100014        -2.7215
 275   0.0000      -0.073804        -2.0083
 276   0.0000      -0.056097        -1.5265
 277   0.0000      -0.049179        -1.3382
 278   0.0000      -0.018221        -0.4958

MULLIKEN ATOMIC CHARGES
-----------------------
   0 C :   -0.033619
   1 C :   -0.063191
   2 C :    0.051107
   3 C :    0.028359
   4 C :   -0.071465
   5 S :    0.073645
   6 C :   -0.054608
   7 C :    0.033452
   8 C :    0.033668
   9 C :   -0.028593
  10 S :    0.070926
  11 C :   -0.057734
  12 C :    0.059865
  13 C :   -0.126768
  14 S :    0.133577
  15 C :   -0.154829
  16 C :    0.119845
  17 C :   -0.126583
  18 C :    0.041832
  19 C :    0.030879
  20 C :   -0.124295
  21 C :    0.042120
  22 C :    0.060279
  23 C :    0.123264
  24 C :    0.029069
  25 C :   -0.098719
  26 S :    0.124674
  27 C :   -0.136681
  28 C :   -0.078354
  29 C :    0.034789
  30 C :   -0.012707
  31 C :   -0.021407
  32 C :    0.050053
  33 C :    0.026088
  34 C :   -0.042200
  35 S :    0.104381
  36 C :   -0.056108
  37 C :    0.037417
  38 C :    0.027070
  39 C :   -0.006285
  40 S :    0.157397
  41 C :   -0.013977
  42 C :   -0.015472
  43 S :    0.158621
  44 C :   -0.118864
  45 N :   -0.011329
  46 N :   -0.129159
  47 C :    0.016684
  48 C :   -0.094361
  49 C :    0.324010
  50 C :   -0.349987
  51 C :   -0.188454
  52 N :    0.148795
  53 C :   -0.198361
  54 N :    0.166671
  55 C :    0.015487
  56 C :   -0.017072
  57 C :    0.167696
  58 O :   -0.172161
  59 C :   -0.069986
  60 C :    0.120369
  61 C :   -0.093439
  62 C :   -0.019499
  63 S :    0.186655
  64 C :   -0.122146
  65 C :    0.036885
  66 Br:    0.022559
  67 H :    0.016395
  68 H :    0.019923
  69 H :   -0.014777
  70 H :   -0.012867
  71 H :   -0.018243
  72 H :   -0.015159
  73 H :   -0.009528
  74 H :    0.033387
  75 H :   -0.005152
  76 H :   -0.000358
  77 H :    0.005656
  78 H :    0.033565
  79 H :    0.008084
  80 H :   -0.009276
  81 H :    0.002051
  82 H :   -0.004505
  83 H :    0.010156
  84 H :    0.011100
  85 H :    0.014039
  86 H :    0.022134
  87 H :    0.025839
  88 H :   -0.009366
  89 H :   -0.006438
  90 H :   -0.010791
  91 H :   -0.013169
  92 H :   -0.013354
  93 H :   -0.017765
  94 H :    0.030718
  95 H :   -0.010908
  96 H :   -0.007419
  97 H :   -0.003748
Sum of atomic charges:    0.0000000

LOEWDIN ATOMIC CHARGES
----------------------
   0 C :   -0.083208
   1 C :   -0.138614
   2 C :   -0.034724
   3 C :   -0.026453
   4 C :   -0.181407
   5 S :    0.344753
   6 C :   -0.180739
   7 C :   -0.035894
   8 C :   -0.030991
   9 C :   -0.144410
  10 S :    0.364648
  11 C :   -0.051458
  12 C :   -0.070244
  13 C :   -0.174072
  14 S :    0.421283
  15 C :   -0.176567
  16 C :   -0.038038
  17 C :   -0.019629
  18 C :   -0.030277
  19 C :   -0.049662
  20 C :   -0.021913
  21 C :   -0.031178
  22 C :   -0.047509
  23 C :   -0.043803
  24 C :   -0.069407
  25 C :   -0.168446
  26 S :    0.410424
  27 C :   -0.178817
  28 C :   -0.000687
  29 C :   -0.027934
  30 C :   -0.032302
  31 C :   -0.150685
  32 C :   -0.015834
  33 C :   -0.035415
  34 C :   -0.149610
  35 S :    0.389680
  36 C :   -0.204947
  37 C :   -0.014724
  38 C :   -0.048080
  39 C :   -0.106424
  40 S :    0.443474
  41 C :   -0.121500
  42 C :   -0.146019
  43 S :    0.444128
  44 C :   -0.184202
  45 N :   -0.032198
  46 N :   -0.113971
  47 C :    0.055675
  48 C :   -0.103384
  49 C :    0.074410
  50 C :   -0.137088
  51 C :   -0.016724
  52 N :   -0.054892
  53 C :   -0.026260
  54 N :   -0.039406
  55 C :   -0.019203
  56 C :   -0.051498
  57 C :    0.084629
  58 O :   -0.161614
  59 C :    0.022082
  60 C :   -0.033261
  61 C :   -0.143107
  62 C :   -0.009741
  63 S :    0.433023
  64 C :   -0.271685
  65 C :   -0.070506
  66 Br:    0.136059
  67 H :    0.027164
  68 H :    0.025351
  69 H :    0.032064
  70 H :    0.031405
  71 H :    0.030021
  72 H :    0.031942
  73 H :    0.031364
  74 H :    0.015153
  75 H :    0.024618
  76 H :    0.023016
  77 H :    0.023359
  78 H :    0.027554
  79 H :    0.022362
  80 H :    0.026616
  81 H :    0.024535
  82 H :    0.020240
  83 H :    0.023716
  84 H :    0.022697
  85 H :    0.023018
  86 H :    0.032040
  87 H :    0.028164
  88 H :    0.034867
  89 H :    0.036006
  90 H :    0.033092
  91 H :    0.030345
  92 H :    0.032744
  93 H :    0.033606
  94 H :    0.058560
  95 H :    0.040717
  96 H :    0.041100
  97 H :    0.038654

  Mayer bond orders larger than 0.100000
B(  0-C ,  1-C ) :   1.8676 B(  0-C , 67-H ) :   0.9502 B(  0-C , 68-H ) :   0.9417
B(  1-C ,  2-C ) :   1.0769 B(  1-C ,  5-S ) :   1.0084 B(  2-C ,  3-C ) :   1.6703
B(  2-C , 69-H ) :   0.9922 B(  3-C ,  4-C ) :   1.1448 B(  3-C , 70-H ) :   0.9913
B(  4-C ,  5-S ) :   1.0366 B(  4-C ,  6-C ) :   1.5847 B(  6-C ,  7-C ) :   1.1500
B(  6-C , 10-S ) :   1.0280 B(  7-C ,  8-C ) :   1.6384 B(  7-C , 71-H ) :   0.9917
B(  8-C ,  9-C ) :   1.1042 B(  8-C , 72-H ) :   0.9966 B(  9-C , 10-S ) :   1.0173
B(  9-C , 11-C ) :   1.6954 B( 11-C , 12-C ) :   1.0200 B( 11-C , 73-H ) :   0.9614
B( 12-C , 13-C ) :   1.5939 B( 12-C , 16-C ) :   1.1472 B( 13-C , 14-S ) :   1.1234
B( 13-C , 74-H ) :   0.9511 B( 14-S , 15-C ) :   1.0797 B( 15-C , 16-C ) :   1.3787
B( 15-C , 27-C ) :   1.3742 B( 16-C , 17-C ) :   1.2455 B( 17-C , 18-C ) :   1.0690
B( 17-C , 20-C ) :   1.5151 B( 18-C , 19-C ) :   1.1062 B( 18-C , 75-H ) :   0.9086
B( 18-C , 76-H ) :   0.9231 B( 19-C , 77-H ) :   0.9584 B( 19-C , 78-H ) :   0.9676
B( 19-C , 79-H ) :   0.9658 B( 20-C , 21-C ) :   1.0652 B( 20-C , 23-C ) :   1.2655
B( 21-C , 22-C ) :   1.1109 B( 21-C , 80-H ) :   0.9037 B( 21-C , 81-H ) :   0.9125
B( 22-C , 82-H ) :   0.9523 B( 22-C , 83-H ) :   0.9661 B( 22-C , 84-H ) :   0.9633
B( 23-C , 24-C ) :   1.1857 B( 23-C , 27-C ) :   1.3662 B( 24-C , 25-C ) :   1.6483
B( 24-C , 28-C ) :   0.9497 B( 25-C , 26-S ) :   1.1093 B( 25-C , 85-H ) :   0.9677
B( 26-S , 27-C ) :   1.0815 B( 28-C , 29-C ) :   1.7916 B( 28-C , 86-H ) :   0.9541
B( 29-C , 30-C ) :   1.1125 B( 29-C , 87-H ) :   0.9612 B( 30-C , 31-C ) :   1.6122
B( 30-C , 88-H ) :   0.9821 B( 31-C , 32-C ) :   1.1230 B( 31-C , 35-S ) :   1.0172
B( 32-C , 33-C ) :   1.6083 B( 32-C , 89-H ) :   0.9991 B( 33-C , 34-C ) :   1.1740
B( 33-C , 90-H ) :   0.9932 B( 34-C , 35-S ) :   1.0735 B( 34-C , 36-C ) :   1.5131
B( 36-C , 37-C ) :   1.1927 B( 36-C , 40-S ) :   0.9866 B( 37-C , 38-C ) :   1.5737
B( 37-C , 91-H ) :   0.9950 B( 38-C , 39-C ) :   1.1579 B( 38-C , 92-H ) :   0.9999
B( 39-C , 40-S ) :   1.1145 B( 39-C , 41-C ) :   1.5071 B( 41-C , 42-C ) :   1.2396
B( 41-C , 93-H ) :   0.9615 B( 42-C , 43-S ) :   1.0806 B( 42-C , 46-N ) :   1.4376
B( 43-S , 44-C ) :   1.0569 B( 44-C , 45-N ) :   1.5785 B( 44-C , 47-C ) :   1.2059
B( 45-N , 46-N ) :   1.3389 B( 47-C , 48-C ) :   1.5224 B( 47-C , 94-H ) :   0.9422
B( 48-C , 49-C ) :   1.0768 B( 48-C , 57-C ) :   0.9614 B( 49-C , 50-C ) :   1.6297
B( 49-C , 55-C ) :   1.0000 B( 50-C , 51-C ) :   1.1486 B( 50-C , 53-C ) :   1.1413
B( 51-C , 52-N ) :   2.9646 B( 53-C , 54-N ) :   2.9704 B( 55-C , 56-C ) :   1.2725
B( 55-C , 62-C ) :   1.4113 B( 56-C , 57-C ) :   0.9561 B( 56-C , 59-C ) :   1.4222
B( 57-C , 58-O ) :   2.1536 B( 59-C , 60-C ) :   1.2466 B( 59-C , 95-H ) :   1.0161
B( 60-C , 61-C ) :   1.3030 B( 60-C , 65-C ) :   1.1619 B( 61-C , 62-C ) :   1.3319
B( 61-C , 63-S ) :   1.0870 B( 62-C , 96-H ) :   0.9785 B( 63-S , 64-C ) :   1.0855
B( 64-C , 65-C ) :   1.6201 B( 64-C , 66-Br) :   1.0176 B( 65-C , 97-H ) :   1.0003

-----------------------------------------------------------------------------
         ABSORPTION SPECTRUM VIA TRANSITION ELECTRIC DIPOLE MOMENTS
-----------------------------------------------------------------------------
State   Energy  Wavelength   fosc         T2         TX        TY        TZ
        (cm-1)    (nm)                  (au**2)     (au)      (au)      (au)
-----------------------------------------------------------------------------
   0   12951.5    772.1   1.206166170  30.65927   0.48971  -3.05672  -4.59085
   1   16840.6    593.8   0.000037815   0.00074   0.01039   0.00054   0.02512
   2   20092.7    497.7   0.615025897  10.07701   2.52179   0.12224  -1.92423
   3   21366.4    468.0   1.155573269  17.80499  -2.72605  -2.69019   1.77102
   4   22492.4    444.6   0.000263244   0.00385  -0.03534  -0.05007  -0.00983
   5   22993.7    434.9   0.000967053   0.01385   0.00220  -0.06677   0.09686
   6   23014.2    434.5   0.009647638   0.13801   0.31671  -0.01105  -0.19385
   7   23180.8    431.4   0.089321048   1.26853   0.76647   0.65082   0.50743
   8   25316.1    395.0   0.133563051   1.73686   1.20391   0.52950   0.08416
   9   25646.7    389.9   0.302128922   3.87825   1.80362   0.79052  -0.01716
  10   27280.7    366.6   0.001045404   0.01262   0.02020  -0.08124  -0.07489
  11   27348.4    365.7   0.185312624   2.23074  -0.38530   0.95242   1.08405
  12   28603.1    349.6   0.240722169   2.77063   0.77869   1.12863   0.94365
  13   29570.2    338.2   0.018080162   0.20129   0.06873   0.43654   0.07747
  14   29659.8    337.2   0.009389816   0.10422   0.06589   0.17183   0.26525
  15   29740.9    336.2   0.020556748   0.22755  -0.30459  -0.33690  -0.14584
  16   29950.8    333.9   0.051815265   0.56954  -0.29946  -0.51583  -0.46237
  17   30093.4    332.3   0.034073005   0.37275   0.55711  -0.02538  -0.24846
  18   30140.4    331.8   0.008480097   0.09262  -0.13264  -0.27299   0.02258
  19   30775.9    324.9   0.002425330   0.02594  -0.08638   0.09904  -0.09313
  20   31295.2    319.5   0.004049674   0.04260  -0.01275   0.15243   0.13857
  21   31896.1    313.5   0.150093315   1.54917   1.18254  -0.38146  -0.07258
  22   31993.6    312.6   0.134909537   1.38821  -0.16328  -0.92276  -0.71419
  23   32438.0    308.3   0.000509111   0.00517  -0.01025   0.06197   0.03495
  24   32933.0    303.6   0.195373323   1.95303  -1.36803   0.02926   0.28404
  25   33025.6    302.8   0.509957474   5.08346   1.66301  -0.59542  -1.40119
  26   33507.1    298.4   0.050032602   0.49158  -0.42787  -0.55246   0.05744
  27   33594.8    297.7   0.003797912   0.03722  -0.14204   0.08442  -0.09957
  28   33858.2    295.3   0.256540730   2.49441  -1.10800   0.39441   1.05413
  29   34798.7    287.4   0.003359146   0.03178  -0.17633   0.01985  -0.01711
  30   35082.0    285.0   0.001584285   0.01487  -0.08669  -0.08561   0.00482
  31   35286.6    283.4   0.067677964   0.63141   0.71857   0.16862  -0.29433
  32   35522.1    281.5   0.012929449   0.11983   0.18680   0.26140   0.12886
  33   35668.5    280.4   0.063261207   0.58389   0.12855  -0.75194   0.04404
  34   35932.9    278.3   0.008347363   0.07648   0.20524  -0.08360   0.16543
  35   36251.6    275.8   0.025383536   0.23052  -0.32257  -0.27718  -0.22280
  36   36346.6    275.1   0.031474503   0.28508  -0.50163   0.01273  -0.18245
  37   36872.0    271.2   0.073538749   0.65659   0.66977   0.41364  -0.19212
  38   37176.9    269.0   0.011058197   0.09792   0.26772   0.12804  -0.09928
  39   37301.9    268.1   0.032317113   0.28522   0.34514  -0.11621  -0.39063
  40   37736.1    265.0   0.050026966   0.43644  -0.21787  -0.45573  -0.42577
  41   37839.9    264.3   0.014876762   0.12943   0.32584  -0.11233   0.10316
  42   37969.5    263.4   0.003736990   0.03240  -0.16925   0.06129  -0.00105
  43   38487.5    259.8   0.167883159   1.43603   0.92408   0.62592   0.43628
  44   38528.4    259.5   0.061352092   0.52423   0.54104   0.42902   0.21783
  45   38863.5    257.3   0.020758093   0.17584  -0.23678   0.31685  -0.13923
  46   39424.6    253.6   0.105455166   0.88060   0.34155  -0.82551   0.28718
  47   39461.1    253.4   0.001834941   0.01531   0.05530   0.10689  -0.02872
  48   39671.2    252.1   0.008205153   0.06809   0.01398  -0.16058  -0.20520
  49   39923.1    250.5   0.004555619   0.03757  -0.05892   0.18080   0.03752

FINAL SINGLE POINT ENERGY     -8087.921201693654

DIPOLE MOMENT
-------------
                                X             Y             Z
Electronic contribution:    -52.14021      77.90241     223.50711
Nuclear contribution   :     48.49094     -78.68282    -224.75663
                        -----------------------------------------
Total Dipole Moment    :     -3.64927      -0.78042      -1.24952
                        -----------------------------------------
Magnitude (a.u.)       :      3.93542
Magnitude (Debye)      :     10.00303

Rotational constants in cm-1:     0.000680     0.000262     0.000199
Rotational constants in MHz :    20.375811     7.857511     5.960504

                             ****ORCA TERMINATED NORMALLY****
TOTAL RUN TIME: 0 days 0 hours 8 minutes 14 seconds 954 msec
