                         Program Version 4.2.0 -  RELEASE  -
|  1> # ORCA input file
|  2> # SCF done       -155.577848132760          0.000924832712
|  3> ! CAM-B3LYP def2-SVP def2/J RIJCOSX Grid4 TightSCF
|  4> %maxcore 5000
|  5> %tddft
|  6>     Mode sTDDFT
|  7>     Ethresh 5.0
|  8>     maxcore 5000
|  9> end
| 10>
| 11> %pal
| 12>   nprocs 6
| 13>   end
| 14> * xyz 0 1
| 15>    C        6.15866         1.54764        -3.85034
| 16>    C        5.04318         1.12585        -3.23847
| 17>    C        3.78540         1.80775        -3.13366
| 18>    C        2.83687         1.12831        -2.45072
| 19>    C        3.26119        -0.13806        -1.96234
| 20>    S        4.92874        -0.43451        -2.40925
| 21>    C        2.52259        -1.04739        -1.24059
| 22>    C        1.18163        -0.94256        -0.80390
| 23>    C        0.74443        -2.02554        -0.10710
| 24>    C        1.70703        -3.05524         0.06159
| 25>    S        3.20410        -2.57742        -0.72013
| 26>    C        1.42513        -4.26660         0.65028
| 27>    C        2.21097        -5.40384         0.88122
| 28>    S        1.33927        -6.90925         1.05361
| 29>    C        2.78189        -7.86567         1.16036
| 30>    C        3.91273        -7.03162         1.12219
| 31>    C        3.59726        -5.64244         0.99519
| 32>    C        4.63015        -4.69528         1.09822
| 33>    C        5.92117        -5.12223         1.23134
| 34>    F        6.91330        -4.22141         1.33854
| 35>    C        6.23650        -6.49590         1.28007
| 36>    F        7.52302        -6.87028         1.39732
| 37>    C        5.25388        -7.44217         1.23985
| 38>    C        2.75059        -9.26904         1.27280
| 39>    C        1.62301       -10.01843         1.37410
| 40>    C        1.61039       -11.43290         1.47256
| 41>    S        3.08329       -12.36812         1.36520
| 42>    C        2.21513       -13.83078         1.58234
| 43>    C        0.87404       -13.62937         1.72566
| 44>    C        0.51987       -12.26270         1.66006
| 45>    C       -0.88548       -11.78424         1.84459
| 46>    C       -1.89405       -12.93214         1.74204
| 47>    C       -1.41442       -14.16117         2.54619
| 48>    O       -2.47239       -15.10121         2.51629
| 49>    C       -2.43086       -16.06976         3.53189
| 50>    C       -0.13110       -14.71833         1.92143
| 51>    N       -3.21915       -12.51047         2.15619
| 52>    C       -3.46877       -12.15982         3.46144
| 53>    C       -4.64618       -12.31228         4.08941
| 54>    C       -4.85978       -11.84146         5.42835
| 55>    C       -5.95116       -12.00952         6.18854
| 56>    C       -7.20007       -12.71538         5.75221
| 57>    C       -5.98551       -11.46336         7.59558
| 58>    N       -6.94688       -10.39123         7.74497
| 59>    C       -8.19399       -10.59144         8.25167
| 60>    C       -9.24354        -9.76419         8.07326
| 61>    C      -10.46446        -9.95386         8.72052
| 62>    C      -11.53203       -10.09170         9.27883
| 63>    C      -12.74519       -10.25308         9.94580
| 64>    N      -12.91161       -11.15973        10.95223
| 65>    C      -14.19175       -11.08680        11.43238
| 66>    C      -14.85489       -10.10741        10.70514
| 67>    C      -13.95315        -9.58740         9.77672
| 68>    C      -14.64597       -11.88961        12.47561
| 69>    C      -15.04432       -12.58010        13.38814
| 70>    C      -15.48339       -13.38590        14.44756
| 71>    C      -16.70168       -13.31294        14.98205
| 72>    H        6.18677         2.50293        -4.34394
| 73>    H        7.05340         0.95299        -3.86703
| 74>    H        3.64991         2.77896        -3.57540
| 75>    H        1.83877         1.48931        -2.27592
| 76>    H        0.57980        -0.07764        -1.01737
| 77>    H       -0.24772        -2.12364         0.29780
| 78>    H        0.37680        -4.40091         0.89650
| 79>    H        4.42651        -3.63946         1.10153
| 80>    H        5.51517        -8.48484         1.31357
| 81>    H        3.70757        -9.77311         1.27822
| 82>    H        0.66081        -9.52372         1.39013
| 83>    H        2.74646       -14.76166         1.59104
| 84>    H       -1.13587       -11.02621         1.09932
| 85>    H       -0.96509       -11.30875         2.82603
| 86>    H       -1.97806       -13.23887         0.69392
| 87>    H       -1.22183       -13.85659         3.58787
| 88>    H       -3.34199       -16.65605         3.42975
| 89>    H       -2.41010       -15.60095         4.52338
| 90>    H       -1.56465       -16.73302         3.43317
| 91>    H       -0.39062       -15.16414         0.95570
| 92>    H        0.29182       -15.50743         2.54678
| 93>    H       -3.94521       -13.09929         1.76969
| 94>    H       -2.64965       -11.67518         3.97541
| 95>    H       -5.45579       -12.81371         3.57992
| 96>    H       -4.01704       -11.31453         5.86295
| 97>    H       -7.33107       -12.67023         4.67479
| 98>    H       -8.07411       -12.26805         6.22446
| 99>    H       -7.16328       -13.76580         6.04719
|100>    H       -4.99614       -11.08034         7.87057
|101>    H       -6.25753       -12.25382         8.30192
|102>    H       -6.86061        -9.65081         7.06213
|103>    H       -8.28888       -11.45631         8.89610
|104>    H       -9.16261        -8.90021         7.42551
|105>    H      -12.19971       -11.78382        11.29377
|106>    H      -15.87717        -9.81440        10.84399
|107>    H      -14.14244        -8.81412         9.05829
|108>    H      -14.75387       -14.09436        14.82463
|109>    H      -17.43592       -12.61464        14.61705
|110>    H      -16.99732       -13.95100        15.79700
|111> *
|112>
|113>                          ****END OF INPUT****

CARTESIAN COORDINATES (ANGSTROEM)
---------------------------------
  C      6.158660    1.547640   -3.850340
  C      5.043180    1.125850   -3.238470
  C      3.785400    1.807750   -3.133660
  C      2.836870    1.128310   -2.450720
  C      3.261190   -0.138060   -1.962340
  S      4.928740   -0.434510   -2.409250
  C      2.522590   -1.047390   -1.240590
  C      1.181630   -0.942560   -0.803900
  C      0.744430   -2.025540   -0.107100
  C      1.707030   -3.055240    0.061590
  S      3.204100   -2.577420   -0.720130
  C      1.425130   -4.266600    0.650280
  C      2.210970   -5.403840    0.881220
  S      1.339270   -6.909250    1.053610
  C      2.781890   -7.865670    1.160360
  C      3.912730   -7.031620    1.122190
  C      3.597260   -5.642440    0.995190
  C      4.630150   -4.695280    1.098220
  C      5.921170   -5.122230    1.231340
  F      6.913300   -4.221410    1.338540
  C      6.236500   -6.495900    1.280070
  F      7.523020   -6.870280    1.397320
  C      5.253880   -7.442170    1.239850
  C      2.750590   -9.269040    1.272800
  C      1.623010  -10.018430    1.374100
  C      1.610390  -11.432900    1.472560
  S      3.083290  -12.368120    1.365200
  C      2.215130  -13.830780    1.582340
  C      0.874040  -13.629370    1.725660
  C      0.519870  -12.262700    1.660060
  C     -0.885480  -11.784240    1.844590
  C     -1.894050  -12.932140    1.742040
  C     -1.414420  -14.161170    2.546190
  O     -2.472390  -15.101210    2.516290
  C     -2.430860  -16.069760    3.531890
  C     -0.131100  -14.718330    1.921430
  N     -3.219150  -12.510470    2.156190
  C     -3.468770  -12.159820    3.461440
  C     -4.646180  -12.312280    4.089410
  C     -4.859780  -11.841460    5.428350
  C     -5.951160  -12.009520    6.188540
  C     -7.200070  -12.715380    5.752210
  C     -5.985510  -11.463360    7.595580
  N     -6.946880  -10.391230    7.744970
  C     -8.193990  -10.591440    8.251670
  C     -9.243540   -9.764190    8.073260
  C    -10.464460   -9.953860    8.720520
  C    -11.532030  -10.091700    9.278830
  C    -12.745190  -10.253080    9.945800
  N    -12.911610  -11.159730   10.952230
  C    -14.191750  -11.086800   11.432380
  C    -14.854890  -10.107410   10.705140
  C    -13.953150   -9.587400    9.776720
  C    -14.645970  -11.889610   12.475610
  C    -15.044320  -12.580100   13.388140
  C    -15.483390  -13.385900   14.447560
  C    -16.701680  -13.312940   14.982050
  H      6.186770    2.502930   -4.343940
  H      7.053400    0.952990   -3.867030
  H      3.649910    2.778960   -3.575400
  H      1.838770    1.489310   -2.275920
  H      0.579800   -0.077640   -1.017370
  H     -0.247720   -2.123640    0.297800
  H      0.376800   -4.400910    0.896500
  H      4.426510   -3.639460    1.101530
  H      5.515170   -8.484840    1.313570
  H      3.707570   -9.773110    1.278220
  H      0.660810   -9.523720    1.390130
  H      2.746460  -14.761660    1.591040
  H     -1.135870  -11.026210    1.099320
  H     -0.965090  -11.308750    2.826030
  H     -1.978060  -13.238870    0.693920
  H     -1.221830  -13.856590    3.587870
  H     -3.341990  -16.656050    3.429750
  H     -2.410100  -15.600950    4.523380
  H     -1.564650  -16.733020    3.433170
  H     -0.390620  -15.164140    0.955700
  H      0.291820  -15.507430    2.546780
  H     -3.945210  -13.099290    1.769690
  H     -2.649650  -11.675180    3.975410
  H     -5.455790  -12.813710    3.579920
  H     -4.017040  -11.314530    5.862950
  H     -7.331070  -12.670230    4.674790
  H     -8.074110  -12.268050    6.224460
  H     -7.163280  -13.765800    6.047190
  H     -4.996140  -11.080340    7.870570
  H     -6.257530  -12.253820    8.301920
  H     -6.860610   -9.650810    7.062130
  H     -8.288880  -11.456310    8.896100
  H     -9.162610   -8.900210    7.425510
  H    -12.199710  -11.783820   11.293770
  H    -15.877170   -9.814400   10.843990
  H    -14.142440   -8.814120    9.058290
  H    -14.753870  -14.094360   14.824630
  H    -17.435920  -12.614640   14.617050
  H    -16.997320  -13.951000   15.797000

 Total Charge           Charge          ....    0
 Multiplicity           Mult            ....    1
 Number of Electrons    NEL             ....  432
 Basis Dimension        Dim             .... 1009

ORBITAL ENERGIES
----------------

  NO   OCC          E(Eh)            E(eV)
   0   2.0000     -88.961583     -2420.7677
   1   2.0000     -88.949848     -2420.4484
   2   2.0000     -88.944102     -2420.2921
   3   2.0000     -88.936498     -2420.0851
   4   2.0000     -24.780133      -674.3017
   5   2.0000     -24.777586      -674.2324
   6   2.0000     -19.218709      -522.9677
   7   2.0000     -14.443351      -393.0236
   8   2.0000     -14.419579      -392.3767
   9   2.0000     -14.414354      -392.2345
  10   2.0000     -10.361194      -281.9424
  11   2.0000     -10.359057      -281.8843
  12   2.0000     -10.321080      -280.8509
  13   2.0000     -10.312535      -280.6183
  14   2.0000     -10.308943      -280.5206
  15   2.0000     -10.308605      -280.5114
  16   2.0000     -10.308506      -280.5087
  17   2.0000     -10.308305      -280.5032
  18   2.0000     -10.306316      -280.4491
  19   2.0000     -10.304601      -280.4024
  20   2.0000     -10.304383      -280.3965
  21   2.0000     -10.304277      -280.3936
  22   2.0000     -10.298418      -280.2342
  23   2.0000     -10.297790      -280.2171
  24   2.0000     -10.295119      -280.1444
  25   2.0000     -10.293680      -280.1053
  26   2.0000     -10.290292      -280.0131
  27   2.0000     -10.288994      -279.9778
  28   2.0000     -10.288699      -279.9697
  29   2.0000     -10.288017      -279.9512
  30   2.0000     -10.287913      -279.9484
  31   2.0000     -10.287029      -279.9243
  32   2.0000     -10.285140      -279.8729
  33   2.0000     -10.283865      -279.8382
  34   2.0000     -10.283560      -279.8299
  35   2.0000     -10.283271      -279.8220
  36   2.0000     -10.282801      -279.8092
  37   2.0000     -10.282754      -279.8080
  38   2.0000     -10.279506      -279.7196
  39   2.0000     -10.279087      -279.7082
  40   2.0000     -10.276337      -279.6333
  41   2.0000     -10.276163      -279.6286
  42   2.0000     -10.275521      -279.6111
  43   2.0000     -10.274194      -279.5750
  44   2.0000     -10.268565      -279.4219
  45   2.0000     -10.257387      -279.1177
  46   2.0000     -10.256891      -279.1042
  47   2.0000     -10.255931      -279.0781
  48   2.0000     -10.255019      -279.0533
  49   2.0000     -10.253330      -279.0073
  50   2.0000     -10.251847      -278.9669
  51   2.0000     -10.251719      -278.9634
  52   2.0000     -10.250688      -278.9354
  53   2.0000     -10.245160      -278.7850
  54   2.0000     -10.242047      -278.7003
  55   2.0000     -10.239941      -278.6430
  56   2.0000     -10.237997      -278.5901
  57   2.0000      -8.056843      -219.2378
  58   2.0000      -8.045591      -218.9317
  59   2.0000      -8.040030      -218.7803
  60   2.0000      -8.033276      -218.5965
  61   2.0000      -6.025823      -163.9710
  62   2.0000      -6.021951      -163.8656
  63   2.0000      -6.019400      -163.7962
  64   2.0000      -6.014795      -163.6709
  65   2.0000      -6.010704      -163.5596
  66   2.0000      -6.009813      -163.5353
  67   2.0000      -6.007865      -163.4823
  68   2.0000      -6.005689      -163.4231
  69   2.0000      -6.003092      -163.3524
  70   2.0000      -6.000932      -163.2937
  71   2.0000      -5.999174      -163.2458
  72   2.0000      -5.993789      -163.0993
  73   2.0000      -1.300276       -35.3823
  74   2.0000      -1.285343       -34.9760
  75   2.0000      -1.121299       -30.5121
  76   2.0000      -1.060707       -28.8633
  77   2.0000      -1.020818       -27.7779
  78   2.0000      -1.019720       -27.7480
  79   2.0000      -0.999389       -27.1948
  80   2.0000      -0.990191       -26.9445
  81   2.0000      -0.983701       -26.7679
  82   2.0000      -0.967622       -26.3303
  83   2.0000      -0.938110       -25.5273
  84   2.0000      -0.914088       -24.8736
  85   2.0000      -0.904915       -24.6240
  86   2.0000      -0.895675       -24.3725
  87   2.0000      -0.883435       -24.0395
  88   2.0000      -0.878522       -23.9058
  89   2.0000      -0.870373       -23.6841
  90   2.0000      -0.866375       -23.5753
  91   2.0000      -0.851608       -23.1734
  92   2.0000      -0.851013       -23.1572
  93   2.0000      -0.848575       -23.0909
  94   2.0000      -0.847975       -23.0746
  95   2.0000      -0.842060       -22.9136
  96   2.0000      -0.837366       -22.7859
  97   2.0000      -0.830148       -22.5895
  98   2.0000      -0.820662       -22.3314
  99   2.0000      -0.814922       -22.1752
 100   2.0000      -0.807305       -21.9679
 101   2.0000      -0.802142       -21.8274
 102   2.0000      -0.787444       -21.4274
 103   2.0000      -0.775894       -21.1131
 104   2.0000      -0.768429       -20.9100
 105   2.0000      -0.758024       -20.6269
 106   2.0000      -0.752903       -20.4875
 107   2.0000      -0.743788       -20.2395
 108   2.0000      -0.729524       -19.8513
 109   2.0000      -0.728099       -19.8126
 110   2.0000      -0.709059       -19.2945
 111   2.0000      -0.704271       -19.1642
 112   2.0000      -0.699178       -19.0256
 113   2.0000      -0.685992       -18.6668
 114   2.0000      -0.684422       -18.6241
 115   2.0000      -0.682308       -18.5665
 116   2.0000      -0.669370       -18.2145
 117   2.0000      -0.663838       -18.0640
 118   2.0000      -0.660867       -17.9831
 119   2.0000      -0.658479       -17.9181
 120   2.0000      -0.650765       -17.7082
 121   2.0000      -0.646722       -17.5982
 122   2.0000      -0.641522       -17.4567
 123   2.0000      -0.628457       -17.1012
 124   2.0000      -0.621676       -16.9167
 125   2.0000      -0.619504       -16.8576
 126   2.0000      -0.616199       -16.7676
 127   2.0000      -0.607875       -16.5411
 128   2.0000      -0.602958       -16.4073
 129   2.0000      -0.599343       -16.3090
 130   2.0000      -0.596230       -16.2242
 131   2.0000      -0.593514       -16.1503
 132   2.0000      -0.585824       -15.9411
 133   2.0000      -0.579608       -15.7719
 134   2.0000      -0.574141       -15.6232
 135   2.0000      -0.573360       -15.6019
 136   2.0000      -0.568339       -15.4653
 137   2.0000      -0.565806       -15.3964
 138   2.0000      -0.565093       -15.3770
 139   2.0000      -0.560260       -15.2454
 140   2.0000      -0.556446       -15.1417
 141   2.0000      -0.545887       -14.8543
 142   2.0000      -0.542631       -14.7657
 143   2.0000      -0.541282       -14.7290
 144   2.0000      -0.536803       -14.6072
 145   2.0000      -0.534114       -14.5340
 146   2.0000      -0.527879       -14.3643
 147   2.0000      -0.526152       -14.3173
 148   2.0000      -0.523821       -14.2539
 149   2.0000      -0.518970       -14.1219
 150   2.0000      -0.516427       -14.0527
 151   2.0000      -0.511210       -13.9107
 152   2.0000      -0.509274       -13.8580
 153   2.0000      -0.508242       -13.8300
 154   2.0000      -0.505679       -13.7602
 155   2.0000      -0.504953       -13.7405
 156   2.0000      -0.502327       -13.6690
 157   2.0000      -0.498840       -13.5741
 158   2.0000      -0.498572       -13.5668
 159   2.0000      -0.494081       -13.4446
 160   2.0000      -0.492078       -13.3901
 161   2.0000      -0.492034       -13.3889
 162   2.0000      -0.489469       -13.3191
 163   2.0000      -0.483449       -13.1553
 164   2.0000      -0.481765       -13.1095
 165   2.0000      -0.478298       -13.0152
 166   2.0000      -0.474684       -12.9168
 167   2.0000      -0.468121       -12.7382
 168   2.0000      -0.465470       -12.6661
 169   2.0000      -0.463800       -12.6206
 170   2.0000      -0.462491       -12.5850
 171   2.0000      -0.461146       -12.5484
 172   2.0000      -0.460342       -12.5265
 173   2.0000      -0.458528       -12.4772
 174   2.0000      -0.454018       -12.3544
 175   2.0000      -0.451739       -12.2924
 176   2.0000      -0.448704       -12.2099
 177   2.0000      -0.444886       -12.1060
 178   2.0000      -0.442255       -12.0344
 179   2.0000      -0.439545       -11.9606
 180   2.0000      -0.437596       -11.9076
 181   2.0000      -0.436302       -11.8724
 182   2.0000      -0.432760       -11.7760
 183   2.0000      -0.428688       -11.6652
 184   2.0000      -0.425074       -11.5668
 185   2.0000      -0.420497       -11.4423
 186   2.0000      -0.420097       -11.4314
 187   2.0000      -0.418896       -11.3987
 188   2.0000      -0.410695       -11.1756
 189   2.0000      -0.409713       -11.1489
 190   2.0000      -0.406865       -11.0713
 191   2.0000      -0.402830       -10.9616
 192   2.0000      -0.401879       -10.9357
 193   2.0000      -0.399326       -10.8662
 194   2.0000      -0.394998       -10.7484
 195   2.0000      -0.389173       -10.5899
 196   2.0000      -0.376654       -10.2493
 197   2.0000      -0.366681        -9.9779
 198   2.0000      -0.354376        -9.6431
 199   2.0000      -0.342231        -9.3126
 200   2.0000      -0.335909        -9.1405
 201   2.0000      -0.334711        -9.1080
 202   2.0000      -0.330769        -9.0007
 203   2.0000      -0.330607        -8.9963
 204   2.0000      -0.324910        -8.8413
 205   2.0000      -0.319054        -8.6819
 206   2.0000      -0.315602        -8.5880
 207   2.0000      -0.309078        -8.4104
 208   2.0000      -0.308575        -8.3967
 209   2.0000      -0.307755        -8.3744
 210   2.0000      -0.292962        -7.9719
 211   2.0000      -0.268132        -7.2963
 212   2.0000      -0.251931        -6.8554
 213   2.0000      -0.241364        -6.5678
 214   2.0000      -0.209501        -5.7008
 215   2.0000      -0.203172        -5.5286
 216   0.0000      -0.080206        -2.1825
 217   0.0000      -0.034866        -0.9488
 218   0.0000      -0.002421        -0.0659
 219   0.0000       0.000525         0.0143
 220   0.0000       0.018617         0.5066

MULLIKEN ATOMIC CHARGES
-----------------------
   0 C :   -0.026987
   1 C :   -0.066399
   2 C :    0.052804
   3 C :    0.029713
   4 C :   -0.066061
   5 S :    0.083281
   6 C :   -0.055681
   7 C :    0.033126
   8 C :    0.028575
   9 C :   -0.028745
  10 S :    0.080290
  11 C :   -0.008665
  12 C :   -0.127732
  13 S :    0.128882
  14 C :   -0.089824
  15 C :    0.116763
  16 C :    0.132347
  17 C :   -0.114674
  18 C :    0.215290
  19 F :   -0.181781
  20 C :    0.226452
  21 F :   -0.182441
  22 C :   -0.117798
  23 C :   -0.007610
  24 C :   -0.023614
  25 C :   -0.119410
  26 S :    0.097378
  27 C :   -0.126195
  28 C :   -0.085657
  29 C :   -0.054017
  30 C :    0.196612
  31 C :   -0.026912
  32 C :    0.100527
  33 O :   -0.387204
  34 C :    0.194443
  35 C :    0.238255
  36 N :   -0.103000
  37 C :    0.044680
  38 C :   -0.019993
  39 C :    0.004977
  40 C :   -0.217594
  41 C :    0.087916
  42 C :    0.208832
  43 N :   -0.157283
  44 C :    0.068774
  45 C :   -0.128410
  46 C :   -0.118825
  47 C :    0.074702
  48 C :    0.032942
  49 N :   -0.048995
  50 C :    0.018960
  51 C :   -0.010629
  52 C :   -0.019326
  53 C :    0.118444
  54 C :   -0.146317
  55 C :   -0.092245
  56 C :   -0.006667
  57 H :    0.019651
  58 H :    0.023519
  59 H :   -0.012325
  60 H :   -0.012637
  61 H :   -0.014964
  62 H :   -0.014177
  63 H :   -0.012835
  64 H :   -0.004351
  65 H :   -0.012895
  66 H :   -0.007419
  67 H :   -0.010739
  68 H :    0.009570
  69 H :    0.021796
  70 H :    0.015679
  71 H :    0.002029
  72 H :   -0.017867
  73 H :    0.028090
  74 H :    0.007305
  75 H :    0.002297
  76 H :    0.014260
  77 H :   -0.000982
  78 H :    0.116397
  79 H :   -0.008319
  80 H :   -0.036346
  81 H :   -0.043980
  82 H :    0.016715
  83 H :    0.019825
  84 H :    0.019413
  85 H :   -0.003312
  86 H :    0.006717
  87 H :    0.113107
  88 H :    0.006220
  89 H :    0.000324
  90 H :    0.117703
  91 H :   -0.032964
  92 H :   -0.034751
  93 H :    0.023102
  94 H :    0.026084
  95 H :    0.022786
Sum of atomic charges:   -0.0000000

LOEWDIN ATOMIC CHARGES
----------------------
   0 C :   -0.074572
   1 C :   -0.139863
   2 C :   -0.030591
   3 C :   -0.027242
   4 C :   -0.176743
   5 S :    0.354184
   6 C :   -0.183572
   7 C :   -0.036555
   8 C :   -0.034357
   9 C :   -0.151907
  10 S :    0.393072
  11 C :   -0.087747
  12 C :   -0.170366
  13 S :    0.462332
  14 C :   -0.177473
  15 C :   -0.042386
  16 C :   -0.051199
  17 C :   -0.045057
  18 C :    0.059025
  19 F :   -0.058969
  20 C :    0.061521
  21 F :   -0.060148
  22 C :   -0.042542
  23 C :   -0.048298
  24 C :   -0.046628
  25 C :   -0.174912
  26 S :    0.427263
  27 C :   -0.189889
  28 C :   -0.068764
  29 C :   -0.062147
  30 C :   -0.023000
  31 C :    0.022980
  32 C :    0.056791
  33 O :   -0.171808
  34 C :    0.069405
  35 C :   -0.030949
  36 N :   -0.020454
  37 C :    0.031797
  38 C :   -0.112726
  39 C :   -0.041099
  40 C :   -0.078954
  41 C :   -0.053827
  42 C :    0.044022
  43 N :   -0.012863
  44 C :    0.051201
  45 C :   -0.148573
  46 C :   -0.025251
  47 C :   -0.092856
  48 C :   -0.019603
  49 N :    0.104826
  50 C :   -0.043682
  51 C :   -0.046626
  52 C :   -0.063821
  53 C :   -0.048455
  54 C :   -0.047796
  55 C :   -0.042774
  56 C :   -0.031865
  57 H :    0.028697
  58 H :    0.026976
  59 H :    0.033257
  60 H :    0.032129
  61 H :    0.031240
  62 H :    0.032391
  63 H :    0.033267
  64 H :    0.024924
  65 H :    0.039159
  66 H :    0.025392
  67 H :    0.024113
  68 H :    0.020868
  69 H :    0.036480
  70 H :    0.031698
  71 H :    0.027861
  72 H :    0.006593
  73 H :    0.023929
  74 H :    0.009441
  75 H :    0.004211
  76 H :    0.035775
  77 H :    0.029554
  78 H :    0.074524
  79 H :    0.018202
  80 H :    0.018210
  81 H :    0.018903
  82 H :    0.028617
  83 H :    0.031035
  84 H :    0.033536
  85 H :    0.020564
  86 H :    0.025679
  87 H :    0.075497
  88 H :    0.028441
  89 H :    0.032674
  90 H :    0.092804
  91 H :    0.026275
  92 H :    0.025320
  93 H :    0.041380
  94 H :    0.027048
  95 H :    0.023827

  Mayer bond orders larger than 0.100000
B(  0-C ,  1-C ) :   1.8628 B(  0-C , 57-H ) :   0.9503 B(  0-C , 58-H ) :   0.9414
B(  1-C ,  2-C ) :   1.0818 B(  1-C ,  5-S ) :   1.0080 B(  2-C ,  3-C ) :   1.6568
B(  2-C , 59-H ) :   0.9928 B(  3-C ,  4-C ) :   1.1579 B(  3-C , 60-H ) :   0.9919
B(  4-C ,  5-S ) :   1.0478 B(  4-C ,  6-C ) :   1.5451 B(  6-C ,  7-C ) :   1.1754
B(  6-C , 10-S ) :   1.0352 B(  7-C ,  8-C ) :   1.5971 B(  7-C , 61-H ) :   0.9914
B(  8-C ,  9-C ) :   1.1455 B(  8-C , 62-H ) :   0.9975 B(  9-C , 10-S ) :   1.0304
B(  9-C , 11-C ) :   1.5954 B( 11-C , 12-C ) :   1.1887 B( 11-C , 63-H ) :   0.9385
B( 12-C , 13-S ) :   1.1380 B( 12-C , 14-C ) :   0.1024 B( 12-C , 16-C ) :   1.3242
B( 13-S , 14-C ) :   1.1299 B( 14-C , 15-C ) :   1.3211 B( 14-C , 23-C ) :   1.2030
B( 15-C , 16-C ) :   1.2125 B( 15-C , 22-C ) :   1.1705 B( 16-C , 17-C ) :   1.1639
B( 17-C , 18-C ) :   1.5163 B( 17-C , 22-C ) :   0.1099 B( 17-C , 64-H ) :   0.9754
B( 18-C , 19-F ) :   1.1222 B( 18-C , 20-C ) :   1.1581 B( 20-C , 21-F ) :   1.1259
B( 20-C , 22-C ) :   1.5008 B( 22-C , 65-H ) :   0.9989 B( 23-C , 24-C ) :   1.6225
B( 23-C , 66-H ) :   0.9656 B( 24-C , 25-C ) :   1.1722 B( 24-C , 67-H ) :   0.9688
B( 25-C , 26-S ) :   1.1226 B( 25-C , 29-C ) :   1.4930 B( 26-S , 27-C ) :   1.1503
B( 27-C , 28-C ) :   1.5690 B( 27-C , 68-H ) :   0.9726 B( 28-C , 29-C ) :   1.3007
B( 28-C , 35-C ) :   1.0122 B( 29-C , 30-C ) :   1.0358 B( 30-C , 31-C ) :   1.0311
B( 30-C , 69-H ) :   0.8999 B( 30-C , 70-H ) :   0.9027 B( 31-C , 32-C ) :   0.9828
B( 31-C , 36-N ) :   1.0545 B( 31-C , 71-H ) :   0.9213 B( 32-C , 33-O ) :   1.0239
B( 32-C , 35-C ) :   1.0570 B( 32-C , 72-H ) :   0.9109 B( 33-O , 34-C ) :   0.9874
B( 34-C , 73-H ) :   0.9829 B( 34-C , 74-H ) :   0.9658 B( 34-C , 75-H ) :   0.9667
B( 35-C , 76-H ) :   0.8901 B( 35-C , 77-H ) :   0.9118 B( 36-N , 37-C ) :   1.1577
B( 36-N , 78-H ) :   0.9311 B( 37-C , 38-C ) :   1.7197 B( 37-C , 79-H ) :   0.9606
B( 38-C , 39-C ) :   1.1052 B( 38-C , 80-H ) :   0.9622 B( 39-C , 40-C ) :   1.7834
B( 39-C , 81-H ) :   0.9674 B( 40-C , 41-C ) :   1.0655 B( 40-C , 42-C ) :   1.0549
B( 41-C , 82-H ) :   0.9505 B( 41-C , 83-H ) :   0.9510 B( 41-C , 84-H ) :   0.9478
B( 42-C , 43-N ) :   1.0047 B( 42-C , 85-H ) :   0.9382 B( 42-C , 86-H ) :   0.9296
B( 43-N , 44-C ) :   1.2157 B( 43-N , 87-H ) :   0.9393 B( 44-C , 45-C ) :   1.6643
B( 44-C , 88-H ) :   0.9661 B( 45-C , 46-C ) :   1.0509 B( 45-C , 89-H ) :   0.9482
B( 46-C , 47-C ) :   2.2415 B( 47-C , 48-C ) :   0.7929 B( 48-C , 49-N ) :   1.2500
B( 48-C , 50-C ) :   0.1296 B( 48-C , 52-C ) :   1.4483 B( 49-N , 50-C ) :   1.2174
B( 49-N , 90-H ) :   0.9403 B( 50-C , 51-C ) :   1.4538 B( 50-C , 53-C ) :   0.8124
B( 51-C , 52-C ) :   1.3069 B( 51-C , 91-H ) :   1.0119 B( 52-C , 92-H ) :   1.0120
B( 53-C , 54-C ) :   2.2873 B( 54-C , 55-C ) :   1.0182 B( 55-C , 56-C ) :   1.9315
B( 55-C , 93-H ) :   0.9621 B( 56-C , 94-H ) :   0.9629 B( 56-C , 95-H ) :   0.9550

-----------------------------------------------------------------------------
         ABSORPTION SPECTRUM VIA TRANSITION ELECTRIC DIPOLE MOMENTS
-----------------------------------------------------------------------------
State   Energy  Wavelength   fosc         T2         TX        TY        TZ
        (cm-1)    (nm)                  (au**2)     (au)      (au)      (au)
-----------------------------------------------------------------------------
   0   13614.7    734.5   1.381084816  33.39539  -0.95828  -5.29634   2.10378
   1   20811.0    480.5   0.042072139   0.66555   0.03784  -0.70856   0.40255
   2   21632.4    462.3   0.000234707   0.00357  -0.05392   0.02538  -0.00455
   3   24421.5    409.5   0.140050758   1.88794  -0.62399   0.42204   1.14912
   4   25020.3    399.7   0.004503435   0.05926   0.18530  -0.04600  -0.15101
   5   27312.5    366.1   0.135594011   1.63438   0.48216   1.18250  -0.06003
   6   30087.2    332.4   1.731861446  18.94989  -3.37983  -0.96299   2.56891
   7   30397.0    329.0   0.071858473   0.77826   0.40070   0.75688   0.21173
   8   31894.1    313.5   0.000085530   0.00088   0.02774  -0.01059   0.00099
   9   31971.8    312.8   0.289876771   2.98484   1.41356   0.95859  -0.26037
  10   32890.4    304.0   0.025439417   0.25463   0.23411   0.44702  -0.00094
  11   33137.0    301.8   0.129292327   1.28450   1.04488   0.34507  -0.27139
  12   33540.4    298.1   0.156682614   1.53790  -1.20294  -0.29562  -0.05869
  13   34289.7    291.6   0.005892394   0.05657  -0.01399   0.23738   0.00521
  14   34682.2    288.3   0.001000220   0.00949  -0.09117  -0.01950   0.02832
  15   35383.1    282.6   0.062015397   0.57700   0.73919   0.12164  -0.12571
  16   35632.3    280.6   0.000242013   0.00224   0.03093  -0.00712  -0.03505
  17   36092.8    277.1   0.006108245   0.05571  -0.12085  -0.18062   0.09213
  18   37114.5    269.4   0.185329190   1.64390  -1.01900   0.73977   0.24141
  19   37669.0    265.5   0.125495091   1.09678  -0.06285  -0.94488   0.44725
  20   38385.5    260.5   0.000590066   0.00506   0.02275  -0.06731   0.00344
  21   38849.1    257.4   0.000171220   0.00145   0.02960  -0.01022  -0.02169
  22   38935.9    256.8   0.207809949   1.75708   1.25288   0.29435  -0.31739
  23   39635.8    252.3   0.036691119   0.30475  -0.07066  -0.54621   0.03761
  24   40248.7    248.5   0.020547277   0.16807   0.37604  -0.15083   0.06254

FINAL SINGLE POINT ENERGY     -3842.829407667468

DIPOLE MOMENT
-------------
                                X             Y             Z
Electronic contribution:     93.45871      64.63497     -41.53863
Nuclear contribution   :    -92.24178     -65.27190      40.19943
                        -----------------------------------------
Total Dipole Moment    :      1.21693      -0.63694      -1.33919
                        -----------------------------------------
Magnitude (a.u.)       :      1.91835
Magnitude (Debye)      :      4.87605

Rotational constants in cm-1:     0.001303     0.000262     0.000226
Rotational constants in MHz :    39.063386     7.856058     6.778150

                             ****ORCA TERMINATED NORMALLY****
TOTAL RUN TIME: 0 days 0 hours 6 minutes 13 seconds 727 msec
