                         Program Version 4.2.0 -  RELEASE  -
|  1> # ORCA input file
|  2> # SCF done        -31.853790676630          0.000022647149
|  3> ! B3LYP/G D3BJ Opt RIJCOSX def2-SVP def2/J
|  4> * xyz 0 1
|  5>    C       -1.23923        -1.24083         0.00180
|  6>    C        0.00114        -0.69432        -0.00143
|  7>    C        1.40623        -1.14072        -0.00546
|  8>    O        1.87571        -2.24893        -0.00713
|  9>    N        2.14854         0.03749        -0.00714
| 10>    C        3.59061         0.05317        -0.01116
| 11>    C        1.38589         1.20256        -0.00461
| 12>    O        1.83812         2.31748        -0.00549
| 13>    C       -0.01208         0.73210        -0.00091
| 14>    C       -1.26237         1.25515         0.00271
| 15>    S       -2.44508        -0.00411         0.00554
| 16>    H       -1.52774        -2.27265         0.00223
| 17>    H        3.93399        -0.97976        -0.01181
| 18>    H        3.96118         0.57072         0.87444
| 19>    H        3.95630         0.57015        -0.89914
| 20>    H       -1.57035         2.28131         0.00390
| 21> *
| 22>
| 23>                          ****END OF INPUT****
 Total Charge           Charge          ....    0
 Multiplicity           Mult            ....    1
 Number of Electrons    NEL             ....   86
Dispersion correction           -0.033853868
FINAL SINGLE POINT ENERGY      -872.735570503079
Dispersion correction            ... done
Dispersion correction           -0.033763666
FINAL SINGLE POINT ENERGY      -872.737466354723
Dispersion correction            ... done
Dispersion correction           -0.033752229
FINAL SINGLE POINT ENERGY      -872.737565523517
Dispersion correction            ... done
Dispersion correction           -0.033749173
FINAL SINGLE POINT ENERGY      -872.737585204161
Dispersion correction            ... done
Dispersion correction           -0.033749175
FINAL SINGLE POINT ENERGY      -872.737585904685
Dispersion correction            ... done
                    ***********************HURRAY********************

CARTESIAN COORDINATES (ANGSTROEM)
---------------------------------
  C     -1.257824   -1.254592    0.002370
  C     -0.011124   -0.694986   -0.002235
  C      1.404569   -1.154473   -0.007250
  O      1.860211   -2.272068   -0.009463
  N      2.164182    0.034880   -0.008199
  C      3.609703    0.058215   -0.010225
  C      1.386617    1.208783   -0.006255
  O      1.834038    2.329890   -0.007383
  C     -0.022883    0.729748   -0.001791
  C     -1.278653    1.268084    0.003026
  S     -2.466193   -0.003409    0.008581
  H     -1.543453   -2.305185    0.002997
  H      3.960982   -0.981149   -0.010393
  H      3.992129    0.580838    0.879590
  H      3.989952    0.580395   -0.901218
  H     -1.581395    2.313841    0.004187

 Multiplicity           Mult            ....    1
 Number of Electrons    NEL             ....   86
 Basis Dimension        Dim             ....  183

ORBITAL ENERGIES
----------------

  NO   OCC          E(Eh)            E(eV)
   0   2.0000     -88.906461     -2419.2678
   1   2.0000     -19.134045      -520.6638
   2   2.0000     -19.132905      -520.6328
   3   2.0000     -14.381387      -391.3374
   4   2.0000     -10.315865      -280.7090
   5   2.0000     -10.314114      -280.6613
   6   2.0000     -10.248220      -278.8683
   7   2.0000     -10.247983      -278.8618
   8   2.0000     -10.231304      -278.4079
   9   2.0000     -10.219988      -278.1000
  10   2.0000     -10.219567      -278.0885
  11   2.0000      -8.001150      -217.7224
  12   2.0000      -5.969286      -162.4325
  13   2.0000      -5.964859      -162.3121
  14   2.0000      -5.962816      -162.2565
  15   2.0000      -1.065894       -29.0044
  16   2.0000      -1.046835       -28.4858
  17   2.0000      -0.957757       -26.0619
  18   2.0000      -0.907521       -24.6949
  19   2.0000      -0.801123       -21.7997
  20   2.0000      -0.754327       -20.5263
  21   2.0000      -0.713366       -19.4117
  22   2.0000      -0.663490       -18.0545
  23   2.0000      -0.609900       -16.5962
  24   2.0000      -0.588672       -16.0186
  25   2.0000      -0.572843       -15.5879
  26   2.0000      -0.494548       -13.4573
  27   2.0000      -0.491605       -13.3773
  28   2.0000      -0.483025       -13.1438
  29   2.0000      -0.466984       -12.7073
  30   2.0000      -0.443289       -12.0625
  31   2.0000      -0.432589       -11.7714
  32   2.0000      -0.428943       -11.6721
  33   2.0000      -0.420408       -11.4399
  34   2.0000      -0.406618       -11.0646
  35   2.0000      -0.406154       -11.0520
  36   2.0000      -0.391777       -10.6608
  37   2.0000      -0.381658       -10.3854
  38   2.0000      -0.295014        -8.0277
  39   2.0000      -0.292997        -7.9729
  40   2.0000      -0.276400        -7.5212
  41   2.0000      -0.274144        -7.4598
  42   2.0000      -0.273192        -7.4339
  43   0.0000      -0.070371        -1.9149
  44   0.0000      -0.061701        -1.6790
  45   0.0000       0.014030         0.3818
  46   0.0000       0.065304         1.7770
  47   0.0000       0.069841         1.9005

MULLIKEN ATOMIC CHARGES
-----------------------
   0 C :   -0.128415
   1 C :    0.003090
   2 C :    0.220903
   3 O :   -0.168621
   4 N :   -0.331492
   5 C :    0.141798
   6 C :    0.212967
   7 O :   -0.170817
   8 C :    0.013150
   9 C :   -0.129437
  10 S :    0.127079
  11 H :    0.045374
  12 H :    0.046422
  13 H :    0.036660
  14 H :    0.036667
  15 H :    0.044669
Sum of atomic charges:    0.0000000

LOEWDIN ATOMIC CHARGES
----------------------
   0 C :   -0.147813
   1 C :   -0.095968
   2 C :    0.088846
   3 O :   -0.159071
   4 N :   -0.046887
   5 C :    0.038389
   6 C :    0.087257
   7 O :   -0.159344
   8 C :   -0.095838
   9 C :   -0.148198
  10 S :    0.462762
  11 H :    0.038512
  12 H :    0.035808
  13 H :    0.031594
  14 H :    0.031588
  15 H :    0.038363

  Mayer bond orders larger than 0.100000
B(  0-C ,  1-C ) :   1.5468 B(  0-C , 10-S ) :   1.1755 B(  0-C , 11-H ) :   0.9656
B(  1-C ,  2-C ) :   0.9016 B(  1-C ,  8-C ) :   1.2700 B(  2-C ,  3-O ) :   2.1866
B(  2-C ,  4-N ) :   1.0422 B(  4-N ,  5-C ) :   0.9494 B(  4-N ,  6-C ) :   1.0419
B(  5-C , 12-H ) :   0.9602 B(  5-C , 13-H ) :   0.9730 B(  5-C , 14-H ) :   0.9730
B(  6-C ,  7-O ) :   2.1980 B(  6-C ,  8-C ) :   0.8997 B(  8-C ,  9-C ) :   1.5469
B(  9-C , 10-S ) :   1.1733 B(  9-C , 15-H ) :   0.9662

Dispersion correction           -0.033749378
FINAL SINGLE POINT ENERGY      -872.737585425091

DIPOLE MOMENT
-------------
                                X             Y             Z
Electronic contribution:     -7.35969      -0.09883       0.01721
Nuclear contribution   :      6.57784       0.08197      -0.01253
                        -----------------------------------------
Total Dipole Moment    :     -0.78185      -0.01686       0.00468
                        -----------------------------------------
Magnitude (a.u.)       :      0.78205
Magnitude (Debye)      :      1.98781

Rotational constants in cm-1:     0.063051     0.026309     0.018629
Rotational constants in MHz :  1890.231656   788.735308   558.483963

                             ****ORCA TERMINATED NORMALLY****
TOTAL RUN TIME: 0 days 0 hours 4 minutes 53 seconds 990 msec
