                         Program Version 4.2.0 -  RELEASE  -
|  1> # ORCA input file
|  2> # SCF done        -49.702549868511          0.000800260601
|  3> ! B3LYP/G D3BJ Opt RIJCOSX def2-SVP def2/J
|  4> * xyz 0 1
|  5>    C       -1.19264         0.06534        -0.33097
|  6>    C       -0.39882         1.19369        -0.18365
|  7>    C        0.97548         1.07289        -0.38731
|  8>    C        1.80357         2.21459        -0.24060
|  9>    N        2.46514         3.14046        -0.12003
| 10>    C        1.55786        -0.16229        -0.73588
| 11>    C        2.95702        -0.25075        -0.93741
| 12>    N        4.08640        -0.34136        -1.10112
| 13>    C        0.75820        -1.29548        -0.88247
| 14>    C       -0.60058        -1.16605        -0.67830
| 15>    C       -1.64152        -2.21229        -0.77254
| 16>    O       -1.49634        -3.37574        -1.04844
| 17>    C       -2.93016        -1.52101        -0.44981
| 18>    C       -2.63506        -0.11118        -0.18503
| 19>    C       -3.53797         0.85804         0.13362
| 20>    C       -3.20574         2.21102         0.37858
| 21>    N       -2.99174         3.31830         0.58459
| 22>    C       -4.93060         0.64288         0.25968
| 23>    N       -6.06552         0.53442         0.37935
| 24>    C       -4.09002        -2.18240        -0.43283
| 25>    H       -0.80777         2.15556         0.08207
| 26>    H        1.18792        -2.24940        -1.14840
| 27>    H       -4.08285        -3.23683        -0.66135
| 28>    H       -5.03887        -1.73068        -0.20411
| 29> *
| 30>
| 31>                          ****END OF INPUT****
 Total Charge           Charge          ....    0
 Multiplicity           Mult            ....    1
 Number of Electrons    NEL             ....  130
Dispersion correction           -0.064167876
FINAL SINGLE POINT ENERGY      -867.544704203794
Dispersion correction            ... done
Dispersion correction           -0.063611610
FINAL SINGLE POINT ENERGY      -867.549867032135
Dispersion correction            ... done
Dispersion correction           -0.063545778
FINAL SINGLE POINT ENERGY      -867.550089805302
Dispersion correction            ... done
FINAL SINGLE POINT ENERGY      -867.550174689353
FINAL SINGLE POINT ENERGY      -867.550209887916
FINAL SINGLE POINT ENERGY      -867.550236480097
FINAL SINGLE POINT ENERGY      -867.550247319723
Dispersion correction            ... done
Dispersion correction           -0.063589728
FINAL SINGLE POINT ENERGY      -867.550258750967
Dispersion correction            ... done
Dispersion correction           -0.063589089
FINAL SINGLE POINT ENERGY      -867.550262551211
Dispersion correction            ... done
                    ***********************HURRAY********************

CARTESIAN COORDINATES (ANGSTROEM)
---------------------------------
  C     -1.201586    0.088561   -0.332110
  C     -0.385641    1.216681   -0.181832
  C      0.997623    1.087031   -0.382347
  C      1.834402    2.240977   -0.225006
  N      2.501650    3.180710   -0.094851
  C      1.575731   -0.166109   -0.736356
  C      2.988486   -0.287343   -0.940418
  N      4.128909   -0.414843   -1.109835
  C      0.752393   -1.290471   -0.887080
  C     -0.611581   -1.143232   -0.685899
  C     -1.657004   -2.194912   -0.792140
  O     -1.497378   -3.354555   -1.092307
  C     -2.958011   -1.513351   -0.446577
  C     -2.664579   -0.089577   -0.182121
  C     -3.574255    0.890014    0.134413
  C     -3.210886    2.253683    0.372506
  N     -2.941610    3.365689    0.569834
  C     -4.976878    0.630404    0.252126
  N     -6.117359    0.438261    0.354116
  C     -4.103504   -2.217035   -0.407480
  H     -0.783482    2.191495    0.092261
  H      1.166599   -2.261965   -1.161090
  H     -4.042381   -3.282588   -0.649943
  H     -5.074270   -1.795796   -0.150226

 Multiplicity           Mult            ....    1
 Number of Electrons    NEL             ....  130
 Basis Dimension        Dim             ....  300

ORBITAL ENERGIES
----------------

  NO   OCC          E(Eh)            E(eV)
   0   2.0000     -19.178553      -521.8750
   1   2.0000     -14.377555      -391.2332
   2   2.0000     -14.377310      -391.2265
   3   2.0000     -14.368143      -390.9770
   4   2.0000     -14.367267      -390.9532
   5   2.0000     -10.325634      -280.9748
   6   2.0000     -10.314416      -280.6695
   7   2.0000     -10.303134      -280.3625
   8   2.0000     -10.301769      -280.3254
   9   2.0000     -10.301058      -280.3061
  10   2.0000     -10.283023      -279.8153
  11   2.0000     -10.278162      -279.6830
  12   2.0000     -10.277887      -279.6755
  13   2.0000     -10.275097      -279.5996
  14   2.0000     -10.274126      -279.5732
  15   2.0000     -10.265279      -279.3325
  16   2.0000     -10.264909      -279.3224
  17   2.0000     -10.263825      -279.2929
  18   2.0000     -10.263371      -279.2805
  19   2.0000     -10.261839      -279.2388
  20   2.0000      -1.084395       -29.5079
  21   2.0000      -0.965156       -26.2632
  22   2.0000      -0.953462       -25.9450
  23   2.0000      -0.941231       -25.6122
  24   2.0000      -0.935438       -25.4546
  25   2.0000      -0.932089       -25.3634
  26   2.0000      -0.903687       -24.5906
  27   2.0000      -0.855935       -23.2912
  28   2.0000      -0.833389       -22.6777
  29   2.0000      -0.827353       -22.5134
  30   2.0000      -0.756061       -20.5735
  31   2.0000      -0.739797       -20.1309
  32   2.0000      -0.688242       -18.7280
  33   2.0000      -0.657786       -17.8993
  34   2.0000      -0.646228       -17.5848
  35   2.0000      -0.624632       -16.9971
  36   2.0000      -0.596865       -16.2415
  37   2.0000      -0.561776       -15.2867
  38   2.0000      -0.554117       -15.0783
  39   2.0000      -0.539600       -14.6833
  40   2.0000      -0.509526       -13.8649
  41   2.0000      -0.500975       -13.6322
  42   2.0000      -0.498018       -13.5518
  43   2.0000      -0.479787       -13.0557
  44   2.0000      -0.476897       -12.9770
  45   2.0000      -0.461403       -12.5554
  46   2.0000      -0.452461       -12.3121
  47   2.0000      -0.447679       -12.1820
  48   2.0000      -0.432640       -11.7727
  49   2.0000      -0.409616       -11.1462
  50   2.0000      -0.404941       -11.0190
  51   2.0000      -0.403728       -10.9860
  52   2.0000      -0.397338       -10.8121
  53   2.0000      -0.395057       -10.7501
  54   2.0000      -0.392856       -10.6902
  55   2.0000      -0.390360       -10.6222
  56   2.0000      -0.389161       -10.5896
  57   2.0000      -0.378530       -10.3003
  58   2.0000      -0.375460       -10.2168
  59   2.0000      -0.371916       -10.1203
  60   2.0000      -0.371769       -10.1164
  61   2.0000      -0.329857        -8.9759
  62   2.0000      -0.320693        -8.7265
  63   2.0000      -0.309397        -8.4191
  64   2.0000      -0.297987        -8.1087
  65   0.0000      -0.161298        -4.3891
  66   0.0000      -0.143288        -3.8991
  67   0.0000      -0.084054        -2.2872
  68   0.0000      -0.072440        -1.9712
  69   0.0000      -0.046048        -1.2530

MULLIKEN ATOMIC CHARGES
-----------------------
   0 C :    0.053228
   1 C :   -0.032237
   2 C :   -0.045326
   3 C :   -0.140093
   4 N :    0.160329
   5 C :   -0.048608
   6 C :   -0.139267
   7 N :    0.157386
   8 C :   -0.020502
   9 C :   -0.010358
  10 C :    0.155762
  11 O :   -0.125430
  12 C :   -0.122463
  13 C :    0.264440
  14 C :   -0.282758
  15 C :   -0.132204
  16 N :    0.131358
  17 C :   -0.146418
  18 N :    0.126874
  19 C :    0.026732
  20 H :    0.023233
  21 H :    0.018987
  22 H :    0.064749
  23 H :    0.062586
Sum of atomic charges:   -0.0000000

LOEWDIN ATOMIC CHARGES
----------------------
   0 C :    0.003395
   1 C :    0.036285
   2 C :   -0.019310
   3 C :   -0.025502
   4 N :   -0.011911
   5 C :   -0.023238
   6 C :   -0.025697
   7 N :   -0.014157
   8 C :    0.052393
   9 C :   -0.032216
  10 C :    0.083029
  11 O :   -0.113279
  12 C :   -0.073872
  13 C :    0.058372
  14 C :   -0.098669
  15 C :   -0.014166
  16 N :   -0.027961
  17 C :   -0.009884
  18 N :   -0.029211
  19 C :    0.083664
  20 H :    0.052735
  21 H :    0.056291
  22 H :    0.049349
  23 H :    0.043558

  Mayer bond orders larger than 0.100000
B(  0-C ,  1-C ) :   1.3271 B(  0-C ,  9-C ) :   1.3144 B(  0-C , 13-C ) :   0.9950
B(  1-C ,  2-C ) :   1.3924 B(  1-C , 20-H ) :   0.9797 B(  2-C ,  3-C ) :   1.0925
B(  2-C ,  5-C ) :   1.3590 B(  3-C ,  4-N ) :   3.0043 B(  5-C ,  6-C ) :   1.0913
B(  5-C ,  8-C ) :   1.3582 B(  6-C ,  7-N ) :   3.0050 B(  8-C ,  9-C ) :   1.3453
B(  8-C , 21-H ) :   1.0059 B(  9-C , 10-C ) :   0.9175 B( 10-C , 11-O ) :   2.2467
B( 10-C , 12-C ) :   0.9184 B( 12-C , 13-C ) :   1.0080 B( 12-C , 19-C ) :   1.9041
B( 13-C , 14-C ) :   1.6594 B( 14-C , 15-C ) :   1.1330 B( 14-C , 17-C ) :   1.1425
B( 15-C , 16-N ) :   2.9248 B( 17-C , 18-N ) :   2.9386 B( 19-C , 22-H ) :   0.9122
B( 19-C , 23-H ) :   0.9208

Dispersion correction           -0.063587523
FINAL SINGLE POINT ENERGY      -867.550264251366

DIPOLE MOMENT
-------------
                                X             Y             Z
Electronic contribution:      3.05155       3.76913       0.32536
Nuclear contribution   :     -4.18693      -5.24658      -0.46024
                        -----------------------------------------
Total Dipole Moment    :     -1.13538      -1.47745      -0.13488
                        -----------------------------------------
Magnitude (a.u.)       :      1.86819
Magnitude (Debye)      :      4.74857

Rotational constants in cm-1:     0.019011     0.008364     0.005809
Rotational constants in MHz :   569.941307   250.756196   174.156157

                             ****ORCA TERMINATED NORMALLY****
TOTAL RUN TIME: 0 days 0 hours 23 minutes 46 seconds 315 msec
