                         Program Version 4.2.0 -  RELEASE  -
|  1> # ORCA input file
|  2> # SCF done        -24.517965743865          0.000051622091
|  3> ! B3LYP/G D3BJ Opt RIJCOSX def2-SVP def2/J
|  4> * xyz 0 1
|  5>    C        1.43947         1.21432         0.00129
|  6>    C        0.15270         0.78513         0.00039
|  7>    S       -1.39605         1.57652         0.00184
|  8>    C       -2.21164         0.01063        -0.00132
|  9>    C       -3.69965        -0.02117        -0.00133
| 10>    C       -1.36067        -1.03665        -0.00330
| 11>    C        0.01208        -0.64251        -0.00239
| 12>    C        1.22515        -1.26729        -0.00348
| 13>    S        2.51845        -0.13087        -0.00123
| 14>    H        1.82552         2.21254         0.00322
| 15>    H       -4.10168         0.98870        -0.00232
| 16>    H       -4.06925        -0.54371         0.88081
| 17>    H       -4.06921        -0.54558        -0.88236
| 18>    H       -1.68139        -2.06304        -0.00540
| 19>    H        1.44250        -2.31582        -0.00544
| 20> *
| 21>
| 22>                          ****END OF INPUT****
 Total Charge           Charge          ....    0
 Multiplicity           Mult            ....    1
 Number of Electrons    NEL             ....   80
Dispersion correction           -0.034289395
FINAL SINGLE POINT ENERGY     -1066.338094010214
Dispersion correction            ... done
Dispersion correction           -0.034196597
FINAL SINGLE POINT ENERGY     -1066.340503353774
Dispersion correction            ... done
Dispersion correction           -0.034183123
FINAL SINGLE POINT ENERGY     -1066.340588041541
Dispersion correction            ... done
Dispersion correction           -0.034179769
FINAL SINGLE POINT ENERGY     -1066.340597623781
Dispersion correction            ... done
Dispersion correction           -0.034178187
FINAL SINGLE POINT ENERGY     -1066.340599107219
Dispersion correction            ... done
                    ***********************HURRAY********************

CARTESIAN COORDINATES (ANGSTROEM)
---------------------------------
  C      1.469912    1.228489    0.001854
  C      0.166622    0.794893    0.000363
  S     -1.402242    1.581210    0.001234
  C     -2.223296    0.008178   -0.001865
  C     -3.721990   -0.019171   -0.001045
  C     -1.361209   -1.046124   -0.004046
  C      0.025846   -0.644458   -0.002808
  C      1.253904   -1.276896   -0.003729
  S      2.546575   -0.129856   -0.000445
  H      1.861328    2.243203    0.004403
  H     -4.146051    0.994737   -0.004091
  H     -4.109494   -0.539891    0.889401
  H     -4.110311   -0.545689   -0.887642
  H     -1.696374   -2.084396   -0.006350
  H      1.473110   -2.343029   -0.006254

 Multiplicity           Mult            ....    1
 Number of Electrons    NEL             ....   80
 Basis Dimension        Dim             ....  164

ORBITAL ENERGIES
----------------

  NO   OCC          E(Eh)            E(eV)
   0   2.0000     -88.876367     -2418.4489
   1   2.0000     -88.863430     -2418.0969
   2   2.0000     -10.222100      -278.1575
   3   2.0000     -10.214520      -277.9512
   4   2.0000     -10.213244      -277.9165
   5   2.0000     -10.210151      -277.8323
   6   2.0000     -10.202838      -277.6333
   7   2.0000     -10.199096      -277.5315
   8   2.0000     -10.190271      -277.2914
   9   2.0000      -7.970930      -216.9000
  10   2.0000      -7.958530      -216.5626
  11   2.0000      -5.939083      -161.6107
  12   2.0000      -5.934859      -161.4957
  13   2.0000      -5.932486      -161.4312
  14   2.0000      -5.927103      -161.2847
  15   2.0000      -5.923426      -161.1846
  16   2.0000      -5.918438      -161.0489
  17   2.0000      -0.895339       -24.3634
  18   2.0000      -0.840211       -22.8633
  19   2.0000      -0.753305       -20.4985
  20   2.0000      -0.745522       -20.2867
  21   2.0000      -0.688992       -18.7484
  22   2.0000      -0.676466       -18.4076
  23   2.0000      -0.568510       -15.4699
  24   2.0000      -0.546733       -14.8774
  25   2.0000      -0.533355       -14.5133
  26   2.0000      -0.491093       -13.3633
  27   2.0000      -0.446524       -12.1505
  28   2.0000      -0.433574       -11.7981
  29   2.0000      -0.417697       -11.3661
  30   2.0000      -0.408182       -11.1072
  31   2.0000      -0.399084       -10.8596
  32   2.0000      -0.387297       -10.5389
  33   2.0000      -0.375394       -10.2150
  34   2.0000      -0.344523        -9.3749
  35   2.0000      -0.335939        -9.1414
  36   2.0000      -0.326976        -8.8975
  37   2.0000      -0.279510        -7.6059
  38   2.0000      -0.234965        -6.3937
  39   2.0000      -0.203806        -5.5458
  40   0.0000      -0.034969        -0.9516
  41   0.0000       0.015899         0.4326
  42   0.0000       0.024380         0.6634
  43   0.0000       0.037602         1.0232
  44   0.0000       0.067648         1.8408

MULLIKEN ATOMIC CHARGES
-----------------------
   0 C :   -0.158512
   1 C :   -0.007844
   2 S :    0.084551
   3 C :   -0.205414
   4 C :    0.098846
   5 C :    0.030490
   6 C :    0.105638
   7 C :   -0.148331
   8 S :    0.101550
   9 H :    0.020592
  10 H :    0.013705
  11 H :    0.037286
  12 H :    0.037153
  13 H :   -0.027591
  14 H :    0.017882
Sum of atomic charges:    0.0000000

LOEWDIN ATOMIC CHARGES
----------------------
   0 C :   -0.223245
   1 C :   -0.192715
   2 S :    0.357013
   3 C :   -0.150146
   4 C :   -0.058703
   5 C :   -0.076391
   6 C :   -0.074910
   7 C :   -0.212697
   8 S :    0.441961
   9 H :    0.025620
  10 H :    0.030518
  11 H :    0.040494
  12 H :    0.040464
  13 H :    0.028286
  14 H :    0.024452

  Mayer bond orders larger than 0.100000
B(  0-C ,  1-C ) :   1.5262 B(  0-C ,  7-C ) :   0.1035 B(  0-C ,  8-S ) :   1.1674
B(  0-C ,  9-H ) :   0.9745 B(  1-C ,  2-S ) :   1.0273 B(  1-C ,  6-C ) :   1.2290
B(  2-S ,  3-C ) :   1.0729 B(  3-C ,  4-C ) :   1.0776 B(  3-C ,  5-C ) :   1.6451
B(  4-C , 10-H ) :   0.9501 B(  4-C , 11-H ) :   0.9563 B(  4-C , 12-H ) :   0.9564
B(  5-C ,  6-C ) :   1.1282 B(  5-C , 13-H ) :   1.0000 B(  6-C ,  7-C ) :   1.4595
B(  7-C ,  8-S ) :   1.1668 B(  7-C , 14-H ) :   0.9655

Dispersion correction           -0.034178074
FINAL SINGLE POINT ENERGY     -1066.340599039430

DIPOLE MOMENT
-------------
                                X             Y             Z
Electronic contribution:      8.74159       3.09701       0.00539
Nuclear contribution   :     -9.12764      -3.35989      -0.00554
                        -----------------------------------------
Total Dipole Moment    :     -0.38604      -0.26287      -0.00016
                        -----------------------------------------
Magnitude (a.u.)       :      0.46705
Magnitude (Debye)      :      1.18714

Rotational constants in cm-1:     0.112319     0.026917     0.021803
Rotational constants in MHz :  3367.234865   806.958677   653.636778

                             ****ORCA TERMINATED NORMALLY****
TOTAL RUN TIME: 0 days 0 hours 3 minutes 49 seconds 955 msec
