                         Program Version 4.2.0 -  RELEASE  -
|  1> # ORCA input file
|  2> # SCF done        -43.172947613534          0.000632473465
|  3> ! B3LYP/G D3BJ Opt RIJCOSX def2-SVP def2/J
|  4> * xyz 0 1
|  5>    C       -0.37635        -1.14508        -0.43397
|  6>    C        0.84535        -0.58194        -0.58149
|  7>    C        0.94128         0.70702         0.01748
|  8>    C        2.14526         1.53772         0.00721
|  9>    C        2.04380         2.91916        -0.00912
| 10>    C        3.19096         3.71263        -0.01125
| 11>    C        4.43939         3.11339        -0.00039
| 12>    C        4.54438         1.72129         0.01451
| 13>    C        3.40479         0.93458         0.01835
| 14>    O        5.82215         1.24321         0.02574
| 15>    C        6.01753        -0.14935         0.03062
| 16>    O        2.97776         5.05725        -0.02643
| 17>    C        4.09506         5.91216        -0.01482
| 18>    C       -0.23713         1.06706         0.60586
| 19>    S       -1.45228        -0.13354         0.44915
| 20>    H       -0.72188        -2.09514        -0.79007
| 21>    H        1.64997        -1.04914        -1.11995
| 22>    H        1.08349         3.40670        -0.03755
| 23>    H        5.35550         3.67967        -0.00320
| 24>    H        3.47090        -0.14026         0.05201
| 25>    H        7.09681        -0.29561         0.03399
| 26>    H        5.59279        -0.61794        -0.86317
| 27>    H        5.58771        -0.61360         0.92407
| 28>    H        3.69217         6.92396        -0.02262
| 29>    H        4.72252         5.76548        -0.89958
| 30>    H        4.69951         5.76973         0.88659
| 31>    H       -0.45726         1.96369         1.14935
| 32> *
| 33>
| 34>                          ****END OF INPUT****
 Total Charge           Charge          ....    0
 Multiplicity           Mult            ....    1
 Number of Electrons    NEL             ....  116
Dispersion correction           -0.055280276
FINAL SINGLE POINT ENERGY     -1012.608092627127
Dispersion correction            ... done
Dispersion correction           -0.055080491
FINAL SINGLE POINT ENERGY     -1012.611254139280
Dispersion correction            ... done
Dispersion correction           -0.055052545
FINAL SINGLE POINT ENERGY     -1012.611357919901
Dispersion correction            ... done
FINAL SINGLE POINT ENERGY     -1012.611359961643
FINAL SINGLE POINT ENERGY     -1012.611394293923
FINAL SINGLE POINT ENERGY     -1012.611394425255
FINAL SINGLE POINT ENERGY     -1012.611381813872
FINAL SINGLE POINT ENERGY     -1012.611356177248
FINAL SINGLE POINT ENERGY     -1012.611320336559
FINAL SINGLE POINT ENERGY     -1012.611134146727
FINAL SINGLE POINT ENERGY     -1012.610665905496
FINAL SINGLE POINT ENERGY     -1012.610694697652
FINAL SINGLE POINT ENERGY     -1012.610736168087
FINAL SINGLE POINT ENERGY     -1012.610747866320
FINAL SINGLE POINT ENERGY     -1012.610778643029
FINAL SINGLE POINT ENERGY     -1012.610793067695
FINAL SINGLE POINT ENERGY     -1012.610816179620
Dispersion correction            ... done
Dispersion correction           -0.055139046
FINAL SINGLE POINT ENERGY     -1012.610823298852
Dispersion correction            ... done
Dispersion correction           -0.055139793
FINAL SINGLE POINT ENERGY     -1012.610827096992
Dispersion correction            ... done
                    ***********************HURRAY********************

CARTESIAN COORDINATES (ANGSTROEM)
---------------------------------
  C     -0.348166   -1.266318   -0.040833
  C      0.906763   -0.725303    0.038170
  C      0.916201    0.712236   -0.035377
  C      2.136020    1.547626    0.002085
  C      2.047671    2.937796    0.100606
  C      3.206518    3.729741    0.106050
  C      4.467894    3.139067    0.018036
  C      4.558288    1.740471   -0.077558
  C      3.409656    0.945704   -0.081293
  O      5.819839    1.247957   -0.172168
  C      5.998798   -0.145155   -0.262656
  O      3.002767    5.066649    0.202926
  C      4.115081    5.929458    0.220884
  C     -0.368397    1.204337   -0.166698
  S     -1.558398   -0.042606   -0.206659
  H     -0.632885   -2.316245    0.004604
  H      1.800844   -1.334199    0.163485
  H      1.090148    3.449135    0.186935
  H      5.394039    3.710621    0.017631
  H      3.491966   -0.133846   -0.172848
  H      7.080450   -0.322404   -0.328275
  H      5.511699   -0.564776   -1.161643
  H      5.602425   -0.667772    0.627171
  H      3.715326    6.947691    0.321375
  H      4.703051    5.862195   -0.712367
  H      4.785324    5.718873    1.073619
  H     -0.678743    2.242168   -0.263883

 Multiplicity           Mult            ....    1
 Number of Electrons    NEL             ....  116
 Basis Dimension        Dim             ....  274

ORBITAL ENERGIES
----------------

  NO   OCC          E(Eh)            E(eV)
   0   2.0000     -88.872838     -2418.3529
   1   2.0000     -19.163447      -521.4639
   2   2.0000     -19.161646      -521.4149
   3   2.0000     -10.247655      -278.8529
   4   2.0000     -10.246399      -278.8187
   5   2.0000     -10.246270      -278.8152
   6   2.0000     -10.244112      -278.7565
   7   2.0000     -10.210981      -277.8549
   8   2.0000     -10.207871      -277.7703
   9   2.0000     -10.201110      -277.5863
  10   2.0000     -10.198041      -277.5028
  11   2.0000     -10.192398      -277.3492
  12   2.0000     -10.178955      -276.9834
  13   2.0000     -10.178900      -276.9820
  14   2.0000     -10.174583      -276.8645
  15   2.0000      -7.968002      -216.8203
  16   2.0000      -5.936062      -161.5285
  17   2.0000      -5.931866      -161.4143
  18   2.0000      -5.929623      -161.3533
  19   2.0000      -1.060004       -28.8442
  20   2.0000      -1.057814       -28.7846
  21   2.0000      -0.879408       -23.9299
  22   2.0000      -0.843160       -22.9436
  23   2.0000      -0.771405       -20.9910
  24   2.0000      -0.754557       -20.5325
  25   2.0000      -0.723494       -19.6873
  26   2.0000      -0.714294       -19.4369
  27   2.0000      -0.694176       -18.8895
  28   2.0000      -0.681330       -18.5399
  29   2.0000      -0.609443       -16.5838
  30   2.0000      -0.589054       -16.0290
  31   2.0000      -0.558517       -15.1980
  32   2.0000      -0.552610       -15.0373
  33   2.0000      -0.537790       -14.6340
  34   2.0000      -0.504271       -13.7219
  35   2.0000      -0.492309       -13.3964
  36   2.0000      -0.484429       -13.1820
  37   2.0000      -0.479518       -13.0483
  38   2.0000      -0.473628       -12.8881
  39   2.0000      -0.468114       -12.7380
  40   2.0000      -0.441992       -12.0272
  41   2.0000      -0.420793       -11.4504
  42   2.0000      -0.416836       -11.3427
  43   2.0000      -0.398775       -10.8512
  44   2.0000      -0.395141       -10.7523
  45   2.0000      -0.392086       -10.6692
  46   2.0000      -0.377837       -10.2815
  47   2.0000      -0.376761       -10.2522
  48   2.0000      -0.365936        -9.9576
  49   2.0000      -0.349525        -9.5110
  50   2.0000      -0.346784        -9.4365
  51   2.0000      -0.334024        -9.0892
  52   2.0000      -0.329338        -8.9617
  53   2.0000      -0.314570        -8.5599
  54   2.0000      -0.259503        -7.0614
  55   2.0000      -0.245948        -6.6926
  56   2.0000      -0.218362        -5.9419
  57   2.0000      -0.211977        -5.7682
  58   0.0000      -0.034126        -0.9286
  59   0.0000      -0.000143        -0.0039
  60   0.0000       0.016610         0.4520
  61   0.0000       0.045823         1.2469
  62   0.0000       0.059012         1.6058

MULLIKEN ATOMIC CHARGES
-----------------------
   0 C :   -0.086221
   1 C :    0.019492
   2 C :    0.058582
   3 C :    0.163776
   4 C :   -0.083016
   5 C :    0.247878
   6 C :   -0.147988
   7 C :    0.243062
   8 C :   -0.157904
   9 O :   -0.314621
  10 C :    0.184502
  11 O :   -0.312212
  12 C :    0.185135
  13 C :   -0.143953
  14 S :    0.102847
  15 H :    0.025660
  16 H :   -0.013957
  17 H :   -0.044218
  18 H :   -0.036901
  19 H :   -0.053084
  20 H :    0.030238
  21 H :    0.020015
  22 H :    0.019184
  23 H :    0.030157
  24 H :    0.019425
  25 H :    0.020773
  26 H :    0.023348
Sum of atomic charges:   -0.0000000

LOEWDIN ATOMIC CHARGES
----------------------
   0 C :   -0.191870
   1 C :   -0.061474
   2 C :   -0.056210
   3 C :    0.001266
   4 C :   -0.064569
   5 C :    0.061625
   6 C :   -0.105057
   7 C :    0.064233
   8 C :   -0.099103
   9 O :   -0.100841
  10 C :    0.077200
  11 O :   -0.098903
  12 C :    0.078650
  13 C :   -0.191806
  14 S :    0.433298
  15 H :    0.024646
  16 H :    0.026887
  17 H :    0.025751
  18 H :    0.029119
  19 H :    0.019919
  20 H :    0.026105
  21 H :    0.012785
  22 H :    0.012736
  23 H :    0.025772
  24 H :    0.013307
  25 H :    0.013604
  26 H :    0.022931

  Mayer bond orders larger than 0.100000
B(  0-C ,  1-C ) :   1.5645 B(  0-C , 14-S ) :   1.1693 B(  0-C , 15-H ) :   0.9631
B(  1-C ,  2-C ) :   1.2524 B(  1-C , 16-H ) :   0.9847 B(  2-C ,  3-C ) :   1.0336
B(  2-C , 13-C ) :   1.5396 B(  3-C ,  4-C ) :   1.3699 B(  3-C ,  8-C ) :   1.2819
B(  4-C ,  5-C ) :   1.3111 B(  4-C , 17-H ) :   0.9945 B(  5-C ,  6-C ) :   1.2937
B(  5-C , 11-O ) :   1.1385 B(  6-C ,  7-C ) :   1.3106 B(  6-C , 18-H ) :   0.9988
B(  7-C ,  8-C ) :   1.3214 B(  7-C ,  9-O ) :   1.1260 B(  8-C , 19-H ) :   0.9857
B(  9-O , 10-C ) :   0.9726 B( 10-C , 20-H ) :   0.9748 B( 10-C , 21-H ) :   0.9641
B( 10-C , 22-H ) :   0.9648 B( 11-O , 12-C ) :   0.9690 B( 12-C , 23-H ) :   0.9767
B( 12-C , 24-H ) :   0.9658 B( 12-C , 25-H ) :   0.9650 B( 13-C , 14-S ) :   1.1614
B( 13-C , 26-H ) :   0.9538

Dispersion correction           -0.055140192
FINAL SINGLE POINT ENERGY     -1012.610825518593

DIPOLE MOMENT
-------------
                                X             Y             Z
Electronic contribution:    -13.00692      -3.16023      -0.23842
Nuclear contribution   :     13.57493       2.90795       0.21302
                        -----------------------------------------
Total Dipole Moment    :      0.56801      -0.25228      -0.02540
                        -----------------------------------------
Magnitude (a.u.)       :      0.62204
Magnitude (Debye)      :      1.58109

Rotational constants in cm-1:     0.026491     0.010197     0.007396
Rotational constants in MHz :   794.172804   305.700248   221.737800

                             ****ORCA TERMINATED NORMALLY****
TOTAL RUN TIME: 0 days 0 hours 56 minutes 31 seconds 732 msec
