                         Program Version 4.2.0 -  RELEASE  -
|  1> # ORCA input file
|  2> # SCF done        -67.381548984271          0.000253732741
|  3> ! B3LYP/G D3BJ Opt RIJCOSX def2-SVP def2/J
|  4> * xyz 0 1
|  5>    C        1.81332        -0.93479         1.58721
|  6>    C        2.09306         0.29085         0.99815
|  7>    C        1.09368         1.08136         0.44824
|  8>    C       -0.19604         0.59249         0.51501
|  9>    C       -0.47404        -0.64546         1.11256
| 10>    C        0.51773        -1.43111         1.65763
| 11>    O       -1.81772        -0.88339         1.04784
| 12>    C       -2.38334         0.16990         0.42664
| 13>    C       -3.72642         0.30704         0.19582
| 14>    C       -4.65649        -0.64782         0.61669
| 15>    C       -6.02590        -0.61389         0.53625
| 16>    C       -6.96719         0.42423         0.20734
| 17>    C       -6.80394         1.78507         0.31802
| 18>    C       -5.66693         2.43338         0.83397
| 19>    N       -4.78747         3.03351         1.26820
| 20>    C       -7.80401         2.72956         0.01112
| 21>    N       -8.55931         3.55945        -0.23558
| 22>    C       -8.25155        -0.22818        -0.07208
| 23>    C       -8.15195        -1.58929         0.26530
| 24>    C       -6.77274        -1.87960         0.71088
| 25>    O       -6.32973        -2.93913         1.10260
| 26>    C       -9.22601        -2.44720         0.14217
| 27>    C      -10.42398        -1.93539        -0.33781
| 28>    C      -10.52566        -0.59776        -0.68821
| 29>    C       -9.44842         0.27030        -0.55907
| 30>    N       -1.41460         1.07208         0.08336
| 31>    H        2.62010        -1.51785         2.00221
| 32>    H        3.11333         0.63986         0.96601
| 33>    H        1.31216         2.03307        -0.00788
| 34>    H        0.29160        -2.37985         2.11401
| 35>    H       -4.04019         1.19753        -0.32046
| 36>    H       -4.25334        -1.57774         1.00419
| 37>    H       -9.12277        -3.48590         0.41646
| 38>    H      -11.28192        -2.58266        -0.44271
| 39>    H      -11.46156        -0.21740        -1.06979
| 40>    H       -9.55560         1.30372        -0.84599
| 41>    H       -1.59944         1.97200        -0.32347
| 42> *
| 43>
| 44>                          ****END OF INPUT****
 Total Charge           Charge          ....    0
 Multiplicity           Mult            ....    1
 Number of Electrons    NEL             ....  174
Dispersion correction           -0.091337936
FINAL SINGLE POINT ENERGY     -1120.778594468219
Dispersion correction            ... done
Dispersion correction           -0.090779132
FINAL SINGLE POINT ENERGY     -1120.784912080320
Dispersion correction            ... done
Dispersion correction           -0.091275904
FINAL SINGLE POINT ENERGY     -1120.783554654166
Dispersion correction            ... done
FINAL SINGLE POINT ENERGY     -1120.784512879876
FINAL SINGLE POINT ENERGY     -1120.784453489208
FINAL SINGLE POINT ENERGY     -1120.784137641817
FINAL SINGLE POINT ENERGY     -1120.784340856585
FINAL SINGLE POINT ENERGY     -1120.784471649494
FINAL SINGLE POINT ENERGY     -1120.784501906022
Dispersion correction            ... done
Dispersion correction           -0.091226304
FINAL SINGLE POINT ENERGY     -1120.784454776111
Dispersion correction            ... done
Dispersion correction           -0.091236883
FINAL SINGLE POINT ENERGY     -1120.784450999851
Dispersion correction            ... done
                    ***********************HURRAY********************

CARTESIAN COORDINATES (ANGSTROEM)
---------------------------------
  C      1.847694   -0.788044    1.793406
  C      2.071507    0.510161    1.314207
  C      1.055743    1.252299    0.695229
  C     -0.187730    0.637792    0.581494
  C     -0.398961   -0.661379    1.063055
  C      0.591951   -1.405658    1.675410
  O     -1.713389   -1.012637    0.832003
  C     -2.328640    0.032057    0.228314
  C     -3.666463    0.088451   -0.100815
  C     -4.623688   -0.860264    0.280440
  C     -6.007100   -0.754384    0.261900
  C     -6.921784    0.353615    0.065834
  C     -6.667451    1.724293    0.119865
  C     -5.454610    2.311852    0.590813
  N     -4.490136    2.830817    0.984515
  C     -7.647458    2.708664   -0.218908
  N     -8.410983    3.537166   -0.507243
  C     -8.291863   -0.224185   -0.062059
  C     -8.222396   -1.615473    0.155417
  C     -6.808539   -2.006559    0.399450
  O     -6.394881   -3.126429    0.636547
  C     -9.348926   -2.426850    0.157202
  C    -10.596033   -1.829582   -0.058340
  C    -10.683034   -0.447623   -0.268825
  C     -9.543699    0.367323   -0.272636
  N     -1.413407    1.033586    0.056836
  H      2.664573   -1.330768    2.271723
  H      3.060150    0.959614    1.427731
  H      1.233301    2.261534    0.321607
  H      0.396763   -2.410438    2.050236
  H     -3.966055    1.005820   -0.595538
  H     -4.266101   -1.838757    0.623716
  H     -9.240477   -3.497917    0.341570
  H    -11.503950   -2.436735   -0.057867
  H    -11.658877    0.013690   -0.437547
  H     -9.655607    1.435119   -0.444312
  H     -1.682727    1.970819   -0.219601

 Multiplicity           Mult            ....    1
 Number of Electrons    NEL             ....  174
 Basis Dimension        Dim             ....  419

ORBITAL ENERGIES
----------------

  NO   OCC          E(Eh)            E(eV)
   0   2.0000     -19.246120      -523.7136
   1   2.0000     -19.120009      -520.2819
   2   2.0000     -14.427267      -392.5859
   3   2.0000     -14.332001      -389.9936
   4   2.0000     -14.325914      -389.8279
   5   2.0000     -10.339548      -281.3534
   6   2.0000     -10.288469      -279.9635
   7   2.0000     -10.275723      -279.6166
   8   2.0000     -10.267615      -279.3960
   9   2.0000     -10.253314      -279.0069
  10   2.0000     -10.250707      -278.9359
  11   2.0000     -10.238216      -278.5960
  12   2.0000     -10.234072      -278.4833
  13   2.0000     -10.232601      -278.4432
  14   2.0000     -10.231139      -278.4035
  15   2.0000     -10.228552      -278.3331
  16   2.0000     -10.226873      -278.2874
  17   2.0000     -10.225604      -278.2528
  18   2.0000     -10.217299      -278.0268
  19   2.0000     -10.208707      -277.7930
  20   2.0000     -10.208644      -277.7913
  21   2.0000     -10.207736      -277.7666
  22   2.0000     -10.206993      -277.7464
  23   2.0000     -10.206303      -277.7276
  24   2.0000     -10.200226      -277.5623
  25   2.0000     -10.200107      -277.5590
  26   2.0000      -1.166788       -31.7499
  27   2.0000      -1.023908       -27.8620
  28   2.0000      -0.993401       -27.0318
  29   2.0000      -0.912250       -24.8236
  30   2.0000      -0.895337       -24.3634
  31   2.0000      -0.893189       -24.3049
  32   2.0000      -0.886933       -24.1347
  33   2.0000      -0.843686       -22.9579
  34   2.0000      -0.825754       -22.4699
  35   2.0000      -0.794632       -21.6230
  36   2.0000      -0.785424       -21.3725
  37   2.0000      -0.775883       -21.1128
  38   2.0000      -0.756814       -20.5939
  39   2.0000      -0.733626       -19.9630
  40   2.0000      -0.694030       -18.8855
  41   2.0000      -0.683690       -18.6041
  42   2.0000      -0.666609       -18.1393
  43   2.0000      -0.664152       -18.0725
  44   2.0000      -0.634548       -17.2669
  45   2.0000      -0.607229       -16.5235
  46   2.0000      -0.589590       -16.0436
  47   2.0000      -0.584058       -15.8930
  48   2.0000      -0.580281       -15.7903
  49   2.0000      -0.564059       -15.3488
  50   2.0000      -0.535716       -14.5776
  51   2.0000      -0.528357       -14.3773
  52   2.0000      -0.523428       -14.2432
  53   2.0000      -0.513388       -13.9700
  54   2.0000      -0.501660       -13.6509
  55   2.0000      -0.490063       -13.3353
  56   2.0000      -0.483289       -13.1510
  57   2.0000      -0.479154       -13.0384
  58   2.0000      -0.464845       -12.6491
  59   2.0000      -0.457688       -12.4543
  60   2.0000      -0.445456       -12.1215
  61   2.0000      -0.442738       -12.0475
  62   2.0000      -0.436711       -11.8835
  63   2.0000      -0.426073       -11.5940
  64   2.0000      -0.419752       -11.4220
  65   2.0000      -0.409283       -11.1371
  66   2.0000      -0.408722       -11.1219
  67   2.0000      -0.407273       -11.0824
  68   2.0000      -0.398291       -10.8380
  69   2.0000      -0.393977       -10.7207
  70   2.0000      -0.389387       -10.5958
  71   2.0000      -0.375440       -10.2162
  72   2.0000      -0.373412       -10.1611
  73   2.0000      -0.370584       -10.0841
  74   2.0000      -0.368727       -10.0336
  75   2.0000      -0.359296        -9.7769
  76   2.0000      -0.349658        -9.5147
  77   2.0000      -0.345826        -9.4104
  78   2.0000      -0.335991        -9.1428
  79   2.0000      -0.328330        -8.9343
  80   2.0000      -0.313403        -8.5281
  81   2.0000      -0.288017        -7.8374
  82   2.0000      -0.279272        -7.5994
  83   2.0000      -0.270674        -7.3654
  84   2.0000      -0.255986        -6.9657
  85   2.0000      -0.248099        -6.7511
  86   2.0000      -0.211708        -5.7609
  87   0.0000      -0.105568        -2.8727
  88   0.0000      -0.081543        -2.2189
  89   0.0000      -0.042905        -1.1675
  90   0.0000      -0.032289        -0.8786
  91   0.0000      -0.019127        -0.5205

MULLIKEN ATOMIC CHARGES
-----------------------
   0 C :    0.022734
   1 C :    0.022201
   2 C :   -0.053274
   3 C :    0.123193
   4 C :    0.210207
   5 C :   -0.060020
   6 O :   -0.216207
   7 C :    0.257235
   8 C :   -0.064617
   9 C :    0.025247
  10 C :   -0.121100
  11 C :    0.269098
  12 C :   -0.342733
  13 C :   -0.151699
  14 N :    0.061679
  15 C :   -0.132527
  16 N :    0.073414
  17 C :    0.031129
  18 C :   -0.008869
  19 C :    0.131947
  20 O :   -0.177660
  21 C :   -0.025049
  22 C :    0.042165
  23 C :    0.035300
  24 C :   -0.037682
  25 N :   -0.058232
  26 H :    0.003648
  27 H :    0.000607
  28 H :   -0.016662
  29 H :    0.001337
  30 H :    0.008751
  31 H :    0.013889
  32 H :   -0.007597
  33 H :   -0.006300
  34 H :   -0.008195
  35 H :    0.001168
  36 H :    0.153474
Sum of atomic charges:    0.0000000

LOEWDIN ATOMIC CHARGES
----------------------
   0 C :   -0.019541
   1 C :   -0.014991
   2 C :   -0.039664
   3 C :    0.008237
   4 C :    0.046316
   5 C :   -0.028423
   6 O :   -0.007474
   7 C :    0.138869
   8 C :   -0.122187
   9 C :    0.063826
  10 C :   -0.119111
  11 C :    0.066117
  12 C :   -0.159207
  13 C :   -0.009370
  14 N :   -0.101911
  15 C :   -0.015454
  16 N :   -0.079496
  17 C :   -0.008760
  18 C :   -0.043022
  19 C :    0.074581
  20 O :   -0.161746
  21 C :    0.006154
  22 C :   -0.008462
  23 C :   -0.005623
  24 C :   -0.006170
  25 N :    0.065339
  26 H :    0.035409
  27 H :    0.035171
  28 H :    0.036473
  29 H :    0.044455
  30 H :    0.037662
  31 H :    0.042512
  32 H :    0.037356
  33 H :    0.031359
  34 H :    0.032635
  35 H :    0.037674
  36 H :    0.110467

  Mayer bond orders larger than 0.100000
B(  0-C ,  1-C ) :   1.3974 B(  0-C ,  5-C ) :   1.3351 B(  0-C , 26-H ) :   0.9833
B(  1-C ,  2-C ) :   1.3511 B(  1-C , 27-H ) :   0.9812 B(  2-C ,  3-C ) :   1.3475
B(  2-C ,  5-C ) :   0.1016 B(  2-C , 28-H ) :   1.0081 B(  3-C ,  4-C ) :   1.3072
B(  3-C , 25-N ) :   1.0911 B(  4-C ,  5-C ) :   1.3901 B(  4-C ,  6-O ) :   1.0429
B(  5-C , 29-H ) :   1.0070 B(  6-O ,  7-C ) :   1.1549 B(  7-C ,  8-C ) :   1.4597
B(  7-C , 25-N ) :   1.2035 B(  8-C ,  9-C ) :   1.2762 B(  8-C , 30-H ) :   0.9129
B(  9-C , 10-C ) :   1.4751 B(  9-C , 31-H ) :   0.9385 B( 10-C , 11-C ) :   1.1238
B( 10-C , 19-C ) :   0.9670 B( 11-C , 12-C ) :   1.5100 B( 11-C , 17-C ) :   1.0094
B( 12-C , 13-C ) :   1.1808 B( 12-C , 15-C ) :   1.1354 B( 13-C , 14-N ) :   2.9448
B( 15-C , 16-N ) :   2.9236 B( 17-C , 18-C ) :   1.3208 B( 17-C , 24-C ) :   1.3676
B( 18-C , 19-C ) :   0.9362 B( 18-C , 21-C ) :   1.3917 B( 19-C , 20-O ) :   2.1835
B( 21-C , 22-C ) :   1.3268 B( 21-C , 32-H ) :   0.9958 B( 22-C , 23-C ) :   1.3701
B( 22-C , 33-H ) :   0.9855 B( 23-C , 24-C ) :   1.3653 B( 23-C , 34-H ) :   0.9804
B( 24-C , 35-H ) :   0.9757 B( 25-N , 36-H ) :   0.9153

Dispersion correction           -0.091245897
FINAL SINGLE POINT ENERGY     -1120.784445928084

DIPOLE MOMENT
-------------
                                X             Y             Z
Electronic contribution:     -4.35876       2.96456      -0.94040
Nuclear contribution   :      7.05487      -3.56080       0.76388
                        -----------------------------------------
Total Dipole Moment    :      2.69611      -0.59624      -0.17651
                        -----------------------------------------
Magnitude (a.u.)       :      2.76689
Magnitude (Debye)      :      7.03288

Rotational constants in cm-1:     0.016457     0.003176     0.002695
Rotational constants in MHz :   493.361291    95.217510    80.789385

                             ****ORCA TERMINATED NORMALLY****
TOTAL RUN TIME: 0 days 1 hours 3 minutes 3 seconds 662 msec
