                         Program Version 4.2.0 -  RELEASE  -
|  1> # ORCA input file
|  2> # SCF done        -31.521629094822          0.000117754233
|  3> ! B3LYP/G D3BJ Opt RIJCOSX def2-SVP def2/J
|  4> * xyz 0 1
|  5>    C       -0.12177        -1.36701        -0.00295
|  6>    C        1.10181        -0.73238        -0.00250
|  7>    C        1.22572         0.68630        -0.00031
|  8>    N        2.51480         1.13477        -0.00018
|  9>    C        3.34952         0.17501        -0.00206
| 10>    S        2.68844        -1.44641        -0.00435
| 11>    C        0.09555         1.49358         0.00148
| 12>    C       -1.12802         0.85895         0.00102
| 13>    C       -1.25194        -0.55973        -0.00116
| 14>    N       -2.54101        -1.00820        -0.00129
| 15>    C       -3.37574        -0.04844         0.00060
| 16>    S       -2.71465         1.57298         0.00287
| 17>    H       -0.21781        -2.43966        -0.00461
| 18>    H        4.41323         0.31295        -0.00234
| 19>    H        0.19159         2.56623         0.00313
| 20>    H       -4.43945        -0.18638         0.00086
| 21> *
| 22>
| 23>                          ****END OF INPUT****
 Total Charge           Charge          ....    0
 Multiplicity           Mult            ....    1
 Number of Electrons    NEL             ....   98
Dispersion correction           -0.042584555
FINAL SINGLE POINT ENERGY     -1212.669986510433
Dispersion correction            ... done
Dispersion correction           -0.042544790
FINAL SINGLE POINT ENERGY     -1212.673288098790
Dispersion correction            ... done
Dispersion correction           -0.042528539
FINAL SINGLE POINT ENERGY     -1212.673408436410
Dispersion correction            ... done
Dispersion correction           -0.042519787
FINAL SINGLE POINT ENERGY     -1212.673426101212
Dispersion correction            ... done
Dispersion correction           -0.042515742
FINAL SINGLE POINT ENERGY     -1212.673428877726
Dispersion correction            ... done
                    ***********************HURRAY********************

CARTESIAN COORDINATES (ANGSTROEM)
---------------------------------
  C     -0.124012   -1.373471   -0.002965
  C      1.114330   -0.738246   -0.002441
  C      1.239116    0.687943   -0.000233
  N      2.541523    1.155735   -0.000224
  C      3.383550    0.179869   -0.002181
  S      2.713861   -1.452715   -0.003988
  C      0.097796    1.500034    0.001539
  C     -1.140545    0.864811    0.001028
  C     -1.265332   -0.561378   -0.001192
  N     -2.567743   -1.029163   -0.001323
  C     -3.409766   -0.053293    0.000528
  S     -2.740070    1.579290    0.002803
  H     -0.234319   -2.458634   -0.004742
  H      4.469150    0.312626   -0.002648
  H      0.208098    2.585198    0.003346
  H     -4.495366   -0.186047    0.000903

 Multiplicity           Mult            ....    1
 Number of Electrons    NEL             ....   98
 Basis Dimension        Dim             ....  196

ORBITAL ENERGIES
----------------

  NO   OCC          E(Eh)            E(eV)
   0   2.0000     -88.885614     -2418.7005
   1   2.0000     -88.885591     -2418.6999
   2   2.0000     -14.339268      -390.1913
   3   2.0000     -14.339245      -390.1907
   4   2.0000     -10.262195      -279.2485
   5   2.0000     -10.262188      -279.2483
   6   2.0000     -10.237297      -278.5710
   7   2.0000     -10.237215      -278.5688
   8   2.0000     -10.234730      -278.5012
   9   2.0000     -10.234672      -278.4996
  10   2.0000     -10.215000      -277.9643
  11   2.0000     -10.214893      -277.9614
  12   2.0000      -7.981227      -217.1802
  13   2.0000      -7.981215      -217.1799
  14   2.0000      -5.949402      -161.8915
  15   2.0000      -5.949397      -161.8913
  16   2.0000      -5.945661      -161.7897
  17   2.0000      -5.945661      -161.7897
  18   2.0000      -5.941847      -161.6859
  19   2.0000      -5.941846      -161.6858
  20   2.0000      -0.974211       -26.5096
  21   2.0000      -0.967848       -26.3365
  22   2.0000      -0.852764       -23.2049
  23   2.0000      -0.820604       -22.3298
  24   2.0000      -0.795068       -21.6349
  25   2.0000      -0.748170       -20.3587
  26   2.0000      -0.724696       -19.7200
  27   2.0000      -0.652891       -17.7661
  28   2.0000      -0.609548       -16.5866
  29   2.0000      -0.590122       -16.0580
  30   2.0000      -0.575245       -15.6532
  31   2.0000      -0.527239       -14.3469
  32   2.0000      -0.505945       -13.7675
  33   2.0000      -0.465222       -12.6593
  34   2.0000      -0.460196       -12.5226
  35   2.0000      -0.455664       -12.3992
  36   2.0000      -0.445936       -12.1345
  37   2.0000      -0.422455       -11.4956
  38   2.0000      -0.418754       -11.3949
  39   2.0000      -0.414154       -11.2697
  40   2.0000      -0.386617       -10.5204
  41   2.0000      -0.353325        -9.6145
  42   2.0000      -0.337797        -9.1919
  43   2.0000      -0.330433        -8.9915
  44   2.0000      -0.296140        -8.0584
  45   2.0000      -0.287180        -7.8146
  46   2.0000      -0.285515        -7.7693
  47   2.0000      -0.249841        -6.7985
  48   2.0000      -0.234153        -6.3716
  49   0.0000      -0.064371        -1.7516
  50   0.0000      -0.024723        -0.6728
  51   0.0000      -0.013739        -0.3739
  52   0.0000       0.005319         0.1447
  53   0.0000       0.022158         0.6029

MULLIKEN ATOMIC CHARGES
-----------------------
   0 C :   -0.069702
   1 C :   -0.033828
   2 C :    0.071438
   3 N :   -0.094460
   4 C :    0.005095
   5 S :    0.086716
   6 C :   -0.069743
   7 C :   -0.033822
   8 C :    0.071456
   9 N :   -0.094455
  10 C :    0.005094
  11 S :    0.086718
  12 H :   -0.018047
  13 H :    0.052794
  14 H :   -0.018048
  15 H :    0.052794
Sum of atomic charges:    0.0000000

LOEWDIN ATOMIC CHARGES
----------------------
   0 C :   -0.032691
   1 C :   -0.170264
   2 C :   -0.028504
   3 N :   -0.098410
   4 C :   -0.106102
   5 S :    0.372566
   6 C :   -0.032692
   7 C :   -0.170263
   8 C :   -0.028504
   9 N :   -0.098410
  10 C :   -0.106101
  11 S :    0.372565
  12 H :    0.039384
  13 H :    0.024020
  14 H :    0.039384
  15 H :    0.024020

  Mayer bond orders larger than 0.100000
B(  0-C ,  1-C ) :   1.3421 B(  0-C ,  6-C ) :   0.1321 B(  0-C ,  8-C ) :   1.3505
B(  0-C , 12-H ) :   1.0133 B(  1-C ,  2-C ) :   1.2756 B(  1-C ,  5-S ) :   1.0569
B(  2-C ,  3-N ) :   1.2670 B(  2-C ,  6-C ) :   1.3505 B(  3-N ,  4-C ) :   1.7522
B(  3-N ,  5-S ) :   0.1229 B(  4-C ,  5-S ) :   1.0992 B(  4-C , 13-H ) :   0.9570
B(  6-C ,  7-C ) :   1.3421 B(  6-C , 14-H ) :   1.0133 B(  7-C ,  8-C ) :   1.2755
B(  7-C , 11-S ) :   1.0570 B(  8-C ,  9-N ) :   1.2670 B(  9-N , 10-C ) :   1.7522
B(  9-N , 11-S ) :   0.1228 B( 10-C , 11-S ) :   1.0992 B( 10-C , 15-H ) :   0.9570

Dispersion correction           -0.042514424
FINAL SINGLE POINT ENERGY     -1212.673429089865

DIPOLE MOMENT
-------------
                                X             Y             Z
Electronic contribution:      0.00001      -0.00000       0.00038
Nuclear contribution   :     -0.00001       0.00000      -0.00034
                        -----------------------------------------
Total Dipole Moment    :      0.00000       0.00000       0.00004
                        -----------------------------------------
Magnitude (a.u.)       :      0.00004
Magnitude (Debye)      :      0.00011

Rotational constants in cm-1:     0.072767     0.015570     0.012826
Rotational constants in MHz :  2181.487567   466.781733   384.507176

                             ****ORCA TERMINATED NORMALLY****
TOTAL RUN TIME: 0 days 0 hours 5 minutes 48 seconds 635 msec
