                         Program Version 4.2.0 -  RELEASE  -
|  1> # ORCA input file
|  2> # SCF done        -55.464543956037          0.000685293459
|  3> ! B3LYP/G D3BJ Opt RIJCOSX def2-SVP def2/J
|  4> * xyz 0 1
|  5>    C       -0.82279        -1.41482         0.07302
|  6>    C        0.02747        -0.31393         0.07624
|  7>    C       -0.41169         1.01720         0.62376
|  8>    O        0.35995         1.76638         1.14877
|  9>    O       -1.70889         1.31563         0.50673
| 10>    C        1.35585        -0.43629        -0.36977
| 11>    C        2.23446         0.67764        -0.40405
| 12>    N        3.00843         1.51428        -0.51024
| 13>    C        1.84167        -1.66661        -0.81929
| 14>    C        0.98774        -2.74982        -0.81391
| 15>    C       -0.34811        -2.63795        -0.38324
| 16>    C       -1.01000        -3.93313        -0.49969
| 17>    C       -2.33704        -4.17991        -0.30739
| 18>    C       -3.27814        -3.17773         0.01964
| 19>    N       -4.06332        -2.37719         0.26033
| 20>    C       -2.94475        -5.44904        -0.44865
| 21>    N       -3.49488        -6.44999        -0.54466
| 22>    C        0.00085        -4.89965        -0.93175
| 23>    C        1.27238        -4.15114        -1.19566
| 24>    O        2.30165        -4.60882        -1.61998
| 25>    C       -0.07559        -6.22479        -1.07440
| 26>    H       -1.82654        -1.32825         0.46129
| 27>    H       -2.23814         0.64938         0.04715
| 28>    H        2.86184        -1.77033        -1.15658
| 29>    H       -0.95962        -6.80202        -0.86833
| 30>    H        0.80087        -6.75801        -1.40804
| 31> *
| 32>
| 33>                          ****END OF INPUT****
 Total Charge           Charge          ....    0
 Multiplicity           Mult            ....    1
 Number of Electrons    NEL             ....  140
Dispersion correction           -0.068050018
FINAL SINGLE POINT ENERGY      -963.803882828012
Dispersion correction            ... done
Dispersion correction           -0.067540291
FINAL SINGLE POINT ENERGY      -963.809014769514
Dispersion correction            ... done
Dispersion correction           -0.067480750
FINAL SINGLE POINT ENERGY      -963.809287825748
Dispersion correction            ... done
FINAL SINGLE POINT ENERGY      -963.809179830674
FINAL SINGLE POINT ENERGY      -963.809455769561
FINAL SINGLE POINT ENERGY      -963.809496456855
FINAL SINGLE POINT ENERGY      -963.809503881660
FINAL SINGLE POINT ENERGY      -963.809512837550
FINAL SINGLE POINT ENERGY      -963.809523465630
Dispersion correction            ... done
Dispersion correction           -0.067574219
FINAL SINGLE POINT ENERGY      -963.809534137569
Dispersion correction            ... done
Dispersion correction           -0.067576945
FINAL SINGLE POINT ENERGY      -963.809538322184
Dispersion correction            ... done
                    ***********************HURRAY********************

CARTESIAN COORDINATES (ANGSTROEM)
---------------------------------
  C     -0.825205   -1.380260    0.040608
  C      0.029371   -0.273537    0.045742
  C     -0.469373    1.061939    0.545970
  O      0.270454    1.906385    0.967555
  O     -1.801653    1.250386    0.525783
  C      1.387620   -0.418968   -0.348429
  C      2.313021    0.679008   -0.388128
  N      3.147293    1.476728   -0.504331
  C      1.865251   -1.678771   -0.749327
  C      0.993747   -2.758410   -0.752551
  C     -0.356113   -2.632514   -0.372083
  C     -1.037796   -3.939107   -0.495687
  C     -2.369180   -4.184506   -0.257478
  C     -3.282185   -3.158118    0.145320
  N     -4.019268   -2.316153    0.456230
  C     -2.956338   -5.480389   -0.411439
  N     -3.442070   -6.528449   -0.529647
  C     -0.024501   -4.912202   -0.949799
  C      1.278017   -4.168654   -1.130081
  O      2.328316   -4.631901   -1.505034
  C     -0.098026   -6.230960   -1.202251
  H     -1.847259   -1.267776    0.392687
  H     -2.265196    0.560282    0.030799
  H      2.902558   -1.808483   -1.061847
  H     -1.004686   -6.825095   -1.093721
  H      0.816864   -6.729385   -1.537561

 Multiplicity           Mult            ....    1
 Number of Electrons    NEL             ....  140
 Basis Dimension        Dim             ....  319

ORBITAL ENERGIES
----------------

  NO   OCC          E(Eh)            E(eV)
   0   2.0000     -19.212040      -522.7862
   1   2.0000     -19.177529      -521.8471
   2   2.0000     -19.153227      -521.1858
   3   2.0000     -14.382033      -391.3550
   4   2.0000     -14.377546      -391.2329
   5   2.0000     -14.353242      -390.5716
   6   2.0000     -10.355322      -281.7826
   7   2.0000     -10.324613      -280.9470
   8   2.0000     -10.314302      -280.6664
   9   2.0000     -10.303510      -280.3728
  10   2.0000     -10.293639      -280.1042
  11   2.0000     -10.283843      -279.8376
  12   2.0000     -10.279562      -279.7211
  13   2.0000     -10.278390      -279.6892
  14   2.0000     -10.278329      -279.6876
  15   2.0000     -10.271164      -279.4926
  16   2.0000     -10.269158      -279.4380
  17   2.0000     -10.263194      -279.2757
  18   2.0000     -10.262437      -279.2551
  19   2.0000     -10.261356      -279.2257
  20   2.0000     -10.252994      -278.9981
  21   2.0000      -1.126058       -30.6416
  22   2.0000      -1.083590       -29.4860
  23   2.0000      -1.044841       -28.4316
  24   2.0000      -0.964479       -26.2448
  25   2.0000      -0.948107       -25.7993
  26   2.0000      -0.943750       -25.6807
  27   2.0000      -0.923829       -25.1387
  28   2.0000      -0.899771       -24.4840
  29   2.0000      -0.854091       -23.2410
  30   2.0000      -0.828563       -22.5463
  31   2.0000      -0.822952       -22.3937
  32   2.0000      -0.750981       -20.4352
  33   2.0000      -0.734060       -19.9748
  34   2.0000      -0.685348       -18.6493
  35   2.0000      -0.661244       -17.9934
  36   2.0000      -0.650205       -17.6930
  37   2.0000      -0.642286       -17.4775
  38   2.0000      -0.621618       -16.9151
  39   2.0000      -0.591955       -16.1079
  40   2.0000      -0.559965       -15.2374
  41   2.0000      -0.551887       -15.0176
  42   2.0000      -0.535541       -14.5728
  43   2.0000      -0.509578       -13.8663
  44   2.0000      -0.501560       -13.6481
  45   2.0000      -0.499677       -13.5969
  46   2.0000      -0.485801       -13.2193
  47   2.0000      -0.481168       -13.0932
  48   2.0000      -0.478348       -13.0165
  49   2.0000      -0.465707       -12.6725
  50   2.0000      -0.455915       -12.4061
  51   2.0000      -0.448482       -12.2038
  52   2.0000      -0.437038       -11.8924
  53   2.0000      -0.429319       -11.6824
  54   2.0000      -0.415232       -11.2990
  55   2.0000      -0.413530       -11.2527
  56   2.0000      -0.407240       -11.0816
  57   2.0000      -0.398737       -10.8502
  58   2.0000      -0.393634       -10.7113
  59   2.0000      -0.390940       -10.6380
  60   2.0000      -0.381816       -10.3897
  61   2.0000      -0.379240       -10.3197
  62   2.0000      -0.370042       -10.0694
  63   2.0000      -0.365512        -9.9461
  64   2.0000      -0.352557        -9.5936
  65   2.0000      -0.331058        -9.0086
  66   2.0000      -0.322298        -8.7702
  67   2.0000      -0.309759        -8.4290
  68   2.0000      -0.307212        -8.3597
  69   2.0000      -0.296835        -8.0773
  70   0.0000      -0.160504        -4.3675
  71   0.0000      -0.140162        -3.8140
  72   0.0000      -0.080370        -2.1870
  73   0.0000      -0.072453        -1.9715
  74   0.0000      -0.049228        -1.3396

MULLIKEN ATOMIC CHARGES
-----------------------
   0 C :   -0.080213
   1 C :    0.015461
   2 C :    0.200565
   3 O :   -0.148982
   4 O :   -0.141026
   5 C :   -0.069854
   6 C :   -0.116675
   7 N :    0.106882
   8 C :   -0.012598
   9 C :   -0.015694
  10 C :    0.056691
  11 C :    0.267584
  12 C :   -0.283475
  13 C :   -0.126985
  14 N :    0.108326
  15 C :   -0.140768
  16 N :    0.125346
  17 C :   -0.125431
  18 C :    0.157788
  19 O :   -0.123006
  20 C :    0.023260
  21 H :   -0.009204
  22 H :    0.185153
  23 H :    0.018473
  24 H :    0.064662
  25 H :    0.063722
Sum of atomic charges:   -0.0000000

LOEWDIN ATOMIC CHARGES
----------------------
   0 C :    0.002050
   1 C :   -0.034137
   2 C :    0.082586
   3 O :   -0.114139
   4 O :   -0.012853
   5 C :   -0.015367
   6 C :   -0.025578
   7 N :   -0.023062
   8 C :    0.053567
   9 C :   -0.032250
  10 C :    0.000684
  11 C :    0.061810
  12 C :   -0.105605
  13 C :   -0.007897
  14 N :   -0.044117
  15 C :   -0.011183
  16 N :   -0.030312
  17 C :   -0.073943
  18 C :    0.083405
  19 O :   -0.111233
  20 C :    0.082863
  21 H :    0.032991
  22 H :    0.093070
  23 H :    0.055471
  24 H :    0.043832
  25 H :    0.049345

  Mayer bond orders larger than 0.100000
B(  0-C ,  1-C ) :   1.3312 B(  0-C , 10-C ) :   1.3560 B(  0-C , 21-H ) :   0.9477
B(  1-C ,  2-C ) :   0.8692 B(  1-C ,  5-C ) :   1.3476 B(  2-C ,  3-O ) :   2.1449
B(  2-C ,  4-O ) :   1.2424 B(  4-O , 22-H ) :   0.9459 B(  5-C ,  6-C ) :   1.0822
B(  5-C ,  8-C ) :   1.3616 B(  6-C ,  7-N ) :   2.9899 B(  8-C ,  9-C ) :   1.3331
B(  8-C , 23-H ) :   1.0055 B(  9-C , 10-C ) :   1.3239 B(  9-C , 18-C ) :   0.9157
B( 10-C , 11-C ) :   1.0147 B( 11-C , 12-C ) :   1.6450 B( 11-C , 17-C ) :   1.0089
B( 12-C , 13-C ) :   1.1299 B( 12-C , 15-C ) :   1.1387 B( 13-C , 14-N ) :   2.9234
B( 15-C , 16-N ) :   2.9394 B( 17-C , 18-C ) :   0.9145 B( 17-C , 20-C ) :   1.9088
B( 18-C , 19-O ) :   2.2506 B( 20-C , 24-H ) :   0.9202 B( 20-C , 25-H ) :   0.9110

Dispersion correction           -0.067579118
FINAL SINGLE POINT ENERGY      -963.809541586761

DIPOLE MOMENT
-------------
                                X             Y             Z
Electronic contribution:     -0.54976       2.72537       0.91287
Nuclear contribution   :      0.26067      -4.48427      -1.56879
                        -----------------------------------------
Total Dipole Moment    :     -0.28909      -1.75891      -0.65592
                        -----------------------------------------
Magnitude (a.u.)       :      1.89936
Magnitude (Debye)      :      4.82778

Rotational constants in cm-1:     0.016823     0.007646     0.005277
Rotational constants in MHz :   504.346170   229.218453   158.209444

                             ****ORCA TERMINATED NORMALLY****
TOTAL RUN TIME: 0 days 0 hours 35 minutes 50 seconds 108 msec
