                         Program Version 4.2.0 -  RELEASE  -
|  1> # ORCA input file
|  2> # SCF done        -67.077833948957          0.000167089884
|  3> ! B3LYP/G D3BJ Opt RIJCOSX def2-SVP def2/J
|  4> * xyz 0 1
|  5>    C        3.49905        -0.24843         0.09787
|  6>    C        2.57526        -1.22805         0.05593
|  7>    C        1.23691        -0.72969         0.03151
|  8>    C        1.20756         0.68457         0.03168
|  9>    S        2.82228         1.34627         0.10563
| 10>    C        0.03136         1.42086         0.01483
| 11>    C        0.03612         2.88825         0.10025
| 12>    C        0.79508         3.65436        -0.77978
| 13>    C        0.80964         5.03083        -0.67522
| 14>    C        0.07617         5.68212         0.31036
| 15>    C       -0.67891         4.91478         1.18721
| 16>    C       -0.70251         3.53674         1.08513
| 17>    C        0.10152         7.17687         0.40921
| 18>    C       -1.16215         0.69073        -0.05541
| 19>    C       -1.13220        -0.72347        -0.07063
| 20>    C        0.04197        -1.46007        -0.00274
| 21>    C        0.03145        -2.92835         0.06481
| 22>    C       -0.65490        -3.68461        -0.88038
| 23>    C       -0.67736        -5.06255        -0.79191
| 24>    C       -0.02455        -5.72433         0.24147
| 25>    C        0.65901        -4.96633         1.18360
| 26>    C        0.69029        -3.58775         1.09836
| 27>    C       -0.04668        -7.22017         0.32259
| 28>    S       -2.74731        -1.38520        -0.13484
| 29>    C       -3.42212         0.20982        -0.17552
| 30>    C       -2.49843         1.18943        -0.13129
| 31>    H        4.56689        -0.34835         0.11953
| 32>    H        2.81317        -2.27617         0.02877
| 33>    H        1.36317         3.16689        -1.55830
| 34>    H        1.40051         5.61273        -1.36828
| 35>    H       -1.25232         5.40035         1.96446
| 36>    H       -1.27887         2.95299         1.78864
| 37>    H        1.12685         7.54282         0.39952
| 38>    H       -0.38315         7.51589         1.32138
| 39>    H       -0.41724         7.61942        -0.44135
| 40>    H       -1.16035        -3.18885        -1.69598
| 41>    H       -1.21207        -5.63593        -1.53578
| 42>    H        1.16877        -5.46103         1.99852
| 43>    H        1.20855        -3.01156         1.85155
| 44>    H       -1.02334        -7.60712         0.03940
| 45>    H        0.18938        -7.55900         1.32847
| 46>    H        0.69120        -7.64268        -0.36047
| 47>    H       -4.48833         0.31001        -0.23809
| 48>    H       -2.73394         2.23793        -0.16410
| 49> *
| 50>
| 51>                          ****END OF INPUT****
 Total Charge           Charge          ....    0
 Multiplicity           Mult            ....    1
 Number of Electrons    NEL             ....  194
Dispersion correction           -0.119319532
FINAL SINGLE POINT ENERGY     -1721.037069386836
Dispersion correction            ... done
Dispersion correction           -0.118204767
FINAL SINGLE POINT ENERGY     -1721.044300079242
Dispersion correction            ... done
Dispersion correction           -0.118009851
FINAL SINGLE POINT ENERGY     -1721.044213754008
Dispersion correction            ... done
FINAL SINGLE POINT ENERGY     -1721.044102311925
FINAL SINGLE POINT ENERGY     -1721.043952683139
FINAL SINGLE POINT ENERGY     -1721.043930857292
FINAL SINGLE POINT ENERGY     -1721.043967547769
FINAL SINGLE POINT ENERGY     -1721.044043829801
Dispersion correction            ... done
Dispersion correction           -0.117981255
FINAL SINGLE POINT ENERGY     -1721.044084313918
Dispersion correction            ... done
Dispersion correction           -0.117983440
FINAL SINGLE POINT ENERGY     -1721.044078535748
Dispersion correction            ... done
                    ***********************HURRAY********************

CARTESIAN COORDINATES (ANGSTROEM)
---------------------------------
  C      3.509537   -0.314434    0.433770
  C      2.561191   -1.287750    0.373526
  C      1.217010   -0.763168    0.316458
  C      1.215618    0.666641    0.314574
  S      2.854568    1.303771    0.414035
  C      0.045946    1.433725    0.257376
  C      0.078222    2.918197    0.225050
  C      0.800778    3.595246   -0.773214
  C      0.801027    4.987777   -0.835364
  C      0.080936    5.756408    0.092366
  C     -0.618682    5.079553    1.103009
  C     -0.623113    3.685295    1.169817
  C      0.030959    7.258094   -0.024871
  C     -1.173121    0.720709    0.206088
  C     -1.171864   -0.709151    0.200776
  C     -0.001553   -1.476572    0.250244
  C     -0.027719   -2.960806    0.198880
  C     -0.660152   -3.626405   -0.866642
  C     -0.644227   -5.017494   -0.950542
  C      0.003527   -5.796690    0.020975
  C      0.609993   -5.132328    1.097717
  C      0.597175   -3.739036    1.187130
  C      0.073748   -7.295789   -0.117627
  S     -2.813909   -1.344176    0.141782
  C     -3.466400    0.274757    0.099964
  C     -2.515807    1.247078    0.132656
  H      4.588813   -0.457435    0.485904
  H      2.795975   -2.351583    0.365424
  H      1.353359    3.019009   -1.517599
  H      1.360212    5.490087   -1.629939
  H     -1.169976    5.655028    1.851891
  H     -1.169807    3.180074    1.968894
  H      0.998533    7.672512   -0.348303
  H     -0.251631    7.732305    0.926912
  H     -0.715272    7.566731   -0.776968
  H     -1.152912   -3.042300   -1.646002
  H     -1.131065   -5.509921   -1.797309
  H      1.100920   -5.716263    1.881338
  H      1.069800   -3.244455    2.038464
  H     -0.882762   -7.716484   -0.465849
  H      0.342048   -7.780609    0.832761
  H      0.837187   -7.584850   -0.859970
  H     -4.545347    0.418093    0.042205
  H     -2.746332    2.311576    0.100824

 Multiplicity           Mult            ....    1
 Number of Electrons    NEL             ....  194
 Basis Dimension        Dim             ....  462

ORBITAL ENERGIES
----------------

  NO   OCC          E(Eh)            E(eV)
   0   2.0000     -88.865014     -2418.1400
   1   2.0000     -88.864923     -2418.1375
   2   2.0000     -10.215618      -277.9811
   3   2.0000     -10.215486      -277.9775
   4   2.0000     -10.212978      -277.9093
   5   2.0000     -10.212903      -277.9072
   6   2.0000     -10.204453      -277.6773
   7   2.0000     -10.204316      -277.6736
   8   2.0000     -10.199740      -277.5490
   9   2.0000     -10.199653      -277.5467
  10   2.0000     -10.199162      -277.5333
  11   2.0000     -10.198980      -277.5284
  12   2.0000     -10.198256      -277.5087
  13   2.0000     -10.198163      -277.5061
  14   2.0000     -10.191828      -277.3338
  15   2.0000     -10.191807      -277.3332
  16   2.0000     -10.191428      -277.3228
  17   2.0000     -10.191418      -277.3226
  18   2.0000     -10.191343      -277.3205
  19   2.0000     -10.191216      -277.3171
  20   2.0000     -10.190187      -277.2891
  21   2.0000     -10.190140      -277.2878
  22   2.0000     -10.189993      -277.2838
  23   2.0000     -10.189909      -277.2815
  24   2.0000     -10.189093      -277.2593
  25   2.0000     -10.189051      -277.2582
  26   2.0000      -7.959673      -216.5937
  27   2.0000      -7.959589      -216.5914
  28   2.0000      -5.928207      -161.3147
  29   2.0000      -5.928120      -161.3123
  30   2.0000      -5.924107      -161.2031
  31   2.0000      -5.924027      -161.2010
  32   2.0000      -5.920157      -161.0957
  33   2.0000      -5.920075      -161.0934
  34   2.0000      -0.896237       -24.3879
  35   2.0000      -0.865993       -23.5649
  36   2.0000      -0.857140       -23.3240
  37   2.0000      -0.852093       -23.1866
  38   2.0000      -0.804481       -21.8911
  39   2.0000      -0.801912       -21.8211
  40   2.0000      -0.765506       -20.8305
  41   2.0000      -0.748295       -20.3621
  42   2.0000      -0.741145       -20.1676
  43   2.0000      -0.739003       -20.1093
  44   2.0000      -0.729261       -19.8442
  45   2.0000      -0.706414       -19.2225
  46   2.0000      -0.696227       -18.9453
  47   2.0000      -0.690213       -18.7817
  48   2.0000      -0.660703       -17.9786
  49   2.0000      -0.619164       -16.8483
  50   2.0000      -0.606089       -16.4925
  51   2.0000      -0.605753       -16.4834
  52   2.0000      -0.590317       -16.0633
  53   2.0000      -0.577727       -15.7208
  54   2.0000      -0.563714       -15.3394
  55   2.0000      -0.556133       -15.1332
  56   2.0000      -0.541470       -14.7342
  57   2.0000      -0.519290       -14.1306
  58   2.0000      -0.508251       -13.8302
  59   2.0000      -0.497787       -13.5455
  60   2.0000      -0.469946       -12.7879
  61   2.0000      -0.467610       -12.7243
  62   2.0000      -0.465332       -12.6623
  63   2.0000      -0.459127       -12.4935
  64   2.0000      -0.447363       -12.1734
  65   2.0000      -0.439507       -11.9596
  66   2.0000      -0.425380       -11.5752
  67   2.0000      -0.423486       -11.5236
  68   2.0000      -0.422329       -11.4922
  69   2.0000      -0.421215       -11.4618
  70   2.0000      -0.420936       -11.4542
  71   2.0000      -0.418028       -11.3751
  72   2.0000      -0.415202       -11.2982
  73   2.0000      -0.409963       -11.1557
  74   2.0000      -0.389709       -10.6045
  75   2.0000      -0.389333       -10.5943
  76   2.0000      -0.382255       -10.4017
  77   2.0000      -0.375744       -10.2245
  78   2.0000      -0.374205       -10.1826
  79   2.0000      -0.373185       -10.1549
  80   2.0000      -0.367071        -9.9885
  81   2.0000      -0.359148        -9.7729
  82   2.0000      -0.352289        -9.5863
  83   2.0000      -0.347918        -9.4673
  84   2.0000      -0.342979        -9.3329
  85   2.0000      -0.342016        -9.3067
  86   2.0000      -0.341825        -9.3015
  87   2.0000      -0.325452        -8.8560
  88   2.0000      -0.303439        -8.2570
  89   2.0000      -0.298252        -8.1159
  90   2.0000      -0.259528        -7.0621
  91   2.0000      -0.256939        -6.9917
  92   2.0000      -0.250221        -6.8089
  93   2.0000      -0.246098        -6.6967
  94   2.0000      -0.244978        -6.6662
  95   2.0000      -0.229708        -6.2507
  96   2.0000      -0.194243        -5.2856
  97   0.0000      -0.049466        -1.3460
  98   0.0000      -0.025379        -0.6906
  99   0.0000      -0.013498        -0.3673
 100   0.0000      -0.013147        -0.3577
 101   0.0000      -0.010639        -0.2895

MULLIKEN ATOMIC CHARGES
-----------------------
   0 C :   -0.062168
   1 C :    0.003444
   2 C :    0.068696
   3 C :   -0.136254
   4 S :    0.101755
   5 C :    0.051397
   6 C :   -0.047935
   7 C :    0.019877
   8 C :   -0.017121
   9 C :   -0.026735
  10 C :   -0.020842
  11 C :    0.012822
  12 C :    0.080702
  13 C :    0.069711
  14 C :   -0.137426
  15 C :    0.055419
  16 C :   -0.045940
  17 C :    0.019137
  18 C :   -0.018244
  19 C :   -0.022433
  20 C :   -0.023574
  21 C :    0.011996
  22 C :    0.079546
  23 S :    0.101489
  24 C :   -0.062426
  25 C :    0.002159
  26 H :    0.026125
  27 H :   -0.010283
  28 H :   -0.019818
  29 H :   -0.031205
  30 H :   -0.031051
  31 H :   -0.020375
  32 H :    0.016295
  33 H :    0.010544
  34 H :    0.030920
  35 H :   -0.020305
  36 H :   -0.031616
  37 H :   -0.030724
  38 H :   -0.020648
  39 H :    0.017945
  40 H :    0.009392
  41 H :    0.030704
  42 H :    0.026244
  43 H :   -0.009198
Sum of atomic charges:   -0.0000000

LOEWDIN ATOMIC CHARGES
----------------------
   0 C :   -0.170740
   1 C :   -0.064328
   2 C :   -0.041331
   3 C :   -0.150131
   4 S :    0.393617
   5 C :   -0.033953
   6 C :   -0.031930
   7 C :   -0.016814
   8 C :   -0.027832
   9 C :   -0.022903
  10 C :   -0.031228
  11 C :   -0.014906
  12 C :   -0.044277
  13 C :   -0.041462
  14 C :   -0.150212
  15 C :   -0.033776
  16 C :   -0.031804
  17 C :   -0.016624
  18 C :   -0.027574
  19 C :   -0.022813
  20 C :   -0.031696
  21 C :   -0.015064
  22 C :   -0.044557
  23 S :    0.393527
  24 C :   -0.170731
  25 C :   -0.064414
  26 H :    0.025692
  27 H :    0.031535
  28 H :    0.025832
  29 H :    0.024824
  30 H :    0.024403
  31 H :    0.028762
  32 H :    0.030779
  33 H :    0.028292
  34 H :    0.036766
  35 H :    0.025620
  36 H :    0.024858
  37 H :    0.024472
  38 H :    0.028668
  39 H :    0.031445
  40 H :    0.027928
  41 H :    0.036620
  42 H :    0.025707
  43 H :    0.031754

  Mayer bond orders larger than 0.100000
B(  0-C ,  1-C ) :   1.6127 B(  0-C ,  4-S ) :   1.1016 B(  0-C , 26-H ) :   0.9624
B(  1-C ,  2-C ) :   1.1815 B(  1-C , 27-H ) :   0.9819 B(  2-C ,  3-C ) :   1.2548
B(  2-C , 15-C ) :   1.3485 B(  3-C ,  4-S ) :   1.0657 B(  3-C ,  5-C ) :   1.4284
B(  5-C ,  6-C ) :   0.9536 B(  5-C , 13-C ) :   1.3486 B(  6-C ,  7-C ) :   1.3804
B(  6-C , 11-C ) :   1.3835 B(  7-C ,  8-C ) :   1.3783 B(  7-C , 28-H ) :   0.9820
B(  8-C ,  9-C ) :   1.3781 B(  8-C , 29-H ) :   0.9848 B(  9-C , 10-C ) :   1.3829
B(  9-C , 12-C ) :   1.0632 B( 10-C , 11-C ) :   1.3634 B( 10-C , 30-H ) :   0.9838
B( 11-C , 31-H ) :   0.9854 B( 12-C , 32-H ) :   0.9572 B( 12-C , 33-H ) :   0.9593
B( 12-C , 34-H ) :   0.9523 B( 13-C , 14-C ) :   1.2544 B( 13-C , 25-C ) :   1.1811
B( 14-C , 15-C ) :   1.4263 B( 14-C , 23-S ) :   1.0660 B( 15-C , 16-C ) :   0.9522
B( 16-C , 17-C ) :   1.3804 B( 16-C , 21-C ) :   1.3849 B( 17-C , 18-C ) :   1.3802
B( 17-C , 35-H ) :   0.9814 B( 18-C , 19-C ) :   1.3773 B( 18-C , 36-H ) :   0.9842
B( 19-C , 20-C ) :   1.3845 B( 19-C , 22-C ) :   1.0627 B( 20-C , 21-C ) :   1.3620
B( 20-C , 37-H ) :   0.9829 B( 21-C , 38-H ) :   0.9846 B( 22-C , 39-H ) :   0.9568
B( 22-C , 40-H ) :   0.9595 B( 22-C , 41-H ) :   0.9527 B( 23-S , 24-C ) :   1.1015
B( 24-C , 25-C ) :   1.6128 B( 24-C , 42-H ) :   0.9624 B( 25-C , 43-H ) :   0.9822

Dispersion correction           -0.117986343
FINAL SINGLE POINT ENERGY     -1721.044085896720

DIPOLE MOMENT
-------------
                                X             Y             Z
Electronic contribution:     -0.14905      -0.00735       1.64029
Nuclear contribution   :      0.15356       0.01076      -1.77240
                        -----------------------------------------
Total Dipole Moment    :      0.00452       0.00340      -0.13211
                        -----------------------------------------
Magnitude (a.u.)       :      0.13223
Magnitude (Debye)      :      0.33610

Rotational constants in cm-1:     0.013250     0.003338     0.002780
Rotational constants in MHz :   397.233997   100.083237    83.346239

                             ****ORCA TERMINATED NORMALLY****
TOTAL RUN TIME: 0 days 1 hours 5 minutes 57 seconds 739 msec
