                         Program Version 4.2.0 -  RELEASE  -
|  1> # ORCA input file
|  2> # SCF done        -30.848218434581          0.000208991951
|  3> ! B3LYP/G D3BJ Opt RIJCOSX def2-SVP def2/J
|  4> * xyz 0 1
|  5>    C       -2.08377        -0.71464         0.00104
|  6>    C       -2.11817         0.66865        -0.00094
|  7>    C       -0.95194         1.42674        -0.00265
|  8>    C        0.24547         0.74033        -0.00228
|  9>    C        0.27405        -0.66115        -0.00021
| 10>    C       -0.87659        -1.41120         0.00144
| 11>    O        1.57185        -1.08778         0.00006
| 12>    C        2.36986         0.02967        -0.00158
| 13>    N        1.55690         1.15924        -0.00389
| 14>    C        1.97809         2.52801        -0.00278
| 15>    C        3.69983        -0.04476        -0.00128
| 16>    H       -3.00853        -1.27047         0.00237
| 17>    H       -3.07127         1.17571        -0.00110
| 18>    H       -0.98423         2.50461        -0.00411
| 19>    H       -0.84169        -2.48795         0.00305
| 20>    H        3.06326         2.57340        -0.00728
| 21>    H        1.60542         3.04054         0.88858
| 22>    H        1.59804         3.04362        -0.88913
| 23>    H        4.17667        -1.00359         0.00021
| 24>    H        4.32142         0.82716        -0.00261
| 25> *
| 26>
| 27>                          ****END OF INPUT****
 Total Charge           Charge          ....    0
 Multiplicity           Mult            ....    1
 Number of Electrons    NEL             ....   78
Dispersion correction           -0.037086542
FINAL SINGLE POINT ENERGY      -478.018804872877
Dispersion correction            ... done
Dispersion correction           -0.036976793
FINAL SINGLE POINT ENERGY      -478.021497515744
Dispersion correction            ... done
Dispersion correction           -0.036964332
FINAL SINGLE POINT ENERGY      -478.021567139264
Dispersion correction            ... done
Dispersion correction           -0.036962709
FINAL SINGLE POINT ENERGY      -478.021583330334
Dispersion correction            ... done
Dispersion correction           -0.036964197
FINAL SINGLE POINT ENERGY      -478.021586207244
Dispersion correction            ... done
                    ***********************HURRAY********************

CARTESIAN COORDINATES (ANGSTROEM)
---------------------------------
  C     -2.108283   -0.728196    0.000182
  C     -2.147544    0.667661   -0.000227
  C     -0.967402    1.436080   -0.001055
  C      0.238742    0.745462   -0.001511
  C      0.267621   -0.657490   -0.000583
  C     -0.880596   -1.422858    0.000058
  O      1.571967   -1.078291   -0.000698
  C      2.391725    0.033650   -0.000994
  N      1.561944    1.160451   -0.003426
  C      1.986229    2.535579   -0.004723
  C      3.731060   -0.057856    0.001246
  H     -3.040343   -1.296457    0.000720
  H     -3.111904    1.180377    0.000141
  H     -1.000320    2.526984   -0.001317
  H     -0.829310   -2.512777    0.000491
  H      3.081527    2.587849   -0.017067
  H      1.622304    3.062984    0.894204
  H      1.602569    3.065792   -0.893520
  H      4.194940   -1.042126    0.002548
  H      4.359743    0.829321    0.002442

 Multiplicity           Mult            ....    1
 Number of Electrons    NEL             ....   78
 Basis Dimension        Dim             ....  199

ORBITAL ENERGIES
----------------

  NO   OCC          E(Eh)            E(eV)
   0   2.0000     -19.190253      -522.1933
   1   2.0000     -14.377939      -391.2436
   2   2.0000     -10.282736      -279.8075
   3   2.0000     -10.248226      -278.8684
   4   2.0000     -10.243296      -278.7343
   5   2.0000     -10.233665      -278.4722
   6   2.0000     -10.197737      -277.4945
   7   2.0000     -10.196499      -277.4608
   8   2.0000     -10.192417      -277.3498
   9   2.0000     -10.190519      -277.2981
  10   2.0000     -10.160199      -276.4731
  11   2.0000      -1.109178       -30.1823
  12   2.0000      -0.957220       -26.0473
  13   2.0000      -0.853184       -23.2163
  14   2.0000      -0.770717       -20.9723
  15   2.0000      -0.754809       -20.5394
  16   2.0000      -0.737781       -20.0760
  17   2.0000      -0.691818       -18.8253
  18   2.0000      -0.624694       -16.9988
  19   2.0000      -0.605902       -16.4874
  20   2.0000      -0.592235       -16.1155
  21   2.0000      -0.533392       -14.5143
  22   2.0000      -0.527050       -14.3418
  23   2.0000      -0.492100       -13.3907
  24   2.0000      -0.470327       -12.7982
  25   2.0000      -0.453512       -12.3407
  26   2.0000      -0.451325       -12.2812
  27   2.0000      -0.440441       -11.9850
  28   2.0000      -0.438710       -11.9379
  29   2.0000      -0.419969       -11.4279
  30   2.0000      -0.399578       -10.8731
  31   2.0000      -0.393637       -10.7114
  32   2.0000      -0.371981       -10.1221
  33   2.0000      -0.363684        -9.8963
  34   2.0000      -0.353742        -9.6258
  35   2.0000      -0.333096        -9.0640
  36   2.0000      -0.269946        -7.3456
  37   2.0000      -0.249470        -6.7884
  38   2.0000      -0.183669        -4.9979
  39   0.0000      -0.010643        -0.2896
  40   0.0000       0.002876         0.0783
  41   0.0000       0.051093         1.3903
  42   0.0000       0.054648         1.4870
  43   0.0000       0.067992         1.8501

MULLIKEN ATOMIC CHARGES
-----------------------
   0 C :    0.022502
   1 C :    0.023800
   2 C :   -0.106426
   3 C :    0.160899
   4 C :    0.216108
   5 C :   -0.096224
   6 O :   -0.248295
   7 C :    0.269118
   8 N :   -0.252761
   9 C :    0.131212
  10 C :   -0.165444
  11 H :   -0.016863
  12 H :   -0.019656
  13 H :   -0.031641
  14 H :   -0.013390
  15 H :    0.040187
  16 H :    0.033212
  17 H :    0.033090
  18 H :    0.017934
  19 H :    0.002638
Sum of atomic charges:    0.0000000

LOEWDIN ATOMIC CHARGES
----------------------
   0 C :   -0.038373
   1 C :   -0.030141
   2 C :   -0.069055
   3 C :    0.007933
   4 C :    0.041718
   5 C :   -0.050012
   6 O :   -0.046461
   7 C :    0.104274
   8 N :   -0.023522
   9 C :    0.041155
  10 C :   -0.200970
  11 H :    0.026906
  12 H :    0.026649
  13 H :    0.026781
  14 H :    0.035909
  15 H :    0.037041
  16 H :    0.027051
  17 H :    0.027233
  18 H :    0.033547
  19 H :    0.022336

  Mayer bond orders larger than 0.100000
B(  0-C ,  1-C ) :   1.4289 B(  0-C ,  5-C ) :   1.2913 B(  0-C , 11-H ) :   0.9866
B(  1-C ,  2-C ) :   1.3034 B(  1-C , 12-H ) :   0.9831 B(  2-C ,  3-C ) :   1.3609
B(  2-C , 13-H ) :   1.0101 B(  3-C ,  4-C ) :   1.3017 B(  3-C ,  8-N ) :   1.0863
B(  4-C ,  5-C ) :   1.4122 B(  4-C ,  6-O ) :   1.0700 B(  5-C , 14-H ) :   1.0105
B(  6-O ,  7-C ) :   1.0572 B(  7-C ,  8-N ) :   1.0476 B(  7-C , 10-C ) :   1.8641
B(  8-N ,  9-C ) :   0.9848 B(  9-C , 15-H ) :   0.9692 B(  9-C , 16-H ) :   0.9679
B(  9-C , 17-H ) :   0.9676 B( 10-C , 18-H ) :   0.9183 B( 10-C , 19-H ) :   0.9307

Dispersion correction           -0.036965292
FINAL SINGLE POINT ENERGY      -478.021586181049

DIPOLE MOMENT
-------------
                                X             Y             Z
Electronic contribution:     -1.85333      -4.77497      -0.00014
Nuclear contribution   :      1.64768       5.68048      -0.00137
                        -----------------------------------------
Total Dipole Moment    :     -0.20565       0.90552      -0.00151
                        -----------------------------------------
Magnitude (a.u.)       :      0.92857
Magnitude (Debye)      :      2.36025

Rotational constants in cm-1:     0.078952     0.032239     0.022992
Rotational constants in MHz :  2366.923489   966.491323   689.282610

                             ****ORCA TERMINATED NORMALLY****
TOTAL RUN TIME: 0 days 0 hours 5 minutes 51 seconds 322 msec
