                         Program Version 4.2.0 -  RELEASE  -
|  1> # ORCA input file
|  2> # SCF done        -21.912487708072          0.000762003041
|  3> ! B3LYP/G D3BJ Opt RIJCOSX def2-SVP def2/J
|  4> * xyz 0 1
|  5>    C       -2.12005         0.39036         0.00405
|  6>    N       -1.61183        -0.78877         0.00386
|  7>    C       -0.26969        -0.71110         0.00222
|  8>    C        0.27212         0.57868         0.00114
|  9>    S       -0.99963         1.73654         0.00235
| 10>    N        1.61426         0.65636        -0.00050
| 11>    C        2.12248        -0.52278        -0.00076
| 12>    S        1.00206        -1.86896         0.00113
| 13>    H       -3.17632         0.57011         0.00528
| 14>    H        3.17875        -0.70252        -0.00194
| 15> *
| 16>
| 17>                          ****END OF INPUT****
 Total Charge           Charge          ....    0
 Multiplicity           Mult            ....    1
 Number of Electrons    NEL             ....   72
Dispersion correction           -0.024679702
FINAL SINGLE POINT ENERGY     -1059.101059317767
Dispersion correction            ... done
Dispersion correction           -0.024727421
FINAL SINGLE POINT ENERGY     -1059.103346827982
Dispersion correction            ... done
Dispersion correction           -0.024715794
FINAL SINGLE POINT ENERGY     -1059.103548479669
Dispersion correction            ... done
FINAL SINGLE POINT ENERGY     -1059.103596192654
FINAL SINGLE POINT ENERGY     -1059.103600076414
Dispersion correction            ... done
Dispersion correction           -0.024680722
FINAL SINGLE POINT ENERGY     -1059.103599752565
Dispersion correction            ... done
Dispersion correction           -0.024684225
FINAL SINGLE POINT ENERGY     -1059.103601304140
Dispersion correction            ... done
                    ***********************HURRAY********************

CARTESIAN COORDINATES (ANGSTROEM)
---------------------------------
  C     -2.143744    0.390338    0.004059
  N     -1.629509   -0.806633    0.003865
  C     -0.276206   -0.706779    0.002224
  C      0.278638    0.574365    0.001142
  S     -1.012781    1.741456    0.002305
  N      1.631941    0.674217   -0.000505
  C      2.146174   -0.522755   -0.000697
  S      1.015208   -1.873873    0.001087
  H     -3.217634    0.591026    0.005381
  H      3.220064   -0.723441   -0.002031

 Multiplicity           Mult            ....    1
 Number of Electrons    NEL             ....   72
 Basis Dimension        Dim             ....  130

ORBITAL ENERGIES
----------------

  NO   OCC          E(Eh)            E(eV)
   0   2.0000     -88.895861     -2418.9794
   1   2.0000     -88.895836     -2418.9787
   2   2.0000     -14.351315      -390.5191
   3   2.0000     -14.351273      -390.5180
   4   2.0000     -10.265257      -279.3318
   5   2.0000     -10.265256      -279.3318
   6   2.0000     -10.254075      -279.0276
   7   2.0000     -10.253526      -279.0126
   8   2.0000      -7.990984      -217.4457
   9   2.0000      -7.990956      -217.4450
  10   2.0000      -5.958878      -162.1493
  11   2.0000      -5.958874      -162.1492
  12   2.0000      -5.955276      -162.0513
  13   2.0000      -5.955275      -162.0513
  14   2.0000      -5.952116      -161.9653
  15   2.0000      -5.952113      -161.9652
  16   2.0000      -0.999281       -27.1918
  17   2.0000      -0.958491       -26.0819
  18   2.0000      -0.824654       -22.4400
  19   2.0000      -0.794486       -21.6191
  20   2.0000      -0.733362       -19.9558
  21   2.0000      -0.637168       -17.3382
  22   2.0000      -0.586051       -15.9473
  23   2.0000      -0.574091       -15.6218
  24   2.0000      -0.497143       -13.5279
  25   2.0000      -0.468905       -12.7596
  26   2.0000      -0.459159       -12.4943
  27   2.0000      -0.450812       -12.2672
  28   2.0000      -0.420174       -11.4335
  29   2.0000      -0.388496       -10.5715
  30   2.0000      -0.363260        -9.8848
  31   2.0000      -0.328151        -8.9294
  32   2.0000      -0.311175        -8.4675
  33   2.0000      -0.284178        -7.7329
  34   2.0000      -0.272615        -7.4182
  35   2.0000      -0.250923        -6.8280
  36   0.0000      -0.060558        -1.6479
  37   0.0000      -0.004827        -0.1313
  38   0.0000       0.002905         0.0790
  39   0.0000       0.035999         0.9796
  40   0.0000       0.048869         1.3298

MULLIKEN ATOMIC CHARGES
-----------------------
   0 C :   -0.006031
   1 N :   -0.087984
   2 C :   -0.077519
   3 C :   -0.077527
   4 S :    0.118202
   5 N :   -0.087986
   6 C :   -0.006031
   7 S :    0.118194
   8 H :    0.053341
   9 H :    0.053341
Sum of atomic charges:   -0.0000000

LOEWDIN ATOMIC CHARGES
----------------------
   0 C :   -0.117393
   1 N :   -0.101342
   2 C :   -0.211291
   3 C :   -0.211292
   4 S :    0.405977
   5 N :   -0.101342
   6 C :   -0.117393
   7 S :    0.405977
   8 H :    0.024049
   9 H :    0.024050

  Mayer bond orders larger than 0.100000
B(  0-C ,  1-N ) :   1.6863 B(  0-C ,  4-S ) :   1.1414 B(  0-C ,  8-H ) :   0.9610
B(  1-N ,  2-C ) :   1.3658 B(  1-N ,  4-S ) :   0.1150 B(  2-C ,  3-C ) :   1.3425
B(  2-C ,  7-S ) :   1.1045 B(  3-C ,  4-S ) :   1.1045 B(  3-C ,  5-N ) :   1.3658
B(  5-N ,  6-C ) :   1.6863 B(  5-N ,  7-S ) :   0.1150 B(  6-C ,  7-S ) :   1.1414
B(  6-C ,  9-H ) :   0.9610

Dispersion correction           -0.024684350
FINAL SINGLE POINT ENERGY     -1059.103601163745

DIPOLE MOMENT
-------------
                                X             Y             Z
Electronic contribution:     -0.00000       0.00000       0.00004
Nuclear contribution   :      0.00000       0.00000      -0.00002
                        -----------------------------------------
Total Dipole Moment    :     -0.00000       0.00000       0.00001
                        -----------------------------------------
Magnitude (a.u.)       :      0.00001
Magnitude (Debye)      :      0.00003

Rotational constants in cm-1:     0.113400     0.046104     0.032778
Rotational constants in MHz :  3399.643490  1382.176077   982.660645

                             ****ORCA TERMINATED NORMALLY****
TOTAL RUN TIME: 0 days 0 hours 2 minutes 48 seconds 643 msec
