                         Program Version 4.2.0 -  RELEASE  -
|  1> # ORCA input file
|  2> # SCF done        -56.520618544387          0.000937172532
|  3> ! B3LYP/G D3BJ Opt RIJCOSX def2-SVP def2/J
|  4> * xyz 0 1
|  5>    C        0.51235         1.64522        -0.00343
|  6>    C        1.81855         1.17963        -0.00358
|  7>    C        2.08931        -0.18479        -0.00291
|  8>    C        1.06190        -1.12269        -0.00187
|  9>    C       -0.23675        -0.65355        -0.00171
| 10>    C       -0.52684         0.72394        -0.00232
| 11>    C       -1.97518         0.91632        -0.00057
| 12>    C       -2.63072         2.11057         0.00054
| 13>    C       -1.99372         3.37334        -0.00142
| 14>    N       -1.53503         4.42395        -0.00320
| 15>    C       -4.03838         2.25130         0.00381
| 16>    N       -5.16996         2.43452         0.00755
| 17>    C       -2.59152        -0.41210         0.00159
| 18>    C       -3.87712        -0.77213         0.00347
| 19>    C       -1.49327        -1.43188        -0.00126
| 20>    O       -1.62525        -2.62906        -0.00040
| 21>    C        3.50884        -0.68873        -0.00238
| 22>    F        4.41848         0.29194        -0.00992
| 23>    F        3.76751        -1.44585         1.07707
| 24>    F        3.76398        -1.45927        -1.07300
| 25>    H        0.32732         2.70667        -0.00367
| 26>    H        2.63575         1.88455        -0.00418
| 27>    H        1.26469        -2.18284        -0.00178
| 28>    H       -4.69846        -0.07779        -0.00003
| 29>    H       -4.11498        -1.82449        -0.00050
| 30> *
| 31>
| 32>                          ****END OF INPUT****
 Total Charge           Charge          ....    0
 Multiplicity           Mult            ....    1
 Number of Electrons    NEL             ....  138
Dispersion correction           -0.060549522
FINAL SINGLE POINT ENERGY     -1020.000273734224
Dispersion correction            ... done
Dispersion correction           -0.060255151
FINAL SINGLE POINT ENERGY     -1020.004383278719
Dispersion correction            ... done
Dispersion correction           -0.060223931
FINAL SINGLE POINT ENERGY     -1020.004649130899
Dispersion correction            ... done
FINAL SINGLE POINT ENERGY     -1020.004659687490
FINAL SINGLE POINT ENERGY     -1020.004303496832
FINAL SINGLE POINT ENERGY     -1020.004797577279
FINAL SINGLE POINT ENERGY     -1020.004896823957
FINAL SINGLE POINT ENERGY     -1020.004943482850
Dispersion correction            ... done
Dispersion correction           -0.060284307
FINAL SINGLE POINT ENERGY     -1020.004947545220
Dispersion correction            ... done
Dispersion correction           -0.060285277
FINAL SINGLE POINT ENERGY     -1020.004948913466
Dispersion correction            ... done
                    ***********************HURRAY********************

CARTESIAN COORDINATES (ANGSTROEM)
---------------------------------
  C      0.531599    1.674495   -0.030790
  C      1.841783    1.188210   -0.027225
  C      2.108154   -0.188596   -0.022067
  C      1.059586   -1.113589   -0.034663
  C     -0.239555   -0.626428   -0.034951
  C     -0.528684    0.756744   -0.027287
  C     -1.995717    0.952649   -0.010230
  C     -2.655513    2.158118    0.021091
  C     -1.973693    3.416416    0.034838
  N     -1.416334    4.435079    0.046084
  C     -4.083610    2.240296    0.048734
  N     -5.243378    2.295929    0.072383
  C     -2.615583   -0.388548   -0.019643
  C     -3.898024   -0.793713   -0.013271
  C     -1.501148   -1.407785   -0.036190
  O     -1.626395   -2.610877   -0.045596
  C      3.524004   -0.710192    0.029099
  F      4.433454    0.260861   -0.134853
  F      3.770083   -1.299527    1.211973
  F      3.725802   -1.634596   -0.924747
  H      0.362836    2.749138   -0.033842
  H      2.675165    1.891876   -0.028934
  H      1.239862   -2.190239   -0.042173
  H     -4.757177   -0.125436   -0.000019
  H     -4.076016   -1.873503   -0.021818

 Multiplicity           Mult            ....    1
 Number of Electrons    NEL             ....  138
 Basis Dimension        Dim             ....  305

ORBITAL ENERGIES
----------------

  NO   OCC          E(Eh)            E(eV)
   0   2.0000     -24.742243      -673.2707
   1   2.0000     -24.737169      -673.1326
   2   2.0000     -24.735383      -673.0840
   3   2.0000     -19.161599      -521.4136
   4   2.0000     -14.364765      -390.8851
   5   2.0000     -14.364577      -390.8800
   6   2.0000     -10.456695      -284.5411
   7   2.0000     -10.308578      -280.5107
   8   2.0000     -10.298073      -280.2248
   9   2.0000     -10.287715      -279.9429
  10   2.0000     -10.266648      -279.3697
  11   2.0000     -10.265954      -279.3508
  12   2.0000     -10.260350      -279.1983
  13   2.0000     -10.256049      -279.0813
  14   2.0000     -10.250278      -278.9242
  15   2.0000     -10.249967      -278.9158
  16   2.0000     -10.248817      -278.8845
  17   2.0000     -10.247003      -278.8351
  18   2.0000     -10.246725      -278.8276
  19   2.0000     -10.243116      -278.7294
  20   2.0000      -1.318731       -35.8845
  21   2.0000      -1.228632       -33.4328
  22   2.0000      -1.223221       -33.2855
  23   2.0000      -1.067081       -29.0367
  24   2.0000      -0.947759       -25.7898
  25   2.0000      -0.929297       -25.2875
  26   2.0000      -0.928076       -25.2542
  27   2.0000      -0.886878       -24.1332
  28   2.0000      -0.837123       -22.7793
  29   2.0000      -0.814686       -22.1687
  30   2.0000      -0.799166       -21.7464
  31   2.0000      -0.748274       -20.3616
  32   2.0000      -0.705684       -19.2026
  33   2.0000      -0.698602       -19.0099
  34   2.0000      -0.652767       -17.7627
  35   2.0000      -0.635697       -17.2982
  36   2.0000      -0.623977       -16.9793
  37   2.0000      -0.611450       -16.6384
  38   2.0000      -0.608463       -16.5571
  39   2.0000      -0.605009       -16.4631
  40   2.0000      -0.557099       -15.1594
  41   2.0000      -0.545023       -14.8308
  42   2.0000      -0.524185       -14.2638
  43   2.0000      -0.512632       -13.9494
  44   2.0000      -0.490274       -13.3410
  45   2.0000      -0.487918       -13.2769
  46   2.0000      -0.485514       -13.2115
  47   2.0000      -0.477817       -13.0021
  48   2.0000      -0.472407       -12.8549
  49   2.0000      -0.468751       -12.7554
  50   2.0000      -0.453868       -12.3504
  51   2.0000      -0.453039       -12.3278
  52   2.0000      -0.444465       -12.0945
  53   2.0000      -0.439779       -11.9670
  54   2.0000      -0.428639       -11.6639
  55   2.0000      -0.425098       -11.5675
  56   2.0000      -0.412544       -11.2259
  57   2.0000      -0.410670       -11.1749
  58   2.0000      -0.400004       -10.8846
  59   2.0000      -0.398287       -10.8379
  60   2.0000      -0.393636       -10.7114
  61   2.0000      -0.378777       -10.3070
  62   2.0000      -0.373123       -10.1532
  63   2.0000      -0.368526       -10.0281
  64   2.0000      -0.364517        -9.9190
  65   2.0000      -0.315929        -8.5969
  66   2.0000      -0.310944        -8.4612
  67   2.0000      -0.292531        -7.9602
  68   2.0000      -0.283994        -7.7279
  69   0.0000      -0.142520        -3.8782
  70   0.0000      -0.116269        -3.1638
  71   0.0000      -0.055968        -1.5230
  72   0.0000      -0.032890        -0.8950
  73   0.0000      -0.023981        -0.6526

MULLIKEN ATOMIC CHARGES
-----------------------
   0 C :   -0.022058
   1 C :    0.037010
   2 C :   -0.090893
   3 C :   -0.029556
   4 C :   -0.008511
   5 C :    0.042168
   6 C :    0.259022
   7 C :   -0.279099
   8 C :   -0.135263
   9 N :    0.117051
  10 C :   -0.150153
  11 N :    0.119647
  12 C :   -0.121460
  13 C :    0.022490
  14 C :    0.152484
  15 O :   -0.139178
  16 C :    0.559734
  17 F :   -0.159222
  18 F :   -0.166774
  19 F :   -0.168509
  20 H :    0.014764
  21 H :    0.015127
  22 H :    0.016377
  23 H :    0.058178
  24 H :    0.056624
Sum of atomic charges:   -0.0000000

LOEWDIN ATOMIC CHARGES
----------------------
   0 C :    0.007379
   1 C :    0.018545
   2 C :   -0.060086
   3 C :    0.036767
   4 C :   -0.040127
   5 C :   -0.001813
   6 C :    0.063633
   7 C :   -0.109165
   8 C :   -0.010910
   9 N :   -0.041865
  10 C :   -0.009478
  11 N :   -0.040203
  12 C :   -0.073539
  13 C :    0.076593
  14 C :    0.082403
  15 O :   -0.122959
  16 C :    0.172735
  17 F :   -0.051989
  18 F :   -0.060136
  19 F :   -0.058008
  20 H :    0.043818
  21 H :    0.042956
  22 H :    0.048216
  23 H :    0.041067
  24 H :    0.046164

  Mayer bond orders larger than 0.100000
B(  0-C ,  1-C ) :   1.3612 B(  0-C ,  5-C ) :   1.3441 B(  0-C , 20-H ) :   0.9823
B(  1-C ,  2-C ) :   1.3789 B(  1-C , 21-H ) :   0.9841 B(  2-C ,  3-C ) :   1.3183
B(  2-C , 16-C ) :   0.9431 B(  3-C ,  4-C ) :   1.3484 B(  3-C , 22-H ) :   1.0089
B(  4-C ,  5-C ) :   1.3154 B(  4-C , 14-C ) :   0.9336 B(  5-C ,  6-C ) :   1.0238
B(  6-C ,  7-C ) :   1.6434 B(  6-C , 12-C ) :   1.0081 B(  7-C ,  8-C ) :   1.1237
B(  7-C , 10-C ) :   1.1432 B(  8-C ,  9-N ) :   2.9374 B( 10-C , 11-N ) :   2.9413
B( 12-C , 13-C ) :   1.9094 B( 12-C , 14-C ) :   0.9167 B( 13-C , 23-H ) :   0.9228
B( 13-C , 24-H ) :   0.9115 B( 14-C , 15-O ) :   2.2306 B( 16-C , 17-F ) :   1.1519
B( 16-C , 18-F ) :   1.1594 B( 16-C , 19-F ) :   1.1438

Dispersion correction           -0.060287184
FINAL SINGLE POINT ENERGY     -1020.004947339437

DIPOLE MOMENT
-------------
                                X             Y             Z
Electronic contribution:     15.66975      -2.72422       0.21288
Nuclear contribution   :    -15.22846       2.27646      -0.27587
                        -----------------------------------------
Total Dipole Moment    :      0.44129      -0.44776      -0.06299
                        -----------------------------------------
Magnitude (a.u.)       :      0.63181
Magnitude (Debye)      :      1.60594

Rotational constants in cm-1:     0.022267     0.006496     0.005166
Rotational constants in MHz :   667.553181   194.739831   154.887105

                             ****ORCA TERMINATED NORMALLY****
TOTAL RUN TIME: 0 days 0 hours 28 minutes 31 seconds 612 msec
