                         Program Version 4.2.0 -  RELEASE  -
|  1> # ORCA input file
|  2> # SCF done        -36.391789100676          0.000097765018
|  3> ! B3LYP/G D3BJ Opt RIJCOSX def2-SVP def2/J
|  4> * xyz 0 1
|  5>    C        3.38460        -0.21627        -0.00004
|  6>    C        2.44638        -1.23044        -0.00001
|  7>    C        1.10574        -0.87128        -0.00003
|  8>    C        0.71160         0.48758        -0.00007
|  9>    C        1.67429         1.48836        -0.00009
| 10>    C        3.00612         1.12479        -0.00008
| 11>    C       -0.72325         0.48907        -0.00011
| 12>    C       -1.12613        -0.86956        -0.00009
| 13>    N       -0.01062        -1.67230        -0.00002
| 14>    C        0.02451        -3.10646         0.00008
| 15>    C       -2.47225        -1.20973        -0.00016
| 16>    C       -3.40071        -0.18693        -0.00023
| 17>    C       -3.01147         1.15063        -0.00023
| 18>    C       -1.67602         1.49908        -0.00017
| 19>    H        4.43521        -0.46778        -0.00003
| 20>    H        2.75110        -2.26624         0.00002
| 21>    H        1.38300         2.52804        -0.00013
| 22>    H        3.77055         1.88772        -0.00009
| 23>    H       -0.99019        -3.49661         0.00020
| 24>    H        0.54346        -3.47800         0.88823
| 25>    H        0.54331        -3.47815        -0.88809
| 26>    H       -2.79799        -2.23962        -0.00016
| 27>    H       -4.45320        -0.43038        -0.00029
| 28>    H       -3.76861         1.92064        -0.00029
| 29>    H       -1.37257         2.53527        -0.00018
| 30> *
| 31>
| 32>                          ****END OF INPUT****
 Total Charge           Charge          ....    0
 Multiplicity           Mult            ....    1
 Number of Electrons    NEL             ....   96
Dispersion correction           -0.053963878
FINAL SINGLE POINT ENERGY      -556.438870016526
Dispersion correction            ... done
Dispersion correction           -0.053802722
FINAL SINGLE POINT ENERGY      -556.442422286888
Dispersion correction            ... done
Dispersion correction           -0.053782902
FINAL SINGLE POINT ENERGY      -556.442496276817
Dispersion correction            ... done
Dispersion correction           -0.053780575
FINAL SINGLE POINT ENERGY      -556.442503661946
Dispersion correction            ... done
                    ***********************HURRAY********************

CARTESIAN COORDINATES (ANGSTROEM)
---------------------------------
  C      3.420193   -0.218857   -0.000000
  C      2.468805   -1.239812    0.000014
  C      1.119138   -0.869937   -0.000035
  C      0.718087    0.496047   -0.000102
  C      1.693430    1.499862   -0.000115
  C      3.040841    1.136423   -0.000063
  C     -0.731228    0.497888   -0.000137
  C     -1.141158   -0.867551   -0.000096
  N     -0.009516   -1.675637   -0.000028
  C      0.027593   -3.115822    0.000045
  C     -2.496307   -1.218179   -0.000130
  C     -3.437346   -0.188174   -0.000195
  C     -3.047045    1.164008   -0.000230
  C     -1.696554    1.511720   -0.000202
  H      4.481385   -0.480972    0.000036
  H      2.773278   -2.287854    0.000064
  H      1.400415    2.552953   -0.000165
  H      3.812084    1.909567   -0.000073
  H     -0.993567   -3.514529    0.000190
  H      0.547869   -3.501479    0.893280
  H      0.547669   -3.501592   -0.893258
  H     -2.819298   -2.260892   -0.000111
  H     -4.500655   -0.441569   -0.000226
  H     -3.810617    1.944677   -0.000288
  H     -1.390635    2.561138   -0.000235

 Multiplicity           Mult            ....    1
 Number of Electrons    NEL             ....   96
 Basis Dimension        Dim             ....  251

ORBITAL ENERGIES
----------------

  NO   OCC          E(Eh)            E(eV)
   0   2.0000     -14.371802      -391.0766
   1   2.0000     -10.237963      -278.5891
   2   2.0000     -10.224135      -278.2129
   3   2.0000     -10.221337      -278.1367
   4   2.0000     -10.190285      -277.2917
   5   2.0000     -10.190068      -277.2858
   6   2.0000     -10.189524      -277.2710
   7   2.0000     -10.189033      -277.2577
   8   2.0000     -10.188788      -277.2510
   9   2.0000     -10.188633      -277.2468
  10   2.0000     -10.185801      -277.1697
  11   2.0000     -10.185624      -277.1649
  12   2.0000     -10.182306      -277.0746
  13   2.0000     -10.181582      -277.0549
  14   2.0000      -0.981862       -26.7178
  15   2.0000      -0.843010       -22.9395
  16   2.0000      -0.837839       -22.7988
  17   2.0000      -0.780784       -21.2462
  18   2.0000      -0.743564       -20.2334
  19   2.0000      -0.740147       -20.1404
  20   2.0000      -0.709349       -19.3024
  21   2.0000      -0.686013       -18.6674
  22   2.0000      -0.626216       -17.0402
  23   2.0000      -0.604602       -16.4521
  24   2.0000      -0.577018       -15.7015
  25   2.0000      -0.571697       -15.5567
  26   2.0000      -0.521278       -14.1847
  27   2.0000      -0.518309       -14.1039
  28   2.0000      -0.492802       -13.4098
  29   2.0000      -0.472447       -12.8559
  30   2.0000      -0.456710       -12.4277
  31   2.0000      -0.454841       -12.3769
  32   2.0000      -0.442886       -12.0515
  33   2.0000      -0.434664       -11.8278
  34   2.0000      -0.425148       -11.5689
  35   2.0000      -0.414746       -11.2858
  36   2.0000      -0.403790       -10.9877
  37   2.0000      -0.403012       -10.9665
  38   2.0000      -0.366778        -9.9805
  39   2.0000      -0.365739        -9.9523
  40   2.0000      -0.356291        -9.6952
  41   2.0000      -0.341954        -9.3050
  42   2.0000      -0.338695        -9.2164
  43   2.0000      -0.320365        -8.7176
  44   2.0000      -0.282743        -7.6938
  45   2.0000      -0.256536        -6.9807
  46   2.0000      -0.217378        -5.9151
  47   2.0000      -0.204526        -5.5654
  48   0.0000      -0.034651        -0.9429
  49   0.0000      -0.000883        -0.0240
  50   0.0000       0.020982         0.5709
  51   0.0000       0.035304         0.9607
  52   0.0000       0.051185         1.3928

MULLIKEN ATOMIC CHARGES
-----------------------
   0 C :    0.016869
   1 C :   -0.065378
   2 C :    0.126419
   3 C :    0.076566
   4 C :   -0.054588
   5 C :    0.020267
   6 C :    0.068035
   7 C :    0.133941
   8 N :   -0.219773
   9 C :    0.132486
  10 C :   -0.064346
  11 C :    0.010418
  12 C :    0.019549
  13 C :   -0.052287
  14 H :   -0.019477
  15 H :   -0.047135
  16 H :   -0.033782
  17 H :   -0.021131
  18 H :    0.030662
  19 H :    0.032655
  20 H :    0.032654
  21 H :   -0.047103
  22 H :   -0.019760
  23 H :   -0.021564
  24 H :   -0.034196
Sum of atomic charges:   -0.0000000

LOEWDIN ATOMIC CHARGES
----------------------
   0 C :   -0.023378
   1 C :   -0.062380
   2 C :    0.027589
   3 C :   -0.041202
   4 C :   -0.016171
   5 C :   -0.048356
   6 C :   -0.043327
   7 C :    0.031130
   8 N :    0.006433
   9 C :    0.038394
  10 C :   -0.062259
  11 C :   -0.023822
  12 C :   -0.049796
  13 C :   -0.015863
  14 H :    0.025647
  15 H :    0.023274
  16 H :    0.025810
  17 H :    0.025047
  18 H :    0.032252
  19 H :    0.026450
  20 H :    0.026448
  21 H :    0.021683
  22 H :    0.025674
  23 H :    0.024927
  24 H :    0.025799

  Mayer bond orders larger than 0.100000
B(  0-C ,  1-C ) :   1.3712 B(  0-C ,  5-C ) :   1.3494 B(  0-C , 14-H ) :   0.9808
B(  1-C ,  2-C ) :   1.3152 B(  1-C , 15-H ) :   0.9992 B(  2-C ,  3-C ) :   1.2775
B(  2-C ,  8-N ) :   1.1169 B(  3-C ,  4-C ) :   1.3323 B(  3-C ,  6-C ) :   1.1041
B(  4-C ,  5-C ) :   1.3938 B(  4-C , 16-H ) :   0.9918 B(  5-C , 17-H ) :   0.9804
B(  6-C ,  7-C ) :   1.2768 B(  6-C , 13-C ) :   1.3322 B(  7-C ,  8-N ) :   1.1088
B(  7-C , 10-C ) :   1.3099 B(  8-N ,  9-C ) :   0.9903 B(  9-C , 18-H ) :   0.9693
B(  9-C , 19-H ) :   0.9665 B(  9-C , 20-H ) :   0.9665 B( 10-C , 11-C ) :   1.3883
B( 10-C , 21-H ) :   0.9962 B( 11-C , 12-C ) :   1.3459 B( 11-C , 22-H ) :   0.9800
B( 12-C , 13-C ) :   1.3959 B( 12-C , 23-H ) :   0.9807 B( 13-C , 24-H ) :   0.9923

Dispersion correction           -0.053780741
FINAL SINGLE POINT ENERGY      -556.442504158602

DIPOLE MOMENT
-------------
                                X             Y             Z
Electronic contribution:     -0.09532       3.13191      -0.00014
Nuclear contribution   :      0.09187      -3.88893       0.00018
                        -----------------------------------------
Total Dipole Moment    :     -0.00345      -0.75702       0.00004
                        -----------------------------------------
Magnitude (a.u.)       :      0.75703
Magnitude (Debye)      :      1.92421

Rotational constants in cm-1:     0.046652     0.019642     0.013859
Rotational constants in MHz :  1398.587646   588.845635   415.475816

                             ****ORCA TERMINATED NORMALLY****
TOTAL RUN TIME: 0 days 0 hours 8 minutes 35 seconds 696 msec
