                         Program Version 4.2.0 -  RELEASE  -
|  1> # ORCA input file
|  2> # SCF done        -36.367040016388          0.000453709822
|  3> ! B3LYP/G D3BJ Opt RIJCOSX def2-SVP def2/J
|  4> * xyz 0 1
|  5>    C        2.15557        -0.56282         0.04903
|  6>    C        2.20564         0.83195        -0.13899
|  7>    C        1.09253         1.63160        -0.23539
|  8>    C       -0.19553         1.05548        -0.14545
|  9>    C       -0.22472        -0.32648         0.04218
| 10>    C        0.91607        -1.15008         0.14152
| 11>    N        0.47302        -2.44114         0.31938
| 12>    C        1.29979        -3.60205         0.47334
| 13>    C       -0.92458        -2.48055         0.34486
| 14>    C       -1.38723        -1.10349         0.15933
| 15>    C       -2.60458        -0.47002         0.08269
| 16>    C       -2.61015         0.92272        -0.10679
| 17>    C       -1.46193         1.67408        -0.21806
| 18>    C       -1.66856        -3.58014         0.51209
| 19>    H        3.07561        -1.12392         0.11500
| 20>    H        3.18263         1.28963        -0.21014
| 21>    H        1.19679         2.69663        -0.37911
| 22>    H        1.07699        -4.34158        -0.30198
| 23>    H        1.14332        -4.06585         1.45262
| 24>    H        2.34394        -3.30992         0.38762
| 25>    H       -3.53753        -1.00706         0.16327
| 26>    H       -3.56699         1.42264        -0.16721
| 27>    H       -1.52700         2.74303        -0.36238
| 28>    H       -1.24180        -4.55723         0.64476
| 29>    H       -2.73993        -3.51022         0.51611
| 30> *
| 31>
| 32>                          ****END OF INPUT****
 Total Charge           Charge          ....    0
 Multiplicity           Mult            ....    1
 Number of Electrons    NEL             ....   96
Dispersion correction           -0.055098583
FINAL SINGLE POINT ENERGY      -556.412816035800
Dispersion correction            ... done
Dispersion correction           -0.054893519
FINAL SINGLE POINT ENERGY      -556.416365107856
Dispersion correction            ... done
Dispersion correction           -0.054871578
FINAL SINGLE POINT ENERGY      -556.416450102611
Dispersion correction            ... done
FINAL SINGLE POINT ENERGY      -556.416452780218
FINAL SINGLE POINT ENERGY      -556.416433670822
FINAL SINGLE POINT ENERGY      -556.416391512131
FINAL SINGLE POINT ENERGY      -556.416313224117
FINAL SINGLE POINT ENERGY      -556.416266925427
Dispersion correction            ... done
Dispersion correction           -0.054877043
FINAL SINGLE POINT ENERGY      -556.416263513970
Dispersion correction            ... done
Dispersion correction           -0.054873202
FINAL SINGLE POINT ENERGY      -556.416269609460
Dispersion correction            ... done
                    ***********************HURRAY********************

CARTESIAN COORDINATES (ANGSTROEM)
---------------------------------
  C      2.173087   -0.561901    0.063180
  C      2.226877    0.854289   -0.112359
  C      1.104432    1.659869   -0.211882
  C     -0.194737    1.069228   -0.140194
  C     -0.227036   -0.324621    0.033122
  C      0.921611   -1.148527    0.132245
  N      0.474946   -2.458857    0.287090
  C      1.308624   -3.616950    0.462252
  C     -0.937933   -2.502818    0.327826
  C     -1.394000   -1.105132    0.136074
  C     -2.623281   -0.469283    0.054220
  C     -2.633201    0.938856   -0.123824
  C     -1.469172    1.695916   -0.216558
  C     -1.683069   -3.610246    0.523164
  H      3.097137   -1.135909    0.144812
  H      3.213416    1.322158   -0.169677
  H      1.208875    2.738427   -0.349541
  H      0.951811   -4.445892   -0.169516
  H      1.321477   -3.967939    1.510745
  H      2.337005   -3.379056    0.159176
  H     -3.564596   -1.017729    0.124391
  H     -3.597541    1.448735   -0.192779
  H     -1.533849    2.778043   -0.357022
  H     -1.238961   -4.591898    0.687324
  H     -2.770552   -3.533551    0.536033

 Multiplicity           Mult            ....    1
 Number of Electrons    NEL             ....   96
 Basis Dimension        Dim             ....  251

ORBITAL ENERGIES
----------------

  NO   OCC          E(Eh)            E(eV)
   0   2.0000     -14.365011      -390.8918
   1   2.0000     -10.233483      -278.4672
   2   2.0000     -10.232285      -278.4346
   3   2.0000     -10.227838      -278.3136
   4   2.0000     -10.196959      -277.4734
   5   2.0000     -10.196364      -277.4572
   6   2.0000     -10.195194      -277.4253
   7   2.0000     -10.194629      -277.4100
   8   2.0000     -10.193015      -277.3660
   9   2.0000     -10.192268      -277.3457
  10   2.0000     -10.188372      -277.2397
  11   2.0000     -10.181778      -277.0603
  12   2.0000     -10.180104      -277.0147
  13   2.0000     -10.179314      -276.9932
  14   2.0000      -0.975765       -26.5519
  15   2.0000      -0.862232       -23.4625
  16   2.0000      -0.818471       -22.2717
  17   2.0000      -0.783802       -21.3283
  18   2.0000      -0.756357       -20.5815
  19   2.0000      -0.737929       -20.0801
  20   2.0000      -0.705911       -19.2088
  21   2.0000      -0.684276       -18.6201
  22   2.0000      -0.631095       -17.1730
  23   2.0000      -0.607226       -16.5234
  24   2.0000      -0.590410       -16.0659
  25   2.0000      -0.565696       -15.3934
  26   2.0000      -0.512535       -13.9468
  27   2.0000      -0.508251       -13.8302
  28   2.0000      -0.497695       -13.5430
  29   2.0000      -0.478888       -13.0312
  30   2.0000      -0.467533       -12.7222
  31   2.0000      -0.459563       -12.5054
  32   2.0000      -0.436842       -11.8871
  33   2.0000      -0.429029       -11.6745
  34   2.0000      -0.417462       -11.3597
  35   2.0000      -0.409460       -11.1420
  36   2.0000      -0.406902       -11.0724
  37   2.0000      -0.394210       -10.7270
  38   2.0000      -0.386376       -10.5138
  39   2.0000      -0.375542       -10.2190
  40   2.0000      -0.347495        -9.4558
  41   2.0000      -0.343174        -9.3382
  42   2.0000      -0.336580        -9.1588
  43   2.0000      -0.336289        -9.1509
  44   2.0000      -0.266186        -7.2433
  45   2.0000      -0.254641        -6.9291
  46   2.0000      -0.246930        -6.7193
  47   2.0000      -0.184862        -5.0304
  48   0.0000      -0.057618        -1.5679
  49   0.0000      -0.014203        -0.3865
  50   0.0000       0.028070         0.7638
  51   0.0000       0.053777         1.4634
  52   0.0000       0.054887         1.4935

MULLIKEN ATOMIC CHARGES
-----------------------
   0 C :   -0.133101
   1 C :    0.039071
   2 C :   -0.040254
   3 C :    0.110759
   4 C :   -0.038194
   5 C :    0.221431
   6 N :   -0.262190
   7 C :    0.137404
   8 C :    0.133438
   9 C :    0.110356
  10 C :   -0.074865
  11 C :    0.039816
  12 C :   -0.037251
  13 C :   -0.112617
  14 H :   -0.047580
  15 H :   -0.021599
  16 H :   -0.036506
  17 H :    0.028989
  18 H :    0.025713
  19 H :    0.028580
  20 H :   -0.033201
  21 H :   -0.020219
  22 H :   -0.028376
  23 H :    0.001105
  24 H :    0.009293
Sum of atomic charges:   -0.0000000

LOEWDIN ATOMIC CHARGES
----------------------
   0 C :   -0.083362
   1 C :   -0.011299
   2 C :   -0.053258
   3 C :   -0.014105
   4 C :   -0.025121
   5 C :    0.043541
   6 N :   -0.017518
   7 C :    0.037463
   8 C :    0.039040
   9 C :   -0.015695
  10 C :   -0.020408
  11 C :   -0.021986
  12 C :   -0.018610
  13 C :   -0.116180
  14 H :    0.021041
  15 H :    0.026367
  16 H :    0.023265
  17 H :    0.026444
  18 H :    0.021250
  19 H :    0.031251
  20 H :    0.025562
  21 H :    0.026950
  22 H :    0.026269
  23 H :    0.020861
  24 H :    0.028237

  Mayer bond orders larger than 0.100000
B(  0-C ,  1-C ) :   1.2250 B(  0-C ,  5-C ) :   1.3883 B(  0-C , 14-H ) :   1.0062
B(  1-C ,  2-C ) :   1.4947 B(  1-C , 15-H ) :   0.9769 B(  2-C ,  3-C ) :   1.1866
B(  2-C , 16-H ) :   0.9878 B(  3-C ,  4-C ) :   1.2810 B(  3-C , 12-C ) :   1.2330
B(  4-C ,  5-C ) :   1.2115 B(  4-C ,  9-C ) :   1.2965 B(  5-C ,  6-N ) :   1.0871
B(  6-N ,  7-C ) :   0.9978 B(  6-N ,  8-C ) :   1.0698 B(  7-C , 17-H ) :   0.9617
B(  7-C , 18-H ) :   0.9663 B(  7-C , 19-H ) :   0.9675 B(  8-C ,  9-C ) :   0.9709
B(  8-C , 13-C ) :   1.8491 B(  9-C , 10-C ) :   1.4034 B( 10-C , 11-C ) :   1.2811
B( 10-C , 20-H ) :   0.9927 B( 11-C , 12-C ) :   1.4549 B( 11-C , 21-H ) :   0.9784
B( 12-C , 22-H ) :   0.9852 B( 13-C , 23-H ) :   0.9242 B( 13-C , 24-H ) :   0.9217

Dispersion correction           -0.054872329
FINAL SINGLE POINT ENERGY      -556.416269520266

DIPOLE MOMENT
-------------
                                X             Y             Z
Electronic contribution:     -1.22816       4.89200      -0.77947
Nuclear contribution   :      1.46209      -5.31911       0.83248
                        -----------------------------------------
Total Dipole Moment    :      0.23393      -0.42711       0.05301
                        -----------------------------------------
Magnitude (a.u.)       :      0.48985
Magnitude (Debye)      :      1.24511

Rotational constants in cm-1:     0.034627     0.026769     0.015143
Rotational constants in MHz :  1038.083100   802.524635   453.976141

                             ****ORCA TERMINATED NORMALLY****
TOTAL RUN TIME: 0 days 0 hours 19 minutes 29 seconds 475 msec
