                         Program Version 4.2.0 -  RELEASE  -
|  1> # ORCA input file
|  2> # SCF done        -39.155737180184          0.000446519996
|  3> ! B3LYP/G D3BJ Opt RIJCOSX def2-SVP def2/J
|  4> * xyz 0 1
|  5>    C       -1.13204        -1.28931        -0.63718
|  6>    C       -2.29526        -0.66024        -0.29073
|  7>    O       -3.47541        -1.30650        -0.55630
|  8>    C       -4.29350        -1.59026         0.56921
|  9>    C       -2.29022         0.66368         0.29369
| 10>    O       -3.46605         1.30723         0.58420
| 11>    C       -4.30574         1.59255        -0.52482
| 12>    C       -1.12112         1.29503         0.61513
| 13>    C        0.08612         0.64506         0.30826
| 14>    C        0.08024        -0.63716        -0.35597
| 15>    N        1.33907        -0.98448        -0.54705
| 16>    O        2.07421         0.00625        -0.04579
| 17>    N        1.34811         0.99430         0.47317
| 18>    H       -1.14736        -2.26515        -1.09244
| 19>    H       -3.80555        -2.32756         1.21472
| 20>    H       -5.21260        -2.01139         0.16660
| 21>    H       -4.52075        -0.69698         1.15418
| 22>    H       -3.83709         2.34235        -1.17026
| 23>    H       -5.22340         1.99831        -0.10365
| 24>    H       -4.53147         0.70257        -1.11539
| 25>    H       -1.12855         2.27076         1.07084
| 26> *
| 27>
| 28>                          ****END OF INPUT****
 Total Charge           Charge          ....    0
 Multiplicity           Mult            ....    1
 Number of Electrons    NEL             ....   94
Dispersion correction           -0.039836929
FINAL SINGLE POINT ENERGY      -644.270463023561
Dispersion correction            ... done
Dispersion correction           -0.039347315
FINAL SINGLE POINT ENERGY      -644.272848826111
Dispersion correction            ... done
Dispersion correction           -0.039533166
FINAL SINGLE POINT ENERGY      -644.273808272432
Dispersion correction            ... done
FINAL SINGLE POINT ENERGY      -644.273972963915
FINAL SINGLE POINT ENERGY      -644.274017511682
FINAL SINGLE POINT ENERGY      -644.274023531474
Dispersion correction            ... done
Dispersion correction           -0.039404516
FINAL SINGLE POINT ENERGY      -644.274025087140
Dispersion correction            ... done
Dispersion correction           -0.039407701
FINAL SINGLE POINT ENERGY      -644.274029852583
Dispersion correction            ... done
                    ***********************HURRAY********************

CARTESIAN COORDINATES (ANGSTROEM)
---------------------------------
  C     -1.165049   -1.319307   -0.609792
  C     -2.328842   -0.668877   -0.290827
  O     -3.525986   -1.266645   -0.542615
  C     -4.253618   -1.717179    0.599028
  C     -2.323963    0.674123    0.290293
  O     -3.516459    1.269445    0.567570
  C     -4.271480    1.719125   -0.555988
  C     -1.154923    1.326049    0.586541
  C      0.065627    0.654741    0.283800
  C      0.060397   -0.646872   -0.329991
  N      1.312708   -1.022212   -0.518373
  O      2.060309    0.004211   -0.040657
  N      1.320951    1.030654    0.449773
  H     -1.191324   -2.315131   -1.049973
  H     -3.648568   -2.429441    1.186521
  H     -5.145688   -2.231028    0.217640
  H     -4.554982   -0.875460    1.242199
  H     -3.682216    2.433900   -1.156331
  H     -5.155785    2.229885   -0.152868
  H     -4.585522    0.877406   -1.193088
  H     -1.173948    2.321672    1.027558

 Multiplicity           Mult            ....    1
 Number of Electrons    NEL             ....   94
 Basis Dimension        Dim             ....  222

ORBITAL ENERGIES
----------------

  NO   OCC          E(Eh)            E(eV)
   0   2.0000     -19.260264      -524.0984
   1   2.0000     -19.174109      -521.7540
   2   2.0000     -19.174009      -521.7513
   3   2.0000     -14.392726      -391.6460
   4   2.0000     -14.392617      -391.6430
   5   2.0000     -10.275792      -279.6185
   6   2.0000     -10.275617      -279.6138
   7   2.0000     -10.254314      -279.0341
   8   2.0000     -10.254270      -279.0329
   9   2.0000     -10.243975      -278.7527
  10   2.0000     -10.243728      -278.7460
  11   2.0000     -10.219581      -278.0889
  12   2.0000     -10.219447      -278.0853
  13   2.0000      -1.191623       -32.4257
  14   2.0000      -1.081563       -29.4308
  15   2.0000      -1.058138       -28.7934
  16   2.0000      -0.911644       -24.8071
  17   2.0000      -0.896940       -24.4070
  18   2.0000      -0.818318       -22.2676
  19   2.0000      -0.777137       -21.1470
  20   2.0000      -0.721811       -19.6415
  21   2.0000      -0.714855       -19.4522
  22   2.0000      -0.648668       -17.6512
  23   2.0000      -0.640287       -17.4231
  24   2.0000      -0.614627       -16.7249
  25   2.0000      -0.558717       -15.2035
  26   2.0000      -0.547738       -14.9047
  27   2.0000      -0.532137       -14.4802
  28   2.0000      -0.509509       -13.8644
  29   2.0000      -0.491025       -13.3615
  30   2.0000      -0.481035       -13.0896
  31   2.0000      -0.479255       -13.0412
  32   2.0000      -0.470211       -12.7951
  33   2.0000      -0.470207       -12.7950
  34   2.0000      -0.446346       -12.1457
  35   2.0000      -0.435419       -11.8484
  36   2.0000      -0.408787       -11.1237
  37   2.0000      -0.393532       -10.7086
  38   2.0000      -0.372976       -10.1492
  39   2.0000      -0.358790        -9.7632
  40   2.0000      -0.339702        -9.2438
  41   2.0000      -0.335053        -9.1172
  42   2.0000      -0.323889        -8.8135
  43   2.0000      -0.318478        -8.6662
  44   2.0000      -0.289515        -7.8781
  45   2.0000      -0.275718        -7.5027
  46   2.0000      -0.250757        -6.8234
  47   0.0000      -0.089561        -2.4371
  48   0.0000      -0.002500        -0.0680
  49   0.0000       0.000858         0.0233
  50   0.0000       0.053240         1.4487
  51   0.0000       0.075987         2.0677

MULLIKEN ATOMIC CHARGES
-----------------------
   0 C :   -0.060111
   1 C :    0.155242
   2 O :   -0.343072
   3 C :    0.200013
   4 C :    0.155995
   5 O :   -0.343135
   6 C :    0.200472
   7 C :   -0.060231
   8 C :    0.018581
   9 C :    0.018244
  10 N :    0.038635
  11 O :   -0.134767
  12 N :    0.038667
  13 H :   -0.022452
  14 H :    0.015091
  15 H :    0.034867
  16 H :    0.030441
  17 H :    0.014919
  18 H :    0.034796
  19 H :    0.030259
  20 H :   -0.022454
Sum of atomic charges:    0.0000000

LOEWDIN ATOMIC CHARGES
----------------------
   0 C :   -0.035184
   1 C :    0.035899
   2 O :   -0.123443
   3 C :    0.088866
   4 C :    0.035976
   5 O :   -0.123237
   6 C :    0.088906
   7 C :   -0.035265
   8 C :   -0.059733
   9 C :   -0.059755
  10 N :   -0.027606
  11 O :    0.048672
  12 N :   -0.027623
  13 H :    0.043579
  14 H :    0.013882
  15 H :    0.026140
  16 H :    0.013200
  17 H :    0.013819
  18 H :    0.026155
  19 H :    0.013172
  20 H :    0.043579

  Mayer bond orders larger than 0.100000
B(  0-C ,  1-C ) :   1.5284 B(  0-C ,  7-C ) :   0.1425 B(  0-C ,  9-C ) :   1.0851
B(  0-C , 13-H ) :   1.0261 B(  1-C ,  2-O ) :   1.0838 B(  1-C ,  4-C ) :   1.1107
B(  2-O ,  3-C ) :   0.9244 B(  3-C , 14-H ) :   0.9642 B(  3-C , 15-H ) :   0.9815
B(  3-C , 16-H ) :   0.9655 B(  4-C ,  5-O ) :   1.0838 B(  4-C ,  7-C ) :   1.5287
B(  5-O ,  6-C ) :   0.9242 B(  6-C , 17-H ) :   0.9643 B(  6-C , 18-H ) :   0.9815
B(  6-C , 19-H ) :   0.9656 B(  7-C ,  8-C ) :   1.0847 B(  7-C , 20-H ) :   1.0261
B(  8-C ,  9-C ) :   1.1552 B(  8-C , 12-N ) :   1.5782 B(  9-C , 10-N ) :   1.5782
B( 10-N , 11-O ) :   1.0442 B( 10-N , 12-N ) :   0.1964 B( 11-O , 12-N ) :   1.0442

Dispersion correction           -0.039408663
FINAL SINGLE POINT ENERGY      -644.274030956203

DIPOLE MOMENT
-------------
                                X             Y             Z
Electronic contribution:     14.65767       0.00933      -0.15313
Nuclear contribution   :    -16.61790      -0.00994       0.17282
                        -----------------------------------------
Total Dipole Moment    :     -1.96023      -0.00060       0.01970
                        -----------------------------------------
Magnitude (a.u.)       :      1.96033
Magnitude (Debye)      :      4.98276

Rotational constants in cm-1:     0.057227     0.018518     0.014952
Rotational constants in MHz :  1715.634824   555.145587   448.254041

                             ****ORCA TERMINATED NORMALLY****
TOTAL RUN TIME: 0 days 0 hours 12 minutes 34 seconds 655 msec
