                         Program Version 4.2.0 -  RELEASE  -
|  1> # ORCA input file
|  2> # SCF done        -44.902528617465          0.000491988597
|  3> ! B3LYP/G D3BJ Opt RIJCOSX def2-SVP def2/J
|  4> * xyz 0 1
|  5>    C       -1.98039         0.93143        -0.00052
|  6>    C       -2.65442         2.11669        -0.00009
|  7>    C       -2.03505         3.38739        -0.00018
|  8>    N       -1.59066         4.44473        -0.00169
|  9>    C       -4.06302         2.23818         0.00286
| 10>    N       -5.19711         2.40763         0.00539
| 11>    C       -0.53315         0.75734        -0.00038
| 12>    C       -0.22405        -0.61686        -0.00060
| 13>    C        1.07938        -1.07459        -0.00035
| 14>    C        2.08050        -0.11579         0.00018
| 15>    C        1.80592         1.24603         0.00052
| 16>    C        0.49548         1.69317         0.00022
| 17>    F        3.36101        -0.51142         0.00032
| 18>    C       -1.46942        -1.40993        -0.00091
| 19>    O       -1.58689        -2.60978        -0.00119
| 20>    C       -2.58078        -0.40495        -0.00081
| 21>    C       -3.86147        -0.78083        -0.00103
| 22>    H        1.30606        -2.12890        -0.00051
| 23>    H        2.62669         1.94597         0.00107
| 24>    H        0.29463         2.75191         0.00054
| 25>    H       -4.08650        -1.83607        -0.00073
| 26>    H       -4.69129        -0.09655        -0.00059
| 27> *
| 28>
| 29>                          ****END OF INPUT****
 Total Charge           Charge          ....    0
 Multiplicity           Mult            ....    1
 Number of Electrons    NEL             ....  114
Dispersion correction           -0.054146088
FINAL SINGLE POINT ENERGY      -782.368982912896
Dispersion correction            ... done
Dispersion correction           -0.053833957
FINAL SINGLE POINT ENERGY      -782.372852077282
Dispersion correction            ... done
Dispersion correction           -0.053814398
FINAL SINGLE POINT ENERGY      -782.373120425124
Dispersion correction            ... done
FINAL SINGLE POINT ENERGY      -782.373221823523
FINAL SINGLE POINT ENERGY      -782.373241616189
FINAL SINGLE POINT ENERGY      -782.373246909906
FINAL SINGLE POINT ENERGY      -782.373250527229
Dispersion correction            ... done
Dispersion correction           -0.053906319
FINAL SINGLE POINT ENERGY      -782.373252473279
Dispersion correction            ... done
Dispersion correction           -0.053903589
FINAL SINGLE POINT ENERGY      -782.373254312415
Dispersion correction            ... done
                    ***********************HURRAY********************

CARTESIAN COORDINATES (ANGSTROEM)
---------------------------------
  C     -2.001974    0.963928    0.000261
  C     -2.678035    2.162567    0.000838
  C     -2.008634    3.427047    0.001252
  N     -1.456797    4.449009    0.000703
  C     -4.106625    2.231404    0.001095
  N     -5.267167    2.280046    0.001373
  C     -0.537634    0.782798    0.000055
  C     -0.228810   -0.596557   -0.000320
  C      1.075752   -1.076181   -0.000526
  C      2.093823   -0.126194   -0.000369
  C      1.827931    1.249454   -0.000032
  C      0.514560    1.715428    0.000180
  F      3.363871   -0.526149   -0.000549
  C     -1.483839   -1.391286   -0.000494
  O     -1.595385   -2.595955   -0.000563
  C     -2.608987   -0.384069   -0.000132
  C     -3.887931   -0.799309   -0.000253
  H      1.290260   -2.146042   -0.000828
  H      2.670432    1.943209    0.000060
  H      0.331581    2.787722    0.000437
  H     -4.059729   -1.880042   -0.000592
  H     -4.751193   -0.136028   -0.000076

 Multiplicity           Mult            ....    1
 Number of Electrons    NEL             ....  114
 Basis Dimension        Dim             ....  263

ORBITAL ENERGIES
----------------

  NO   OCC          E(Eh)            E(eV)
   0   2.0000     -24.734837      -673.0691
   1   2.0000     -19.158256      -521.3226
   2   2.0000     -14.358609      -390.7176
   3   2.0000     -14.357973      -390.7003
   4   2.0000     -10.319153      -280.7984
   5   2.0000     -10.305269      -280.4206
   6   2.0000     -10.289964      -280.0042
   7   2.0000     -10.281911      -279.7850
   8   2.0000     -10.260993      -279.2158
   9   2.0000     -10.259980      -279.1882
  10   2.0000     -10.251827      -278.9664
  11   2.0000     -10.245083      -278.7829
  12   2.0000     -10.243866      -278.7498
  13   2.0000     -10.242241      -278.7055
  14   2.0000     -10.242133      -278.7026
  15   2.0000     -10.241828      -278.6943
  16   2.0000     -10.241248      -278.6785
  17   2.0000      -1.247778       -33.9538
  18   2.0000      -1.063616       -28.9425
  19   2.0000      -0.941718       -25.6255
  20   2.0000      -0.923190       -25.1213
  21   2.0000      -0.922015       -25.0893
  22   2.0000      -0.876054       -23.8387
  23   2.0000      -0.828990       -22.5580
  24   2.0000      -0.796867       -21.6839
  25   2.0000      -0.794211       -21.6116
  26   2.0000      -0.714762       -19.4497
  27   2.0000      -0.701453       -19.0875
  28   2.0000      -0.644966       -17.5504
  29   2.0000      -0.630727       -17.1630
  30   2.0000      -0.617643       -16.8069
  31   2.0000      -0.590280       -16.0623
  32   2.0000      -0.555182       -15.1073
  33   2.0000      -0.539060       -14.6686
  34   2.0000      -0.529394       -14.4055
  35   2.0000      -0.510915       -13.9027
  36   2.0000      -0.508340       -13.8326
  37   2.0000      -0.485827       -13.2200
  38   2.0000      -0.473485       -12.8842
  39   2.0000      -0.470400       -12.8002
  40   2.0000      -0.461795       -12.5661
  41   2.0000      -0.448621       -12.2076
  42   2.0000      -0.434764       -11.8305
  43   2.0000      -0.434366       -11.8197
  44   2.0000      -0.413705       -11.2575
  45   2.0000      -0.399664       -10.8754
  46   2.0000      -0.399624       -10.8743
  47   2.0000      -0.392965       -10.6931
  48   2.0000      -0.387993       -10.5578
  49   2.0000      -0.373049       -10.1512
  50   2.0000      -0.368012       -10.0141
  51   2.0000      -0.359751        -9.7893
  52   2.0000      -0.358975        -9.7682
  53   2.0000      -0.308605        -8.3976
  54   2.0000      -0.303073        -8.2470
  55   2.0000      -0.289009        -7.8643
  56   2.0000      -0.273339        -7.4379
  57   0.0000      -0.133082        -3.6213
  58   0.0000      -0.112597        -3.0639
  59   0.0000      -0.045382        -1.2349
  60   0.0000      -0.027283        -0.7424
  61   0.0000      -0.007726        -0.2102

MULLIKEN ATOMIC CHARGES
-----------------------
   0 C :    0.259398
   1 C :   -0.285245
   2 C :   -0.137360
   3 N :    0.110290
   4 C :   -0.151188
   5 N :    0.114200
   6 C :    0.034735
   7 C :   -0.024300
   8 C :   -0.081827
   9 C :    0.319996
  10 C :   -0.029456
  11 C :   -0.014208
  12 F :   -0.173486
  13 C :    0.145600
  14 O :   -0.142181
  15 C :   -0.118400
  16 C :    0.019342
  17 H :    0.010465
  18 H :    0.016650
  19 H :    0.015515
  20 H :    0.054299
  21 H :    0.057159
Sum of atomic charges:   -0.0000000

LOEWDIN ATOMIC CHARGES
----------------------
   0 C :    0.064675
   1 C :   -0.117858
   2 C :   -0.010803
   3 N :   -0.048555
   4 C :   -0.010520
   5 N :   -0.046590
   6 C :   -0.020318
   7 C :   -0.033352
   8 C :   -0.013532
   9 C :    0.101548
  10 C :   -0.022976
  11 C :    0.014368
  12 F :   -0.042234
  13 C :    0.082585
  14 O :   -0.124866
  15 C :   -0.072481
  16 C :    0.072300
  17 H :    0.051030
  18 H :    0.047619
  19 H :    0.044041
  20 H :    0.045099
  21 H :    0.040820

  Mayer bond orders larger than 0.100000
B(  0-C ,  1-C ) :   1.6333 B(  0-C ,  6-C ) :   1.0432 B(  0-C , 15-C ) :   1.0054
B(  1-C ,  2-C ) :   1.1252 B(  1-C ,  4-C ) :   1.1443 B(  2-C ,  3-N ) :   2.9363
B(  4-C ,  5-N ) :   2.9403 B(  6-C ,  7-C ) :   1.3148 B(  6-C , 11-C ) :   1.3226
B(  7-C ,  8-C ) :   1.3261 B(  7-C , 13-C ) :   0.9391 B(  8-C ,  9-C ) :   1.3015
B(  8-C , 17-H ) :   1.0120 B(  9-C , 10-C ) :   1.3266 B(  9-C , 12-F ) :   1.0892
B( 10-C , 11-C ) :   1.3694 B( 10-C , 18-H ) :   0.9834 B( 11-C , 19-H ) :   0.9793
B( 13-C , 14-O ) :   2.2281 B( 13-C , 15-C ) :   0.9201 B( 15-C , 16-C ) :   1.9138
B( 16-C , 20-H ) :   0.9122 B( 16-C , 21-H ) :   0.9221

Dispersion correction           -0.053902362
FINAL SINGLE POINT ENERGY      -782.373254712188

DIPOLE MOMENT
-------------
                                X             Y             Z
Electronic contribution:      4.57795       0.68544       0.00056
Nuclear contribution   :     -3.54738      -1.36891      -0.00089
                        -----------------------------------------
Total Dipole Moment    :      1.03058      -0.68347      -0.00033
                        -----------------------------------------
Magnitude (a.u.)       :      1.23662
Magnitude (Debye)      :      3.14323

Rotational constants in cm-1:     0.025486     0.012119     0.008214
Rotational constants in MHz :   764.061567   363.324494   246.235335

                             ****ORCA TERMINATED NORMALLY****
TOTAL RUN TIME: 0 days 0 hours 18 minutes 22 seconds 62 msec
