                         Program Version 4.2.0 -  RELEASE  -
|  1> # ORCA input file
|  2> # SCF done        -32.258598875806          0.000295717816
|  3> ! B3LYP/G D3BJ Opt RIJCOSX def2-SVP def2/J
|  4> * xyz 0 1
|  5>    C        3.01848        -0.59608         0.00308
|  6>    C        2.55490         0.67891         0.00320
|  7>    C        1.14608         0.71626         0.00306
|  8>    C        0.56025        -0.54537         0.00281
|  9>    S        1.75983        -1.78896         0.00275
| 10>    C       -0.84338        -0.47157         0.00265
| 11>    C       -1.30929         0.84859         0.00277
| 12>    S       -0.01832         2.01820         0.00308
| 13>    C       -2.71208         0.80299         0.00253
| 14>    C       -3.04130        -0.53124         0.00226
| 15>    N       -1.91737        -1.30414         0.00231
| 16>    C       -1.85443        -2.73757         0.00229
| 17>    H        4.03654        -0.93031         0.00317
| 18>    H        3.18329         1.55023         0.00341
| 19>    H       -3.39096         1.63083         0.00254
| 20>    H       -4.01364        -0.98411         0.00201
| 21>    H       -2.86428        -3.14348         0.00144
| 22>    H       -1.32447        -3.09651         0.88793
| 23>    H       -1.32302        -3.09638        -0.88252
| 24> *
| 25>
| 26>                          ****END OF INPUT****
 Total Charge           Charge          ....    0
 Multiplicity           Mult            ....    1
 Number of Electrons    NEL             ....  100
Dispersion correction           -0.046257036
FINAL SINGLE POINT ENERGY     -1197.817231792824
Dispersion correction            ... done
Dispersion correction           -0.046273329
FINAL SINGLE POINT ENERGY     -1197.820609745171
Dispersion correction            ... done
Dispersion correction           -0.046293462
FINAL SINGLE POINT ENERGY     -1197.820735398012
Dispersion correction            ... done
Dispersion correction           -0.046306452
FINAL SINGLE POINT ENERGY     -1197.820751906462
Dispersion correction            ... done
Dispersion correction           -0.046311918
FINAL SINGLE POINT ENERGY     -1197.820751744227
Dispersion correction            ... done
                    ***********************HURRAY********************

CARTESIAN COORDINATES (ANGSTROEM)
---------------------------------
  C      3.047376   -0.614393    0.002210
  C      2.586012    0.678671    0.003338
  C      1.161028    0.728019    0.003781
  C      0.564094   -0.538363    0.003393
  S      1.760653   -1.797491    0.003649
  C     -0.853931   -0.449647    0.002943
  C     -1.327477    0.870493    0.003080
  S     -0.017579    2.040187    0.004298
  C     -2.749078    0.818462    0.002132
  C     -3.080547   -0.529756    0.001834
  N     -1.931022   -1.298938    0.002352
  C     -1.844472   -2.741377    0.002508
  H      4.080548   -0.957724    0.001293
  H      3.239610    1.550811    0.003246
  H     -3.451900    1.647582    0.001854
  H     -4.058339   -1.007083    0.001310
  H     -2.855727   -3.167854    0.000786
  H     -1.312692   -3.105700    0.896910
  H     -1.309728   -3.105610   -0.890147

 Multiplicity           Mult            ....    1
 Number of Electrons    NEL             ....  100
 Basis Dimension        Dim             ....  211

ORBITAL ENERGIES
----------------

  NO   OCC          E(Eh)            E(eV)
   0   2.0000     -88.875093     -2418.4142
   1   2.0000     -88.863799     -2418.1069
   2   2.0000     -14.382971      -391.3805
   3   2.0000     -10.242891      -278.7232
   4   2.0000     -10.217143      -278.0226
   5   2.0000     -10.216375      -278.0017
   6   2.0000     -10.215759      -277.9849
   7   2.0000     -10.211749      -277.8758
   8   2.0000     -10.209822      -277.8234
   9   2.0000     -10.199560      -277.5441
  10   2.0000     -10.198810      -277.5237
  11   2.0000     -10.182893      -277.0906
  12   2.0000      -7.969040      -216.8486
  13   2.0000      -7.957423      -216.5325
  14   2.0000      -5.937497      -161.5675
  15   2.0000      -5.933451      -161.4574
  16   2.0000      -5.929922      -161.3614
  17   2.0000      -5.926174      -161.2594
  18   2.0000      -5.922527      -161.1602
  19   2.0000      -5.917317      -161.0184
  20   2.0000      -0.987265       -26.8649
  21   2.0000      -0.889954       -24.2169
  22   2.0000      -0.833115       -22.6702
  23   2.0000      -0.785173       -21.3656
  24   2.0000      -0.750683       -20.4271
  25   2.0000      -0.712436       -19.3864
  26   2.0000      -0.686623       -18.6840
  27   2.0000      -0.675738       -18.3878
  28   2.0000      -0.601416       -16.3654
  29   2.0000      -0.564846       -15.3702
  30   2.0000      -0.542297       -14.7567
  31   2.0000      -0.540670       -14.7124
  32   2.0000      -0.492763       -13.4088
  33   2.0000      -0.479513       -13.0482
  34   2.0000      -0.475421       -12.9369
  35   2.0000      -0.439661       -11.9638
  36   2.0000      -0.426978       -11.6187
  37   2.0000      -0.418989       -11.4013
  38   2.0000      -0.411277       -11.1914
  39   2.0000      -0.405525       -11.0349
  40   2.0000      -0.389369       -10.5953
  41   2.0000      -0.374059       -10.1787
  42   2.0000      -0.373692       -10.1687
  43   2.0000      -0.355724        -9.6798
  44   2.0000      -0.332722        -9.0538
  45   2.0000      -0.315071        -8.5735
  46   2.0000      -0.271044        -7.3755
  47   2.0000      -0.256333        -6.9752
  48   2.0000      -0.209299        -5.6953
  49   2.0000      -0.193466        -5.2645
  50   0.0000      -0.025682        -0.6988
  51   0.0000       0.026710         0.7268
  52   0.0000       0.036615         0.9964
  53   0.0000       0.042901         1.1674
  54   0.0000       0.058890         1.6025

MULLIKEN ATOMIC CHARGES
-----------------------
   0 C :   -0.093003
   1 C :    0.025696
   2 C :   -0.087734
   3 C :   -0.074903
   4 S :    0.114537
   5 C :    0.037587
   6 C :   -0.052954
   7 S :    0.115940
   8 C :   -0.087376
   9 C :    0.069495
  10 N :   -0.192955
  11 C :    0.127559
  12 H :    0.025555
  13 H :   -0.010981
  14 H :   -0.019329
  15 H :   -0.005589
  16 H :    0.028588
  17 H :    0.039924
  18 H :    0.039944
Sum of atomic charges:   -0.0000000

LOEWDIN ATOMIC CHARGES
----------------------
   0 C :   -0.191736
   1 C :   -0.070408
   2 C :   -0.200218
   3 C :   -0.221459
   4 S :    0.396825
   5 C :   -0.053078
   6 C :   -0.197776
   7 S :    0.373553
   8 C :   -0.095696
   9 C :   -0.009538
  10 N :    0.036391
  11 C :    0.039069
  12 H :    0.023843
  13 H :    0.033244
  14 H :    0.027191
  15 H :    0.018812
  16 H :    0.033168
  17 H :    0.028901
  18 H :    0.028914

  Mayer bond orders larger than 0.100000
B(  0-C ,  1-C ) :   1.5699 B(  0-C ,  4-S ) :   1.1177 B(  0-C , 12-H ) :   0.9643
B(  1-C ,  2-C ) :   1.2644 B(  1-C , 13-H ) :   0.9950 B(  2-C ,  3-C ) :   1.4359
B(  2-C ,  7-S ) :   1.0597 B(  3-C ,  4-S ) :   1.0577 B(  3-C ,  5-C ) :   1.2814
B(  5-C ,  6-C ) :   1.3983 B(  5-C , 10-N ) :   1.1893 B(  6-C ,  7-S ) :   1.0306
B(  6-C ,  8-C ) :   1.3093 B(  8-C ,  9-C ) :   1.4809 B(  8-C , 14-H ) :   1.0085
B(  9-C , 10-N ) :   1.1664 B(  9-C , 15-H ) :   0.9825 B( 10-N , 11-C ) :   0.9762
B( 11-C , 16-H ) :   0.9715 B( 11-C , 17-H ) :   0.9700 B( 11-C , 18-H ) :   0.9700

Dispersion correction           -0.046312004
FINAL SINGLE POINT ENERGY     -1197.820751072424

DIPOLE MOMENT
-------------
                                X             Y             Z
Electronic contribution:      4.86712       5.41370       0.00596
Nuclear contribution   :     -5.14733      -6.30864      -0.00633
                        -----------------------------------------
Total Dipole Moment    :     -0.28022      -0.89494      -0.00038
                        -----------------------------------------
Magnitude (a.u.)       :      0.93778
Magnitude (Debye)      :      2.38366

Rotational constants in cm-1:     0.039781     0.023807     0.014936
Rotational constants in MHz :  1192.591491   713.715430   447.776153

                             ****ORCA TERMINATED NORMALLY****
TOTAL RUN TIME: 0 days 0 hours 6 minutes 43 seconds 689 msec
