                         Program Version 4.2.0 -  RELEASE  -
|  1> # ORCA input file
|  2> # SCF done        -75.974807895938          0.000409593224
|  3> ! B3LYP/G D3BJ Opt RIJCOSX def2-SVP def2/J
|  4> * xyz 0 1
|  5>    C        1.49495         2.19269         0.28523
|  6>    C        2.05986         0.99547         0.69227
|  7>    C        1.30086        -0.16801         0.73731
|  8>    C       -0.02436        -0.10304         0.37340
|  9>    C       -0.58618         1.10555        -0.04633
| 10>    C        0.16162         2.26883        -0.09135
| 11>    N       -1.93082         0.91609        -0.35225
| 12>    C       -2.30676        -0.36055        -0.09185
| 13>    C       -3.55641        -0.91871        -0.16330
| 14>    C       -4.78382        -0.26456        -0.31160
| 15>    C       -6.03556        -0.82309        -0.42636
| 16>    C       -6.50117        -2.16057        -0.67139
| 17>    C       -5.83404        -3.18305        -1.30417
| 18>    C       -4.56896        -3.06561        -1.90853
| 19>    N       -3.56012        -3.03120        -2.45872
| 20>    C       -6.37480        -4.46526        -1.52289
| 21>    N       -6.74234        -5.53648        -1.71639
| 22>    C       -7.92207        -2.19824        -0.30690
| 23>    C       -8.35564        -0.88801        -0.03710
| 24>    C       -7.20693         0.03411        -0.15005
| 25>    O       -7.20615         1.24188        -0.01353
| 26>    C       -9.66573        -0.61293         0.29819
| 27>    C      -10.56008        -1.67213         0.37585
| 28>    C      -10.13682        -2.96842         0.12562
| 29>    C       -8.82031        -3.24831        -0.22039
| 30>    C       -1.08198        -1.17060         0.30094
| 31>    C       -0.73629        -2.17116        -0.81263
| 32>    C       -1.26959        -1.89137         1.63717
| 33>    C       -2.71892         1.93475        -0.98928
| 34>    H        2.09932         3.08685         0.26231
| 35>    H        3.09916         0.96659         0.98113
| 36>    H        1.74409        -1.09916         1.05531
| 37>    H       -0.26444         3.21222        -0.39487
| 38>    H       -3.58877        -1.98837        -0.02177
| 39>    H       -4.81958         0.80997        -0.18875
| 40>    H       -9.97266         0.40343         0.49256
| 41>    H      -11.59157        -1.48688         0.63604
| 42>    H      -10.84303        -3.78205         0.19950
| 43>    H       -8.51873        -4.26669        -0.40447
| 44>    H       -0.52772        -1.64461        -1.74112
| 45>    H       -1.56374        -2.85236        -0.99158
| 46>    H        0.14421        -2.74374        -0.53296
| 47>    H       -1.55415        -1.18505         2.41419
| 48>    H       -0.34010        -2.37271         1.92965
| 49>    H       -2.04069        -2.65267         1.55783
| 50>    H       -2.05579         2.59427        -1.54907
| 51>    H       -3.27297         2.53374        -0.26216
| 52>    H       -3.41979         1.47476        -1.68582
| 53> *
| 54>
| 55>                          ****END OF INPUT****
 Total Charge           Charge          ....    0
 Multiplicity           Mult            ....    1
 Number of Electrons    NEL             ....  198
Dispersion correction           -0.122012404
FINAL SINGLE POINT ENERGY     -1202.780827865510
Dispersion correction            ... done
Dispersion correction           -0.119483404
FINAL SINGLE POINT ENERGY     -1202.785518093850
Dispersion correction            ... done
Dispersion correction           -0.120439561
FINAL SINGLE POINT ENERGY     -1202.787026042796
Dispersion correction            ... done
FINAL SINGLE POINT ENERGY     -1202.788695005445
FINAL SINGLE POINT ENERGY     -1202.788950967418
FINAL SINGLE POINT ENERGY     -1202.788954577602
FINAL SINGLE POINT ENERGY     -1202.788962939926
FINAL SINGLE POINT ENERGY     -1202.788923886538
FINAL SINGLE POINT ENERGY     -1202.788918595018
Dispersion correction            ... done
Dispersion correction           -0.120348783
FINAL SINGLE POINT ENERGY     -1202.788923761260
Dispersion correction            ... done
Dispersion correction           -0.120353062
FINAL SINGLE POINT ENERGY     -1202.788939348763
Dispersion correction            ... done
                    ***********************HURRAY********************

CARTESIAN COORDINATES (ANGSTROEM)
---------------------------------
  C      1.458421    2.352806    0.278592
  C      2.104588    1.171116    0.651849
  C      1.400717   -0.043390    0.697057
  C      0.052033   -0.051378    0.368841
  C     -0.578902    1.139883   -0.013572
  C      0.098866    2.356100   -0.063195
  N     -1.931645    0.875643   -0.314905
  C     -2.239764   -0.432909   -0.081101
  C     -3.470604   -1.060737   -0.171957
  C     -4.727611   -0.438469   -0.267628
  C     -6.004392   -0.959975   -0.393475
  C     -6.555765   -2.268438   -0.676772
  C     -5.930164   -3.345534   -1.293340
  C     -4.657796   -3.247591   -1.931229
  N     -3.641923   -3.191017   -2.494570
  C     -6.559938   -4.617639   -1.464127
  N     -7.045167   -5.666052   -1.597419
  C     -8.006198   -2.216869   -0.335942
  C     -8.351470   -0.887057   -0.011900
  C     -7.129958   -0.041731   -0.054232
  O     -7.053157    1.151404    0.179883
  C     -9.652485   -0.509370    0.292872
  C    -10.644528   -1.495791    0.288845
  C    -10.314296   -2.822330   -0.016201
  C     -9.002792   -3.198886   -0.335929
  C     -0.956512   -1.183001    0.299253
  C     -0.576248   -2.178507   -0.819391
  C     -1.123868   -1.905704    1.647569
  C     -2.797314    1.875615   -0.907761
  H      2.015909    3.291874    0.256351
  H      3.161617    1.195106    0.923829
  H      1.911103   -0.963169    0.992863
  H     -0.399292    3.282379   -0.351229
  H     -3.429612   -2.145158   -0.094802
  H     -4.776256    0.640485   -0.101570
  H     -9.873016    0.532738    0.533370
  H    -11.676858   -1.233449    0.532317
  H    -11.095181   -3.586165   -0.008446
  H     -8.785408   -4.236248   -0.580718
  H     -0.418350   -1.651307   -1.771337
  H     -1.367633   -2.924905   -0.980687
  H      0.357353   -2.697556   -0.552063
  H     -1.444192   -1.205407    2.432891
  H     -0.170302   -2.361281    1.955456
  H     -1.871533   -2.708614    1.569511
  H     -2.180184    2.604588   -1.449612
  H     -3.400760    2.409535   -0.156197
  H     -3.475044    1.391971   -1.623124

 Multiplicity           Mult            ....    1
 Number of Electrons    NEL             ....  198
 Basis Dimension        Dim             ....  501

ORBITAL ENERGIES
----------------

  NO   OCC          E(Eh)            E(eV)
   0   2.0000     -19.123844      -520.3862
   1   2.0000     -14.412973      -392.1969
   2   2.0000     -14.329233      -389.9182
   3   2.0000     -14.327317      -389.8661
   4   2.0000     -10.270250      -279.4677
   5   2.0000     -10.270142      -279.4648
   6   2.0000     -10.255327      -279.0616
   7   2.0000     -10.254159      -279.0299
   8   2.0000     -10.252210      -278.9768
   9   2.0000     -10.249699      -278.9085
  10   2.0000     -10.235409      -278.5196
  11   2.0000     -10.233826      -278.4766
  12   2.0000     -10.231953      -278.4256
  13   2.0000     -10.225029      -278.2372
  14   2.0000     -10.219330      -278.0821
  15   2.0000     -10.216922      -278.0166
  16   2.0000     -10.215090      -277.9667
  17   2.0000     -10.214024      -277.9377
  18   2.0000     -10.213502      -277.9235
  19   2.0000     -10.210271      -277.8356
  20   2.0000     -10.209838      -277.8238
  21   2.0000     -10.209221      -277.8070
  22   2.0000     -10.208758      -277.7944
  23   2.0000     -10.208239      -277.7803
  24   2.0000     -10.204638      -277.6823
  25   2.0000     -10.203656      -277.6556
  26   2.0000     -10.203032      -277.6386
  27   2.0000     -10.200614      -277.5728
  28   2.0000     -10.198466      -277.5144
  29   2.0000      -1.027440       -27.9581
  30   2.0000      -1.014686       -27.6110
  31   2.0000      -0.911109       -24.7925
  32   2.0000      -0.894149       -24.3310
  33   2.0000      -0.888810       -24.1858
  34   2.0000      -0.873188       -23.7607
  35   2.0000      -0.848676       -23.0937
  36   2.0000      -0.841768       -22.9057
  37   2.0000      -0.808718       -22.0063
  38   2.0000      -0.792171       -21.5561
  39   2.0000      -0.768813       -20.9205
  40   2.0000      -0.759209       -20.6591
  41   2.0000      -0.757563       -20.6143
  42   2.0000      -0.755062       -20.5463
  43   2.0000      -0.718341       -19.5470
  44   2.0000      -0.699964       -19.0470
  45   2.0000      -0.678623       -18.4663
  46   2.0000      -0.663766       -18.0620
  47   2.0000      -0.653096       -17.7717
  48   2.0000      -0.628832       -17.1114
  49   2.0000      -0.611525       -16.6404
  50   2.0000      -0.602470       -16.3940
  51   2.0000      -0.587457       -15.9855
  52   2.0000      -0.582601       -15.8534
  53   2.0000      -0.571462       -15.5503
  54   2.0000      -0.543937       -14.8013
  55   2.0000      -0.532824       -14.4989
  56   2.0000      -0.522137       -14.2081
  57   2.0000      -0.511410       -13.9162
  58   2.0000      -0.507320       -13.8049
  59   2.0000      -0.498728       -13.5711
  60   2.0000      -0.484490       -13.1836
  61   2.0000      -0.473546       -12.8858
  62   2.0000      -0.468271       -12.7423
  63   2.0000      -0.464590       -12.6421
  64   2.0000      -0.458193       -12.4681
  65   2.0000      -0.455466       -12.3939
  66   2.0000      -0.452514       -12.3135
  67   2.0000      -0.447476       -12.1764
  68   2.0000      -0.444770       -12.1028
  69   2.0000      -0.439368       -11.9558
  70   2.0000      -0.433900       -11.8070
  71   2.0000      -0.424320       -11.5463
  72   2.0000      -0.420102       -11.4316
  73   2.0000      -0.411673       -11.2022
  74   2.0000      -0.405568       -11.0361
  75   2.0000      -0.401783       -10.9331
  76   2.0000      -0.396613       -10.7924
  77   2.0000      -0.386922       -10.5287
  78   2.0000      -0.385620       -10.4933
  79   2.0000      -0.375686       -10.2229
  80   2.0000      -0.371954       -10.1214
  81   2.0000      -0.370654       -10.0860
  82   2.0000      -0.370069       -10.0701
  83   2.0000      -0.367593       -10.0027
  84   2.0000      -0.364674        -9.9233
  85   2.0000      -0.358580        -9.7574
  86   2.0000      -0.357266        -9.7217
  87   2.0000      -0.350010        -9.5243
  88   2.0000      -0.345256        -9.3949
  89   2.0000      -0.342082        -9.3085
  90   2.0000      -0.335973        -9.1423
  91   2.0000      -0.329179        -8.9574
  92   2.0000      -0.307349        -8.3634
  93   2.0000      -0.276925        -7.5355
  94   2.0000      -0.273388        -7.4393
  95   2.0000      -0.267187        -7.2705
  96   2.0000      -0.259407        -7.0588
  97   2.0000      -0.248127        -6.7519
  98   2.0000      -0.210545        -5.7292
  99   0.0000      -0.105893        -2.8815
 100   0.0000      -0.084268        -2.2930
 101   0.0000      -0.035479        -0.9654
 102   0.0000      -0.030443        -0.8284
 103   0.0000      -0.012905        -0.3512

MULLIKEN ATOMIC CHARGES
-----------------------
   0 C :    0.023325
   1 C :    0.029866
   2 C :   -0.062127
   3 C :    0.068418
   4 C :    0.168489
   5 C :   -0.078498
   6 N :   -0.222694
   7 C :    0.116901
   8 C :   -0.016299
   9 C :   -0.006553
  10 C :   -0.111296
  11 C :    0.259157
  12 C :   -0.327445
  13 C :   -0.156354
  14 N :    0.089274
  15 C :   -0.136022
  16 N :    0.078475
  17 C :    0.023900
  18 C :   -0.001957
  19 C :    0.137524
  20 O :   -0.189040
  21 C :   -0.024754
  22 C :    0.038725
  23 C :    0.037394
  24 C :   -0.034911
  25 C :   -0.229571
  26 C :    0.112918
  27 C :    0.105355
  28 C :    0.123131
  29 H :   -0.008162
  30 H :   -0.010159
  31 H :   -0.023467
  32 H :   -0.030685
  33 H :    0.001362
  34 H :   -0.010790
  35 H :   -0.012659
  36 H :   -0.007504
  37 H :   -0.000790
  38 H :   -0.001642
  39 H :    0.020862
  40 H :    0.037444
  41 H :    0.010398
  42 H :    0.018512
  43 H :    0.014382
  44 H :    0.024274
  45 H :    0.040302
  46 H :    0.063742
  47 H :    0.059247
Sum of atomic charges:   -0.0000000

LOEWDIN ATOMIC CHARGES
----------------------
   0 C :   -0.013610
   1 C :   -0.029980
   2 C :   -0.014531
   3 C :   -0.020823
   4 C :    0.028239
   5 C :   -0.052752
   6 N :    0.036534
   7 C :    0.093273
   8 C :   -0.092859
   9 C :    0.042527
  10 C :   -0.116365
  11 C :    0.062430
  12 C :   -0.151491
  13 C :   -0.013796
  14 N :   -0.079822
  15 C :   -0.014989
  16 N :   -0.075934
  17 C :   -0.007333
  18 C :   -0.043532
  19 C :    0.075530
  20 O :   -0.169318
  21 C :    0.007106
  22 C :   -0.009352
  23 C :   -0.004927
  24 C :   -0.006080
  25 C :   -0.039563
  26 C :   -0.016745
  27 C :   -0.022787
  28 C :    0.040850
  29 H :    0.031333
  30 H :    0.030241
  31 H :    0.029301
  32 H :    0.028532
  33 H :    0.034719
  34 H :    0.033650
  35 H :    0.036397
  36 H :    0.031256
  37 H :    0.034131
  38 H :    0.037509
  39 H :    0.031154
  40 H :    0.030675
  41 H :    0.025413
  42 H :    0.028609
  43 H :    0.026873
  44 H :    0.028445
  45 H :    0.033045
  46 H :    0.035928
  47 H :    0.042887

  Mayer bond orders larger than 0.100000
B(  0-C ,  1-C ) :   1.4019 B(  0-C ,  5-C ) :   1.3455 B(  0-C , 29-H ) :   0.9801
B(  1-C ,  2-C ) :   1.3339 B(  1-C , 30-H ) :   0.9816 B(  2-C ,  3-C ) :   1.4195
B(  2-C , 31-H ) :   0.9970 B(  3-C ,  4-C ) :   1.3722 B(  3-C , 25-C ) :   0.9483
B(  4-C ,  5-C ) :   1.3509 B(  4-C ,  6-N ) :   1.0218 B(  5-C , 32-H ) :   0.9943
B(  6-N ,  7-C ) :   1.2678 B(  6-N , 28-C ) :   0.9644 B(  7-C ,  8-C ) :   1.4993
B(  7-C , 25-C ) :   0.9327 B(  8-C ,  9-C ) :   1.2296 B(  8-C , 33-H ) :   0.9350
B(  9-C , 10-C ) :   1.4846 B(  9-C , 34-H ) :   0.9201 B( 10-C , 11-C ) :   1.0977
B( 10-C , 19-C ) :   0.9734 B( 11-C , 12-C ) :   1.5376 B( 11-C , 17-C ) :   1.0025
B( 12-C , 13-C ) :   1.1848 B( 12-C , 15-C ) :   1.1314 B( 13-C , 14-N ) :   2.9249
B( 15-C , 16-N ) :   2.9278 B( 17-C , 18-C ) :   1.3211 B( 17-C , 24-C ) :   1.3720
B( 18-C , 19-C ) :   0.9455 B( 18-C , 21-C ) :   1.3892 B( 19-C , 20-O ) :   2.1411
B( 21-C , 22-C ) :   1.3297 B( 21-C , 35-H ) :   0.9968 B( 22-C , 23-C ) :   1.3712
B( 22-C , 36-H ) :   0.9840 B( 23-C , 24-C ) :   1.3600 B( 23-C , 37-H ) :   0.9803
B( 24-C , 38-H ) :   0.9774 B( 25-C , 26-C ) :   1.0164 B( 25-C , 27-C ) :   1.0406
B( 26-C , 39-H ) :   0.9596 B( 26-C , 40-H ) :   0.9561 B( 26-C , 41-H ) :   0.9574
B( 27-C , 42-H ) :   0.9610 B( 27-C , 43-H ) :   0.9586 B( 27-C , 44-H ) :   0.9590
B( 28-C , 45-H ) :   0.9555 B( 28-C , 46-H ) :   0.9614 B( 28-C , 47-H ) :   0.9598

Dispersion correction           -0.120358667
FINAL SINGLE POINT ENERGY     -1202.788947841974

DIPOLE MOMENT
-------------
                                X             Y             Z
Electronic contribution:    -20.50626      -6.86396      -5.47653
Nuclear contribution   :     22.03224       8.80405       6.57281
                        -----------------------------------------
Total Dipole Moment    :      1.52597       1.94009       1.09628
                        -----------------------------------------
Magnitude (a.u.)       :      2.70081
Magnitude (Debye)      :      6.86491

Rotational constants in cm-1:     0.012415     0.002809     0.002424
Rotational constants in MHz :   372.193305    84.226525    72.670513

                             ****ORCA TERMINATED NORMALLY****
TOTAL RUN TIME: 0 days 1 hours 35 minutes 0 seconds 343 msec
