                         Program Version 4.2.0 -  RELEASE  -
|  1> # ORCA input file
|  2> # SCF done        -40.438315125104          0.000423880920
|  3> ! B3LYP/G D3BJ Opt RIJCOSX def2-SVP def2/J
|  4> * xyz 0 1
|  5>    C        0.18010        -1.43594        -0.16040
|  6>    C       -0.98609        -0.68255        -0.13560
|  7>    C       -0.94699         0.74720         0.02532
|  8>    N       -2.10735         1.45570         0.04863
|  9>    C       -3.23442         0.82150        -0.07341
| 10>    C       -3.27349        -0.60957        -0.23570
| 11>    N       -2.18296        -1.31478        -0.26451
| 12>    C       -4.57013        -1.33405        -0.37532
| 13>    C       -4.48949         1.62740        -0.03933
| 14>    C        0.25829         1.42330         0.16074
| 15>    C        1.42850         0.67551         0.13815
| 16>    C        1.38901        -0.76602        -0.02373
| 17>    N        2.62056        -1.29823        -0.01762
| 18>    S        3.68525        -0.12028         0.16905
| 19>    N        2.68682         1.12598         0.25400
| 20>    H        0.13723        -2.50553        -0.28036
| 21>    H       -5.11710        -0.97123        -1.24424
| 22>    H       -5.19137        -1.17294         0.50449
| 23>    H       -4.37625        -2.39660        -0.48930
| 24>    H       -4.23824         2.67617         0.08946
| 25>    H       -5.12520         1.30447         0.78368
| 26>    H       -5.04765         1.50065        -0.96567
| 27>    H        0.27396         2.49364         0.28064
| 28> *
| 29>
| 30>                          ****END OF INPUT****
 Total Charge           Charge          ....    0
 Multiplicity           Mult            ....    1
 Number of Electrons    NEL             ....  112
Dispersion correction           -0.052580574
FINAL SINGLE POINT ENERGY     -1002.560504574335
Dispersion correction            ... done
Dispersion correction           -0.052315339
FINAL SINGLE POINT ENERGY     -1002.564935799575
Dispersion correction            ... done
Dispersion correction           -0.052290449
FINAL SINGLE POINT ENERGY     -1002.565386945986
Dispersion correction            ... done
FINAL SINGLE POINT ENERGY     -1002.565502222389
FINAL SINGLE POINT ENERGY     -1002.565506069633
FINAL SINGLE POINT ENERGY     -1002.565495207021
FINAL SINGLE POINT ENERGY     -1002.565508897768
FINAL SINGLE POINT ENERGY     -1002.565504817947
FINAL SINGLE POINT ENERGY     -1002.565484707686
Dispersion correction            ... done
Dispersion correction           -0.052325324
FINAL SINGLE POINT ENERGY     -1002.565471133650
Dispersion correction            ... done
Dispersion correction           -0.052325550
FINAL SINGLE POINT ENERGY     -1002.565461220314
Dispersion correction            ... done
                    ***********************HURRAY********************

CARTESIAN COORDINATES (ANGSTROEM)
---------------------------------
  C      0.197299   -1.445417   -0.137374
  C     -0.971655   -0.691620   -0.144151
  C     -0.930880    0.756628   -0.005837
  N     -2.104630    1.472781    0.028299
  C     -3.232919    0.832854   -0.075773
  C     -3.272692   -0.623133   -0.248189
  N     -2.181674   -1.331956   -0.277691
  C     -4.593735   -1.325018   -0.390246
  C     -4.512448    1.617834   -0.014600
  C      0.278883    1.434635    0.105972
  C      1.473809    0.685037    0.114684
  C      1.430600   -0.774585   -0.000292
  N      2.649654   -1.341243    0.046243
  S      3.726324   -0.124664    0.213959
  N      2.725488    1.165860    0.238272
  H      0.146012   -2.529635   -0.237273
  H     -5.183104   -0.904471   -1.221348
  H     -5.204534   -1.207128    0.520633
  H     -4.421056   -2.393477   -0.570926
  H     -4.278867    2.675024    0.164161
  H     -5.169318    1.249304    0.790584
  H     -5.082530    1.526056   -0.953863
  H      0.284961    2.520135    0.203725

 Multiplicity           Mult            ....    1
 Number of Electrons    NEL             ....  112
 Basis Dimension        Dim             ....  254

ORBITAL ENERGIES
----------------

  NO   OCC          E(Eh)            E(eV)
   0   2.0000     -88.942651     -2420.2526
   1   2.0000     -14.359969      -390.7546
   2   2.0000     -14.359838      -390.7511
   3   2.0000     -14.340478      -390.2242
   4   2.0000     -14.340316      -390.2198
   5   2.0000     -10.250266      -278.9239
   6   2.0000     -10.250117      -278.9199
   7   2.0000     -10.245721      -278.8002
   8   2.0000     -10.245539      -278.7953
   9   2.0000     -10.240452      -278.6569
  10   2.0000     -10.240260      -278.6517
  11   2.0000     -10.208749      -277.7942
  12   2.0000     -10.208601      -277.7902
  13   2.0000     -10.202330      -277.6195
  14   2.0000     -10.202086      -277.6129
  15   2.0000      -8.033657      -218.6069
  16   2.0000      -6.003394      -163.3607
  17   2.0000      -5.996159      -163.1638
  18   2.0000      -5.995365      -163.1422
  19   2.0000      -1.020067       -27.7574
  20   2.0000      -0.981495       -26.7078
  21   2.0000      -0.913302       -24.8522
  22   2.0000      -0.886422       -24.1208
  23   2.0000      -0.854775       -23.2596
  24   2.0000      -0.792177       -21.5562
  25   2.0000      -0.763134       -20.7659
  26   2.0000      -0.734034       -19.9741
  27   2.0000      -0.720342       -19.6015
  28   2.0000      -0.652957       -17.7679
  29   2.0000      -0.630241       -17.1497
  30   2.0000      -0.622124       -16.9289
  31   2.0000      -0.599549       -16.3146
  32   2.0000      -0.552458       -15.0331
  33   2.0000      -0.540225       -14.7003
  34   2.0000      -0.516669       -14.0593
  35   2.0000      -0.471280       -12.8242
  36   2.0000      -0.459539       -12.5047
  37   2.0000      -0.457308       -12.4440
  38   2.0000      -0.454326       -12.3628
  39   2.0000      -0.448580       -12.2065
  40   2.0000      -0.427305       -11.6276
  41   2.0000      -0.422371       -11.4933
  42   2.0000      -0.411707       -11.2031
  43   2.0000      -0.410727       -11.1764
  44   2.0000      -0.405470       -11.0334
  45   2.0000      -0.393526       -10.7084
  46   2.0000      -0.388805       -10.5799
  47   2.0000      -0.354619        -9.6497
  48   2.0000      -0.335767        -9.1367
  49   2.0000      -0.329534        -8.9671
  50   2.0000      -0.327933        -8.9235
  51   2.0000      -0.308071        -8.3830
  52   2.0000      -0.303029        -8.2458
  53   2.0000      -0.266196        -7.2436
  54   2.0000      -0.252588        -6.8733
  55   2.0000      -0.232610        -6.3296
  56   0.0000      -0.113101        -3.0776
  57   0.0000      -0.047050        -1.2803
  58   0.0000      -0.023354        -0.6355
  59   0.0000       0.007917         0.2154
  60   0.0000       0.019928         0.5423

MULLIKEN ATOMIC CHARGES
-----------------------
   0 C :   -0.058314
   1 C :    0.046008
   2 C :    0.043024
   3 N :   -0.031350
   4 C :   -0.160417
   5 C :   -0.158446
   6 N :   -0.032492
   7 C :    0.115515
   8 C :    0.114877
   9 C :   -0.058721
  10 C :    0.083095
  11 C :    0.081472
  12 N :   -0.289327
  13 S :    0.487279
  14 N :   -0.289127
  15 H :   -0.027778
  16 H :    0.021433
  17 H :    0.029515
  18 H :    0.029877
  19 H :    0.029678
  20 H :    0.023896
  21 H :    0.028260
  22 H :   -0.027955
Sum of atomic charges:    0.0000000

LOEWDIN ATOMIC CHARGES
----------------------
   0 C :   -0.014386
   1 C :   -0.009144
   2 C :   -0.009122
   3 N :   -0.057580
   4 C :    0.001689
   5 C :    0.002048
   6 N :   -0.057949
   7 C :   -0.053135
   8 C :   -0.053184
   9 C :   -0.014567
  10 C :   -0.051856
  11 C :   -0.052066
  12 N :   -0.288355
  13 S :    0.634066
  14 N :   -0.288891
  15 H :    0.041268
  16 H :    0.036691
  17 H :    0.039508
  18 H :    0.038839
  19 H :    0.038735
  20 H :    0.037479
  21 H :    0.038768
  22 H :    0.041144

  Mayer bond orders larger than 0.100000
B(  0-C ,  1-C ) :   1.3470 B(  0-C ,  9-C ) :   0.1670 B(  0-C , 11-C ) :   1.1849
B(  0-C , 15-H ) :   1.0354 B(  1-C ,  2-C ) :   1.1353 B(  1-C ,  6-N ) :   1.3060
B(  2-C ,  3-N ) :   1.3084 B(  2-C ,  9-C ) :   1.3485 B(  3-N ,  4-C ) :   1.7746
B(  4-C ,  5-C ) :   1.0696 B(  4-C ,  8-C ) :   1.1042 B(  5-C ,  6-N ) :   1.7756
B(  5-C ,  7-C ) :   1.1055 B(  7-C , 16-H ) :   0.9364 B(  7-C , 17-H ) :   0.9371
B(  7-C , 18-H ) :   0.9407 B(  8-C , 19-H ) :   0.9413 B(  8-C , 20-H ) :   0.9365
B(  8-C , 21-H ) :   0.9374 B(  9-C , 10-C ) :   1.1842 B(  9-C , 22-H ) :   1.0354
B( 10-C , 11-C ) :   1.1222 B( 10-C , 14-N ) :   1.4465 B( 11-C , 12-N ) :   1.4478
B( 12-N , 13-S ) :   1.2678 B( 12-N , 14-N ) :   0.1783 B( 13-S , 14-N ) :   1.2676

Dispersion correction           -0.052325583
FINAL SINGLE POINT ENERGY     -1002.565457965057

DIPOLE MOMENT
-------------
                                X             Y             Z
Electronic contribution:     23.93799      -0.77866       1.07390
Nuclear contribution   :    -24.99767       0.80945      -1.10756
                        -----------------------------------------
Total Dipole Moment    :     -1.05968       0.03079      -0.03367
                        -----------------------------------------
Magnitude (a.u.)       :      1.06066
Magnitude (Debye)      :      2.69599

Rotational constants in cm-1:     0.060797     0.009698     0.008392
Rotational constants in MHz :  1822.651361   290.738427   251.578921

                             ****ORCA TERMINATED NORMALLY****
TOTAL RUN TIME: 0 days 0 hours 20 minutes 13 seconds 635 msec
