                         Program Version 4.2.0 -  RELEASE  -
|  1> # ORCA input file
|  2> # SCF done        -41.785273060060          0.000709626317
|  3> ! B3LYP/G D3BJ Opt RIJCOSX def2-SVP def2/J
|  4> * xyz 0 1
|  5>    C       -0.10772         0.63817        -0.00051
|  6>    C       -1.35584         1.18469         0.00152
|  7>    S       -2.56250        -0.04488        -0.00001
|  8>    C       -1.38651        -1.32988        -0.00324
|  9>    C       -1.78565        -2.75528        -0.00532
| 10>    C       -0.13149        -0.79652        -0.00333
| 11>    C        1.23448        -1.31476        -0.00614
| 12>    O        1.61405        -2.46166        -0.00828
| 13>    C        2.11282        -0.09046        -0.00516
| 14>    C        1.25988         1.10348        -0.00085
| 15>    C        1.65568         2.40967         0.00392
| 16>    C        0.71603         3.46369         0.01067
| 17>    N       -0.03966         4.32626         0.01632
| 18>    C        2.99522         2.85059         0.00499
| 19>    N        4.06582         3.26338         0.00590
| 20>    C        3.44368        -0.18322        -0.00932
| 21>    H       -1.65070         2.21497         0.00357
| 22>    H       -2.86725        -2.85881        -0.00708
| 23>    H       -1.37652        -3.25704         0.87154
| 24>    H       -1.37363        -3.25530        -0.88180
| 25>    H        3.89409        -1.16316        -0.01413
| 26>    H        4.10203         0.66756        -0.01114
| 27> *
| 28>
| 29>                          ****END OF INPUT****
 Total Charge           Charge          ....    0
 Multiplicity           Mult            ....    1
 Number of Electrons    NEL             ....  116
Dispersion correction           -0.055365618
FINAL SINGLE POINT ENERGY     -1043.202348397570
Dispersion correction            ... done
Dispersion correction           -0.055017094
FINAL SINGLE POINT ENERGY     -1043.206490615505
Dispersion correction            ... done
Dispersion correction           -0.054992659
FINAL SINGLE POINT ENERGY     -1043.206722196608
Dispersion correction            ... done
FINAL SINGLE POINT ENERGY     -1043.206830949375
FINAL SINGLE POINT ENERGY     -1043.206874246524
FINAL SINGLE POINT ENERGY     -1043.206904358971
Dispersion correction            ... done
Dispersion correction           -0.055084642
FINAL SINGLE POINT ENERGY     -1043.206915938520
Dispersion correction            ... done
Dispersion correction           -0.055089203
FINAL SINGLE POINT ENERGY     -1043.206924931766
Dispersion correction            ... done
                    ***********************HURRAY********************

CARTESIAN COORDINATES (ANGSTROEM)
---------------------------------
  C     -0.116740    0.662460    0.001258
  C     -1.380073    1.212790    0.004663
  S     -2.575970   -0.040880    0.004004
  C     -1.399094   -1.328383   -0.002627
  C     -1.778824   -2.773488   -0.006689
  C     -0.142335   -0.774532   -0.003110
  C      1.229726   -1.303078   -0.007987
  O      1.599808   -2.457773   -0.012537
  C      2.127166   -0.072420   -0.004961
  C      1.268523    1.136005    0.000223
  C      1.663891    2.454562    0.003556
  C      0.688227    3.500636    0.009110
  N     -0.136046    4.319463    0.013761
  C      3.033214    2.864167    0.001544
  N      4.144675    3.203147   -0.000280
  C      3.464122   -0.200605   -0.006963
  H     -1.681721    2.257834    0.008036
  H     -2.868138   -2.916646   -0.011099
  H     -1.359146   -3.280457    0.876547
  H     -1.352131   -3.277050   -0.888422
  H      3.872210   -1.216217   -0.010823
  H      4.154963    0.641955   -0.005085

 Multiplicity           Mult            ....    1
 Number of Electrons    NEL             ....  116
 Basis Dimension        Dim             ....  258

ORBITAL ENERGIES
----------------

  NO   OCC          E(Eh)            E(eV)
   0   2.0000     -88.917351     -2419.5641
   1   2.0000     -19.148104      -521.0464
   2   2.0000     -14.352860      -390.5612
   3   2.0000     -14.352345      -390.5472
   4   2.0000     -10.298971      -280.2493
   5   2.0000     -10.282929      -279.8127
   6   2.0000     -10.276419      -279.6356
   7   2.0000     -10.263846      -279.2934
   8   2.0000     -10.254920      -279.0506
   9   2.0000     -10.254588      -279.0415
  10   2.0000     -10.254386      -279.0360
  11   2.0000     -10.239979      -278.6440
  12   2.0000     -10.237662      -278.5810
  13   2.0000     -10.236909      -278.5605
  14   2.0000     -10.225802      -278.2582
  15   2.0000     -10.221025      -278.1282
  16   2.0000      -8.012123      -218.0210
  17   2.0000      -5.979950      -162.7227
  18   2.0000      -5.975735      -162.6080
  19   2.0000      -5.974148      -162.5648
  20   2.0000      -1.052949       -28.6522
  21   2.0000      -0.938812       -25.5464
  22   2.0000      -0.925677       -25.1889
  23   2.0000      -0.916973       -24.9521
  24   2.0000      -0.879780       -23.9400
  25   2.0000      -0.821244       -22.3472
  26   2.0000      -0.795430       -21.6448
  27   2.0000      -0.784540       -21.3484
  28   2.0000      -0.720122       -19.5955
  29   2.0000      -0.697967       -18.9926
  30   2.0000      -0.663245       -18.0478
  31   2.0000      -0.618739       -16.8367
  32   2.0000      -0.596525       -16.2323
  33   2.0000      -0.573789       -15.6136
  34   2.0000      -0.536054       -14.5868
  35   2.0000      -0.531812       -14.4713
  36   2.0000      -0.493113       -13.4183
  37   2.0000      -0.473556       -12.8861
  38   2.0000      -0.466606       -12.6970
  39   2.0000      -0.463944       -12.6246
  40   2.0000      -0.450465       -12.2578
  41   2.0000      -0.446353       -12.1459
  42   2.0000      -0.424761       -11.5583
  43   2.0000      -0.424225       -11.5438
  44   2.0000      -0.423563       -11.5257
  45   2.0000      -0.399354       -10.8670
  46   2.0000      -0.398886       -10.8542
  47   2.0000      -0.387849       -10.5539
  48   2.0000      -0.385711       -10.4957
  49   2.0000      -0.380051       -10.3417
  50   2.0000      -0.367180        -9.9915
  51   2.0000      -0.364977        -9.9315
  52   2.0000      -0.355216        -9.6659
  53   2.0000      -0.354735        -9.6528
  54   2.0000      -0.300310        -8.1718
  55   2.0000      -0.281495        -7.6599
  56   2.0000      -0.279707        -7.6112
  57   2.0000      -0.263110        -7.1596
  58   0.0000      -0.128292        -3.4910
  59   0.0000      -0.092259        -2.5105
  60   0.0000      -0.038879        -1.0579
  61   0.0000      -0.021773        -0.5925
  62   0.0000      -0.001570        -0.0427

MULLIKEN ATOMIC CHARGES
-----------------------
   0 C :    0.037957
   1 C :   -0.133332
   2 S :    0.164135
   3 C :   -0.300994
   4 C :    0.116407
   5 C :    0.058150
   6 C :    0.142864
   7 O :   -0.157074
   8 C :   -0.142218
   9 C :    0.258371
  10 C :   -0.280598
  11 C :   -0.147061
  12 N :    0.109607
  13 C :   -0.149569
  14 N :    0.113110
  15 C :    0.015520
  16 H :    0.054500
  17 H :    0.022138
  18 H :    0.053958
  19 H :    0.053892
  20 H :    0.052596
  21 H :    0.057640
Sum of atomic charges:    0.0000000

LOEWDIN ATOMIC CHARGES
----------------------
   0 C :   -0.055492
   1 C :   -0.159269
   2 S :    0.489693
   3 C :   -0.136873
   4 C :   -0.051116
   5 C :   -0.100714
   6 C :    0.079700
   7 O :   -0.142036
   8 C :   -0.068481
   9 C :    0.065289
  10 C :   -0.121693
  11 C :   -0.008038
  12 N :   -0.055054
  13 C :   -0.013803
  14 N :   -0.049407
  15 C :    0.064978
  16 H :    0.038635
  17 H :    0.034433
  18 H :    0.051996
  19 H :    0.051992
  20 H :    0.044385
  21 H :    0.040877

  Mayer bond orders larger than 0.100000
B(  0-C ,  1-C ) :   1.4885 B(  0-C ,  5-C ) :   1.2130 B(  0-C ,  9-C ) :   1.0347
B(  1-C ,  2-S ) :   1.1662 B(  1-C , 16-H ) :   0.9551 B(  2-S ,  3-C ) :   1.1753
B(  3-C ,  4-C ) :   1.1185 B(  3-C ,  5-C ) :   1.4977 B(  4-C , 17-H ) :   0.9422
B(  4-C , 18-H ) :   0.9418 B(  4-C , 19-H ) :   0.9418 B(  5-C ,  6-C ) :   0.9652
B(  6-C ,  7-O ) :   2.1988 B(  6-C ,  8-C ) :   0.9187 B(  8-C ,  9-C ) :   1.0065
B(  8-C , 15-C ) :   1.9263 B(  9-C , 10-C ) :   1.6380 B( 10-C , 11-C ) :   1.1331
B( 10-C , 13-C ) :   1.1383 B( 11-C , 12-N ) :   2.9575 B( 13-C , 14-N ) :   2.9442
B( 15-C , 20-H ) :   0.9104 B( 15-C , 21-H ) :   0.9220

Dispersion correction           -0.055090716
FINAL SINGLE POINT ENERGY     -1043.206926890497

DIPOLE MOMENT
-------------
                                X             Y             Z
Electronic contribution:      0.45173       8.82357       0.02637
Nuclear contribution   :     -1.74504     -10.32336      -0.02771
                        -----------------------------------------
Total Dipole Moment    :     -1.29331      -1.49979      -0.00135
                        -----------------------------------------
Magnitude (a.u.)       :      1.98040
Magnitude (Debye)      :      5.03379

Rotational constants in cm-1:     0.025395     0.013213     0.008705
Rotational constants in MHz :   761.321560   396.121739   260.976124

                             ****ORCA TERMINATED NORMALLY****
TOTAL RUN TIME: 0 days 0 hours 16 minutes 55 seconds 97 msec
