                         Program Version 4.2.0 -  RELEASE  -
|  1> # ORCA input file
|  2> # SCF done        -43.772262807457          0.000613596918
|  3> ! B3LYP/G D3BJ Opt RIJCOSX def2-SVP def2/J
|  4> * xyz 0 1
|  5>    C        3.51819        -0.20013         0.00652
|  6>    C        2.59115        -1.17541        -0.04877
|  7>    C        1.25635        -0.67369        -0.03353
|  8>    C        1.22765         0.74134         0.03211
|  9>    S        2.84350         1.39194         0.08007
| 10>    C        0.04010         1.45347         0.07082
| 11>    S       -0.01567         3.22596         0.18029
| 12>    C        0.79357         3.69256        -1.38309
| 13>    C       -1.15349         0.72720         0.06307
| 14>    C       -1.12474        -0.68783        -0.00259
| 15>    C        0.06280        -1.39997        -0.04101
| 16>    S        0.11819        -3.17252        -0.14917
| 17>    C       -0.68914        -3.63661         1.41593
| 18>    S       -2.74052        -1.33851        -0.05084
| 19>    C       -3.41528         0.25349         0.02301
| 20>    C       -2.48830         1.22884         0.07804
| 21>    H        4.58602        -0.29930         0.01211
| 22>    H        2.81475        -2.22528        -0.09904
| 23>    H        0.74218         4.77527        -1.42904
| 24>    H        0.24525         3.25404        -2.21154
| 25>    H        1.82877         3.36757        -1.38498
| 26>    H       -0.63696        -4.71922         1.46396
| 27>    H       -1.72458        -3.31223         1.41826
| 28>    H       -0.14018        -3.19615         2.24300
| 29>    H       -4.48311         0.35265         0.01733
| 30>    H       -2.71196         2.27870         0.12810
| 31> *
| 32>
| 33>                          ****END OF INPUT****
 Total Charge           Charge          ....    0
 Multiplicity           Mult            ....    1
 Number of Electrons    NEL             ....  146
Dispersion correction           -0.076696202
FINAL SINGLE POINT ENERGY     -2055.363285781072
Dispersion correction            ... done
Dispersion correction           -0.075862269
FINAL SINGLE POINT ENERGY     -2055.368295694838
Dispersion correction            ... done
Dispersion correction           -0.075891319
FINAL SINGLE POINT ENERGY     -2055.369024085874
Dispersion correction            ... done
FINAL SINGLE POINT ENERGY     -2055.369285167626
FINAL SINGLE POINT ENERGY     -2055.369442777995
FINAL SINGLE POINT ENERGY     -2055.369501949226
FINAL SINGLE POINT ENERGY     -2055.369537823955
FINAL SINGLE POINT ENERGY     -2055.369528116132
Dispersion correction            ... done
Dispersion correction           -0.075926074
FINAL SINGLE POINT ENERGY     -2055.369505566760
Dispersion correction            ... done
Dispersion correction           -0.075915585
FINAL SINGLE POINT ENERGY     -2055.369495059189
Dispersion correction            ... done
                    ***********************HURRAY********************

CARTESIAN COORDINATES (ANGSTROEM)
---------------------------------
  C      3.532008   -0.344960    0.158986
  C      2.568963   -1.296960    0.027320
  C      1.238689   -0.742777    0.002590
  C      1.261903    0.681432    0.134304
  S      2.902852    1.284480    0.279737
  C      0.103090    1.462168    0.144189
  S      0.195859    3.237081    0.321864
  C      0.589558    3.706733   -1.404669
  C     -1.134600    0.796873    0.028039
  C     -1.157814   -0.627335   -0.103681
  C      0.000992   -1.408064   -0.113558
  S     -0.091964   -3.183004   -0.290914
  C     -0.487320   -3.652000    1.435413
  S     -2.798771   -1.230412   -0.248982
  C     -3.427909    0.399046   -0.128322
  C     -2.464870    1.351053    0.003317
  H      4.609041   -0.506375    0.205244
  H      2.765717   -2.365337   -0.058228
  H      0.608188    4.806002   -1.428845
  H     -0.186085    3.339938   -2.090598
  H      1.572387    3.316160   -1.702667
  H     -0.506724   -4.751249    1.459861
  H     -1.470114   -3.260670    1.732519
  H      0.288017   -3.285551    2.121884
  H     -4.504939    0.560471   -0.174596
  H     -2.661612    2.419436    0.088813

 Multiplicity           Mult            ....    1
 Number of Electrons    NEL             ....  146
 Basis Dimension        Dim             ....  290

ORBITAL ENERGIES
----------------

  NO   OCC          E(Eh)            E(eV)
   0   2.0000     -88.874100     -2418.3872
   1   2.0000     -88.874073     -2418.3865
   2   2.0000     -88.846007     -2417.6227
   3   2.0000     -88.845979     -2417.6220
   4   2.0000     -10.227087      -278.2932
   5   2.0000     -10.227019      -278.2913
   6   2.0000     -10.226099      -278.2663
   7   2.0000     -10.226018      -278.2641
   8   2.0000     -10.221042      -278.1287
   9   2.0000     -10.221037      -278.1286
  10   2.0000     -10.215793      -277.9859
  11   2.0000     -10.215788      -277.9857
  12   2.0000     -10.210715      -277.8477
  13   2.0000     -10.210634      -277.8455
  14   2.0000     -10.198306      -277.5100
  15   2.0000     -10.198271      -277.5091
  16   2.0000      -7.968584      -216.8362
  17   2.0000      -7.968568      -216.8358
  18   2.0000      -7.939901      -216.0557
  19   2.0000      -7.939885      -216.0553
  20   2.0000      -5.937118      -161.5572
  21   2.0000      -5.937111      -161.5570
  22   2.0000      -5.933019      -161.4456
  23   2.0000      -5.933012      -161.4455
  24   2.0000      -5.929096      -161.3389
  25   2.0000      -5.929089      -161.3387
  26   2.0000      -5.909389      -160.8027
  27   2.0000      -5.909380      -160.8024
  28   2.0000      -5.905661      -160.7012
  29   2.0000      -5.905655      -160.7010
  30   2.0000      -5.898203      -160.4983
  31   2.0000      -5.898193      -160.4980
  32   2.0000      -0.905623       -24.6433
  33   2.0000      -0.875177       -23.8148
  34   2.0000      -0.823002       -22.3950
  35   2.0000      -0.818117       -22.2621
  36   2.0000      -0.772125       -21.0106
  37   2.0000      -0.747665       -20.3450
  38   2.0000      -0.740013       -20.1368
  39   2.0000      -0.715436       -19.4680
  40   2.0000      -0.694042       -18.8859
  41   2.0000      -0.662947       -18.0397
  42   2.0000      -0.620454       -16.8834
  43   2.0000      -0.612138       -16.6571
  44   2.0000      -0.575754       -15.6671
  45   2.0000      -0.550515       -14.9803
  46   2.0000      -0.546214       -14.8632
  47   2.0000      -0.529135       -14.3985
  48   2.0000      -0.471407       -12.8276
  49   2.0000      -0.462132       -12.5752
  50   2.0000      -0.446660       -12.1542
  51   2.0000      -0.438719       -11.9381
  52   2.0000      -0.432482       -11.7684
  53   2.0000      -0.430877       -11.7247
  54   2.0000      -0.429747       -11.6940
  55   2.0000      -0.423024       -11.5111
  56   2.0000      -0.421694       -11.4749
  57   2.0000      -0.394921       -10.7463
  58   2.0000      -0.392239       -10.6734
  59   2.0000      -0.382937       -10.4202
  60   2.0000      -0.381368       -10.3776
  61   2.0000      -0.380275       -10.3478
  62   2.0000      -0.357576        -9.7301
  63   2.0000      -0.355761        -9.6808
  64   2.0000      -0.339406        -9.2357
  65   2.0000      -0.323639        -8.8067
  66   2.0000      -0.306451        -8.3390
  67   2.0000      -0.294378        -8.0104
  68   2.0000      -0.261143        -7.1061
  69   2.0000      -0.238966        -6.5026
  70   2.0000      -0.235598        -6.4110
  71   2.0000      -0.234679        -6.3859
  72   2.0000      -0.210151        -5.7185
  73   0.0000      -0.060604        -1.6491
  74   0.0000      -0.025651        -0.6980
  75   0.0000       0.006412         0.1745
  76   0.0000       0.014996         0.4081
  77   0.0000       0.036076         0.9817

MULLIKEN ATOMIC CHARGES
-----------------------
   0 C :   -0.062144
   1 C :    0.010349
   2 C :    0.095854
   3 C :   -0.073078
   4 S :    0.111203
   5 C :   -0.160632
   6 S :   -0.043478
   7 C :   -0.074819
   8 C :    0.095914
   9 C :   -0.073082
  10 C :   -0.160572
  11 S :   -0.043441
  12 C :   -0.074840
  13 S :    0.111195
  14 C :   -0.062136
  15 C :    0.010343
  16 H :    0.031144
  17 H :   -0.009778
  18 H :    0.058563
  19 H :    0.059709
  20 H :    0.057053
  21 H :    0.058553
  22 H :    0.057045
  23 H :    0.059714
  24 H :    0.031142
  25 H :   -0.009781
Sum of atomic charges:   -0.0000000

LOEWDIN ATOMIC CHARGES
----------------------
   0 C :   -0.164789
   1 C :   -0.062528
   2 C :   -0.055720
   3 C :   -0.167508
   4 S :    0.397610
   5 C :   -0.177566
   6 S :    0.250160
   7 C :   -0.150770
   8 C :   -0.055717
   9 C :   -0.167518
  10 C :   -0.177547
  11 S :    0.250164
  12 C :   -0.150774
  13 S :    0.397623
  14 C :   -0.164785
  15 C :   -0.062529
  16 H :    0.027282
  17 H :    0.029046
  18 H :    0.029973
  19 H :    0.025435
  20 H :    0.019378
  21 H :    0.029972
  22 H :    0.019348
  23 H :    0.025436
  24 H :    0.027281
  25 H :    0.029043

  Mayer bond orders larger than 0.100000
B(  0-C ,  1-C ) :   1.6111 B(  0-C ,  4-S ) :   1.0966 B(  0-C , 16-H ) :   0.9640
B(  1-C ,  2-C ) :   1.1935 B(  1-C , 17-H ) :   0.9822 B(  2-C ,  3-C ) :   1.2839
B(  2-C , 10-C ) :   1.3606 B(  3-C ,  4-S ) :   1.0760 B(  3-C ,  5-C ) :   1.4194
B(  5-C ,  6-S ) :   1.0530 B(  5-C ,  8-C ) :   1.3606 B(  6-S ,  7-C ) :   0.9970
B(  7-C , 18-H ) :   0.9697 B(  7-C , 19-H ) :   0.9692 B(  7-C , 20-H ) :   0.9698
B(  8-C ,  9-C ) :   1.2839 B(  8-C , 15-C ) :   1.1935 B(  9-C , 10-C ) :   1.4193
B(  9-C , 13-S ) :   1.0760 B( 10-C , 11-S ) :   1.0530 B( 11-S , 12-C ) :   0.9970
B( 12-C , 21-H ) :   0.9697 B( 12-C , 22-H ) :   0.9698 B( 12-C , 23-H ) :   0.9692
B( 13-S , 14-C ) :   1.0966 B( 14-C , 15-C ) :   1.6111 B( 14-C , 24-H ) :   0.9640
B( 15-C , 25-H ) :   0.9822

Dispersion correction           -0.075914827
FINAL SINGLE POINT ENERGY     -2055.369500711985

DIPOLE MOMENT
-------------
                                X             Y             Z
Electronic contribution:      0.00458      -0.00177       0.00023
Nuclear contribution   :     -0.00500       0.00192      -0.00033
                        -----------------------------------------
Total Dipole Moment    :     -0.00042       0.00016      -0.00010
                        -----------------------------------------
Magnitude (a.u.)       :      0.00046
Magnitude (Debye)      :      0.00117

Rotational constants in cm-1:     0.015787     0.011271     0.006965
Rotational constants in MHz :   473.296811   337.890294   208.818909

                             ****ORCA TERMINATED NORMALLY****
TOTAL RUN TIME: 0 days 0 hours 25 minutes 19 seconds 729 msec
