                         Program Version 4.2.0 -  RELEASE  -
|  1> # ORCA input file
|  2> # SCF done        -30.340483081016          0.000297245175
|  3> ! B3LYP/G D3BJ Opt RIJCOSX def2-SVP def2/J
|  4> * xyz 0 1
|  5>    C       -0.77843         1.14162        -0.00486
|  6>    C        0.60150         1.23048        -0.05361
|  7>    O        1.31396         2.39178        -0.10422
|  8>    C        0.60922         3.60647        -0.10135
|  9>    C        1.37273         0.04604        -0.05273
| 10>    O        2.72300         0.22776        -0.10304
| 11>    C        3.54862        -0.90822        -0.10303
| 12>    C        0.73324        -1.17994        -0.00255
| 13>    C       -0.65341        -1.25128         0.04542
| 14>    C       -1.40463        -0.09759         0.04409
| 15>    H       -1.38327         2.03446        -0.00431
| 16>    H        1.36808         4.38618        -0.14713
| 17>    H        0.01972         3.73012         0.81385
| 18>    H       -0.05068         3.69424        -0.97141
| 19>    H        4.56857        -0.52979        -0.15237
| 20>    H        3.35879        -1.54721        -0.97241
| 21>    H        3.42638        -1.49734         0.81263
| 22>    H        1.30511        -2.09424         0.00014
| 23>    H       -1.13296        -2.21746         0.08397
| 24>    H       -2.48227        -0.14528         0.08139
| 25> *
| 26>
| 27>                          ****END OF INPUT****
 Total Charge           Charge          ....    0
 Multiplicity           Mult            ....    1
 Number of Electrons    NEL             ....   74
Dispersion correction           -0.032738354
FINAL SINGLE POINT ENERGY      -460.985672515202
Dispersion correction            ... done
Dispersion correction           -0.032633782
FINAL SINGLE POINT ENERGY      -460.987439513506
Dispersion correction            ... done
Dispersion correction           -0.032612479
FINAL SINGLE POINT ENERGY      -460.987504999874
Dispersion correction            ... done
Dispersion correction           -0.032610829
FINAL SINGLE POINT ENERGY      -460.987513405653
Dispersion correction            ... done
Dispersion correction           -0.032610698
FINAL SINGLE POINT ENERGY      -460.987512905109
Dispersion correction            ... done
                    ***********************HURRAY********************

CARTESIAN COORDINATES (ANGSTROEM)
---------------------------------
  C     -0.780578    1.152916   -0.004485
  C      0.611028    1.240518   -0.057642
  O      1.314418    2.398017   -0.117039
  C      0.608386    3.614176   -0.103962
  C      1.385054    0.047555   -0.051329
  O      2.727370    0.222793   -0.094552
  C      3.557636   -0.911772   -0.101448
  C      0.740140   -1.189257   -0.002596
  C     -0.660855   -1.262140    0.044676
  C     -1.416428   -0.097360    0.045700
  H     -1.384056    2.059661   -0.003429
  H      1.360332    4.413208   -0.148475
  H      0.009880    3.732943    0.818304
  H     -0.068135    3.709529   -0.973217
  H      4.590433   -0.540063   -0.145761
  H      3.367938   -1.556278   -0.979544
  H      3.432008   -1.521437    0.812413
  H      1.324285   -2.109089    0.000040
  H     -1.148608   -2.238549    0.083424
  H     -2.506979   -0.144571    0.087393

 Multiplicity           Mult            ....    1
 Number of Electrons    NEL             ....   74
 Basis Dimension        Dim             ....  190

ORBITAL ENERGIES
----------------

  NO   OCC          E(Eh)            E(eV)
   0   2.0000     -19.158597      -521.3319
   1   2.0000     -19.158273      -521.3231
   2   2.0000     -10.242358      -278.7087
   3   2.0000     -10.242200      -278.7044
   4   2.0000     -10.241214      -278.6776
   5   2.0000     -10.240944      -278.6702
   6   2.0000     -10.183607      -277.1100
   7   2.0000     -10.183450      -277.1058
   8   2.0000     -10.181023      -277.0397
   9   2.0000     -10.180629      -277.0290
  10   2.0000      -1.065191       -28.9853
  11   2.0000      -1.045666       -28.4540
  12   2.0000      -0.837966       -22.8022
  13   2.0000      -0.755990       -20.5715
  14   2.0000      -0.736329       -20.0365
  15   2.0000      -0.698286       -19.0013
  16   2.0000      -0.678541       -18.4640
  17   2.0000      -0.593013       -16.1367
  18   2.0000      -0.585743       -15.9389
  19   2.0000      -0.541814       -14.7435
  20   2.0000      -0.509326       -13.8595
  21   2.0000      -0.493826       -13.4377
  22   2.0000      -0.474374       -12.9084
  23   2.0000      -0.460960       -12.5433
  24   2.0000      -0.455094       -12.3837
  25   2.0000      -0.448887       -12.2148
  26   2.0000      -0.429849       -11.6968
  27   2.0000      -0.409480       -11.1425
  28   2.0000      -0.383978       -10.4486
  29   2.0000      -0.376918       -10.2565
  30   2.0000      -0.366655        -9.9772
  31   2.0000      -0.329794        -8.9742
  32   2.0000      -0.323778        -8.8105
  33   2.0000      -0.321805        -8.7568
  34   2.0000      -0.317056        -8.6275
  35   2.0000      -0.239626        -6.5206
  36   2.0000      -0.204566        -5.5665
  37   0.0000       0.005133         0.1397
  38   0.0000       0.010469         0.2849
  39   0.0000       0.060038         1.6337
  40   0.0000       0.069506         1.8913
  41   0.0000       0.081129         2.2076

MULLIKEN ATOMIC CHARGES
-----------------------
   0 C :   -0.097772
   1 C :    0.190952
   2 O :   -0.302529
   3 C :    0.188683
   4 C :    0.198479
   5 O :   -0.302200
   6 C :    0.183686
   7 C :   -0.105003
   8 C :    0.025375
   9 C :    0.011081
  10 H :   -0.035083
  11 H :    0.030353
  12 H :    0.015168
  13 H :    0.015968
  14 H :    0.031379
  15 H :    0.018060
  16 H :    0.017646
  17 H :   -0.036435
  18 H :   -0.028013
  19 H :   -0.019795
Sum of atomic charges:    0.0000000

LOEWDIN ATOMIC CHARGES
----------------------
   0 C :   -0.075524
   1 C :    0.031885
   2 O :   -0.092315
   3 C :    0.078982
   4 C :    0.032103
   5 O :   -0.091618
   6 C :    0.078340
   7 C :   -0.076612
   8 C :   -0.040036
   9 C :   -0.042962
  10 H :    0.025459
  11 H :    0.025997
  12 H :    0.011273
  13 H :    0.011188
  14 H :    0.026093
  15 H :    0.011842
  16 H :    0.011618
  17 H :    0.025302
  18 H :    0.023792
  19 H :    0.025192

  Mayer bond orders larger than 0.100000
B(  0-C ,  1-C ) :   1.3713 B(  0-C ,  9-C ) :   1.3041 B(  0-C , 10-H ) :   0.9957
B(  1-C ,  2-O ) :   1.1593 B(  1-C ,  4-C ) :   1.3101 B(  2-O ,  3-C ) :   0.9758
B(  3-C , 11-H ) :   0.9762 B(  3-C , 12-H ) :   0.9640 B(  3-C , 13-H ) :   0.9640
B(  4-C ,  5-O ) :   1.1598 B(  4-C ,  7-C ) :   1.3642 B(  5-O ,  6-C ) :   0.9731
B(  6-C , 14-H ) :   0.9766 B(  6-C , 15-H ) :   0.9641 B(  6-C , 16-H ) :   0.9644
B(  7-C ,  8-C ) :   1.3100 B(  7-C , 17-H ) :   0.9961 B(  8-C ,  9-C ) :   1.4149
B(  8-C , 18-H ) :   0.9884 B(  9-C , 19-H ) :   0.9888

Dispersion correction           -0.032611131
FINAL SINGLE POINT ENERGY      -460.987511005768

DIPOLE MOMENT
-------------
                                X             Y             Z
Electronic contribution:     -0.14471      -0.10416      -0.01870
Nuclear contribution   :      0.15191       0.10768       0.02624
                        -----------------------------------------
Total Dipole Moment    :      0.00720       0.00352       0.00754
                        -----------------------------------------
Magnitude (a.u.)       :      0.01100
Magnitude (Debye)      :      0.02797

Rotational constants in cm-1:     0.055037     0.044853     0.024950
Rotational constants in MHz :  1649.961390  1344.672281   747.996013

                             ****ORCA TERMINATED NORMALLY****
TOTAL RUN TIME: 0 days 0 hours 5 minutes 21 seconds 381 msec
