                         Program Version 4.2.0 -  RELEASE  -
|  1> # ORCA input file
|  2> # SCF done        -26.648017569917          0.000139904943
|  3> ! B3LYP/G D3BJ Opt RIJCOSX def2-SVP def2/J
|  4> * xyz 0 1
|  5>    C        1.33964        -1.21518        -0.00335
|  6>    C        0.01276        -0.81463        -0.00274
|  7>    C       -0.30978         0.54159        -0.00162
|  8>    C        0.69472         1.49660        -0.00110
|  9>    C        2.01757         1.09142        -0.00163
| 10>    C        2.33846        -0.25786        -0.00275
| 11>    S       -2.01706         0.94549        -0.00082
| 12>    C       -2.60807        -0.72145        -0.00102
| 13>    S       -1.32991        -1.94387        -0.00322
| 14>    C       -3.90066        -1.02887         0.00007
| 15>    H        1.57633        -2.26752        -0.00421
| 16>    H        0.43233         2.54283        -0.00022
| 17>    H        2.80080         1.83358        -0.00113
| 18>    H        3.37193        -0.56797        -0.00312
| 19>    H       -4.65306        -0.26178         0.00097
| 20>    H       -4.22714        -2.05258        -0.00051
| 21> *
| 22>
| 23>                          ****END OF INPUT****
 Total Charge           Charge          ....    0
 Multiplicity           Mult            ....    1
 Number of Electrons    NEL             ....   86
Dispersion correction           -0.040344772
FINAL SINGLE POINT ENERGY     -1104.425225611986
Dispersion correction            ... done
Dispersion correction           -0.040131242
FINAL SINGLE POINT ENERGY     -1104.427456514595
Dispersion correction            ... done
Dispersion correction           -0.040093876
FINAL SINGLE POINT ENERGY     -1104.427510943327
Dispersion correction            ... done
Dispersion correction           -0.040086259
FINAL SINGLE POINT ENERGY     -1104.427516862168
Dispersion correction            ... done
Dispersion correction           -0.040084830
FINAL SINGLE POINT ENERGY     -1104.427517954081
Dispersion correction            ... done
                    ***********************HURRAY********************

CARTESIAN COORDINATES (ANGSTROEM)
---------------------------------
  C      1.353266   -1.224850   -0.003334
  C      0.014309   -0.824053   -0.003387
  C     -0.311981    0.545264   -0.002178
  C      0.699447    1.508775   -0.001219
  C      2.036547    1.102262   -0.001357
  C      2.361451   -0.257626   -0.002338
  S     -2.028509    0.947877   -0.002054
  C     -2.629000   -0.726276   -0.001808
  S     -1.340541   -1.954107   -0.005146
  C     -3.935298   -1.034910    0.000512
  H      1.606685   -2.287190   -0.004043
  H      0.441455    2.570463   -0.000294
  H      2.827480    1.854948   -0.000587
  H      3.407224   -0.572864   -0.002290
  H     -4.696816   -0.253404    0.002499
  H     -4.266861   -2.074509    0.000624

 Multiplicity           Mult            ....    1
 Number of Electrons    NEL             ....   86
 Basis Dimension        Dim             ....  178

ORBITAL ENERGIES
----------------

  NO   OCC          E(Eh)            E(eV)
   0   2.0000     -88.873474     -2418.3702
   1   2.0000     -88.873024     -2418.3579
   2   2.0000     -10.250562      -278.9320
   3   2.0000     -10.234580      -278.4971
   4   2.0000     -10.233988      -278.4810
   5   2.0000     -10.208275      -277.7813
   6   2.0000     -10.208139      -277.7776
   7   2.0000     -10.202320      -277.6192
   8   2.0000     -10.201919      -277.6083
   9   2.0000     -10.188055      -277.2311
  10   2.0000      -7.968534      -216.8348
  11   2.0000      -7.968332      -216.8293
  12   2.0000      -5.937396      -161.5648
  13   2.0000      -5.937195      -161.5593
  14   2.0000      -5.933747      -161.4655
  15   2.0000      -5.933552      -161.4602
  16   2.0000      -5.927773      -161.3029
  17   2.0000      -5.927500      -161.2955
  18   2.0000      -0.896858       -24.4048
  19   2.0000      -0.838659       -22.8211
  20   2.0000      -0.788044       -21.4438
  21   2.0000      -0.763917       -20.7873
  22   2.0000      -0.727501       -19.7963
  23   2.0000      -0.690981       -18.8026
  24   2.0000      -0.611792       -16.6477
  25   2.0000      -0.597851       -16.2683
  26   2.0000      -0.554652       -15.0929
  27   2.0000      -0.501275       -13.6404
  28   2.0000      -0.486175       -13.2295
  29   2.0000      -0.480695       -13.0804
  30   2.0000      -0.450810       -12.2672
  31   2.0000      -0.421214       -11.4618
  32   2.0000      -0.415137       -11.2965
  33   2.0000      -0.412847       -11.2341
  34   2.0000      -0.408089       -11.1047
  35   2.0000      -0.363513        -9.8917
  36   2.0000      -0.357100        -9.7172
  37   2.0000      -0.355753        -9.6805
  38   2.0000      -0.333591        -9.0775
  39   2.0000      -0.308267        -8.3884
  40   2.0000      -0.284928        -7.7533
  41   2.0000      -0.246297        -6.7021
  42   2.0000      -0.199083        -5.4173
  43   0.0000      -0.024291        -0.6610
  44   0.0000      -0.019634        -0.5343
  45   0.0000      -0.013275        -0.3612
  46   0.0000       0.001512         0.0411
  47   0.0000       0.049333         1.3424

MULLIKEN ATOMIC CHARGES
-----------------------
   0 C :   -0.012697
   1 C :   -0.021653
   2 C :   -0.014212
   3 C :   -0.020159
   4 C :    0.018155
   5 C :    0.022895
   6 S :    0.102465
   7 C :   -0.153427
   8 S :    0.106529
   9 C :   -0.026341
  10 H :   -0.015917
  11 H :   -0.014174
  12 H :   -0.007485
  13 H :   -0.012184
  14 H :    0.024744
  15 H :    0.023461
Sum of atomic charges:   -0.0000000

LOEWDIN ATOMIC CHARGES
----------------------
   0 C :   -0.040244
   1 C :   -0.170854
   2 C :   -0.169810
   3 C :   -0.041724
   4 C :   -0.026836
   5 C :   -0.026027
   6 S :    0.356645
   7 C :   -0.279879
   8 S :    0.356699
   9 C :   -0.138205
  10 H :    0.030607
  11 H :    0.030943
  12 H :    0.030976
  13 H :    0.029890
  14 H :    0.029055
  15 H :    0.028764

  Mayer bond orders larger than 0.100000
B(  0-C ,  1-C ) :   1.4081 B(  0-C ,  5-C ) :   1.3834 B(  0-C , 10-H ) :   0.9874
B(  1-C ,  2-C ) :   1.3810 B(  1-C ,  8-S ) :   1.0051 B(  2-C ,  3-C ) :   1.4027
B(  2-C ,  6-S ) :   1.0053 B(  3-C ,  4-C ) :   1.3917 B(  3-C , 11-H ) :   0.9874
B(  4-C ,  5-C ) :   1.3780 B(  4-C , 12-H ) :   0.9837 B(  5-C , 13-H ) :   0.9866
B(  6-S ,  7-C ) :   1.0098 B(  7-C ,  8-S ) :   1.0091 B(  7-C ,  9-C ) :   1.9051
B(  9-C , 14-H ) :   0.9441 B(  9-C , 15-H ) :   0.9449

Dispersion correction           -0.040086156
FINAL SINGLE POINT ENERGY     -1104.427517667522

DIPOLE MOMENT
-------------
                                X             Y             Z
Electronic contribution:     -2.84340      -0.68730      -0.00973
Nuclear contribution   :      3.26673       0.78731       0.01033
                        -----------------------------------------
Total Dipole Moment    :      0.42333       0.10001       0.00059
                        -----------------------------------------
Magnitude (a.u.)       :      0.43498
Magnitude (Debye)      :      1.10564

Rotational constants in cm-1:     0.072929     0.027629     0.020038
Rotational constants in MHz :  2186.365071   828.309884   600.724414

                             ****ORCA TERMINATED NORMALLY****
TOTAL RUN TIME: 0 days 0 hours 4 minutes 46 seconds 705 msec
