                         Program Version 4.2.0 -  RELEASE  -
|  1> # ORCA input file
|  2> # SCF done        -42.546006700187          0.000308046070
|  3> ! B3LYP/G D3BJ Opt RIJCOSX def2-SVP def2/J
|  4> * xyz 0 1
|  5>    C        0.24059        -1.44549        -0.05026
|  6>    C       -0.94039        -0.71758        -0.03047
|  7>    C       -0.93170         0.72162         0.06721
|  8>    N       -2.10845         1.40571         0.08201
|  9>    C       -3.20296         0.73526         0.00575
| 10>    C       -3.21160        -0.69551        -0.09128
| 11>    N       -2.12529        -1.38321        -0.10719
| 12>    F       -4.36836        -1.34638        -0.16795
| 13>    F       -4.35175         1.40440         0.01852
| 14>    C        0.25796         1.43128         0.14504
| 15>    C        1.44471         0.70809         0.12319
| 16>    C        1.43597        -0.74031         0.02483
| 17>    N        2.68024        -1.24069         0.01790
| 18>    S        3.71940        -0.03316         0.12241
| 19>    N        2.69492         1.18980         0.18288
| 20>    H        0.22016        -2.51958        -0.12302
| 21>    H        0.25050         2.50551         0.21807
| 22> *
| 23>
| 24>                          ****END OF INPUT****
 Total Charge           Charge          ....    0
 Multiplicity           Mult            ....    1
 Number of Electrons    NEL             ....  112
Dispersion correction           -0.042019250
FINAL SINGLE POINT ENERGY     -1122.292940108069
Dispersion correction            ... done
Dispersion correction           -0.041892181
FINAL SINGLE POINT ENERGY     -1122.296688310020
Dispersion correction            ... done
Dispersion correction           -0.041880429
FINAL SINGLE POINT ENERGY     -1122.297335623231
Dispersion correction            ... done
FINAL SINGLE POINT ENERGY     -1122.297386742380
FINAL SINGLE POINT ENERGY     -1122.297232988460
Dispersion correction            ... done
Dispersion correction           -0.041913245
FINAL SINGLE POINT ENERGY     -1122.297307984213
Dispersion correction            ... done
Dispersion correction           -0.041911144
FINAL SINGLE POINT ENERGY     -1122.297317601990
Dispersion correction            ... done
                    ***********************HURRAY********************

CARTESIAN COORDINATES (ANGSTROEM)
---------------------------------
  C      0.241911   -1.453453   -0.031558
  C     -0.940776   -0.727244   -0.043229
  C     -0.931565    0.730556    0.050647
  N     -2.128779    1.412754    0.113965
  C     -3.210334    0.741223    0.051551
  C     -3.218313   -0.702133   -0.125405
  N     -2.145591   -1.390271   -0.154501
  F     -4.393307   -1.295935   -0.270695
  F     -4.378831    1.354967    0.161009
  C      0.260451    1.439590    0.097577
  C      1.472204    0.715311    0.095020
  C      1.462028   -0.746912    0.045782
  N      2.695036   -1.281838    0.075542
  S      3.745510   -0.033983    0.152511
  N      2.712736    1.230831    0.154467
  H      0.215888   -2.541495   -0.088107
  H      0.245681    2.527792    0.153064

 Multiplicity           Mult            ....    1
 Number of Electrons    NEL             ....  112
 Basis Dimension        Dim             ....  224

ORBITAL ENERGIES
----------------

  NO   OCC          E(Eh)            E(eV)
   0   2.0000     -88.957056     -2420.6446
   1   2.0000     -24.737429      -673.1397
   2   2.0000     -24.737281      -673.1356
   3   2.0000     -14.374318      -391.1451
   4   2.0000     -14.374247      -391.1432
   5   2.0000     -14.371734      -391.0748
   6   2.0000     -14.371517      -391.0689
   7   2.0000     -10.348130      -281.5869
   8   2.0000     -10.347891      -281.5804
   9   2.0000     -10.267651      -279.3970
  10   2.0000     -10.267441      -279.3913
  11   2.0000     -10.261732      -279.2359
  12   2.0000     -10.261544      -279.2308
  13   2.0000     -10.227648      -278.3085
  14   2.0000     -10.227492      -278.3042
  15   2.0000      -8.047980      -218.9967
  16   2.0000      -6.017693      -163.7498
  17   2.0000      -6.010436      -163.5523
  18   2.0000      -6.009749      -163.5336
  19   2.0000      -1.262255       -34.3477
  20   2.0000      -1.247090       -33.9350
  21   2.0000      -1.035422       -28.1753
  22   2.0000      -1.016265       -27.6540
  23   2.0000      -0.949084       -25.8259
  24   2.0000      -0.901725       -24.5372
  25   2.0000      -0.871309       -23.7095
  26   2.0000      -0.786564       -21.4035
  27   2.0000      -0.777094       -21.1458
  28   2.0000      -0.721037       -19.6204
  29   2.0000      -0.676017       -18.3954
  30   2.0000      -0.668268       -18.1845
  31   2.0000      -0.624429       -16.9916
  32   2.0000      -0.602432       -16.3930
  33   2.0000      -0.594063       -16.1653
  34   2.0000      -0.573959       -15.6182
  35   2.0000      -0.554254       -15.0820
  36   2.0000      -0.538494       -14.6532
  37   2.0000      -0.517827       -14.0908
  38   2.0000      -0.496191       -13.5020
  39   2.0000      -0.476012       -12.9529
  40   2.0000      -0.473201       -12.8765
  41   2.0000      -0.470058       -12.7909
  42   2.0000      -0.458928       -12.4881
  43   2.0000      -0.441247       -12.0069
  44   2.0000      -0.435697       -11.8559
  45   2.0000      -0.432847       -11.7784
  46   2.0000      -0.404820       -11.0157
  47   2.0000      -0.379114       -10.3162
  48   2.0000      -0.353316        -9.6142
  49   2.0000      -0.347128        -9.4458
  50   2.0000      -0.344802        -9.3825
  51   2.0000      -0.343832        -9.3561
  52   2.0000      -0.316902        -8.6233
  53   2.0000      -0.302252        -8.2247
  54   2.0000      -0.283181        -7.7058
  55   2.0000      -0.252387        -6.8678
  56   0.0000      -0.128772        -3.5041
  57   0.0000      -0.066639        -1.8133
  58   0.0000      -0.036811        -1.0017
  59   0.0000      -0.010783        -0.2934
  60   0.0000       0.006591         0.1794

MULLIKEN ATOMIC CHARGES
-----------------------
   0 C :   -0.047180
   1 C :    0.041939
   2 C :    0.040005
   3 N :   -0.012336
   4 C :    0.128205
   5 C :    0.129060
   6 N :   -0.013029
   7 F :   -0.141206
   8 F :   -0.140907
   9 C :   -0.047041
  10 C :    0.077636
  11 C :    0.077237
  12 N :   -0.283127
  13 S :    0.502084
  14 N :   -0.282983
  15 H :   -0.014132
  16 H :   -0.014225
Sum of atomic charges:   -0.0000000

LOEWDIN ATOMIC CHARGES
----------------------
   0 C :   -0.008435
   1 C :   -0.005500
   2 C :   -0.005550
   3 N :   -0.050561
   4 C :    0.049778
   5 C :    0.050065
   6 N :   -0.050858
   7 F :   -0.023554
   8 F :   -0.023451
   9 C :   -0.008362
  10 C :   -0.050106
  11 C :   -0.050089
  12 N :   -0.282464
  13 S :    0.647384
  14 N :   -0.282556
  15 H :    0.047153
  16 H :    0.047104

  Mayer bond orders larger than 0.100000
B(  0-C ,  1-C ) :   1.3720 B(  0-C ,  9-C ) :   0.1611 B(  0-C , 11-C ) :   1.1815
B(  0-C , 15-H ) :   1.0372 B(  1-C ,  2-C ) :   1.1190 B(  1-C ,  6-N ) :   1.2913
B(  2-C ,  3-N ) :   1.2926 B(  2-C ,  9-C ) :   1.3726 B(  3-N ,  4-C ) :   1.7471
B(  4-C ,  5-C ) :   1.0483 B(  4-C ,  8-F ) :   1.1599 B(  5-C ,  6-N ) :   1.7475
B(  5-C ,  7-F ) :   1.1591 B(  9-C , 10-C ) :   1.1812 B(  9-C , 16-H ) :   1.0372
B( 10-C , 11-C ) :   1.1254 B( 10-C , 14-N ) :   1.4530 B( 11-C , 12-N ) :   1.4533
B( 12-N , 13-S ) :   1.2716 B( 12-N , 14-N ) :   0.1754 B( 13-S , 14-N ) :   1.2715

Dispersion correction           -0.041910881
FINAL SINGLE POINT ENERGY     -1122.297303472498

DIPOLE MOMENT
-------------
                                X             Y             Z
Electronic contribution:     -7.92904       0.06189      -0.14758
Nuclear contribution   :      8.46500      -0.06669       0.15867
                        -----------------------------------------
Total Dipole Moment    :      0.53596      -0.00480       0.01109
                        -----------------------------------------
Magnitude (a.u.)       :      0.53609
Magnitude (Debye)      :      1.36264

Rotational constants in cm-1:     0.062420     0.009350     0.008137
Rotational constants in MHz :  1871.291765   280.301794   243.954491

                             ****ORCA TERMINATED NORMALLY****
TOTAL RUN TIME: 0 days 0 hours 11 minutes 37 seconds 788 msec
