                         Program Version 4.2.0 -  RELEASE  -
|  1> # ORCA input file
|  2> # SCF done        -38.611570543727          0.000565048367
|  3> ! B3LYP/G D3BJ Opt RIJCOSX def2-SVP def2/J
|  4> * xyz 0 1
|  5>    C       -0.05872         0.59233        -0.00137
|  6>    C       -1.31888         1.11381         0.00152
|  7>    S       -2.50117        -0.13663        -0.00157
|  8>    C       -1.30457        -1.37666        -0.00627
|  9>    C       -0.05611        -0.84251        -0.00586
| 10>    C        1.32605        -1.33353        -0.00916
| 11>    O        1.72966        -2.46981        -0.01217
| 12>    C        2.17698        -0.09055        -0.00696
| 13>    C        1.29986         1.08576        -0.00168
| 14>    C        1.66824         2.39930         0.00384
| 15>    C        0.70647         3.43375         0.01189
| 16>    N       -0.06733         4.28003         0.01860
| 17>    C        2.99873         2.86804         0.00526
| 18>    N        4.06029         3.30288         0.00635
| 19>    C        3.50968        -0.15601        -0.01110
| 20>    H       -1.63120         2.13899         0.00477
| 21>    H       -1.59649        -2.40769        -0.00934
| 22>    H        3.98074        -1.12615        -0.01700
| 23>    H        4.14990         0.70852        -0.01201
| 24> *
| 25>
| 26>                          ****END OF INPUT****
 Total Charge           Charge          ....    0
 Multiplicity           Mult            ....    1
 Number of Electrons    NEL             ....  108
Dispersion correction           -0.049304347
FINAL SINGLE POINT ENERGY     -1003.903630647355
Dispersion correction            ... done
Dispersion correction           -0.049049044
FINAL SINGLE POINT ENERGY     -1003.907523577977
Dispersion correction            ... done
Dispersion correction           -0.049039579
FINAL SINGLE POINT ENERGY     -1003.907750720589
Dispersion correction            ... done
FINAL SINGLE POINT ENERGY     -1003.907866186096
FINAL SINGLE POINT ENERGY     -1003.907911590287
FINAL SINGLE POINT ENERGY     -1003.907947803957
FINAL SINGLE POINT ENERGY     -1003.907956323713
Dispersion correction            ... done
Dispersion correction           -0.049119901
FINAL SINGLE POINT ENERGY     -1003.907964029024
Dispersion correction            ... done
Dispersion correction           -0.049123506
FINAL SINGLE POINT ENERGY     -1003.907966447554
Dispersion correction            ... done
                    ***********************HURRAY********************

CARTESIAN COORDINATES (ANGSTROEM)
---------------------------------
  C     -0.063488    0.604385   -0.001457
  C     -1.338950    1.130140    0.003313
  S     -2.513075   -0.139276    0.001790
  C     -1.312721   -1.387079   -0.005360
  C     -0.060789   -0.833488   -0.006865
  C      1.332643   -1.329325   -0.012490
  O      1.735624   -2.469357   -0.019663
  C      2.196565   -0.075439   -0.007902
  C      1.309940    1.111022   -0.001528
  C      1.671631    2.438750    0.004107
  C      0.669754    3.459887    0.009829
  N     -0.175805    4.256581    0.014516
  C      3.029718    2.884147    0.004916
  N      4.130476    3.255960    0.005402
  C      3.536551   -0.169997   -0.009527
  H     -1.658411    2.169831    0.007754
  H     -1.593760   -2.438943   -0.008440
  H      3.971373   -1.174471   -0.014428
  H      4.204852    0.690542   -0.006228

 Multiplicity           Mult            ....    1
 Number of Electrons    NEL             ....  108
 Basis Dimension        Dim             ....  234

ORBITAL ENERGIES
----------------

  NO   OCC          E(Eh)            E(eV)
   0   2.0000     -88.924469     -2419.7578
   1   2.0000     -19.152258      -521.1594
   2   2.0000     -14.356197      -390.6520
   3   2.0000     -14.355312      -390.6279
   4   2.0000     -10.304191      -280.3913
   5   2.0000     -10.286589      -279.9123
   6   2.0000     -10.280128      -279.7365
   7   2.0000     -10.261139      -279.2198
   8   2.0000     -10.260513      -279.2027
   9   2.0000     -10.258148      -279.1384
  10   2.0000     -10.257386      -279.1177
  11   2.0000     -10.245155      -278.7848
  12   2.0000     -10.241169      -278.6764
  13   2.0000     -10.240399      -278.6554
  14   2.0000     -10.231715      -278.4191
  15   2.0000      -8.019140      -218.2119
  16   2.0000      -5.987045      -162.9158
  17   2.0000      -5.982584      -162.7944
  18   2.0000      -5.981281      -162.7589
  19   2.0000      -1.058373       -28.7998
  20   2.0000      -0.942928       -25.6584
  21   2.0000      -0.929215       -25.2852
  22   2.0000      -0.920112       -25.0375
  23   2.0000      -0.882856       -24.0237
  24   2.0000      -0.825123       -22.4527
  25   2.0000      -0.790121       -21.5003
  26   2.0000      -0.768344       -20.9077
  27   2.0000      -0.703355       -19.1393
  28   2.0000      -0.679222       -18.4826
  29   2.0000      -0.622496       -16.9390
  30   2.0000      -0.603142       -16.4123
  31   2.0000      -0.586003       -15.9460
  32   2.0000      -0.559055       -15.2127
  33   2.0000      -0.537339       -14.6217
  34   2.0000      -0.496426       -13.5084
  35   2.0000      -0.470932       -12.8147
  36   2.0000      -0.468688       -12.7537
  37   2.0000      -0.464382       -12.6365
  38   2.0000      -0.451540       -12.2870
  39   2.0000      -0.432314       -11.7639
  40   2.0000      -0.431839       -11.7509
  41   2.0000      -0.415365       -11.3026
  42   2.0000      -0.411499       -11.1975
  43   2.0000      -0.392356       -10.6765
  44   2.0000      -0.390256       -10.6194
  45   2.0000      -0.384467       -10.4619
  46   2.0000      -0.370239       -10.0747
  47   2.0000      -0.368637       -10.0311
  48   2.0000      -0.361085        -9.8256
  49   2.0000      -0.358220        -9.7476
  50   2.0000      -0.304783        -8.2936
  51   2.0000      -0.291735        -7.9385
  52   2.0000      -0.284052        -7.7295
  53   2.0000      -0.270345        -7.3565
  54   0.0000      -0.132178        -3.5968
  55   0.0000      -0.097500        -2.6531
  56   0.0000      -0.044440        -1.2093
  57   0.0000      -0.024659        -0.6710
  58   0.0000       0.004409         0.1200

MULLIKEN ATOMIC CHARGES
-----------------------
   0 C :    0.026248
   1 C :   -0.125678
   2 S :    0.167009
   3 C :   -0.123872
   4 C :    0.024651
   5 C :    0.166825
   6 O :   -0.140434
   7 C :   -0.147300
   8 C :    0.261728
   9 C :   -0.277439
  10 C :   -0.147473
  11 N :    0.110386
  12 C :   -0.149151
  13 N :    0.115020
  14 C :    0.019407
  15 H :    0.058480
  16 H :    0.047752
  17 H :    0.054973
  18 H :    0.058867
Sum of atomic charges:   -0.0000000

LOEWDIN ATOMIC CHARGES
----------------------
   0 C :   -0.057763
   1 C :   -0.154536
   2 S :    0.503618
   3 C :   -0.142879
   4 C :   -0.089755
   5 C :    0.081540
   6 O :   -0.128802
   7 C :   -0.070392
   8 C :    0.064428
   9 C :   -0.119982
  10 C :   -0.007858
  11 N :   -0.053465
  12 C :   -0.013947
  13 N :   -0.046892
  14 C :    0.068287
  15 H :    0.039871
  16 H :    0.041617
  17 H :    0.045409
  18 H :    0.041501

  Mayer bond orders larger than 0.100000
B(  0-C ,  1-C ) :   1.4813 B(  0-C ,  4-C ) :   1.2280 B(  0-C ,  8-C ) :   1.0365
B(  1-C ,  2-S ) :   1.1868 B(  1-C , 15-H ) :   0.9537 B(  2-S ,  3-C ) :   1.1886
B(  3-C ,  4-C ) :   1.5039 B(  3-C , 16-H ) :   0.9672 B(  4-C ,  5-C ) :   0.9434
B(  5-C ,  6-O ) :   2.2341 B(  5-C ,  7-C ) :   0.9089 B(  7-C ,  8-C ) :   1.0068
B(  7-C , 14-C ) :   1.9253 B(  8-C ,  9-C ) :   1.6442 B(  9-C , 10-C ) :   1.1325
B(  9-C , 12-C ) :   1.1373 B( 10-C , 11-N ) :   2.9567 B( 12-C , 13-N ) :   2.9445
B( 14-C , 17-H ) :   0.9107 B( 14-C , 18-H ) :   0.9221

Dispersion correction           -0.049121568
FINAL SINGLE POINT ENERGY     -1003.907966578452

DIPOLE MOMENT
-------------
                                X             Y             Z
Electronic contribution:     -3.40226       2.25649       0.01372
Nuclear contribution   :      2.27824      -3.42867      -0.01539
                        -----------------------------------------
Total Dipole Moment    :     -1.12402      -1.17217      -0.00167
                        -----------------------------------------
Magnitude (a.u.)       :      1.62401
Magnitude (Debye)      :      4.12790

Rotational constants in cm-1:     0.026041     0.016284     0.010019
Rotational constants in MHz :   780.674780   488.189374   300.360975

                             ****ORCA TERMINATED NORMALLY****
TOTAL RUN TIME: 0 days 0 hours 14 minutes 58 seconds 561 msec
