                         Program Version 4.2.0 -  RELEASE  -
|  1> # ORCA input file
|  2> # SCF done        -26.648879078863          0.000187458218
|  3> ! B3LYP/G D3BJ Opt RIJCOSX def2-SVP def2/J
|  4> * xyz 0 1
|  5>    C       -1.33161         0.25684        -0.00090
|  6>    C       -0.37999         1.22600         0.00506
|  7>    C        0.92756         0.70463         0.00251
|  8>    C        0.96090        -0.66516        -0.00540
|  9>    S       -0.65216        -1.32217        -0.00980
| 10>    C        2.10135        -1.52539        -0.01001
| 11>    C        2.13469        -2.89518        -0.01772
| 12>    C        3.44224        -3.41655        -0.02041
| 13>    C        4.39387        -2.44739        -0.01481
| 14>    S        3.71441        -0.86838        -0.00607
| 15>    H       -2.39768         0.36688        -0.00067
| 16>    H       -0.60245         2.27806         0.01105
| 17>    H        1.81849         1.30724         0.00631
| 18>    H        1.24376        -3.49780        -0.02126
| 19>    H        3.66470        -4.46861        -0.02631
| 20>    H        5.45993        -2.55743        -0.01528
| 21> *
| 22>
| 23>                          ****END OF INPUT****
 Total Charge           Charge          ....    0
 Multiplicity           Mult            ....    1
 Number of Electrons    NEL             ....   86
Dispersion correction           -0.038348255
FINAL SINGLE POINT ENERGY     -1104.419626606808
Dispersion correction            ... done
Dispersion correction           -0.038140451
FINAL SINGLE POINT ENERGY     -1104.422668216915
Dispersion correction            ... done
Dispersion correction           -0.038121412
FINAL SINGLE POINT ENERGY     -1104.422728052745
Dispersion correction            ... done
FINAL SINGLE POINT ENERGY     -1104.422727684235
Dispersion correction            ... done
Dispersion correction           -0.038126154
FINAL SINGLE POINT ENERGY     -1104.422716751493
Dispersion correction            ... done
Dispersion correction           -0.038128508
FINAL SINGLE POINT ENERGY     -1104.422712060484
Dispersion correction            ... done
                    ***********************HURRAY********************

CARTESIAN COORDINATES (ANGSTROEM)
---------------------------------
  C     -1.368223    0.274235   -0.000429
  C     -0.407298    1.252694    0.005041
  C      0.915559    0.724663    0.002456
  C      0.953277   -0.656975   -0.005294
  S     -0.671250   -1.310490   -0.008965
  C      2.108971   -1.533578   -0.010157
  C      2.146693   -2.915216   -0.018054
  C      3.469550   -3.443243   -0.020556
  C      4.430473   -2.464785   -0.014875
  S      3.733495   -0.880063   -0.006422
  H     -2.450206    0.398306   -0.000426
  H     -0.641432    2.318464    0.011000
  H      1.817596    1.338132    0.006449
  H      1.244661   -3.528691   -0.022172
  H      3.703690   -4.509010   -0.026565
  H      5.512456   -2.588852   -0.014743

 Multiplicity           Mult            ....    1
 Number of Electrons    NEL             ....   86
 Basis Dimension        Dim             ....  178

ORBITAL ENERGIES
----------------

  NO   OCC          E(Eh)            E(eV)
   0   2.0000     -88.875416     -2418.4230
   1   2.0000     -88.875416     -2418.4230
   2   2.0000     -10.226178      -278.2684
   3   2.0000     -10.226060      -278.2652
   4   2.0000     -10.214249      -277.9438
   5   2.0000     -10.214248      -277.9438
   6   2.0000     -10.196716      -277.4667
   7   2.0000     -10.196710      -277.4666
   8   2.0000     -10.195682      -277.4386
   9   2.0000     -10.195653      -277.4378
  10   2.0000      -7.970471      -216.8875
  11   2.0000      -7.970466      -216.8874
  12   2.0000      -5.938687      -161.5999
  13   2.0000      -5.938684      -161.5998
  14   2.0000      -5.934595      -161.4885
  15   2.0000      -5.934592      -161.4884
  16   2.0000      -5.931586      -161.4066
  17   2.0000      -5.931582      -161.4065
  18   2.0000      -0.891462       -24.2579
  19   2.0000      -0.869476       -23.6596
  20   2.0000      -0.759727       -20.6732
  21   2.0000      -0.741339       -20.1729
  22   2.0000      -0.727680       -19.8012
  23   2.0000      -0.692697       -18.8492
  24   2.0000      -0.595518       -16.2049
  25   2.0000      -0.573315       -15.6007
  26   2.0000      -0.540445       -14.7062
  27   2.0000      -0.527707       -14.3596
  28   2.0000      -0.522438       -14.2163
  29   2.0000      -0.472631       -12.8609
  30   2.0000      -0.416377       -11.3302
  31   2.0000      -0.413917       -11.2632
  32   2.0000      -0.405569       -11.0361
  33   2.0000      -0.400677       -10.9030
  34   2.0000      -0.400383       -10.8950
  35   2.0000      -0.375554       -10.2193
  36   2.0000      -0.371806       -10.1174
  37   2.0000      -0.354880        -9.6568
  38   2.0000      -0.339757        -9.2453
  39   2.0000      -0.282084        -7.6759
  40   2.0000      -0.261831        -7.1248
  41   2.0000      -0.254680        -6.9302
  42   2.0000      -0.208255        -5.6669
  43   0.0000      -0.052894        -1.4393
  44   0.0000       0.009218         0.2508
  45   0.0000       0.031892         0.8678
  46   0.0000       0.035192         0.9576
  47   0.0000       0.051916         1.4127

MULLIKEN ATOMIC CHARGES
-----------------------
   0 C :   -0.078899
   1 C :    0.038724
   2 C :   -0.014882
   3 C :   -0.064093
   4 S :    0.102648
   5 C :   -0.064082
   6 C :   -0.014895
   7 C :    0.038717
   8 C :   -0.078892
   9 S :    0.102645
  10 H :    0.031949
  11 H :   -0.006972
  12 H :   -0.008473
  13 H :   -0.008472
  14 H :   -0.006969
  15 H :    0.031948
Sum of atomic charges:    0.0000000

LOEWDIN ATOMIC CHARGES
----------------------
   0 C :   -0.189621
   1 C :   -0.064006
   2 C :   -0.069553
   3 C :   -0.184242
   4 S :    0.423775
   5 C :   -0.184243
   6 C :   -0.069553
   7 C :   -0.064006
   8 C :   -0.189621
   9 S :    0.423776
  10 H :    0.026240
  11 H :    0.031112
  12 H :    0.026296
  13 H :    0.026297
  14 H :    0.031111
  15 H :    0.026240

  Mayer bond orders larger than 0.100000
B(  0-C ,  1-C ) :   1.5577 B(  0-C ,  4-S ) :   1.1505 B(  0-C , 10-H ) :   0.9697
B(  1-C ,  2-C ) :   1.2535 B(  1-C , 11-H ) :   0.9894 B(  2-C ,  3-C ) :   1.5170
B(  2-C , 12-H ) :   0.9869 B(  3-C ,  4-S ) :   1.1373 B(  3-C ,  5-C ) :   1.1434
B(  5-C ,  6-C ) :   1.5170 B(  5-C ,  9-S ) :   1.1373 B(  6-C ,  7-C ) :   1.2536
B(  6-C , 13-H ) :   0.9869 B(  7-C ,  8-C ) :   1.5577 B(  7-C , 14-H ) :   0.9894
B(  8-C ,  9-S ) :   1.1505 B(  8-C , 15-H ) :   0.9697

Dispersion correction           -0.038127715
FINAL SINGLE POINT ENERGY     -1104.422714634388

DIPOLE MOMENT
-------------
                                X             Y             Z
Electronic contribution:     -0.00002      -0.00000       0.00012
Nuclear contribution   :      0.00002       0.00000      -0.00014
                        -----------------------------------------
Total Dipole Moment    :     -0.00000      -0.00000      -0.00002
                        -----------------------------------------
Magnitude (a.u.)       :      0.00002
Magnitude (Debye)      :      0.00006

Rotational constants in cm-1:     0.088842     0.021702     0.017441
Rotational constants in MHz :  2663.419430   650.597131   522.873989

                             ****ORCA TERMINATED NORMALLY****
TOTAL RUN TIME: 0 days 0 hours 5 minutes 30 seconds 346 msec
