                         Program Version 4.2.0 -  RELEASE  -
|  1> # ORCA input file
|  2> # SCF done        -19.316691732546          0.000167010087
|  3> ! B3LYP/G D3BJ Opt RIJCOSX def2-SVP def2/J
|  4> * xyz 0 1
|  5>    C       -0.76630         1.14084        -0.00573
|  6>    C        0.61638         1.22094         0.00543
|  7>    C        1.36505         0.05570         0.00144
|  8>    C        0.74279        -1.17683        -0.01493
|  9>    C       -0.64942        -1.26544        -0.02528
| 10>    C       -1.39683        -0.08748        -0.02210
| 11>    N       -1.27589        -2.49551         0.03265
| 12>    H       -1.35976         2.04385        -0.00554
| 13>    H        1.10612         2.18291         0.01439
| 14>    H        2.44439         0.10703         0.00694
| 15>    H        1.32998        -2.08470        -0.01883
| 16>    H       -2.47637        -0.14676        -0.03136
| 17>    H       -0.72841        -3.28845        -0.26023
| 18>    H       -2.23758        -2.52007        -0.26532
| 19> *
| 20>
| 21>                          ****END OF INPUT****
 Total Charge           Charge          ....    0
 Multiplicity           Mult            ....    1
 Number of Electrons    NEL             ....   50
Dispersion correction           -0.022937585
FINAL SINGLE POINT ENERGY      -287.423275381379
Dispersion correction            ... done
Dispersion correction           -0.022798854
FINAL SINGLE POINT ENERGY      -287.425024287764
Dispersion correction            ... done
Dispersion correction           -0.022782787
FINAL SINGLE POINT ENERGY      -287.425069836117
Dispersion correction            ... done
FINAL SINGLE POINT ENERGY      -287.425071041011
FINAL SINGLE POINT ENERGY      -287.425060657854
Dispersion correction            ... done
Dispersion correction           -0.022785054
FINAL SINGLE POINT ENERGY      -287.425055741845
Dispersion correction            ... done
Dispersion correction           -0.022786609
FINAL SINGLE POINT ENERGY      -287.425054961322
Dispersion correction            ... done
                    ***********************HURRAY********************

CARTESIAN COORDINATES (ANGSTROEM)
---------------------------------
  C     -0.769179    1.154251   -0.006886
  C      0.626242    1.240541    0.000481
  C      1.374484    0.059584   -0.001703
  C      0.746052   -1.184371   -0.005626
  C     -0.658841   -1.278318   -0.004046
  C     -1.407862   -0.085383   -0.011475
  N     -1.287135   -2.517175    0.052617
  H     -1.373427    2.065080   -0.009753
  H      1.125138    2.211772    0.006318
  H      2.466973    0.105558   -0.002368
  H      1.341891   -2.101437   -0.007112
  H     -2.500712   -0.140143   -0.014799
  H     -0.735025   -3.301450   -0.275956
  H     -2.234449   -2.542478   -0.308163

 Multiplicity           Mult            ....    1
 Number of Electrons    NEL             ....   50
 Basis Dimension        Dim             ....  133

ORBITAL ENERGIES
----------------

  NO   OCC          E(Eh)            E(eV)
   0   2.0000     -14.333370      -390.0308
   1   2.0000     -10.223845      -278.2050
   2   2.0000     -10.183847      -277.1166
   3   2.0000     -10.183803      -277.1154
   4   2.0000     -10.178848      -276.9805
   5   2.0000     -10.178433      -276.9692
   6   2.0000     -10.173506      -276.8352
   7   2.0000      -0.908674       -24.7263
   8   2.0000      -0.823290       -22.4029
   9   2.0000      -0.730636       -19.8816
  10   2.0000      -0.712348       -19.3840
  11   2.0000      -0.602558       -16.3964
  12   2.0000      -0.589141       -16.0313
  13   2.0000      -0.519958       -14.1488
  14   2.0000      -0.505512       -13.7557
  15   2.0000      -0.471418       -12.8279
  16   2.0000      -0.427176       -11.6240
  17   2.0000      -0.425014       -11.5652
  18   2.0000      -0.413264       -11.2455
  19   2.0000      -0.381149       -10.3716
  20   2.0000      -0.354744        -9.6531
  21   2.0000      -0.337581        -9.1861
  22   2.0000      -0.309650        -8.4260
  23   2.0000      -0.248613        -6.7651
  24   2.0000      -0.204055        -5.5526
  25   0.0000      -0.001718        -0.0467
  26   0.0000       0.014167         0.3855
  27   0.0000       0.054032         1.4703
  28   0.0000       0.072774         1.9803
  29   0.0000       0.087422         2.3789

MULLIKEN ATOMIC CHARGES
-----------------------
   0 C :    0.019979
   1 C :    0.014732
   2 C :    0.003148
   3 C :   -0.020871
   4 C :    0.057747
   5 C :   -0.034203
   6 N :   -0.086854
   7 H :   -0.023199
   8 H :   -0.029646
   9 H :   -0.016611
  10 H :   -0.049095
  11 H :   -0.044152
  12 H :    0.103944
  13 H :    0.105081
Sum of atomic charges:   -0.0000000

LOEWDIN ATOMIC CHARGES
----------------------
   0 C :   -0.016124
   1 C :   -0.061159
   2 C :   -0.018624
   3 C :   -0.068458
   4 C :    0.022540
   5 C :   -0.070584
   6 N :   -0.037281
   7 H :    0.025127
   8 H :    0.021730
   9 H :    0.026199
  10 H :    0.018923
  11 H :    0.019906
  12 H :    0.068716
  13 H :    0.069090

  Mayer bond orders larger than 0.100000
B(  0-C ,  1-C ) :   1.3739 B(  0-C ,  5-C ) :   1.3941 B(  0-C ,  7-H ) :   0.9812
B(  1-C ,  2-C ) :   1.3715 B(  1-C ,  8-H ) :   0.9894 B(  2-C ,  3-C ) :   1.3956
B(  2-C ,  9-H ) :   0.9819 B(  3-C ,  4-C ) :   1.3390 B(  3-C , 10-H ) :   0.9859
B(  4-C ,  5-C ) :   1.3379 B(  4-C ,  6-N ) :   1.1982 B(  5-C , 11-H ) :   0.9868
B(  6-N , 12-H ) :   0.9536 B(  6-N , 13-H ) :   0.9524

Dispersion correction           -0.022786669
FINAL SINGLE POINT ENERGY      -287.425055520878

DIPOLE MOMENT
-------------
                                X             Y             Z
Electronic contribution:      0.04341       0.10411       0.17691
Nuclear contribution   :     -0.31483      -0.65675      -0.55741
                        -----------------------------------------
Total Dipole Moment    :     -0.27143      -0.55265      -0.38050
                        -----------------------------------------
Magnitude (a.u.)       :      0.72379
Magnitude (Debye)      :      1.83972

Rotational constants in cm-1:     0.186696     0.086188     0.059055
Rotational constants in MHz :  5596.995292  2583.864693  1770.411985

                             ****ORCA TERMINATED NORMALLY****
TOTAL RUN TIME: 0 days 0 hours 3 minutes 11 seconds 721 msec
