                         Program Version 4.2.0 -  RELEASE  -
|  1> # ORCA input file
|  2> # SCF done        -43.114258671249          0.000957126598
|  3> ! B3LYP/G D3BJ Opt RIJCOSX def2-SVP def2/J
|  4> * xyz 0 1
|  5>    C        0.16536        -1.44361        -0.06975
|  6>    C       -1.01332        -0.70492        -0.06901
|  7>    C       -0.99298         0.73812         0.02961
|  8>    N       -2.15238         1.43331         0.02605
|  9>    C       -3.27358         0.77686        -0.06788
| 10>    C       -3.29397        -0.66616        -0.16530
| 11>    N       -2.19180        -1.36046        -0.16364
| 12>    C       -4.54147        -1.33592        -0.26507
| 13>    N       -5.56649        -1.84024        -0.34345
| 14>    C       -4.50149         1.48889        -0.07572
| 15>    N       -5.51195         2.02777        -0.08421
| 16>    C        0.20593         1.43664         0.12774
| 17>    C        1.38263         0.70160         0.12600
| 18>    C        1.36221        -0.74847         0.02640
| 19>    N        2.60369        -1.25868         0.04171
| 20>    S        3.64976        -0.06166         0.16563
| 21>    N        2.63789         1.16993         0.20851
| 22>    H        0.13540        -2.51782        -0.14381
| 23>    H        0.20623         2.51133         0.20094
| 24> *
| 25>
| 26>                          ****END OF INPUT****
 Total Charge           Charge          ....    0
 Multiplicity           Mult            ....    1
 Number of Electrons    NEL             ....  120
Dispersion correction           -0.050978189
FINAL SINGLE POINT ENERGY     -1108.295820481958
Dispersion correction            ... done
Dispersion correction           -0.050634897
FINAL SINGLE POINT ENERGY     -1108.300873696105
Dispersion correction            ... done
Dispersion correction           -0.050574144
FINAL SINGLE POINT ENERGY     -1108.301354992798
Dispersion correction            ... done
FINAL SINGLE POINT ENERGY     -1108.301478405338
FINAL SINGLE POINT ENERGY     -1108.301493055636
FINAL SINGLE POINT ENERGY     -1108.301503960261
FINAL SINGLE POINT ENERGY     -1108.301511583871
Dispersion correction            ... done
Dispersion correction           -0.050588306
FINAL SINGLE POINT ENERGY     -1108.301513494960
Dispersion correction            ... done
Dispersion correction           -0.050586960
FINAL SINGLE POINT ENERGY     -1108.301514289475
Dispersion correction            ... done
                    ***********************HURRAY********************

CARTESIAN COORDINATES (ANGSTROEM)
---------------------------------
  C      0.169378   -1.449753   -0.081368
  C     -1.010733   -0.709696   -0.095335
  C     -0.989635    0.747218    0.001637
  N     -2.164490    1.448868    0.010505
  C     -3.282951    0.785080   -0.069206
  C     -3.303444   -0.672443   -0.177769
  N     -2.204137   -1.371874   -0.191850
  C     -4.563615   -1.367121   -0.267819
  N     -5.584650   -1.911788   -0.337612
  C     -4.523841    1.518634   -0.045044
  N     -5.530889    2.092586   -0.025241
  C      0.212017    1.446216    0.096130
  C      1.411606    0.708441    0.117242
  C      1.388935   -0.754585    0.031616
  N      2.618152   -1.300794    0.081515
  S      3.673073   -0.067068    0.219654
  N      2.658204    1.207457    0.224945
  H      0.131733   -2.536707   -0.153364
  H      0.204956    2.533839    0.166114

 Multiplicity           Mult            ....    1
 Number of Electrons    NEL             ....  120
 Basis Dimension        Dim             ....  252

ORBITAL ENERGIES
----------------

  NO   OCC          E(Eh)            E(eV)
   0   2.0000     -88.978836     -2421.2372
   1   2.0000     -14.394449      -391.6929
   2   2.0000     -14.394308      -391.6890
   3   2.0000     -14.393495      -391.6669
   4   2.0000     -14.393372      -391.6636
   5   2.0000     -14.361987      -390.8095
   6   2.0000     -14.361919      -390.8077
   7   2.0000     -10.316268      -280.7199
   8   2.0000     -10.316102      -280.7154
   9   2.0000     -10.283540      -279.8294
  10   2.0000     -10.283336      -279.8238
  11   2.0000     -10.282020      -279.7880
  12   2.0000     -10.281838      -279.7830
  13   2.0000     -10.256102      -279.0827
  14   2.0000     -10.256035      -279.0809
  15   2.0000     -10.248368      -278.8723
  16   2.0000     -10.248207      -278.8679
  17   2.0000      -8.069562      -219.5840
  18   2.0000      -6.039156      -164.3338
  19   2.0000      -6.031829      -164.1344
  20   2.0000      -6.031636      -164.1292
  21   2.0000      -1.055917       -28.7330
  22   2.0000      -1.034907       -28.1613
  23   2.0000      -0.967930       -26.3387
  24   2.0000      -0.929921       -25.3044
  25   2.0000      -0.922725       -25.1086
  26   2.0000      -0.920851       -25.0576
  27   2.0000      -0.892204       -24.2781
  28   2.0000      -0.823215       -22.4008
  29   2.0000      -0.799500       -21.7555
  30   2.0000      -0.756091       -20.5743
  31   2.0000      -0.719087       -19.5673
  32   2.0000      -0.673000       -18.3133
  33   2.0000      -0.645052       -17.5528
  34   2.0000      -0.629918       -17.1409
  35   2.0000      -0.605870       -16.4866
  36   2.0000      -0.583500       -15.8778
  37   2.0000      -0.560952       -15.2643
  38   2.0000      -0.530645       -14.4396
  39   2.0000      -0.504320       -13.7232
  40   2.0000      -0.491459       -13.3733
  41   2.0000      -0.486313       -13.2332
  42   2.0000      -0.469139       -12.7659
  43   2.0000      -0.467628       -12.7248
  44   2.0000      -0.423254       -11.5173
  45   2.0000      -0.419579       -11.4173
  46   2.0000      -0.412205       -11.2167
  47   2.0000      -0.390056       -10.6140
  48   2.0000      -0.388053       -10.5595
  49   2.0000      -0.378794       -10.3075
  50   2.0000      -0.378166       -10.2904
  51   2.0000      -0.375098       -10.2069
  52   2.0000      -0.363661        -9.8957
  53   2.0000      -0.358608        -9.7582
  54   2.0000      -0.358424        -9.7532
  55   2.0000      -0.350426        -9.5356
  56   2.0000      -0.335262        -9.1229
  57   2.0000      -0.304791        -8.2938
  58   2.0000      -0.304654        -8.2900
  59   2.0000      -0.270971        -7.3735
  60   0.0000      -0.159217        -4.3325
  61   0.0000      -0.097791        -2.6610
  62   0.0000      -0.095156        -2.5893
  63   0.0000      -0.030035        -0.8173
  64   0.0000      -0.012301        -0.3347

MULLIKEN ATOMIC CHARGES
-----------------------
   0 C :   -0.030904
   1 C :    0.039688
   2 C :    0.038227
   3 N :    0.015517
   4 C :   -0.118465
   5 C :   -0.120674
   6 N :    0.015183
   7 C :   -0.153992
   8 N :    0.184898
   9 C :   -0.154276
  10 N :    0.184459
  11 C :   -0.031399
  12 C :    0.082611
  13 C :    0.081396
  14 N :   -0.277193
  15 S :    0.530719
  16 N :   -0.276987
  17 H :   -0.004330
  18 H :   -0.004479
Sum of atomic charges:   -0.0000000

LOEWDIN ATOMIC CHARGES
----------------------
   0 C :    0.008098
   1 C :   -0.006677
   2 C :   -0.006592
   3 N :   -0.006560
   4 C :   -0.023769
   5 C :   -0.023762
   6 N :   -0.006529
   7 C :   -0.029419
   8 N :   -0.008724
   9 C :   -0.029387
  10 N :   -0.008775
  11 C :    0.007940
  12 C :   -0.045682
  13 C :   -0.045930
  14 N :   -0.276298
  15 S :    0.675985
  16 N :   -0.276616
  17 H :    0.051399
  18 H :    0.051299

  Mayer bond orders larger than 0.100000
B(  0-C ,  1-C ) :   1.3256 B(  0-C , 11-C ) :   0.1610 B(  0-C , 13-C ) :   1.1975
B(  0-C , 17-H ) :   1.0344 B(  1-C ,  2-C ) :   1.1170 B(  1-C ,  6-N ) :   1.3210
B(  2-C ,  3-N ) :   1.3223 B(  2-C , 11-C ) :   1.3264 B(  3-N ,  4-C ) :   1.7697
B(  4-C ,  5-C ) :   1.1327 B(  4-C ,  9-C ) :   1.1309 B(  5-C ,  6-N ) :   1.7705
B(  5-C ,  7-C ) :   1.1320 B(  7-C ,  8-N ) :   3.0229 B(  9-C , 10-N ) :   3.0229
B( 11-C , 12-C ) :   1.1972 B( 11-C , 18-H ) :   1.0345 B( 12-C , 13-C ) :   1.1131
B( 12-C , 16-N ) :   1.4393 B( 13-C , 14-N ) :   1.4401 B( 14-N , 15-S ) :   1.2864
B( 14-N , 16-N ) :   0.1763 B( 15-S , 16-N ) :   1.2863

Dispersion correction           -0.050586045
FINAL SINGLE POINT ENERGY     -1108.301513949867

DIPOLE MOMENT
-------------
                                X             Y             Z
Electronic contribution:      0.94738      -0.01885       0.06903
Nuclear contribution   :      1.72373      -0.02492       0.02134
                        -----------------------------------------
Total Dipole Moment    :      2.67111      -0.04377       0.09037
                        -----------------------------------------
Magnitude (a.u.)       :      2.67299
Magnitude (Debye)      :      6.79421

Rotational constants in cm-1:     0.046082     0.007348     0.006339
Rotational constants in MHz :  1381.508577   220.300325   190.024990

                             ****ORCA TERMINATED NORMALLY****
TOTAL RUN TIME: 0 days 0 hours 16 minutes 56 seconds 925 msec
