                         Program Version 4.2.0 -  RELEASE  -
|  1> # ORCA input file
|  2> # SCF done        -43.848469657614          0.000493965796
|  3> ! B3LYP/G D3BJ Opt RIJCOSX def2-SVP def2/J
|  4> * xyz 0 1
|  5>    C       -1.13199        -1.41118         0.00083
|  6>    C       -1.21089        -2.77256         0.00243
|  7>    C       -2.41848        -3.50693         0.00336
|  8>    N       -3.35761        -4.16560         0.00381
|  9>    C       -0.09331        -3.63738         0.00385
| 10>    N        0.77247        -4.39009         0.00601
| 11>    C        0.08766        -0.61274        -0.00006
| 12>    C       -0.24651         0.75661         0.00184
| 13>    C        0.73494         1.73031         0.00156
| 14>    C        2.06197         1.33181        -0.00112
| 15>    C        2.41374        -0.01691        -0.00352
| 16>    C        1.41940        -0.99448        -0.00283
| 17>    C        3.84847        -0.43663        -0.00705
| 18>    C       -1.70744         0.91564         0.00312
| 19>    O       -2.35136         1.93757         0.00557
| 20>    C       -2.26147        -0.47918         0.00173
| 21>    C       -3.57545        -0.71037         0.00030
| 22>    H        0.45983         2.77375         0.00321
| 23>    H        2.84206         2.07889        -0.00147
| 24>    H        1.70447        -2.03449        -0.00472
| 25>    H        4.51168         0.42391        -0.00600
| 26>    H        4.06041        -1.04224        -0.88708
| 27>    H        4.06353        -1.04693         0.86895
| 28>    H       -4.24560         0.13506        -0.00114
| 29>    H       -4.01533        -1.69187        -0.00377
| 30> *
| 31>
| 32>                          ****END OF INPUT****
 Total Charge           Charge          ....    0
 Multiplicity           Mult            ....    1
 Number of Electrons    NEL             ....  114
Dispersion correction           -0.059421003
FINAL SINGLE POINT ENERGY      -722.505277514447
Dispersion correction            ... done
Dispersion correction           -0.058994000
FINAL SINGLE POINT ENERGY      -722.509737713462
Dispersion correction            ... done
Dispersion correction           -0.058957345
FINAL SINGLE POINT ENERGY      -722.509999157502
Dispersion correction            ... done
FINAL SINGLE POINT ENERGY      -722.510102306604
FINAL SINGLE POINT ENERGY      -722.510110663848
FINAL SINGLE POINT ENERGY      -722.510127799040
Dispersion correction            ... done
Dispersion correction           -0.059041420
FINAL SINGLE POINT ENERGY      -722.510142671203
Dispersion correction            ... done
Dispersion correction           -0.059044306
FINAL SINGLE POINT ENERGY      -722.510145682085
Dispersion correction            ... done
                    ***********************HURRAY********************

CARTESIAN COORDINATES (ANGSTROEM)
---------------------------------
  C     -1.145649   -1.446947    0.000514
  C     -1.220591   -2.820718    0.000975
  C     -2.466723   -3.523256    0.002653
  N     -3.474057   -4.101117    0.003755
  C     -0.063911   -3.663344    0.000004
  N      0.867981   -4.356321   -0.000197
  C      0.089794   -0.635219   -0.000933
  C     -0.249740    0.736936   -0.000369
  C      0.722564    1.729566   -0.001295
  C      2.063576    1.342818   -0.002594
  C      2.434388   -0.016732   -0.003043
  C      1.438818   -1.007404   -0.002343
  C      3.883606   -0.425390   -0.004352
  C     -1.719435    0.895478    0.001490
  O     -2.355115    1.926169    0.003057
  C     -2.285172   -0.506293    0.001810
  C     -3.614565   -0.702106    0.002991
  H      0.423576    2.779962   -0.000903
  H      2.846594    2.105184   -0.003273
  H      1.739828   -2.053437   -0.002735
  H      4.551885    0.446648   -0.000861
  H      4.118996   -1.036397   -0.890719
  H      4.118720   -1.043325    0.877196
  H     -4.248274    0.190184    0.003805
  H     -4.091903   -1.680969    0.003175

 Multiplicity           Mult            ....    1
 Number of Electrons    NEL             ....  114
 Basis Dimension        Dim             ....  278

ORBITAL ENERGIES
----------------

  NO   OCC          E(Eh)            E(eV)
   0   2.0000     -19.147524      -521.0306
   1   2.0000     -14.353841      -390.5879
   2   2.0000     -14.353361      -390.5748
   3   2.0000     -10.294655      -280.1318
   4   2.0000     -10.285229      -279.8753
   5   2.0000     -10.275752      -279.6174
   6   2.0000     -10.256331      -279.0890
   7   2.0000     -10.255601      -279.0691
   8   2.0000     -10.243157      -278.7305
   9   2.0000     -10.237885      -278.5870
  10   2.0000     -10.236943      -278.5614
  11   2.0000     -10.234785      -278.5027
  12   2.0000     -10.230240      -278.3790
  13   2.0000     -10.229166      -278.3497
  14   2.0000     -10.227031      -278.2917
  15   2.0000     -10.224320      -278.2179
  16   2.0000     -10.213089      -277.9123
  17   2.0000      -1.052920       -28.6514
  18   2.0000      -0.936186       -25.4749
  19   2.0000      -0.918609       -24.9966
  20   2.0000      -0.912907       -24.8415
  21   2.0000      -0.868933       -23.6449
  22   2.0000      -0.825099       -22.4521
  23   2.0000      -0.797575       -21.7031
  24   2.0000      -0.783686       -21.3252
  25   2.0000      -0.733307       -19.9543
  26   2.0000      -0.702933       -19.1278
  27   2.0000      -0.665564       -18.1109
  28   2.0000      -0.632725       -17.2173
  29   2.0000      -0.614365       -16.7177
  30   2.0000      -0.594897       -16.1880
  31   2.0000      -0.561212       -15.2713
  32   2.0000      -0.539260       -14.6740
  33   2.0000      -0.511379       -13.9153
  34   2.0000      -0.498212       -13.5570
  35   2.0000      -0.477911       -13.0046
  36   2.0000      -0.466750       -12.7009
  37   2.0000      -0.465850       -12.6764
  38   2.0000      -0.455053       -12.3826
  39   2.0000      -0.444552       -12.0969
  40   2.0000      -0.441013       -12.0006
  41   2.0000      -0.428067       -11.6483
  42   2.0000      -0.424898       -11.5621
  43   2.0000      -0.411364       -11.1938
  44   2.0000      -0.393300       -10.7022
  45   2.0000      -0.388940       -10.5836
  46   2.0000      -0.386630       -10.5207
  47   2.0000      -0.385090       -10.4788
  48   2.0000      -0.383087       -10.4243
  49   2.0000      -0.368512       -10.0277
  50   2.0000      -0.361524        -9.8376
  51   2.0000      -0.354467        -9.6455
  52   2.0000      -0.353390        -9.6162
  53   2.0000      -0.300899        -8.1879
  54   2.0000      -0.284540        -7.7427
  55   2.0000      -0.279153        -7.5961
  56   2.0000      -0.270339        -7.3563
  57   0.0000      -0.128466        -3.4957
  58   0.0000      -0.101356        -2.7580
  59   0.0000      -0.036831        -1.0022
  60   0.0000      -0.022999        -0.6258
  61   0.0000      -0.002767        -0.0753

MULLIKEN ATOMIC CHARGES
-----------------------
   0 C :    0.264648
   1 C :   -0.292418
   2 C :   -0.148073
   3 N :    0.110759
   4 C :   -0.135186
   5 N :    0.108260
   6 C :    0.047467
   7 C :   -0.020034
   8 C :   -0.010263
   9 C :    0.010924
  10 C :   -0.035352
  11 C :   -0.059780
  12 C :    0.080898
  13 C :    0.147964
  14 O :   -0.147992
  15 C :   -0.125600
  16 C :    0.012360
  17 H :   -0.001891
  18 H :   -0.008476
  19 H :   -0.007607
  20 H :    0.015758
  21 H :    0.041680
  22 H :    0.041656
  23 H :    0.054273
  24 H :    0.056023
Sum of atomic charges:    0.0000000

LOEWDIN ATOMIC CHARGES
----------------------
   0 C :    0.065986
   1 C :   -0.117664
   2 C :   -0.010371
   3 N :   -0.048044
   4 C :   -0.010039
   5 N :   -0.051602
   6 C :   -0.008542
   7 C :   -0.049316
   8 C :    0.018029
   9 C :   -0.003299
  10 C :    0.003353
  11 C :   -0.001723
  12 C :   -0.042411
  13 C :    0.079559
  14 O :   -0.133793
  15 C :   -0.071993
  16 C :    0.066762
  17 H :    0.041506
  18 H :    0.033054
  19 H :    0.036848
  20 H :    0.031256
  21 H :    0.044072
  22 H :    0.044019
  23 H :    0.044318
  24 H :    0.040035

  Mayer bond orders larger than 0.100000
B(  0-C ,  1-C ) :   1.6385 B(  0-C ,  6-C ) :   1.0136 B(  0-C , 15-C ) :   1.0031
B(  1-C ,  2-C ) :   1.1376 B(  1-C ,  4-C ) :   1.1327 B(  2-C ,  3-N ) :   2.9429
B(  4-C ,  5-N ) :   2.9340 B(  6-C ,  7-C ) :   1.3037 B(  6-C , 11-C ) :   1.3450
B(  7-C ,  8-C ) :   1.3571 B(  7-C , 13-C ) :   0.9512 B(  8-C ,  9-C ) :   1.3433
B(  8-C , 17-H ) :   1.0021 B(  9-C , 10-C ) :   1.3617 B(  9-C , 18-H ) :   0.9832
B( 10-C , 11-C ) :   1.3456 B( 10-C , 12-C ) :   1.0636 B( 11-C , 19-H ) :   0.9866
B( 12-C , 20-H ) :   0.9577 B( 12-C , 21-H ) :   0.9510 B( 12-C , 22-H ) :   0.9511
B( 13-C , 14-O ) :   2.2284 B( 13-C , 15-C ) :   0.9101 B( 15-C , 16-C ) :   1.9201
B( 16-C , 23-H ) :   0.9115 B( 16-C , 24-H ) :   0.9207

Dispersion correction           -0.059044496
FINAL SINGLE POINT ENERGY      -722.510146506187

DIPOLE MOMENT
-------------
                                X             Y             Z
Electronic contribution:    -10.58831      -5.48126       0.01147
Nuclear contribution   :     11.91230       6.84003      -0.01440
                        -----------------------------------------
Total Dipole Moment    :      1.32399       1.35876      -0.00293
                        -----------------------------------------
Magnitude (a.u.)       :      1.89715
Magnitude (Debye)      :      4.82218

Rotational constants in cm-1:     0.021779     0.014318     0.008653
Rotational constants in MHz :   652.912899   429.232845   259.396546

                             ****ORCA TERMINATED NORMALLY****
TOTAL RUN TIME: 0 days 0 hours 20 minutes 4 seconds 878 msec
