                         Program Version 4.2.0 -  RELEASE  -
|  1> # ORCA input file
|  2> # SCF done        -34.880758534877          0.000453536999
|  3> ! B3LYP/G D3BJ Opt RIJCOSX def2-SVP def2/J
|  4> * xyz 0 1
|  5>    C       -1.28308         0.50208        -0.56415
|  6>    C       -0.20575         1.28102        -0.27630
|  7>    C        0.94613         0.52846         0.01625
|  8>    C        0.70531        -0.82897        -0.05936
|  9>    S       -0.92685        -1.18303        -0.48813
| 10>    C        1.78910        -1.71469         0.21777
| 11>    C        3.01015        -1.15772         0.54246
| 12>   Ge        2.83148         0.80222         0.51125
| 13>    C        3.07685         1.65622         2.28740
| 14>    C        3.91343         1.68465        -0.90155
| 15>    C        3.98314        -2.14175         0.79454
| 16>    C        3.49872        -3.40586         0.66062
| 17>    S        1.83254        -3.43826         0.22022
| 18>    H       -2.27857         0.80845        -0.82001
| 19>    H       -0.23552         2.35698        -0.27335
| 20>    H        2.75727         2.69353         2.25283
| 21>    H        4.12261         1.62658         2.57710
| 22>    H        2.49205         1.13684         3.03983
| 23>    H        3.72596         1.22280        -1.86545
| 24>    H        4.97110         1.59699        -0.67350
| 25>    H        3.66041         2.73829        -0.96498
| 26>    H        5.00157        -1.92272         1.06547
| 27>    H        4.01654        -4.33566         0.79363
| 28> *
| 29>
| 30>                          ****END OF INPUT****
 Total Charge           Charge          ....    0
 Multiplicity           Mult            ....    1
 Number of Electrons    NEL             ....  134
Dispersion correction           -0.057887421
FINAL SINGLE POINT ENERGY     -3259.803209909482
Dispersion correction            ... done
Dispersion correction           -0.057872369
FINAL SINGLE POINT ENERGY     -3259.807611669412
Dispersion correction            ... done
Dispersion correction           -0.057920894
FINAL SINGLE POINT ENERGY     -3259.807840172417
Dispersion correction            ... done
FINAL SINGLE POINT ENERGY     -3259.807827540432
FINAL SINGLE POINT ENERGY     -3259.807775185814
FINAL SINGLE POINT ENERGY     -3259.807765945791
FINAL SINGLE POINT ENERGY     -3259.807711044913
FINAL SINGLE POINT ENERGY     -3259.807635841195
FINAL SINGLE POINT ENERGY     -3259.807588450972
FINAL SINGLE POINT ENERGY     -3259.807533340422
Dispersion correction            ... done
Dispersion correction           -0.058060567
FINAL SINGLE POINT ENERGY     -3259.807515630021
Dispersion correction            ... done
Dispersion correction           -0.058063570
FINAL SINGLE POINT ENERGY     -3259.807499644999
Dispersion correction            ... done
                    ***********************HURRAY********************

CARTESIAN COORDINATES (ANGSTROEM)
---------------------------------
  C     -1.333243    0.546094   -0.518282
  C     -0.218872    1.328604   -0.317209
  C      0.952411    0.567009   -0.039011
  C      0.692380   -0.800588   -0.041467
  S     -0.973803   -1.148793   -0.375537
  C      1.798322   -1.705721    0.237728
  C      3.047128   -1.146280    0.490353
  Ge     2.843938    0.806427    0.443692
  C      3.049205    1.554320    2.245439
  C      3.936004    1.724423   -0.900882
  C      4.029642   -2.138579    0.765032
  C      3.526374   -3.419020    0.714904
  S      1.830466   -3.438151    0.331610
  H     -2.345446    0.865320   -0.761459
  H     -0.249321    2.418350   -0.376133
  H      2.751713    2.613904    2.276365
  H      4.094397    1.467081    2.579668
  H      2.409505    0.987840    2.936574
  H      3.922180    1.155844   -1.841734
  H      4.976223    1.814232   -0.552095
  H      3.541559    2.733944   -1.091223
  H      5.073217   -1.921893    1.001568
  H      4.050608   -4.357918    0.884689

 Multiplicity           Mult            ....    1
 Number of Electrons    NEL             ....  134
 Basis Dimension        Dim             ....  258

ORBITAL ENERGIES
----------------

  NO   OCC          E(Eh)            E(eV)
   0   2.0000    -398.688691    -10848.8708
   1   2.0000     -88.873228     -2418.3635
   2   2.0000     -88.873024     -2418.3579
   3   2.0000     -49.754068     -1353.8770
   4   2.0000     -44.289228     -1205.1712
   5   2.0000     -44.288605     -1205.1542
   6   2.0000     -44.288285     -1205.1455
   7   2.0000     -10.218675      -278.0643
   8   2.0000     -10.218254      -278.0528
   9   2.0000     -10.208983      -277.8005
  10   2.0000     -10.208758      -277.7944
  11   2.0000     -10.193811      -277.3877
  12   2.0000     -10.193290      -277.3735
  13   2.0000     -10.182708      -277.0856
  14   2.0000     -10.180009      -277.0121
  15   2.0000     -10.177230      -276.9365
  16   2.0000     -10.176158      -276.9073
  17   2.0000      -7.967965      -216.8193
  18   2.0000      -7.967764      -216.8139
  19   2.0000      -6.204454      -168.8318
  20   2.0000      -5.936000      -161.5268
  21   2.0000      -5.935818      -161.5218
  22   2.0000      -5.932120      -161.4212
  23   2.0000      -5.931909      -161.4155
  24   2.0000      -5.929307      -161.3447
  25   2.0000      -5.929130      -161.3398
  26   2.0000      -4.378783      -119.1527
  27   2.0000      -4.378125      -119.1349
  28   2.0000      -4.377104      -119.1070
  29   2.0000      -1.202582       -32.7239
  30   2.0000      -1.200827       -32.6762
  31   2.0000      -1.200780       -32.6749
  32   2.0000      -1.199634       -32.6437
  33   2.0000      -1.198914       -32.6241
  34   2.0000      -0.886713       -24.1287
  35   2.0000      -0.862258       -23.4632
  36   2.0000      -0.761883       -20.7319
  37   2.0000      -0.736241       -20.0341
  38   2.0000      -0.719811       -19.5870
  39   2.0000      -0.697431       -18.9781
  40   2.0000      -0.677615       -18.4388
  41   2.0000      -0.675706       -18.3869
  42   2.0000      -0.585811       -15.9407
  43   2.0000      -0.572547       -15.5798
  44   2.0000      -0.534896       -14.5553
  45   2.0000      -0.518331       -14.1045
  46   2.0000      -0.491436       -13.3726
  47   2.0000      -0.464390       -12.6367
  48   2.0000      -0.448012       -12.1910
  49   2.0000      -0.415738       -11.3128
  50   2.0000      -0.411952       -11.2098
  51   2.0000      -0.409521       -11.1436
  52   2.0000      -0.409123       -11.1328
  53   2.0000      -0.399816       -10.8796
  54   2.0000      -0.394478       -10.7343
  55   2.0000      -0.391340       -10.6489
  56   2.0000      -0.369242       -10.0476
  57   2.0000      -0.366299        -9.9675
  58   2.0000      -0.359776        -9.7900
  59   2.0000      -0.352036        -9.5794
  60   2.0000      -0.312087        -8.4923
  61   2.0000      -0.301960        -8.2167
  62   2.0000      -0.295858        -8.0507
  63   2.0000      -0.275447        -7.4953
  64   2.0000      -0.253118        -6.8877
  65   2.0000      -0.250974        -6.8294
  66   2.0000      -0.199924        -5.4402
  67   0.0000      -0.050168        -1.3652
  68   0.0000       0.018303         0.4980
  69   0.0000       0.026901         0.7320
  70   0.0000       0.028050         0.7633
  71   0.0000       0.042147         1.1469

MULLIKEN ATOMIC CHARGES
-----------------------
   0 C :   -0.086196
   1 C :    0.010729
   2 C :   -0.100954
   3 C :   -0.117507
   4 S :    0.119550
   5 C :   -0.110200
   6 C :   -0.107834
   7 Ge:    0.430468
   8 C :   -0.186557
   9 C :   -0.185547
  10 C :    0.016740
  11 C :   -0.090990
  12 S :    0.120189
  13 H :    0.022203
  14 H :   -0.012909
  15 H :    0.039601
  16 H :    0.039094
  17 H :    0.054361
  18 H :    0.054830
  19 H :    0.041114
  20 H :    0.041244
  21 H :   -0.015056
  22 H :    0.023629
Sum of atomic charges:    0.0000000

LOEWDIN ATOMIC CHARGES
----------------------
   0 C :   -0.194223
   1 C :   -0.065553
   2 C :   -0.177444
   3 C :   -0.193755
   4 S :    0.419902
   5 C :   -0.194289
   6 C :   -0.177074
   7 Ge:    0.499202
   8 C :   -0.200535
   9 C :   -0.202328
  10 C :   -0.064752
  11 C :   -0.194376
  12 S :    0.419628
  13 H :    0.022680
  14 H :    0.027969
  15 H :    0.034547
  16 H :    0.034728
  17 H :    0.041660
  18 H :    0.041188
  19 H :    0.035831
  20 H :    0.036502
  21 H :    0.027715
  22 H :    0.022776

  Mayer bond orders larger than 0.100000
B(  0-C ,  1-C ) :   1.5427 B(  0-C ,  4-S ) :   1.1455 B(  0-C , 13-H ) :   0.9673
B(  1-C ,  2-C ) :   1.2395 B(  1-C , 14-H ) :   0.9915 B(  2-C ,  3-C ) :   1.5250
B(  2-C ,  7-Ge) :   0.8845 B(  3-C ,  4-S ) :   1.1175 B(  3-C ,  5-C ) :   1.1433
B(  5-C ,  6-C ) :   1.5232 B(  5-C , 12-S ) :   1.1153 B(  6-C ,  7-Ge) :   0.8816
B(  6-C , 10-C ) :   1.2467 B(  7-Ge,  8-C ) :   1.0095 B(  7-Ge,  9-C ) :   1.0035
B(  8-C , 15-H ) :   0.9588 B(  8-C , 16-H ) :   0.9576 B(  8-C , 17-H ) :   0.9541
B(  9-C , 18-H ) :   0.9579 B(  9-C , 19-H ) :   0.9569 B(  9-C , 20-H ) :   0.9576
B( 10-C , 11-C ) :   1.5387 B( 10-C , 21-H ) :   0.9895 B( 11-C , 12-S ) :   1.1479
B( 11-C , 22-H ) :   0.9676

Dispersion correction           -0.058064229
FINAL SINGLE POINT ENERGY     -3259.807503542402

DIPOLE MOMENT
-------------
                                X             Y             Z
Electronic contribution:     -0.78341      -0.99372      -0.75278
Nuclear contribution   :      1.18882       1.51759       0.85003
                        -----------------------------------------
Total Dipole Moment    :      0.40541       0.52387       0.09725
                        -----------------------------------------
Magnitude (a.u.)       :      0.66952
Magnitude (Debye)      :      1.70179

Rotational constants in cm-1:     0.019573     0.018177     0.010455
Rotational constants in MHz :   586.788494   544.929854   313.427727

                             ****ORCA TERMINATED NORMALLY****
TOTAL RUN TIME: 0 days 0 hours 25 minutes 49 seconds 397 msec
