                         Program Version 4.2.0 -  RELEASE  -
|  1> # ORCA input file
|  2> # SCF done        -69.729787231027          0.000876414759
|  3> ! B3LYP/G D3BJ Opt RIJCOSX def2-SVP def2/J
|  4> * xyz 0 1
|  5>    C       -2.61625        -1.45792         0.16789
|  6>    C       -2.59063        -0.10910         0.49764
|  7>    C       -1.39745         0.58025         0.61468
|  8>    C       -0.20442        -0.09852         0.39185
|  9>    C       -0.24443        -1.46192         0.06944
| 10>    C       -1.43714        -2.14978        -0.04718
| 11>    S        1.37227        -2.09802        -0.13909
| 12>    C        2.05047        -0.53121         0.24082
| 13>    C        3.40174        -0.28134         0.29328
| 14>    C        4.36235        -1.22986        -0.04583
| 15>    C        5.72620        -1.06775        -0.13326
| 16>    C        6.57608         0.08943        -0.13002
| 17>    C        6.25533         1.38860        -0.45940
| 18>    C        5.00755         1.83702        -0.92123
| 19>    N        4.02156         2.27458        -1.32394
| 20>    C        7.17734         2.45458        -0.46154
| 21>    N        7.85833         3.38017        -0.46820
| 22>    C        7.94894        -0.38154         0.09391
| 23>    C        7.96159        -1.78611         0.03824
| 24>    C        6.58013        -2.27520        -0.15679
| 25>    O        6.21179        -3.42531        -0.27722
| 26>    C        9.12918        -2.50742         0.18073
| 27>    C       10.31046        -1.80954         0.39509
| 28>    C       10.30388        -0.42536         0.46870
| 29>    C        9.13072         0.30439         0.31750
| 30>    N        1.07942         0.39650         0.45663
| 31>    C        1.39951         1.79228         0.62705
| 32>    H       -3.55999        -1.97269         0.08277
| 33>    H       -3.51816         0.41477         0.66955
| 34>    H       -1.40350         1.62432         0.88378
| 35>    H       -1.43762        -3.19814        -0.29803
| 36>    H        3.72123         0.69468         0.61444
| 37>    H        4.02156        -2.24819        -0.21114
| 38>    H        9.10956        -3.58511         0.12535
| 39>    H       11.23991        -2.34728         0.50923
| 40>    H       11.22895         0.10257         0.64669
| 41>    H        9.15708         1.37971         0.38602
| 42>    H        2.14842         2.09475        -0.11140
| 43>    H        1.79077         1.98146         1.62846
| 44>    H        0.50430         2.38856         0.47750
| 45> *
| 46>
| 47>                          ****END OF INPUT****
 Total Charge           Charge          ....    0
 Multiplicity           Mult            ....    1
 Number of Electrons    NEL             ....  190
Dispersion correction           -0.107351531
FINAL SINGLE POINT ENERGY     -1483.000151729487
Dispersion correction            ... done
Dispersion correction           -0.105025210
FINAL SINGLE POINT ENERGY     -1483.004383103686
Dispersion correction            ... done
Dispersion correction           -0.105798910
FINAL SINGLE POINT ENERGY     -1483.005236826333
Dispersion correction            ... done
FINAL SINGLE POINT ENERGY     -1483.007774558296
FINAL SINGLE POINT ENERGY     -1483.007996713006
FINAL SINGLE POINT ENERGY     -1483.007840959695
FINAL SINGLE POINT ENERGY     -1483.007810521709
FINAL SINGLE POINT ENERGY     -1483.007816586274
FINAL SINGLE POINT ENERGY     -1483.007768282947
FINAL SINGLE POINT ENERGY     -1483.007754222795
FINAL SINGLE POINT ENERGY     -1483.007752285347
FINAL SINGLE POINT ENERGY     -1483.007755010637
FINAL SINGLE POINT ENERGY     -1483.007786316910
Dispersion correction            ... done
Dispersion correction           -0.105691601
FINAL SINGLE POINT ENERGY     -1483.007789623285
Dispersion correction            ... done
Dispersion correction           -0.105686438
FINAL SINGLE POINT ENERGY     -1483.007792621998
Dispersion correction            ... done
                    ***********************HURRAY********************

CARTESIAN COORDINATES (ANGSTROEM)
---------------------------------
  C     -2.678659   -1.610087    0.378363
  C     -2.704779   -0.210632    0.436513
  C     -1.523930    0.534791    0.413820
  C     -0.305031   -0.145547    0.323330
  C     -0.282970   -1.553021    0.268888
  C     -1.462305   -2.294361    0.295815
  S      1.371448   -2.146047    0.173272
  C      1.995823   -0.500554    0.219315
  C      3.345919   -0.159564    0.205544
  C      4.373249   -1.080423   -0.011725
  C      5.753644   -0.931295   -0.089589
  C      6.670644    0.186189   -0.013236
  C      6.415209    1.551904   -0.137994
  C      5.212817    2.100393   -0.667284
  N      4.263450    2.590424   -1.128855
  C      7.386278    2.555882    0.165683
  N      8.143078    3.398640    0.429523
  C      8.046054   -0.377559    0.121937
  C      7.977887   -1.781139    0.014928
  C      6.558221   -2.190637   -0.137603
  O      6.138015   -3.327078   -0.256108
  C      9.108181   -2.586828    0.034465
  C     10.357810   -1.970108    0.163364
  C     10.442836   -0.576121    0.268139
  C      9.299465    0.233002    0.248222
  N      0.973774    0.408308    0.270204
  C      1.208958    1.847240    0.264211
  H     -3.612859   -2.174101    0.402179
  H     -3.660310    0.312989    0.508085
  H     -1.558692    1.623163    0.473269
  H     -1.432982   -3.384951    0.253245
  H      3.573418    0.890426    0.338396
  H      4.086840   -2.136246   -0.120009
  H      8.999919   -3.669578   -0.061683
  H     11.268789   -2.572248    0.178890
  H     11.420908   -0.099721    0.367972
  H      9.410417    1.311523    0.332286
  H      2.075673    2.091046   -0.363946
  H      1.390615    2.221509    1.284312
  H      0.330206    2.351729   -0.153166

 Multiplicity           Mult            ....    1
 Number of Electrons    NEL             ....  190
 Basis Dimension        Dim             ....  447

ORBITAL ENERGIES
----------------

  NO   OCC          E(Eh)            E(eV)
   0   2.0000     -88.909152     -2419.3410
   1   2.0000     -19.121389      -520.3195
   2   2.0000     -14.427788      -392.6001
   3   2.0000     -14.333980      -390.0474
   4   2.0000     -14.325590      -389.8191
   5   2.0000     -10.301887      -280.3286
   6   2.0000     -10.273003      -279.5426
   7   2.0000     -10.268052      -279.4079
   8   2.0000     -10.255167      -279.0573
   9   2.0000     -10.254592      -279.0416
  10   2.0000     -10.252415      -278.9824
  11   2.0000     -10.250167      -278.9212
  12   2.0000     -10.240138      -278.6483
  13   2.0000     -10.231800      -278.4214
  14   2.0000     -10.230886      -278.3966
  15   2.0000     -10.229761      -278.3659
  16   2.0000     -10.226703      -278.2827
  17   2.0000     -10.224894      -278.2335
  18   2.0000     -10.222166      -278.1593
  19   2.0000     -10.217156      -278.0229
  20   2.0000     -10.208561      -277.7891
  21   2.0000     -10.207771      -277.7676
  22   2.0000     -10.207392      -277.7573
  23   2.0000     -10.207364      -277.7565
  24   2.0000     -10.206239      -277.7259
  25   2.0000     -10.201129      -277.5868
  26   2.0000     -10.200319      -277.5648
  27   2.0000      -8.004225      -217.8060
  28   2.0000      -5.972733      -162.5263
  29   2.0000      -5.969047      -162.4260
  30   2.0000      -5.964080      -162.2909
  31   2.0000      -1.030591       -28.0438
  32   2.0000      -1.025389       -27.9023
  33   2.0000      -0.913498       -24.8575
  34   2.0000      -0.896186       -24.3864
  35   2.0000      -0.890055       -24.2196
  36   2.0000      -0.887090       -24.1389
  37   2.0000      -0.859567       -23.3900
  38   2.0000      -0.840814       -22.8797
  39   2.0000      -0.815530       -22.1917
  40   2.0000      -0.793984       -21.6054
  41   2.0000      -0.781008       -21.2523
  42   2.0000      -0.764093       -20.7920
  43   2.0000      -0.756935       -20.5972
  44   2.0000      -0.737295       -20.0628
  45   2.0000      -0.724349       -19.7105
  46   2.0000      -0.682651       -18.5759
  47   2.0000      -0.664038       -18.0694
  48   2.0000      -0.642550       -17.4847
  49   2.0000      -0.632904       -17.2222
  50   2.0000      -0.607769       -16.5382
  51   2.0000      -0.602885       -16.4053
  52   2.0000      -0.585255       -15.9256
  53   2.0000      -0.570830       -15.5331
  54   2.0000      -0.550956       -14.9923
  55   2.0000      -0.545939       -14.8557
  56   2.0000      -0.532684       -14.4951
  57   2.0000      -0.519454       -14.1351
  58   2.0000      -0.508603       -13.8398
  59   2.0000      -0.507975       -13.8227
  60   2.0000      -0.486993       -13.2518
  61   2.0000      -0.483435       -13.1549
  62   2.0000      -0.477696       -12.9988
  63   2.0000      -0.475365       -12.9353
  64   2.0000      -0.457832       -12.4582
  65   2.0000      -0.448606       -12.2072
  66   2.0000      -0.443237       -12.0611
  67   2.0000      -0.438272       -11.9260
  68   2.0000      -0.437422       -11.9028
  69   2.0000      -0.434024       -11.8104
  70   2.0000      -0.423750       -11.5308
  71   2.0000      -0.419374       -11.4117
  72   2.0000      -0.410809       -11.1787
  73   2.0000      -0.405437       -11.0325
  74   2.0000      -0.401153       -10.9159
  75   2.0000      -0.390665       -10.6305
  76   2.0000      -0.387047       -10.5321
  77   2.0000      -0.378834       -10.3086
  78   2.0000      -0.373681       -10.1684
  79   2.0000      -0.372629       -10.1398
  80   2.0000      -0.370337       -10.0774
  81   2.0000      -0.368314       -10.0223
  82   2.0000      -0.358023        -9.7423
  83   2.0000      -0.348012        -9.4699
  84   2.0000      -0.345056        -9.3895
  85   2.0000      -0.338575        -9.2131
  86   2.0000      -0.336406        -9.1541
  87   2.0000      -0.328836        -8.9481
  88   2.0000      -0.314227        -8.5505
  89   2.0000      -0.277890        -7.5618
  90   2.0000      -0.273353        -7.4383
  91   2.0000      -0.270802        -7.3689
  92   2.0000      -0.256935        -6.9916
  93   2.0000      -0.247898        -6.7457
  94   2.0000      -0.209265        -5.6944
  95   0.0000      -0.107075        -2.9136
  96   0.0000      -0.083120        -2.2618
  97   0.0000      -0.045882        -1.2485
  98   0.0000      -0.035101        -0.9551
  99   0.0000      -0.020141        -0.5481

MULLIKEN ATOMIC CHARGES
-----------------------
   0 C :    0.035511
   1 C :    0.024434
   2 C :   -0.072895
   3 C :    0.213461
   4 C :   -0.037010
   5 C :   -0.049479
   6 S :    0.150331
   7 C :    0.060843
   8 C :   -0.032881
   9 C :    0.006513
  10 C :   -0.108979
  11 C :    0.263131
  12 C :   -0.343642
  13 C :   -0.129117
  14 N :    0.066460
  15 C :   -0.134613
  16 N :    0.073744
  17 C :    0.034506
  18 C :   -0.003508
  19 C :    0.130846
  20 O :   -0.182243
  21 C :   -0.029674
  22 C :    0.043270
  23 C :    0.036369
  24 C :   -0.042404
  25 N :   -0.215084
  26 C :    0.114991
  27 H :   -0.002956
  28 H :   -0.003762
  29 H :   -0.013639
  30 H :   -0.002273
  31 H :   -0.002243
  32 H :    0.005433
  33 H :   -0.006484
  34 H :   -0.006926
  35 H :   -0.008093
  36 H :    0.002196
  37 H :    0.074354
  38 H :    0.047409
  39 H :    0.044101
Sum of atomic charges:    0.0000000

LOEWDIN ATOMIC CHARGES
----------------------
   0 C :   -0.023347
   1 C :   -0.011102
   2 C :   -0.046288
   3 C :    0.011410
   4 C :   -0.164063
   5 C :   -0.030617
   6 S :    0.426225
   7 C :   -0.058563
   8 C :   -0.122201
   9 C :    0.046090
  10 C :   -0.116320
  11 C :    0.065597
  12 C :   -0.159885
  13 C :   -0.001947
  14 N :   -0.094427
  15 C :   -0.015587
  16 N :   -0.079526
  17 C :   -0.007616
  18 C :   -0.043249
  19 C :    0.075518
  20 O :   -0.162526
  21 C :    0.005570
  22 C :   -0.008619
  23 C :   -0.005036
  24 C :   -0.006887
  25 N :    0.026889
  26 C :    0.045295
  27 H :    0.033967
  28 H :    0.034334
  29 H :    0.033811
  30 H :    0.037011
  31 H :    0.033572
  32 H :    0.031295
  33 H :    0.037478
  34 H :    0.031246
  35 H :    0.032645
  36 H :    0.037947
  37 H :    0.041240
  38 H :    0.035276
  39 H :    0.035386

  Mayer bond orders larger than 0.100000
B(  0-C ,  1-C ) :   1.3699 B(  0-C ,  5-C ) :   1.3805 B(  0-C , 27-H ) :   0.9868
B(  1-C ,  2-C ) :   1.3734 B(  1-C , 28-H ) :   0.9826 B(  2-C ,  3-C ) :   1.3472
B(  2-C , 29-H ) :   0.9966 B(  3-C ,  4-C ) :   1.3337 B(  3-C , 25-N ) :   1.0788
B(  4-C ,  5-C ) :   1.3936 B(  4-C ,  6-S ) :   1.0238 B(  5-C , 30-H ) :   0.9964
B(  6-S ,  7-C ) :   1.0900 B(  7-C ,  8-C ) :   1.4179 B(  7-C , 25-N ) :   1.2067
B(  8-C ,  9-C ) :   1.2797 B(  8-C , 31-H ) :   0.9426 B(  9-C , 10-C ) :   1.4881
B(  9-C , 32-H ) :   0.9201 B( 10-C , 11-C ) :   1.1250 B( 10-C , 19-C ) :   0.9672
B( 11-C , 12-C ) :   1.4983 B( 11-C , 17-C ) :   1.0109 B( 12-C , 13-C ) :   1.1938
B( 12-C , 15-C ) :   1.1339 B( 13-C , 14-N ) :   2.8943 B( 15-C , 16-N ) :   2.9246
B( 17-C , 18-C ) :   1.3212 B( 17-C , 24-C ) :   1.3662 B( 18-C , 19-C ) :   0.9414
B( 18-C , 21-C ) :   1.3900 B( 19-C , 20-O ) :   2.1562 B( 21-C , 22-C ) :   1.3244
B( 21-C , 33-H ) :   0.9977 B( 22-C , 23-C ) :   1.3717 B( 22-C , 34-H ) :   0.9853
B( 23-C , 24-C ) :   1.3633 B( 23-C , 35-H ) :   0.9810 B( 24-C , 36-H ) :   0.9776
B( 25-N , 26-C ) :   0.9492 B( 26-C , 37-H ) :   0.9389 B( 26-C , 38-H ) :   0.9673
B( 26-C , 39-H ) :   0.9574

Dispersion correction           -0.105683428
FINAL SINGLE POINT ENERGY     -1483.007788068426

DIPOLE MOMENT
-------------
                                X             Y             Z
Electronic contribution:      7.76506      -2.62700      -1.56132
Nuclear contribution   :    -10.51664       1.77076       2.14941
                        -----------------------------------------
Total Dipole Moment    :     -2.75159      -0.85625       0.58810
                        -----------------------------------------
Magnitude (a.u.)       :      2.94113
Magnitude (Debye)      :      7.47576

Rotational constants in cm-1:     0.013980     0.002849     0.002393
Rotational constants in MHz :   419.122488    85.425678    71.746745

                             ****ORCA TERMINATED NORMALLY****
TOTAL RUN TIME: 0 days 1 hours 35 minutes 4 seconds 928 msec
