                         Program Version 4.2.0 -  RELEASE  -
|  1> # ORCA input file
|  2> # SCF done        -24.232087032230          0.000475703728
|  3> ! B3LYP/G D3BJ Opt RIJCOSX def2-SVP def2/J
|  4> * xyz 0 1
|  5>    C       -0.95196         1.40301         0.00083
|  6>    C       -2.07579         0.61841        -0.00054
|  7>    N       -2.07767        -0.72656        -0.00160
|  8>    C       -0.95330        -1.38228        -0.00136
|  9>    C        0.28408        -0.70890         0.00000
| 10>    C        0.27947         0.72961         0.00113
| 11>    N        1.51731         1.23222         0.00236
| 12>    S        2.56063         0.01373         0.00208
| 13>    N        1.52232        -1.20759         0.00046
| 14>    H       -0.99471         2.47943         0.00165
| 15>    H       -3.06176         1.06255        -0.00086
| 16>    H       -1.00177        -2.46181        -0.00222
| 17> *
| 18>
| 19>                          ****END OF INPUT****
 Total Charge           Charge          ....    0
 Multiplicity           Mult            ....    1
 Number of Electrons    NEL             ....   70
Dispersion correction           -0.026008289
FINAL SINGLE POINT ENERGY      -754.397864598019
Dispersion correction            ... done
Dispersion correction           -0.025908263
FINAL SINGLE POINT ENERGY      -754.401212286044
Dispersion correction            ... done
Dispersion correction           -0.025901780
FINAL SINGLE POINT ENERGY      -754.401715208314
Dispersion correction            ... done
FINAL SINGLE POINT ENERGY      -754.401883212803
FINAL SINGLE POINT ENERGY      -754.401907472921
Dispersion correction            ... done
Dispersion correction           -0.025923785
FINAL SINGLE POINT ENERGY      -754.401908034686
Dispersion correction            ... done
Dispersion correction           -0.025923216
FINAL SINGLE POINT ENERGY      -754.401913085208
Dispersion correction            ... done
                    ***********************HURRAY********************

CARTESIAN COORDINATES (ANGSTROEM)
---------------------------------
  C     -0.958474    1.411118    0.000719
  C     -2.086946    0.626639   -0.000485
  N     -2.091096   -0.744991   -0.001575
  C     -0.960010   -1.397383   -0.001415
  C      0.296448   -0.710619   -0.000028
  C      0.295882    0.738611    0.001049
  N      1.524639    1.268531    0.002414
  S      2.575341    0.006010    0.002197
  N      1.519944   -1.248810    0.000542
  H     -1.010971    2.500958    0.001519
  H     -3.076399    1.095384   -0.000625
  H     -0.981509   -2.493627   -0.002381

 Multiplicity           Mult            ....    1
 Number of Electrons    NEL             ....   70
 Basis Dimension        Dim             ....  145

ORBITAL ENERGIES
----------------

  NO   OCC          E(Eh)            E(eV)
   0   2.0000     -88.950978     -2420.4792
   1   2.0000     -14.375981      -391.1903
   2   2.0000     -14.371062      -391.0565
   3   2.0000     -14.341579      -390.2542
   4   2.0000     -10.256833      -279.1026
   5   2.0000     -10.252711      -278.9904
   6   2.0000     -10.249975      -278.9160
   7   2.0000     -10.240300      -278.6527
   8   2.0000     -10.218807      -278.0679
   9   2.0000      -8.042174      -218.8387
  10   2.0000      -6.012017      -163.5953
  11   2.0000      -6.004806      -163.3991
  12   2.0000      -6.003568      -163.3654
  13   2.0000      -1.032495       -28.0956
  14   2.0000      -0.950094       -25.8534
  15   2.0000      -0.899114       -24.4661
  16   2.0000      -0.808427       -21.9984
  17   2.0000      -0.772167       -21.0117
  18   2.0000      -0.677121       -18.4254
  19   2.0000      -0.636112       -17.3095
  20   2.0000      -0.617726       -16.8092
  21   2.0000      -0.532743       -14.4967
  22   2.0000      -0.527339       -14.3496
  23   2.0000      -0.481549       -13.1036
  24   2.0000      -0.472525       -12.8581
  25   2.0000      -0.465972       -12.6797
  26   2.0000      -0.420077       -11.4309
  27   2.0000      -0.399638       -10.8747
  28   2.0000      -0.399054       -10.8588
  29   2.0000      -0.352377        -9.5887
  30   2.0000      -0.341640        -9.2965
  31   2.0000      -0.315650        -8.5893
  32   2.0000      -0.297159        -8.0861
  33   2.0000      -0.272223        -7.4076
  34   2.0000      -0.266247        -7.2450
  35   0.0000      -0.108347        -2.9483
  36   0.0000      -0.017834        -0.4853
  37   0.0000      -0.011813        -0.3215
  38   0.0000       0.006666         0.1814
  39   0.0000       0.068520         1.8645

MULLIKEN ATOMIC CHARGES
-----------------------
   0 C :   -0.012686
   1 C :    0.047972
   2 N :   -0.086641
   3 C :    0.038071
   4 C :   -0.019207
   5 C :    0.075281
   6 N :   -0.279886
   7 S :    0.484317
   8 N :   -0.269747
   9 H :   -0.000596
  10 H :    0.012621
  11 H :    0.010500
Sum of atomic charges:   -0.0000000

LOEWDIN ATOMIC CHARGES
----------------------
   0 C :   -0.038866
   1 C :    0.022388
   2 N :   -0.073376
   3 C :    0.035222
   4 C :   -0.078161
   5 C :   -0.046977
   6 N :   -0.280168
   7 S :    0.628422
   8 N :   -0.266573
   9 H :    0.041103
  10 H :    0.026750
  11 H :    0.030237

  Mayer bond orders larger than 0.100000
B(  0-C ,  1-C ) :   1.5433 B(  0-C ,  3-C ) :   0.1091 B(  0-C ,  5-C ) :   1.2175
B(  0-C ,  9-H ) :   0.9824 B(  1-C ,  2-N ) :   1.3371 B(  1-C , 10-H ) :   0.9711
B(  2-N ,  3-C ) :   1.7259 B(  3-C ,  4-C ) :   1.1623 B(  3-C , 11-H ) :   0.9795
B(  4-C ,  5-C ) :   1.1610 B(  4-C ,  8-N ) :   1.4894 B(  5-C ,  6-N ) :   1.4910
B(  6-N ,  7-S ) :   1.2465 B(  6-N ,  8-N ) :   0.1660 B(  7-S ,  8-N ) :   1.2651

Dispersion correction           -0.025922844
FINAL SINGLE POINT ENERGY      -754.401913426286

DIPOLE MOMENT
-------------
                                X             Y             Z
Electronic contribution:      6.07964      -0.73169       0.00353
Nuclear contribution   :     -5.84254       1.04727      -0.00322
                        -----------------------------------------
Total Dipole Moment    :      0.23710       0.31557       0.00031
                        -----------------------------------------
Magnitude (a.u.)       :      0.39472
Magnitude (Debye)      :      1.00330

Rotational constants in cm-1:     0.129092     0.041234     0.031252
Rotational constants in MHz :  3870.068141  1236.170407   936.905645

                             ****ORCA TERMINATED NORMALLY****
TOTAL RUN TIME: 0 days 0 hours 4 minutes 31 seconds 281 msec
