                         Program Version 4.2.0 -  RELEASE  -
|  1> # ORCA input file
|  2> # SCF done        -36.317929856974          0.000897270836
|  3> ! B3LYP/G D3BJ Opt RIJCOSX def2-SVP def2/J
|  4> * xyz 0 1
|  5>    N        0.70683         1.15359        -0.51171
|  6>    C        1.38789         2.43398        -0.46032
|  7>    C       -0.66135         1.15531        -0.46765
|  8>    S       -1.48700         2.57580        -0.35381
|  9>    N       -1.33740        -0.03391        -0.51814
| 10>    C       -2.78731         0.00885        -0.47438
| 11>    C       -0.73279        -1.27588        -0.60457
| 12>    O       -1.38404        -2.29516        -0.63985
| 13>    C        0.74353        -1.26225        -0.64978
| 14>    C        1.48652         0.01352        -0.60123
| 15>    O        2.69462         0.07467        -0.63600
| 16>    C        1.41418        -2.41640        -0.73640
| 17>    H        1.06565         3.06181        -1.29013
| 18>    H        2.45571         2.24102        -0.52751
| 19>    H        1.15674         2.94347         0.47472
| 20>    H       -3.16844         0.59791        -1.30825
| 21>    H       -3.12042         0.46449         0.45816
| 22>    H       -3.14825        -1.01505        -0.54105
| 23>    H        0.88466        -3.35350        -0.77227
| 24>    H        2.49067        -2.42036        -0.77126
| 25> *
| 26>
| 27>                          ****END OF INPUT****
 Total Charge           Charge          ....    0
 Multiplicity           Mult            ....    1
 Number of Electrons    NEL             ....   96
Dispersion correction           -0.043057639
FINAL SINGLE POINT ENERGY      -929.264714528954
Dispersion correction            ... done
Dispersion correction           -0.042599012
FINAL SINGLE POINT ENERGY      -929.267834500450
Dispersion correction            ... done
Dispersion correction           -0.042563930
FINAL SINGLE POINT ENERGY      -929.267903169656
Dispersion correction            ... done
FINAL SINGLE POINT ENERGY      -929.267899109915
FINAL SINGLE POINT ENERGY      -929.267886894277
FINAL SINGLE POINT ENERGY      -929.267877087249
FINAL SINGLE POINT ENERGY      -929.267859931732
FINAL SINGLE POINT ENERGY      -929.267831103562
Dispersion correction            ... done
Dispersion correction           -0.042576854
FINAL SINGLE POINT ENERGY      -929.267810610695
Dispersion correction            ... done
Dispersion correction           -0.042573027
FINAL SINGLE POINT ENERGY      -929.267799272566
Dispersion correction            ... done
                    ***********************HURRAY********************

CARTESIAN COORDINATES (ANGSTROEM)
---------------------------------
  N      0.709411    1.172570   -0.525515
  C      1.422778    2.452018   -0.480578
  C     -0.680423    1.189327   -0.469654
  S     -1.510767    2.620542   -0.335373
  N     -1.353323   -0.026763   -0.529527
  C     -2.817059   -0.016334   -0.471527
  C     -0.735985   -1.281479   -0.633303
  O     -1.379276   -2.309086   -0.700387
  C      0.747176   -1.265529   -0.645765
  C      1.496954    0.013561   -0.588353
  O      2.710314    0.063725   -0.597856
  C      1.417436   -2.427691   -0.710270
  H      1.056311    3.110741   -1.277919
  H      2.487095    2.232531   -0.606077
  H      1.241487    2.952998    0.480977
  H     -3.220174    0.627469   -1.262536
  H     -3.152410    0.386042    0.494628
  H     -3.154021   -1.048771   -0.597334
  H      0.865057   -3.368166   -0.755013
  H      2.509418   -2.425794   -0.720048

 Multiplicity           Mult            ....    1
 Number of Electrons    NEL             ....   96
 Basis Dimension        Dim             ....  212

ORBITAL ENERGIES
----------------

  NO   OCC          E(Eh)            E(eV)
   0   2.0000     -88.814003     -2416.7519
   1   2.0000     -19.138606      -520.7880
   2   2.0000     -19.138333      -520.7805
   3   2.0000     -14.408979      -392.0882
   4   2.0000     -14.408945      -392.0873
   5   2.0000     -10.326609      -281.0013
   6   2.0000     -10.325490      -280.9709
   7   2.0000     -10.325176      -280.9623
   8   2.0000     -10.240414      -278.6558
   9   2.0000     -10.234571      -278.4968
  10   2.0000     -10.230733      -278.3924
  11   2.0000     -10.230216      -278.3783
  12   2.0000      -7.910393      -215.2527
  13   2.0000      -5.879399      -159.9866
  14   2.0000      -5.875643      -159.8844
  15   2.0000      -5.869376      -159.7138
  16   2.0000      -1.075971       -29.2787
  17   2.0000      -1.063786       -28.9471
  18   2.0000      -1.005609       -27.3640
  19   2.0000      -0.944202       -25.6930
  20   2.0000      -0.834132       -22.6979
  21   2.0000      -0.781397       -21.2629
  22   2.0000      -0.747725       -20.3466
  23   2.0000      -0.714564       -19.4443
  24   2.0000      -0.669628       -18.2215
  25   2.0000      -0.640800       -17.4371
  26   2.0000      -0.614202       -16.7133
  27   2.0000      -0.589117       -16.0307
  28   2.0000      -0.524823       -14.2812
  29   2.0000      -0.513091       -13.9619
  30   2.0000      -0.477008       -12.9800
  31   2.0000      -0.472163       -12.8482
  32   2.0000      -0.468457       -12.7474
  33   2.0000      -0.464464       -12.6387
  34   2.0000      -0.460981       -12.5439
  35   2.0000      -0.431277       -11.7356
  36   2.0000      -0.425259       -11.5719
  37   2.0000      -0.411102       -11.1867
  38   2.0000      -0.409446       -11.1416
  39   2.0000      -0.408351       -11.1118
  40   2.0000      -0.391788       -10.6611
  41   2.0000      -0.374893       -10.2014
  42   2.0000      -0.310036        -8.4365
  43   2.0000      -0.309571        -8.4239
  44   2.0000      -0.291886        -7.9426
  45   2.0000      -0.289161        -7.8685
  46   2.0000      -0.256378        -6.9764
  47   2.0000      -0.230516        -6.2727
  48   0.0000      -0.108777        -2.9600
  49   0.0000      -0.032997        -0.8979
  50   0.0000      -0.011402        -0.3103
  51   0.0000       0.071868         1.9556
  52   0.0000       0.087260         2.3745

MULLIKEN ATOMIC CHARGES
-----------------------
   0 N :   -0.263677
   1 C :    0.140856
   2 C :    0.123875
   3 S :   -0.204254
   4 N :   -0.265027
   5 C :    0.149221
   6 C :    0.215050
   7 O :   -0.200194
   8 C :   -0.166743
   9 C :    0.207526
  10 O :   -0.197458
  11 C :    0.057452
  12 H :    0.043892
  13 H :    0.059941
  14 H :    0.041739
  15 H :    0.042949
  16 H :    0.038537
  17 H :    0.055002
  18 H :    0.058626
  19 H :    0.062688
Sum of atomic charges:    0.0000000

LOEWDIN ATOMIC CHARGES
----------------------
   0 N :   -0.028588
   1 C :    0.034887
   2 C :   -0.063514
   3 S :   -0.030249
   4 N :   -0.028565
   5 C :    0.037115
   6 C :    0.084573
   7 O :   -0.170117
   8 C :   -0.113633
   9 C :    0.084351
  10 O :   -0.169705
  11 C :    0.098794
  12 H :    0.027518
  13 H :    0.032675
  14 H :    0.028810
  15 H :    0.027120
  16 H :    0.028274
  17 H :    0.031858
  18 H :    0.044023
  19 H :    0.044373

  Mayer bond orders larger than 0.100000
B(  0-N ,  1-C ) :   0.9370 B(  0-N ,  2-C ) :   1.1186 B(  0-N ,  9-C ) :   1.0574
B(  1-C , 12-H ) :   0.9645 B(  1-C , 13-H ) :   0.9472 B(  1-C , 14-H ) :   0.9694
B(  2-C ,  3-S ) :   1.6450 B(  2-C ,  4-N ) :   1.1162 B(  4-N ,  5-C ) :   0.9371
B(  4-N ,  6-C ) :   1.0577 B(  5-C , 15-H ) :   0.9652 B(  5-C , 16-H ) :   0.9696
B(  5-C , 17-H ) :   0.9487 B(  6-C ,  7-O ) :   2.1112 B(  6-C ,  8-C ) :   0.9244
B(  8-C ,  9-C ) :   0.9218 B(  8-C , 11-C ) :   1.9455 B(  9-C , 10-O ) :   2.1162
B( 11-C , 18-H ) :   0.9262 B( 11-C , 19-H ) :   0.9297

Dispersion correction           -0.042572554
FINAL SINGLE POINT ENERGY      -929.267802898695

DIPOLE MOMENT
-------------
                                X             Y             Z
Electronic contribution:      0.22918      -0.37053      -0.04717
Nuclear contribution   :     -0.10811       0.14783       0.02784
                        -----------------------------------------
Total Dipole Moment    :      0.12107      -0.22270      -0.01933
                        -----------------------------------------
Magnitude (a.u.)       :      0.25422
Magnitude (Debye)      :      0.64618

Rotational constants in cm-1:     0.037031     0.028469     0.016197
Rotational constants in MHz :  1110.159557   853.489674   485.562175

                             ****ORCA TERMINATED NORMALLY****
TOTAL RUN TIME: 0 days 0 hours 13 minutes 1 seconds 936 msec
