                         Program Version 4.2.0 -  RELEASE  -
|  1> # ORCA input file
|  2> # SCF done        -71.055549447811          0.000656548246
|  3> ! B3LYP/G D3BJ Opt RIJCOSX def2-SVP def2/J
|  4> * xyz 0 1
|  5>    C        3.50447        -0.39286        -0.12373
|  6>    C        2.54033        -1.33416        -0.13465
|  7>    C        1.22449        -0.78275        -0.10050
|  8>    C       -0.00491        -1.46330        -0.09116
|  9>    C       -0.05935        -2.91154        -0.02925
| 10>    C        0.67508        -3.74276         0.76562
| 11>    C        0.36135        -5.10452         0.56387
| 12>    C       -0.59649        -5.32963        -0.38071
| 13>    S       -1.14502        -3.82545        -1.03882
| 14>    C       -1.16784        -6.62322        -0.83422
| 15>   Cl        1.13526        -6.36875         1.44292
| 16>    C       -1.15273        -0.67708        -0.13111
| 17>    C       -1.12264         0.73671        -0.12734
| 18>    C        0.10601         1.41705        -0.08249
| 19>    C        1.25441         0.63117        -0.09626
| 20>    S        2.89331         1.22446        -0.07661
| 21>    C        0.15589         2.86523        -0.01363
| 22>    C       -0.59902         3.69033         0.76830
| 23>    C       -0.29093         5.05436         0.57398
| 24>    C        0.68273         5.28697        -0.35248
| 25>    S        1.25495         3.78740        -1.00065
| 26>    C        1.24960         6.58603        -0.79546
| 27>   Cl       -1.09057         6.31297         1.43798
| 28>    C       -2.43685         1.28910        -0.19301
| 29>    C       -3.40121         0.34817        -0.21234
| 30>    S       -2.79201        -1.26986        -0.15903
| 31>    H        4.56705        -0.53654        -0.14675
| 32>    H        2.73792        -2.38866        -0.18779
| 33>    H        1.38428        -3.40325         1.49765
| 34>    H       -0.49533        -7.43609        -0.57027
| 35>    H       -1.32102        -6.61745        -1.91128
| 36>    H       -2.13187        -6.80342        -0.35700
| 37>    H       -1.32017         3.34474         1.48567
| 38>    H        0.54912         7.38806        -0.57471
| 39>    H        1.45432         6.56978        -1.86369
| 40>    H        2.18530         6.79278        -0.27488
| 41>    H       -2.63240         2.34391        -0.24618
| 42>    H       -4.46276         0.49244        -0.26329
| 43> *
| 44>
| 45>                          ****END OF INPUT****
 Total Charge           Charge          ....    0
 Multiplicity           Mult            ....    1
 Number of Electrons    NEL             ....  230
Dispersion correction           -0.121624047
FINAL SINGLE POINT ENERGY     -3281.377272968978
Dispersion correction            ... done
Dispersion correction           -0.120644817
FINAL SINGLE POINT ENERGY     -3281.384077334000
Dispersion correction            ... done
Dispersion correction           -0.120516468
FINAL SINGLE POINT ENERGY     -3281.384383892615
Dispersion correction            ... done
FINAL SINGLE POINT ENERGY     -3281.384459073845
FINAL SINGLE POINT ENERGY     -3281.384268323282
FINAL SINGLE POINT ENERGY     -3281.384116602743
FINAL SINGLE POINT ENERGY     -3281.384186618876
FINAL SINGLE POINT ENERGY     -3281.384251286299
FINAL SINGLE POINT ENERGY     -3281.384293246236
FINAL SINGLE POINT ENERGY     -3281.384300918335
FINAL SINGLE POINT ENERGY     -3281.383939609477
FINAL SINGLE POINT ENERGY     -3281.384051774481
FINAL SINGLE POINT ENERGY     -3281.384091055465
FINAL SINGLE POINT ENERGY     -3281.384069559548
FINAL SINGLE POINT ENERGY     -3281.384034818537
FINAL SINGLE POINT ENERGY     -3281.384003406201
FINAL SINGLE POINT ENERGY     -3281.383978143613
Dispersion correction            ... done
Dispersion correction           -0.120601311
FINAL SINGLE POINT ENERGY     -3281.383989548771
Dispersion correction            ... done
Dispersion correction           -0.120600451
FINAL SINGLE POINT ENERGY     -3281.383991996494
Dispersion correction            ... done
                    ***********************HURRAY********************

CARTESIAN COORDINATES (ANGSTROEM)
---------------------------------
  C      3.499788   -0.439361   -0.272979
  C      2.513568   -1.374648   -0.264251
  C      1.191863   -0.798533   -0.208245
  C     -0.052190   -1.473197   -0.156222
  C     -0.096532   -2.935510   -0.040245
  C      0.639052   -3.731237    0.809116
  C      0.359670   -5.119262    0.639762
  C     -0.578581   -5.404900   -0.325638
  S     -1.134163   -3.921583   -1.050782
  C     -1.096106   -6.738904   -0.756184
  Cl     1.150114   -6.343278    1.591786
  C     -1.203869   -0.670997   -0.184653
  C     -1.155063    0.757085   -0.201771
  C      0.089917    1.432418   -0.169712
  C      1.241402    0.629015   -0.203755
  S      2.907157    1.200869   -0.215721
  C      0.147001    2.894708   -0.057579
  C     -0.575742    3.701752    0.794483
  C     -0.255158    5.081903    0.643376
  C      0.696658    5.351958   -0.313239
  S      1.214033    3.865584   -1.052213
  C      1.276778    6.677568   -0.690784
  Cl    -0.992300    6.328800    1.607015
  C     -2.478645    1.330400   -0.247249
  C     -3.463664    0.393375   -0.239327
  S     -2.867800   -1.245910   -0.176152
  H      4.573082   -0.620159   -0.328278
  H      2.704084   -2.445666   -0.315354
  H      1.338235   -3.345751    1.549062
  H     -0.582271   -7.526741   -0.190256
  H     -0.919270   -6.918029   -1.829653
  H     -2.178872   -6.835954   -0.570616
  H     -1.288539    3.326959    1.527053
  H      0.497901    7.453505   -0.646688
  H      1.703000    6.664992   -1.704663
  H      2.077960    6.976651    0.005764
  H     -2.671765    2.400774   -0.304451
  H     -4.537982    0.571674   -0.284059

 Multiplicity           Mult            ....    1
 Number of Electrons    NEL             ....  230
 Basis Dimension        Dim             ....  448

ORBITAL ENERGIES
----------------

  NO   OCC          E(Eh)            E(eV)
   0   2.0000    -101.509059     -2762.2019
   1   2.0000    -101.508997     -2762.2002
   2   2.0000     -88.882449     -2418.6144
   3   2.0000     -88.881375     -2418.5852
   4   2.0000     -88.874363     -2418.3944
   5   2.0000     -88.874228     -2418.3907
   6   2.0000     -10.244018      -278.7539
   7   2.0000     -10.242952      -278.7249
   8   2.0000     -10.230112      -278.3755
   9   2.0000     -10.230017      -278.3729
  10   2.0000     -10.227896      -278.3152
  11   2.0000     -10.227676      -278.3092
  12   2.0000     -10.227588      -278.3068
  13   2.0000     -10.227443      -278.3029
  14   2.0000     -10.222370      -278.1648
  15   2.0000     -10.221976      -278.1541
  16   2.0000     -10.221338      -278.1367
  17   2.0000     -10.221037      -278.1286
  18   2.0000     -10.211601      -277.8718
  19   2.0000     -10.211388      -277.8660
  20   2.0000     -10.206397      -277.7302
  21   2.0000     -10.205374      -277.7023
  22   2.0000     -10.205184      -277.6972
  23   2.0000     -10.204829      -277.6875
  24   2.0000     -10.199764      -277.5497
  25   2.0000     -10.199414      -277.5402
  26   2.0000      -9.462886      -257.4982
  27   2.0000      -9.462815      -257.4963
  28   2.0000      -7.977184      -217.0702
  29   2.0000      -7.976171      -217.0426
  30   2.0000      -7.969126      -216.8509
  31   2.0000      -7.968964      -216.8465
  32   2.0000      -7.231989      -196.7924
  33   2.0000      -7.231929      -196.7908
  34   2.0000      -7.222051      -196.5220
  35   2.0000      -7.222036      -196.5216
  36   2.0000      -7.221927      -196.5186
  37   2.0000      -7.221779      -196.5146
  38   2.0000      -5.945240      -161.7782
  39   2.0000      -5.944315      -161.7530
  40   2.0000      -5.941351      -161.6724
  41   2.0000      -5.940304      -161.6439
  42   2.0000      -5.938397      -161.5920
  43   2.0000      -5.937659      -161.5719
  44   2.0000      -5.937500      -161.5676
  45   2.0000      -5.937329      -161.5629
  46   2.0000      -5.933509      -161.4590
  47   2.0000      -5.933357      -161.4549
  48   2.0000      -5.929607      -161.3528
  49   2.0000      -5.929438      -161.3482
  50   2.0000      -0.913536       -24.8586
  51   2.0000      -0.906734       -24.6735
  52   2.0000      -0.898101       -24.4386
  53   2.0000      -0.876069       -23.8390
  54   2.0000      -0.853038       -23.2123
  55   2.0000      -0.849138       -23.1062
  56   2.0000      -0.812792       -22.1172
  57   2.0000      -0.806011       -21.9327
  58   2.0000      -0.769337       -20.9347
  59   2.0000      -0.759045       -20.6547
  60   2.0000      -0.744153       -20.2494
  61   2.0000      -0.725271       -19.7356
  62   2.0000      -0.721250       -19.6262
  63   2.0000      -0.714774       -19.4500
  64   2.0000      -0.705262       -19.1912
  65   2.0000      -0.694185       -18.8897
  66   2.0000      -0.661660       -18.0047
  67   2.0000      -0.629211       -17.1217
  68   2.0000      -0.597919       -16.2702
  69   2.0000      -0.578436       -15.7401
  70   2.0000      -0.570020       -15.5110
  71   2.0000      -0.555529       -15.1167
  72   2.0000      -0.545841       -14.8531
  73   2.0000      -0.541579       -14.7371
  74   2.0000      -0.531796       -14.4709
  75   2.0000      -0.517741       -14.0884
  76   2.0000      -0.504949       -13.7404
  77   2.0000      -0.498899       -13.5757
  78   2.0000      -0.468199       -12.7403
  79   2.0000      -0.464978       -12.6527
  80   2.0000      -0.445459       -12.1216
  81   2.0000      -0.442224       -12.0335
  82   2.0000      -0.441101       -12.0030
  83   2.0000      -0.438842       -11.9415
  84   2.0000      -0.434107       -11.8126
  85   2.0000      -0.432390       -11.7659
  86   2.0000      -0.427526       -11.6336
  87   2.0000      -0.423023       -11.5110
  88   2.0000      -0.410293       -11.1646
  89   2.0000      -0.406788       -11.0693
  90   2.0000      -0.396858       -10.7990
  91   2.0000      -0.392558       -10.6821
  92   2.0000      -0.390565       -10.6278
  93   2.0000      -0.387336       -10.5400
  94   2.0000      -0.385536       -10.4910
  95   2.0000      -0.383469       -10.4347
  96   2.0000      -0.379650       -10.3308
  97   2.0000      -0.370697       -10.0872
  98   2.0000      -0.364343        -9.9143
  99   2.0000      -0.353962        -9.6318
 100   2.0000      -0.349279        -9.5044
 101   2.0000      -0.348414        -9.4808
 102   2.0000      -0.341937        -9.3046
 103   2.0000      -0.331563        -9.0223
 104   2.0000      -0.315108        -8.5745
 105   2.0000      -0.314712        -8.5638
 106   2.0000      -0.309416        -8.4196
 107   2.0000      -0.305850        -8.3226
 108   2.0000      -0.263571        -7.1721
 109   2.0000      -0.255726        -6.9587
 110   2.0000      -0.254929        -6.9370
 111   2.0000      -0.242547        -6.6000
 112   2.0000      -0.237075        -6.4511
 113   2.0000      -0.235386        -6.4052
 114   2.0000      -0.199470        -5.4278
 115   0.0000      -0.068495        -1.8638
 116   0.0000      -0.036420        -0.9910
 117   0.0000      -0.028652        -0.7797
 118   0.0000      -0.004693        -0.1277
 119   0.0000       0.005886         0.1602

MULLIKEN ATOMIC CHARGES
-----------------------
   0 C :   -0.059101
   1 C :    0.003744
   2 C :    0.055897
   3 C :    0.103157
   4 C :   -0.212434
   5 C :    0.046235
   6 C :    0.074231
   7 C :   -0.248663
   8 S :    0.142212
   9 C :    0.111526
  10 Cl:   -0.097809
  11 C :   -0.135987
  12 C :    0.054760
  13 C :    0.107503
  14 C :   -0.138157
  15 S :    0.107487
  16 C :   -0.216728
  17 C :    0.048636
  18 C :    0.075884
  19 C :   -0.247577
  20 S :    0.142901
  21 C :    0.109224
  22 Cl:   -0.098330
  23 C :    0.004264
  24 C :   -0.060429
  25 S :    0.108784
  26 H :    0.030494
  27 H :   -0.003273
  28 H :   -0.007744
  29 H :    0.019683
  30 H :    0.032977
  31 H :    0.035858
  32 H :   -0.007474
  33 H :    0.033283
  34 H :    0.015689
  35 H :    0.042876
  36 H :   -0.004400
  37 H :    0.030802
Sum of atomic charges:    0.0000000

LOEWDIN ATOMIC CHARGES
----------------------
   0 C :   -0.166603
   1 C :   -0.063407
   2 C :   -0.037559
   3 C :   -0.054474
   4 C :   -0.173179
   5 C :   -0.067855
   6 C :   -0.170591
   7 C :   -0.202417
   8 S :    0.432383
   9 C :   -0.059839
  10 Cl:    0.116720
  11 C :   -0.152278
  12 C :   -0.037937
  13 C :   -0.053582
  14 C :   -0.152432
  15 S :    0.391175
  16 C :   -0.175483
  17 C :   -0.066671
  18 C :   -0.171722
  19 C :   -0.204172
  20 S :    0.437270
  21 C :   -0.058412
  22 Cl:    0.114551
  23 C :   -0.063430
  24 C :   -0.166374
  25 S :    0.392027
  26 H :    0.027968
  27 H :    0.033433
  28 H :    0.035063
  29 H :    0.032738
  30 H :    0.037871
  31 H :    0.038868
  32 H :    0.035053
  33 H :    0.037656
  34 H :    0.033137
  35 H :    0.041214
  36 H :    0.033270
  37 H :    0.028019

  Mayer bond orders larger than 0.100000
B(  0-C ,  1-C ) :   1.6101 B(  0-C , 15-S ) :   1.1010 B(  0-C , 26-H ) :   0.9625
B(  1-C ,  2-C ) :   1.1859 B(  1-C , 27-H ) :   0.9838 B(  2-C ,  3-C ) :   1.3326
B(  2-C , 14-C ) :   1.2652 B(  3-C ,  4-C ) :   0.9974 B(  3-C , 11-C ) :   1.3965
B(  4-C ,  5-C ) :   1.5213 B(  4-C ,  8-S ) :   1.1327 B(  5-C ,  6-C ) :   1.2189
B(  5-C , 28-H ) :   1.0022 B(  6-C ,  7-C ) :   1.5705 B(  6-C , 10-Cl) :   0.9955
B(  7-C ,  8-S ) :   1.1209 B(  7-C ,  9-C ) :   1.1021 B(  9-C , 29-H ) :   0.9385
B(  9-C , 30-H ) :   0.9473 B(  9-C , 31-H ) :   0.9462 B( 11-C , 12-C ) :   1.2642
B( 11-C , 25-S ) :   1.0722 B( 12-C , 13-C ) :   1.3309 B( 12-C , 23-C ) :   1.1861
B( 13-C , 14-C ) :   1.3946 B( 13-C , 16-C ) :   0.9996 B( 14-C , 15-S ) :   1.0715
B( 16-C , 17-C ) :   1.5163 B( 16-C , 20-S ) :   1.1343 B( 17-C , 18-C ) :   1.2289
B( 17-C , 32-H ) :   1.0020 B( 18-C , 19-C ) :   1.5603 B( 18-C , 22-Cl) :   1.0153
B( 19-C , 20-S ) :   1.1263 B( 19-C , 21-C ) :   1.1066 B( 21-C , 33-H ) :   0.9439
B( 21-C , 34-H ) :   0.9430 B( 21-C , 35-H ) :   0.9475 B( 23-C , 24-C ) :   1.6096
B( 23-C , 36-H ) :   0.9840 B( 24-C , 25-S ) :   1.1015 B( 24-C , 37-H ) :   0.9628

Dispersion correction           -0.120601317
FINAL SINGLE POINT ENERGY     -3281.383992207767

DIPOLE MOMENT
-------------
                                X             Y             Z
Electronic contribution:     -0.09111       0.10729       6.90635
Nuclear contribution   :      0.10856      -0.08286      -7.36477
                        -----------------------------------------
Total Dipole Moment    :      0.01746       0.02443      -0.45842
                        -----------------------------------------
Magnitude (a.u.)       :      0.45940
Magnitude (Debye)      :      1.16770

Rotational constants in cm-1:     0.010201     0.002210     0.001948
Rotational constants in MHz :   305.827106    66.250980    58.390235

                             ****ORCA TERMINATED NORMALLY****
TOTAL RUN TIME: 0 days 2 hours 17 minutes 55 seconds 55 msec
