                         Program Version 4.2.0 -  RELEASE  -
|  1> # ORCA input file
|  2> # SCF done        -35.208623270619          0.000987115292
|  3> ! B3LYP/G D3BJ Opt RIJCOSX def2-SVP def2/J
|  4> * xyz 0 1
|  5>    C       -1.33705        -1.07885        -0.00218
|  6>    C       -0.02520        -0.71123        -0.00164
|  7>    C        0.02316         0.73223         0.00052
|  8>    C       -1.33790         1.22105         0.00129
|  9>    O       -1.81982         2.33145         0.00296
| 10>    N       -2.11723         0.03610        -0.00046
| 11>    C       -3.55355         0.06059        -0.00051
| 12>    C        1.33555         1.09990         0.00085
| 13>    N        2.11574        -0.01317        -0.00096
| 14>    C        1.33749        -1.19917        -0.00260
| 15>    O        1.82075        -2.30830        -0.00439
| 16>    C        3.55298        -0.04688        -0.00133
| 17>    H       -1.78006        -2.05827        -0.00365
| 18>    H       -3.85626         1.10774         0.00055
| 19>    H       -3.95207        -0.43144         0.88883
| 20>    H       -3.95194        -0.42963        -0.89090
| 21>    H        1.77501         2.08109         0.00223
| 22>    H        3.94449         0.96771        -0.00144
| 23>    H        3.91151        -0.57877        -0.88494
| 24>    H        3.91214        -0.57878         0.88203
| 25> *
| 26>
| 27>                          ****END OF INPUT****
 Total Charge           Charge          ....    0
 Multiplicity           Mult            ....    1
 Number of Electrons    NEL             ....   86
Dispersion correction           -0.036587443
FINAL SINGLE POINT ENERGY      -569.231303351222
Dispersion correction            ... done
Dispersion correction           -0.036482018
FINAL SINGLE POINT ENERGY      -569.233908959034
Dispersion correction            ... done
Dispersion correction           -0.036469547
FINAL SINGLE POINT ENERGY      -569.234055224557
Dispersion correction            ... done
Dispersion correction           -0.036467707
FINAL SINGLE POINT ENERGY      -569.234089919945
Dispersion correction            ... done
Dispersion correction           -0.036469236
FINAL SINGLE POINT ENERGY      -569.234089855358
Dispersion correction            ... done
                    ***********************HURRAY********************

CARTESIAN COORDINATES (ANGSTROEM)
---------------------------------
  C     -1.339962   -1.086037   -0.002200
  C     -0.023947   -0.705995   -0.002299
  C      0.021149    0.735494    0.000019
  C     -1.348315    1.242907    0.001286
  O     -1.829886    2.355401    0.003538
  N     -2.139274    0.033773   -0.000415
  C     -3.582910    0.056867   -0.000213
  C      1.338335    1.115309    0.000318
  N      2.135434   -0.005963   -0.001546
  C      1.347257   -1.210918   -0.003931
  O      1.840367   -2.318440   -0.005819
  C      3.579122   -0.057291   -0.000760
  H     -1.781013   -2.083135   -0.003431
  H     -3.888470    1.111646    0.000608
  H     -3.995553   -0.435810    0.895112
  H     -3.995662   -0.434529   -0.896203
  H      1.780513    2.111892    0.001886
  H      3.981975    0.963888   -0.001577
  H      3.949612   -0.593736   -0.888032
  H      3.948967   -0.591955    0.887917

 Multiplicity           Mult            ....    1
 Number of Electrons    NEL             ....   86
 Basis Dimension        Dim             ....  208

ORBITAL ENERGIES
----------------

  NO   OCC          E(Eh)            E(eV)
   0   2.0000     -19.114769      -520.1393
   1   2.0000     -19.114567      -520.1338
   2   2.0000     -14.382184      -391.3591
   3   2.0000     -14.380240      -391.3062
   4   2.0000     -10.296399      -280.1793
   5   2.0000     -10.295637      -280.1585
   6   2.0000     -10.259299      -279.1697
   7   2.0000     -10.257184      -279.1122
   8   2.0000     -10.239244      -278.6240
   9   2.0000     -10.234899      -278.5058
  10   2.0000     -10.188406      -277.2406
  11   2.0000     -10.187958      -277.2284
  12   2.0000      -1.041744       -28.3473
  13   2.0000      -1.037011       -28.2185
  14   2.0000      -0.972268       -26.4568
  15   2.0000      -0.961526       -26.1644
  16   2.0000      -0.830826       -22.6079
  17   2.0000      -0.763287       -20.7701
  18   2.0000      -0.725744       -19.7485
  19   2.0000      -0.689054       -18.7501
  20   2.0000      -0.681145       -18.5349
  21   2.0000      -0.594881       -16.1875
  22   2.0000      -0.592752       -16.1296
  23   2.0000      -0.532901       -14.5010
  24   2.0000      -0.504202       -13.7200
  25   2.0000      -0.503532       -13.7018
  26   2.0000      -0.491207       -13.3664
  27   2.0000      -0.487004       -13.2521
  28   2.0000      -0.472744       -12.8640
  29   2.0000      -0.443981       -12.0813
  30   2.0000      -0.433599       -11.7988
  31   2.0000      -0.429107       -11.6766
  32   2.0000      -0.418895       -11.3987
  33   2.0000      -0.414309       -11.2739
  34   2.0000      -0.403759       -10.9868
  35   2.0000      -0.396555       -10.7908
  36   2.0000      -0.388514       -10.5720
  37   2.0000      -0.342205        -9.3119
  38   2.0000      -0.338924        -9.2226
  39   2.0000      -0.278765        -7.5856
  40   2.0000      -0.263910        -7.1814
  41   2.0000      -0.253836        -6.9072
  42   2.0000      -0.207847        -5.6558
  43   0.0000      -0.085476        -2.3259
  44   0.0000      -0.003817        -0.1039
  45   0.0000       0.055569         1.5121
  46   0.0000       0.060490         1.6460
  47   0.0000       0.081340         2.2134

MULLIKEN ATOMIC CHARGES
-----------------------
   0 C :    0.070194
   1 C :   -0.030399
   2 C :   -0.048110
   3 C :    0.195937
   4 O :   -0.192893
   5 N :   -0.296772
   6 C :    0.125031
   7 C :    0.076830
   8 N :   -0.292027
   9 C :    0.187867
  10 O :   -0.193900
  11 C :    0.150737
  12 H :    0.016480
  13 H :    0.052835
  14 H :    0.029558
  15 H :    0.029528
  16 H :    0.017613
  17 H :    0.022422
  18 H :    0.039586
  19 H :    0.039484
Sum of atomic charges:    0.0000000

LOEWDIN ATOMIC CHARGES
----------------------
   0 C :    0.092351
   1 C :   -0.128383
   2 C :   -0.132618
   3 C :    0.082614
   4 O :   -0.184262
   5 N :   -0.021768
   6 C :    0.032364
   7 C :    0.092437
   8 N :   -0.018639
   9 C :    0.080215
  10 O :   -0.184382
  11 C :    0.039456
  12 H :    0.033610
  13 H :    0.038953
  14 H :    0.025463
  15 H :    0.025465
  16 H :    0.033107
  17 H :    0.028679
  18 H :    0.032705
  19 H :    0.032633

  Mayer bond orders larger than 0.100000
B(  0-C ,  1-C ) :   1.4642 B(  0-C ,  5-N ) :   1.1870 B(  0-C , 12-H ) :   0.9855
B(  1-C ,  2-C ) :   1.2046 B(  1-C ,  9-C ) :   0.9734 B(  2-C ,  3-C ) :   0.9814
B(  2-C ,  7-C ) :   1.4618 B(  3-C ,  4-O ) :   2.1301 B(  3-C ,  5-N ) :   0.9849
B(  5-N ,  6-C ) :   0.9660 B(  6-C , 13-H ) :   0.9573 B(  6-C , 14-H ) :   0.9734
B(  6-C , 15-H ) :   0.9734 B(  7-C ,  8-N ) :   1.1945 B(  7-C , 16-H ) :   0.9805
B(  8-N ,  9-C ) :   0.9860 B(  8-N , 11-C ) :   0.9635 B(  9-C , 10-O ) :   2.1450
B( 11-C , 17-H ) :   0.9706 B( 11-C , 18-H ) :   0.9692 B( 11-C , 19-H ) :   0.9693

Dispersion correction           -0.036470406
FINAL SINGLE POINT ENERGY      -569.234088517865

DIPOLE MOMENT
-------------
                                X             Y             Z
Electronic contribution:      0.06162       0.06380      -0.00351
Nuclear contribution   :      0.00034      -0.05122       0.00387
                        -----------------------------------------
Total Dipole Moment    :      0.06196       0.01258       0.00037
                        -----------------------------------------
Magnitude (a.u.)       :      0.06323
Magnitude (Debye)      :      0.16072

Rotational constants in cm-1:     0.073792     0.021767     0.016917
Rotational constants in MHz :  2212.223224   652.563455   507.160865

                             ****ORCA TERMINATED NORMALLY****
TOTAL RUN TIME: 0 days 0 hours 7 minutes 17 seconds 93 msec
