                         Program Version 4.2.0 -  RELEASE  -
|  1> # ORCA input file
|  2> # SCF done        -36.852676651416          0.000807413311
|  3> ! B3LYP/G D3BJ Opt RIJCOSX def2-SVP def2/J
|  4> * xyz 0 1
|  5>    S       -1.60756        -0.07433         0.42772
|  6>    C       -0.33808        -1.42765         0.29887
|  7>    C       -0.38735        -2.27951         1.56550
|  8>    C       -0.62768        -2.26600        -0.94462
|  9>    C        0.95760        -0.70603         0.17758
| 10>    C        0.91118         0.63710         0.18789
| 11>    C       -0.42418         1.19433         0.32164
| 12>    C       -0.75748         2.51785         0.36444
| 13>    C        0.17317         3.57369         0.29010
| 14>    N        0.87811         4.47703         0.24407
| 15>    C       -2.10531         2.91785         0.49248
| 16>    N       -3.20347         3.23131         0.59390
| 17>    C        2.07561         1.43351         0.07265
| 18>    N        3.06133         2.00680        -0.02397
| 19>    H       -1.36996        -2.73300         1.67072
| 20>    H       -0.18837        -1.67204         2.44585
| 21>    H        0.35833        -3.06974         1.51020
| 22>    H       -1.60584        -2.73289        -0.85887
| 23>    H        0.12398        -3.04549        -1.05009
| 24>    H       -0.61513        -1.64547        -1.83825
| 25>    H        1.87092        -1.27032         0.08642
| 26> *
| 27>
| 28>                          ****END OF INPUT****
 Total Charge           Charge          ....    0
 Multiplicity           Mult            ....    1
 Number of Electrons    NEL             ....  104
Dispersion correction           -0.050938405
FINAL SINGLE POINT ENERGY      -947.171763897132
Dispersion correction            ... done
Dispersion correction           -0.050230681
FINAL SINGLE POINT ENERGY      -947.176115618361
Dispersion correction            ... done
Dispersion correction           -0.050205504
FINAL SINGLE POINT ENERGY      -947.176194591239
Dispersion correction            ... done
FINAL SINGLE POINT ENERGY      -947.176188133358
FINAL SINGLE POINT ENERGY      -947.176180327764
Dispersion correction            ... done
Dispersion correction           -0.050234095
FINAL SINGLE POINT ENERGY      -947.176180017978
Dispersion correction            ... done
Dispersion correction           -0.050237692
FINAL SINGLE POINT ENERGY      -947.176184030592
Dispersion correction            ... done
                    ***********************HURRAY********************

CARTESIAN COORDINATES (ANGSTROEM)
---------------------------------
  S     -1.598975   -0.055795    0.507079
  C     -0.345582   -1.427434    0.322408
  C     -0.382412   -2.318276    1.573084
  C     -0.648116   -2.228143   -0.957263
  C      0.961840   -0.709405    0.204003
  C      0.937754    0.643536    0.215384
  C     -0.410525    1.216932    0.350021
  C     -0.767721    2.547018    0.352136
  C      0.158279    3.627443    0.217079
  N      0.860120    4.546991    0.114977
  C     -2.147989    2.901607    0.485598
  N     -3.274327    3.164396    0.593801
  C      2.139927    1.414232    0.108343
  N      3.151874    1.973523    0.020640
  H     -1.377773   -2.772088    1.692963
  H     -0.149235   -1.738386    2.477323
  H      0.350443   -3.134644    1.473944
  H     -1.650280   -2.679303   -0.904859
  H      0.085303   -3.041813   -1.071908
  H     -0.601332   -1.583578   -1.846266
  H      1.888549   -1.279812    0.105740

 Multiplicity           Mult            ....    1
 Number of Electrons    NEL             ....  104
 Basis Dimension        Dim             ....  235

ORBITAL ENERGIES
----------------

  NO   OCC          E(Eh)            E(eV)
   0   2.0000     -88.904981     -2419.2275
   1   2.0000     -14.356409      -390.6577
   2   2.0000     -14.348247      -390.4356
   3   2.0000     -14.342566      -390.2811
   4   2.0000     -10.300598      -280.2935
   5   2.0000     -10.288679      -279.9692
   6   2.0000     -10.287366      -279.9335
   7   2.0000     -10.283795      -279.8363
   8   2.0000     -10.272900      -279.5398
   9   2.0000     -10.255465      -279.0654
  10   2.0000     -10.249357      -278.8992
  11   2.0000     -10.244864      -278.7769
  12   2.0000     -10.235070      -278.5104
  13   2.0000     -10.234872      -278.5050
  14   2.0000      -7.999870      -217.6875
  15   2.0000      -5.968563      -162.4129
  16   2.0000      -5.964858      -162.3120
  17   2.0000      -5.959338      -162.1618
  18   2.0000      -0.947340       -25.7784
  19   2.0000      -0.922427       -25.1005
  20   2.0000      -0.916080       -24.9278
  21   2.0000      -0.907849       -24.7038
  22   2.0000      -0.858041       -23.3485
  23   2.0000      -0.823485       -22.4082
  24   2.0000      -0.780590       -21.2409
  25   2.0000      -0.733896       -19.9703
  26   2.0000      -0.709112       -19.2959
  27   2.0000      -0.651121       -17.7179
  28   2.0000      -0.626336       -17.0435
  29   2.0000      -0.593164       -16.1408
  30   2.0000      -0.577551       -15.7159
  31   2.0000      -0.519676       -14.1411
  32   2.0000      -0.493012       -13.4155
  33   2.0000      -0.488331       -13.2882
  34   2.0000      -0.471366       -12.8265
  35   2.0000      -0.444942       -12.1075
  36   2.0000      -0.439499       -11.9594
  37   2.0000      -0.427375       -11.6295
  38   2.0000      -0.411811       -11.2059
  39   2.0000      -0.409434       -11.1413
  40   2.0000      -0.401267       -10.9190
  41   2.0000      -0.385846       -10.4994
  42   2.0000      -0.382796       -10.4164
  43   2.0000      -0.377991       -10.2857
  44   2.0000      -0.371345       -10.1048
  45   2.0000      -0.368469       -10.0265
  46   2.0000      -0.359731        -9.7888
  47   2.0000      -0.356318        -9.6959
  48   2.0000      -0.355562        -9.6753
  49   2.0000      -0.340737        -9.2719
  50   2.0000      -0.308645        -8.3987
  51   2.0000      -0.261800        -7.1239
  52   0.0000      -0.123165        -3.3515
  53   0.0000      -0.057813        -1.5732
  54   0.0000      -0.043492        -1.1835
  55   0.0000      -0.006740        -0.1834
  56   0.0000       0.009033         0.2458

MULLIKEN ATOMIC CHARGES
-----------------------
   0 S :    0.127764
   1 C :   -0.346921
   2 C :    0.112473
   3 C :    0.114798
   4 C :    0.057025
   5 C :   -0.062135
   6 C :    0.072316
   7 C :   -0.273872
   8 C :   -0.150640
   9 N :    0.153660
  10 C :   -0.168575
  11 N :    0.112129
  12 C :   -0.134786
  13 N :    0.150119
  14 H :    0.036011
  15 H :    0.036275
  16 H :    0.030671
  17 H :    0.035822
  18 H :    0.031562
  19 H :    0.037876
  20 H :    0.028427
Sum of atomic charges:   -0.0000000

LOEWDIN ATOMIC CHARGES
----------------------
   0 S :    0.388155
   1 C :   -0.128933
   2 C :   -0.040139
   3 C :   -0.039694
   4 C :    0.059591
   5 C :   -0.075142
   6 C :   -0.081685
   7 C :   -0.149928
   8 C :   -0.031561
   9 N :   -0.031165
  10 C :   -0.029772
  11 N :   -0.041265
  12 C :   -0.032884
  13 N :   -0.017127
  14 H :    0.034306
  15 H :    0.033424
  16 H :    0.033137
  17 H :    0.034321
  18 H :    0.033159
  19 H :    0.033920
  20 H :    0.049283

  Mayer bond orders larger than 0.100000
B(  0-S ,  1-C ) :   0.9896 B(  0-S ,  6-C ) :   1.1191 B(  1-C ,  2-C ) :   0.9940
B(  1-C ,  3-C ) :   0.9862 B(  1-C ,  4-C ) :   0.9407 B(  2-C , 14-H ) :   0.9610
B(  2-C , 15-H ) :   0.9625 B(  2-C , 16-H ) :   0.9594 B(  3-C , 17-H ) :   0.9605
B(  3-C , 18-H ) :   0.9596 B(  3-C , 19-H ) :   0.9624 B(  4-C ,  5-C ) :   1.7701
B(  4-C , 20-H ) :   0.9791 B(  5-C ,  6-C ) :   1.0565 B(  5-C , 12-C ) :   1.1000
B(  6-C ,  7-C ) :   1.6178 B(  7-C ,  8-C ) :   1.1619 B(  7-C , 10-C ) :   1.1377
B(  8-C ,  9-N ) :   2.9847 B( 10-C , 11-N ) :   2.9937 B( 12-C , 13-N ) :   3.0127

Dispersion correction           -0.050239867
FINAL SINGLE POINT ENERGY      -947.176188747061

DIPOLE MOMENT
-------------
                                X             Y             Z
Electronic contribution:     -0.35937      17.49501       0.26998
Nuclear contribution   :      0.26422     -21.21584      -0.25148
                        -----------------------------------------
Total Dipole Moment    :     -0.09516      -3.72084       0.01849
                        -----------------------------------------
Magnitude (a.u.)       :      3.72210
Magnitude (Debye)      :      9.46082

Rotational constants in cm-1:     0.028721     0.017739     0.011818
Rotational constants in MHz :   861.036296   531.806599   354.305828

                             ****ORCA TERMINATED NORMALLY****
TOTAL RUN TIME: 0 days 0 hours 12 minutes 1 seconds 838 msec
