                         Program Version 4.2.0 -  RELEASE  -
|  1> # ORCA input file
|  2> # SCF done        -33.087028608123          0.000803810944
|  3> ! B3LYP/G D3BJ Opt RIJCOSX def2-SVP def2/J
|  4> * xyz 0 1
|  5>    C        0.08599         1.56316        -0.01845
|  6>    C       -1.17935         0.77797        -0.00063
|  7>    N       -2.36692         1.34426        -0.00188
|  8>    S       -3.50941         0.19232         0.01931
|  9>    N       -2.49693        -1.07551         0.03254
| 10>    C       -1.25554        -0.63990         0.01954
| 11>    C       -0.08162        -1.55631         0.02592
| 12>    C        1.18371        -0.77117         0.00449
| 13>    C        1.25989         0.64670        -0.01568
| 14>    N        2.50126         1.08226        -0.03191
| 15>    S        3.51370        -0.18564        -0.02398
| 16>    N        2.37125        -1.33750         0.00251
| 17>    H        0.12718         2.22898         0.84945
| 18>    H        0.11529         2.20887        -0.90183
| 19>    H       -0.12300        -2.22624        -0.83875
| 20>    H       -0.11067        -2.19783         0.91241
| 21> *
| 22>
| 23>                          ****END OF INPUT****
 Total Charge           Charge          ....    0
 Multiplicity           Mult            ....    1
 Number of Electrons    NEL             ....  100
Dispersion correction           -0.038747999
FINAL SINGLE POINT ENERGY     -1245.888347762680
Dispersion correction            ... done
Dispersion correction           -0.038589590
FINAL SINGLE POINT ENERGY     -1245.892526090026
Dispersion correction            ... done
Dispersion correction           -0.038610398
FINAL SINGLE POINT ENERGY     -1245.893191020400
Dispersion correction            ... done
FINAL SINGLE POINT ENERGY     -1245.893342814365
Dispersion correction            ... done
Dispersion correction           -0.038695475
FINAL SINGLE POINT ENERGY     -1245.893375730797
Dispersion correction            ... done
Dispersion correction           -0.038683311
FINAL SINGLE POINT ENERGY     -1245.893419669576
Dispersion correction            ... done
                    ***********************HURRAY********************

CARTESIAN COORDINATES (ANGSTROEM)
---------------------------------
  C      0.086152    1.569776   -0.016813
  C     -1.200215    0.790412   -0.000512
  N     -2.377035    1.381494   -0.002914
  S     -3.535168    0.194812    0.016885
  N     -2.514289   -1.111394    0.030101
  C     -1.279053   -0.652433    0.018924
  C     -0.081755   -1.562877    0.027390
  C      1.204560   -0.783615    0.003886
  C      1.283424    0.659242   -0.014936
  N      2.518629    1.118093   -0.032882
  S      3.539430   -0.188238   -0.026869
  N      2.381307   -1.374816   -0.001364
  H      0.126199    2.244586    0.854633
  H      0.115500    2.224955   -0.903424
  H     -0.122445   -2.244708   -0.838432
  H     -0.110412   -2.210870    0.919388

 Multiplicity           Mult            ....    1
 Number of Electrons    NEL             ....  100
 Basis Dimension        Dim             ....  196

ORBITAL ENERGIES
----------------

  NO   OCC          E(Eh)            E(eV)
   0   2.0000     -88.928667     -2419.8720
   1   2.0000     -88.928658     -2419.8718
   2   2.0000     -14.363520      -390.8512
   3   2.0000     -14.363513      -390.8511
   4   2.0000     -14.363310      -390.8455
   5   2.0000     -14.363292      -390.8450
   6   2.0000     -10.254187      -279.0306
   7   2.0000     -10.254057      -279.0271
   8   2.0000     -10.253914      -279.0232
   9   2.0000     -10.253891      -279.0225
  10   2.0000     -10.226907      -278.2883
  11   2.0000     -10.226860      -278.2870
  12   2.0000      -8.020577      -218.2510
  13   2.0000      -8.020569      -218.2508
  14   2.0000      -5.990980      -163.0228
  15   2.0000      -5.990979      -163.0228
  16   2.0000      -5.983887      -162.8298
  17   2.0000      -5.983884      -162.8297
  18   2.0000      -5.980578      -162.7398
  19   2.0000      -5.980577      -162.7398
  20   2.0000      -1.022145       -27.8140
  21   2.0000      -1.018040       -27.7023
  22   2.0000      -0.896392       -24.3921
  23   2.0000      -0.888390       -24.1743
  24   2.0000      -0.844648       -22.9840
  25   2.0000      -0.768890       -20.9226
  26   2.0000      -0.757108       -20.6020
  27   2.0000      -0.695509       -18.9258
  28   2.0000      -0.630355       -17.1528
  29   2.0000      -0.604724       -16.4554
  30   2.0000      -0.591528       -16.0963
  31   2.0000      -0.547713       -14.9040
  32   2.0000      -0.516927       -14.0663
  33   2.0000      -0.498163       -13.5557
  34   2.0000      -0.459204       -12.4956
  35   2.0000      -0.454919       -12.3790
  36   2.0000      -0.451384       -12.2828
  37   2.0000      -0.449859       -12.2413
  38   2.0000      -0.426943       -11.6177
  39   2.0000      -0.408118       -11.1055
  40   2.0000      -0.405780       -11.0418
  41   2.0000      -0.382733       -10.4147
  42   2.0000      -0.336925        -9.1682
  43   2.0000      -0.328252        -8.9322
  44   2.0000      -0.325472        -8.8565
  45   2.0000      -0.309879        -8.4322
  46   2.0000      -0.305561        -8.3147
  47   2.0000      -0.301935        -8.2161
  48   2.0000      -0.281648        -7.6640
  49   2.0000      -0.267544        -7.2802
  50   0.0000      -0.076547        -2.0829
  51   0.0000      -0.057036        -1.5520
  52   0.0000       0.000458         0.0125
  53   0.0000       0.017280         0.4702
  54   0.0000       0.017881         0.4866

MULLIKEN ATOMIC CHARGES
-----------------------
   0 C :    0.353798
   1 C :   -0.149281
   2 N :   -0.285865
   3 S :    0.430535
   4 N :   -0.286059
   5 C :   -0.152424
   6 C :    0.353844
   7 C :   -0.149286
   8 C :   -0.152427
   9 N :   -0.286055
  10 S :    0.430532
  11 N :   -0.285855
  12 H :    0.044975
  13 H :    0.044311
  14 H :    0.044998
  15 H :    0.044261
Sum of atomic charges:   -0.0000000

LOEWDIN ATOMIC CHARGES
----------------------
   0 C :   -0.023335
   1 C :   -0.059643
   2 N :   -0.266634
   3 S :    0.560031
   4 N :   -0.266970
   5 C :   -0.059822
   6 C :   -0.023335
   7 C :   -0.059644
   8 C :   -0.059819
   9 N :   -0.266973
  10 S :    0.560029
  11 N :   -0.266630
  12 H :    0.058214
  13 H :    0.058158
  14 H :    0.058239
  15 H :    0.058133

  Mayer bond orders larger than 0.100000
B(  0-C ,  1-C ) :   1.0313 B(  0-C ,  8-C ) :   1.0319 B(  0-C , 12-H ) :   0.8739
B(  0-C , 13-H ) :   0.8737 B(  1-C ,  2-N ) :   1.6421 B(  1-C ,  5-C ) :   1.2242
B(  2-N ,  3-S ) :   1.1884 B(  2-N ,  4-N ) :   0.1367 B(  3-S ,  4-N ) :   1.1886
B(  4-N ,  5-C ) :   1.6415 B(  5-C ,  6-C ) :   1.0319 B(  6-C ,  7-C ) :   1.0313
B(  6-C , 14-H ) :   0.8743 B(  6-C , 15-H ) :   0.8732 B(  7-C ,  8-C ) :   1.2242
B(  7-C , 11-N ) :   1.6422 B(  8-C ,  9-N ) :   1.6415 B(  9-N , 10-S ) :   1.1886
B(  9-N , 11-N ) :   0.1367 B( 10-S , 11-N ) :   1.1884

Dispersion correction           -0.038684081
FINAL SINGLE POINT ENERGY     -1245.893421035071

DIPOLE MOMENT
-------------
                                X             Y             Z
Electronic contribution:     -0.00016      -0.00047      -0.02886
Nuclear contribution   :      0.00019       0.00051       0.03367
                        -----------------------------------------
Total Dipole Moment    :      0.00003       0.00004       0.00481
                        -----------------------------------------
Magnitude (a.u.)       :      0.00481
Magnitude (Debye)      :      0.01222

Rotational constants in cm-1:     0.086548     0.013831     0.011978
Rotational constants in MHz :  2594.630204   414.655616   359.103933

                             ****ORCA TERMINATED NORMALLY****
TOTAL RUN TIME: 0 days 0 hours 7 minutes 11 seconds 262 msec
