                         Program Version 4.2.0 -  RELEASE  -
|  1> # ORCA input file
|  2> # SCF done        -59.750703316397          0.000500134563
|  3> ! B3LYP/G D3BJ Opt RIJCOSX def2-SVP def2/J
|  4> * xyz 0 1
|  5>    N        0.74955         1.11913        -1.23399
|  6>    C        1.39156         2.40568        -1.26822
|  7>    C        1.51372         3.07395        -2.47541
|  8>    C        2.14844         4.30217        -2.50769
|  9>    C        2.66363         4.84904        -1.34442
| 10>    C        2.54506         4.16911        -0.14457
| 11>    C        1.90719         2.94186        -0.10078
| 12>    C       -0.61597         1.07927        -1.30276
| 13>    S       -1.50359         2.46534        -1.31686
| 14>    N       -1.22602        -0.14458        -1.34299
| 15>    C       -2.65674        -0.18377        -1.48512
| 16>    C       -3.44388        -0.46532        -0.38184
| 17>    C       -4.81825        -0.52875        -0.53030
| 18>    C       -5.39450        -0.31251        -1.77008
| 19>    C       -4.59815        -0.03498        -2.86848
| 20>    C       -3.22341         0.02578        -2.73160
| 21>    C       -0.58219        -1.36559        -1.22771
| 22>    O       -1.19985        -2.40440        -1.25383
| 23>    C        0.88772        -1.29121        -1.07723
| 24>    C        1.57958         0.01545        -1.11864
| 25>    O        2.78054         0.13922        -1.05919
| 26>    C        1.59562        -2.41384        -0.91270
| 27>    H        1.10777         2.63729        -3.37557
| 28>    H        2.24173         4.83013        -3.44444
| 29>    H        3.15996         5.80728        -1.37388
| 30>    H        2.94889         4.59323         0.76210
| 31>    H        1.80911         2.40183         0.82868
| 32>    H       -2.98260        -0.63300         0.57954
| 33>    H       -5.43773        -0.74714         0.32620
| 34>    H       -6.46719        -0.36110        -1.88144
| 35>    H       -5.04623         0.13246        -3.83601
| 36>    H       -2.59173         0.24105        -3.58031
| 37>    H        1.10131        -3.37045        -0.88487
| 38>    H        2.66658        -2.37332        -0.80565
| 39> *
| 40>
| 41>                          ****END OF INPUT****
 Total Charge           Charge          ....    0
 Multiplicity           Mult            ....    1
 Number of Electrons    NEL             ....  160
Dispersion correction           -0.088704242
FINAL SINGLE POINT ENERGY     -1312.494990045827
Dispersion correction            ... done
Dispersion correction           -0.087502410
FINAL SINGLE POINT ENERGY     -1312.500881457768
Dispersion correction            ... done
Dispersion correction           -0.087335918
FINAL SINGLE POINT ENERGY     -1312.501289747105
Dispersion correction            ... done
FINAL SINGLE POINT ENERGY     -1312.501405744684
FINAL SINGLE POINT ENERGY     -1312.501451048498
FINAL SINGLE POINT ENERGY     -1312.501465042078
FINAL SINGLE POINT ENERGY     -1312.501468995681
FINAL SINGLE POINT ENERGY     -1312.501467623030
FINAL SINGLE POINT ENERGY     -1312.501453771863
FINAL SINGLE POINT ENERGY     -1312.501438403366
Dispersion correction            ... done
Dispersion correction           -0.087404302
FINAL SINGLE POINT ENERGY     -1312.501429067876
Dispersion correction            ... done
Dispersion correction           -0.087407011
FINAL SINGLE POINT ENERGY     -1312.501429302203
Dispersion correction            ... done
                    ***********************HURRAY********************

CARTESIAN COORDINATES (ANGSTROEM)
---------------------------------
  N      0.727528    1.171509   -1.290609
  C      1.396237    2.453625   -1.258437
  C      1.819156    3.033737   -2.453186
  C      2.516756    4.241765   -2.419554
  C      2.790065    4.858439   -1.195450
  C      2.361923    4.268087   -0.003223
  C      1.664059    3.060112   -0.031701
  C     -0.665172    1.141062   -1.354865
  S     -1.559930    2.528339   -1.380314
  N     -1.262518   -0.118211   -1.403115
  C     -2.704484   -0.198154   -1.478041
  C     -3.450549   -0.237214   -0.300793
  C     -4.840375   -0.335452   -0.373642
  C     -5.472647   -0.401913   -1.618233
  C     -4.714513   -0.377112   -2.792006
  C     -3.324631   -0.277667   -2.724060
  C     -0.584970   -1.350368   -1.410486
  O     -1.187428   -2.396314   -1.507187
  C      0.890468   -1.265842   -1.280120
  C      1.575871    0.049435   -1.250586
  O      2.779216    0.173929   -1.195291
  C      1.614406   -2.392581   -1.186561
  H      1.597449    2.536768   -3.399218
  H      2.853759    4.702174   -3.350806
  H      3.336486    5.803742   -1.170601
  H      2.578109    4.750506    0.952632
  H      1.321053    2.585244    0.888981
  H     -2.940843   -0.178250    0.662482
  H     -5.431483   -0.361006    0.544227
  H     -6.560947   -0.481217   -1.675158
  H     -5.208634   -0.439273   -3.764169
  H     -2.717536   -0.255919   -3.630413
  H      1.113867   -3.362341   -1.204867
  H      2.700181   -2.330328   -1.085692

 Multiplicity           Mult            ....    1
 Number of Electrons    NEL             ....  160
 Basis Dimension        Dim             ....  372

ORBITAL ENERGIES
----------------

  NO   OCC          E(Eh)            E(eV)
   0   2.0000     -88.809430     -2416.6274
   1   2.0000     -19.134732      -520.6825
   2   2.0000     -19.134412      -520.6738
   3   2.0000     -14.406394      -392.0179
   4   2.0000     -14.406384      -392.0176
   5   2.0000     -10.326735      -281.0047
   6   2.0000     -10.322182      -280.8808
   7   2.0000     -10.322074      -280.8779
   8   2.0000     -10.240488      -278.6578
   9   2.0000     -10.240343      -278.6539
  10   2.0000     -10.237488      -278.5762
  11   2.0000     -10.231592      -278.4158
  12   2.0000     -10.202237      -277.6170
  13   2.0000     -10.201953      -277.6092
  14   2.0000     -10.201874      -277.6071
  15   2.0000     -10.201815      -277.6055
  16   2.0000     -10.200326      -277.5650
  17   2.0000     -10.200136      -277.5598
  18   2.0000     -10.199932      -277.5543
  19   2.0000     -10.199834      -277.5516
  20   2.0000     -10.199651      -277.5466
  21   2.0000     -10.198973      -277.5282
  22   2.0000      -7.905712      -215.1254
  23   2.0000      -5.874793      -159.8613
  24   2.0000      -5.871070      -159.7599
  25   2.0000      -5.864486      -159.5808
  26   2.0000      -1.074192       -29.2302
  27   2.0000      -1.061475       -28.8842
  28   2.0000      -1.005299       -27.3556
  29   2.0000      -0.949905       -25.8482
  30   2.0000      -0.861862       -23.4525
  31   2.0000      -0.850733       -23.1496
  32   2.0000      -0.829053       -22.5597
  33   2.0000      -0.780708       -21.2442
  34   2.0000      -0.759085       -20.6558
  35   2.0000      -0.750927       -20.4338
  36   2.0000      -0.750630       -20.4257
  37   2.0000      -0.743841       -20.2409
  38   2.0000      -0.675486       -18.3809
  39   2.0000      -0.659284       -17.9400
  40   2.0000      -0.654859       -17.8196
  41   2.0000      -0.618328       -16.8256
  42   2.0000      -0.616859       -16.7856
  43   2.0000      -0.607579       -16.5331
  44   2.0000      -0.596373       -16.2281
  45   2.0000      -0.581370       -15.8199
  46   2.0000      -0.553428       -15.0595
  47   2.0000      -0.533862       -14.5271
  48   2.0000      -0.503275       -13.6948
  49   2.0000      -0.501725       -13.6526
  50   2.0000      -0.484979       -13.1969
  51   2.0000      -0.479924       -13.0594
  52   2.0000      -0.464813       -12.6482
  53   2.0000      -0.459078       -12.4922
  54   2.0000      -0.457024       -12.4362
  55   2.0000      -0.453843       -12.3497
  56   2.0000      -0.445693       -12.1279
  57   2.0000      -0.445392       -12.1197
  58   2.0000      -0.435119       -11.8402
  59   2.0000      -0.433653       -11.8003
  60   2.0000      -0.423272       -11.5178
  61   2.0000      -0.412048       -11.2124
  62   2.0000      -0.403242       -10.9728
  63   2.0000      -0.396887       -10.7999
  64   2.0000      -0.378234       -10.2923
  65   2.0000      -0.377273       -10.2661
  66   2.0000      -0.372482       -10.1357
  67   2.0000      -0.369858       -10.0644
  68   2.0000      -0.363415        -9.8890
  69   2.0000      -0.358670        -9.7599
  70   2.0000      -0.308268        -8.3884
  71   2.0000      -0.304698        -8.2913
  72   2.0000      -0.297316        -8.0904
  73   2.0000      -0.286327        -7.7913
  74   2.0000      -0.272901        -7.4260
  75   2.0000      -0.267888        -7.2896
  76   2.0000      -0.267206        -7.2710
  77   2.0000      -0.265296        -7.2191
  78   2.0000      -0.248188        -6.7535
  79   2.0000      -0.215982        -5.8772
  80   0.0000      -0.105008        -2.8574
  81   0.0000      -0.032139        -0.8745
  82   0.0000      -0.025581        -0.6961
  83   0.0000      -0.018816        -0.5120
  84   0.0000      -0.018027        -0.4905

MULLIKEN ATOMIC CHARGES
-----------------------
   0 N :   -0.237989
   1 C :    0.110045
   2 C :    0.065062
   3 C :    0.013454
   4 C :    0.037111
   5 C :    0.009505
   6 C :    0.071733
   7 C :    0.136326
   8 S :   -0.148934
   9 N :   -0.240225
  10 C :    0.118559
  11 C :    0.061441
  12 C :    0.013075
  13 C :    0.028913
  14 C :    0.010932
  15 C :    0.064487
  16 C :    0.217939
  17 O :   -0.185595
  18 C :   -0.150823
  19 C :    0.211961
  20 O :   -0.184722
  21 C :    0.052650
  22 H :   -0.030244
  23 H :   -0.014745
  24 H :   -0.011304
  25 H :   -0.014330
  26 H :   -0.030863
  27 H :   -0.029656
  28 H :   -0.013333
  29 H :   -0.006682
  30 H :   -0.014699
  31 H :   -0.027871
  32 H :    0.056980
  33 H :    0.061843
Sum of atomic charges:    0.0000000

LOEWDIN ATOMIC CHARGES
----------------------
   0 N :   -0.021552
   1 C :    0.022032
   2 C :   -0.008605
   3 C :   -0.016069
   4 C :   -0.016910
   5 C :   -0.016542
   6 C :   -0.008029
   7 C :   -0.065036
   8 S :   -0.012327
   9 N :   -0.021364
  10 C :    0.022922
  11 C :   -0.009893
  12 C :   -0.016315
  13 C :   -0.018585
  14 C :   -0.015934
  15 C :   -0.008054
  16 C :    0.082982
  17 O :   -0.161308
  18 C :   -0.116119
  19 C :    0.082976
  20 O :   -0.160692
  21 C :    0.094596
  22 H :    0.030221
  23 H :    0.029642
  24 H :    0.029377
  25 H :    0.029626
  26 H :    0.030159
  27 H :    0.030222
  28 H :    0.029952
  29 H :    0.030158
  30 H :    0.029724
  31 H :    0.030817
  32 H :    0.043646
  33 H :    0.044280

  Mayer bond orders larger than 0.100000
B(  0-N ,  1-C ) :   0.8512 B(  0-N ,  7-C ) :   1.0848 B(  0-N , 19-C ) :   1.0327
B(  1-C ,  2-C ) :   1.4232 B(  1-C ,  6-C ) :   1.4251 B(  2-C ,  3-C ) :   1.3701
B(  2-C , 22-H ) :   0.9822 B(  3-C ,  4-C ) :   1.3890 B(  3-C , 23-H ) :   0.9782
B(  4-C ,  5-C ) :   1.3846 B(  4-C , 24-H ) :   0.9841 B(  5-C ,  6-C ) :   1.3709
B(  5-C , 25-H ) :   0.9790 B(  6-C , 26-H ) :   0.9821 B(  7-C ,  8-S ) :   1.6977
B(  7-C ,  9-N ) :   1.0842 B(  9-N , 10-C ) :   0.8507 B(  9-N , 16-C ) :   1.0315
B( 10-C , 11-C ) :   1.4259 B( 10-C , 15-C ) :   1.4221 B( 11-C , 12-C ) :   1.3692
B( 11-C , 27-H ) :   0.9837 B( 12-C , 13-C ) :   1.3839 B( 12-C , 28-H ) :   0.9795
B( 13-C , 14-C ) :   1.3854 B( 13-C , 29-H ) :   0.9868 B( 14-C , 15-C ) :   1.3707
B( 14-C , 30-H ) :   0.9796 B( 15-C , 31-H ) :   0.9835 B( 16-C , 17-O ) :   2.1373
B( 16-C , 18-C ) :   0.9190 B( 18-C , 19-C ) :   0.9180 B( 18-C , 21-C ) :   1.9487
B( 19-C , 20-O ) :   2.1375 B( 21-C , 32-H ) :   0.9262 B( 21-C , 33-H ) :   0.9274

Dispersion correction           -0.087407376
FINAL SINGLE POINT ENERGY     -1312.501429004412

DIPOLE MOMENT
-------------
                                X             Y             Z
Electronic contribution:      1.40544      -2.26988      -0.02227
Nuclear contribution   :     -1.38867       2.24576       0.08468
                        -----------------------------------------
Total Dipole Moment    :      0.01677      -0.02412       0.06240
                        -----------------------------------------
Magnitude (a.u.)       :      0.06897
Magnitude (Debye)      :      0.17532

Rotational constants in cm-1:     0.016128     0.006294     0.005008
Rotational constants in MHz :   483.500086   188.690302   150.139836

                             ****ORCA TERMINATED NORMALLY****
TOTAL RUN TIME: 0 days 0 hours 52 minutes 14 seconds 435 msec
