                         Program Version 4.2.0 -  RELEASE  -
|  1> # ORCA input file
|  2> # SCF done        -39.268069183622          0.000560204721
|  3> ! B3LYP/G D3BJ Opt RIJCOSX def2-SVP def2/J
|  4> * xyz 0 1
|  5>    C       -3.42592         0.12040        -0.00160
|  6>    C       -2.98762        -1.19466        -0.00750
|  7>    C       -1.63385        -1.49008        -0.00791
|  8>    C       -0.72685        -0.44356        -0.00211
|  9>    C       -1.17043         0.88679         0.00461
| 10>    C       -2.51882         1.17189         0.00470
| 11>    C        0.00121         1.84262         0.01235
| 12>    C        0.00184         2.72841        -1.23765
| 13>    C        0.00118         2.70416         1.27953
| 14>    C        1.17230         0.88611         0.00491
| 15>    C        2.52086         1.17046         0.00508
| 16>    C        3.42736         0.11847        -0.00162
| 17>    C        2.98834        -1.19634        -0.00802
| 18>    C        1.63440        -1.49100        -0.00837
| 19>    C        0.72798        -0.44397        -0.00210
| 20>    H       -4.48580         0.32998        -0.00175
| 21>    H       -3.71080        -1.99749        -0.01192
| 22>    H       -1.29444        -2.51536        -0.01266
| 23>    H       -2.87227         2.19307         0.00954
| 24>    H       -0.88122         3.36303        -1.25121
| 25>    H        0.00124         2.11253        -2.13460
| 26>    H        0.88599         3.36149        -1.25134
| 27>    H       -0.88112         3.33950         1.30417
| 28>    H        0.88623         3.33556         1.30690
| 29>    H       -0.00159         2.07080         2.16421
| 30>    H        2.87490         2.19144         0.01022
| 31>    H        4.48737         0.32747        -0.00177
| 32>    H        3.71107        -1.99957        -0.01294
| 33>    H        1.29442        -2.51610        -0.01354
| 34> *
| 35>
| 36>                          ****END OF INPUT****
 Total Charge           Charge          ....    0
 Multiplicity           Mult            ....    1
 Number of Electrons    NEL             ....  104
Dispersion correction           -0.065261673
FINAL SINGLE POINT ENERGY      -579.698820644312
Dispersion correction            ... done
Dispersion correction           -0.064848791
FINAL SINGLE POINT ENERGY      -579.702751661758
Dispersion correction            ... done
Dispersion correction           -0.064793628
FINAL SINGLE POINT ENERGY      -579.702820755083
Dispersion correction            ... done
Dispersion correction           -0.064785001
FINAL SINGLE POINT ENERGY      -579.702824115047
Dispersion correction            ... done
                    ***********************HURRAY********************

CARTESIAN COORDINATES (ANGSTROEM)
---------------------------------
  C     -3.461657    0.120360    0.000375
  C     -3.019351   -1.208843   -0.008713
  C     -1.652126   -1.505135   -0.010522
  C     -0.734137   -0.451840   -0.002989
  C     -1.180068    0.886909    0.006488
  C     -2.540628    1.176487    0.007967
  C      0.001272    1.852508    0.013567
  C      0.001570    2.733996   -1.249160
  C      0.001481    2.715497    1.289291
  C      1.182022    0.886172    0.006555
  C      2.542766    1.174887    0.008090
  C      3.463128    0.118174    0.000526
  C      3.019988   -1.210750   -0.008585
  C      1.652579   -1.506176   -0.010452
  C      0.735255   -0.452297   -0.002954
  H     -4.533083    0.336894    0.001454
  H     -3.749477   -2.021516   -0.014802
  H     -1.310078   -2.543100   -0.018150
  H     -2.893535    2.211465    0.015285
  H     -0.889322    3.381794   -1.275536
  H      0.001352    2.110278   -2.155967
  H      0.892904    3.381184   -1.275558
  H     -0.889312    3.362949    1.324943
  H      0.893025    3.361884    1.325384
  H      0.000878    2.078411    2.186742
  H      2.896348    2.209636    0.015425
  H      4.534692    0.334030    0.001641
  H      3.749596   -2.023886   -0.014642
  H      1.309879   -2.543923   -0.018095

 Multiplicity           Mult            ....    1
 Number of Electrons    NEL             ....  104
 Basis Dimension        Dim             ....  280

ORBITAL ENERGIES
----------------

  NO   OCC          E(Eh)            E(eV)
   0   2.0000     -10.205928      -277.7174
   1   2.0000     -10.191321      -277.3199
   2   2.0000     -10.191181      -277.3161
   3   2.0000     -10.190852      -277.3072
   4   2.0000     -10.190850      -277.3071
   5   2.0000     -10.190659      -277.3019
   6   2.0000     -10.190566      -277.2994
   7   2.0000     -10.190506      -277.2978
   8   2.0000     -10.190495      -277.2975
   9   2.0000     -10.190252      -277.2908
  10   2.0000     -10.190251      -277.2908
  11   2.0000     -10.188004      -277.2297
  12   2.0000     -10.187994      -277.2294
  13   2.0000     -10.185535      -277.1625
  14   2.0000     -10.185520      -277.1621
  15   2.0000      -0.883786       -24.0490
  16   2.0000      -0.837192       -22.7812
  17   2.0000      -0.806971       -21.9588
  18   2.0000      -0.767858       -20.8945
  19   2.0000      -0.735593       -20.0165
  20   2.0000      -0.724994       -19.7281
  21   2.0000      -0.706800       -19.2330
  22   2.0000      -0.682378       -18.5684
  23   2.0000      -0.639755       -17.4086
  24   2.0000      -0.616451       -16.7745
  25   2.0000      -0.580418       -15.7940
  26   2.0000      -0.571700       -15.5568
  27   2.0000      -0.554310       -15.0835
  28   2.0000      -0.508378       -13.8337
  29   2.0000      -0.495251       -13.4765
  30   2.0000      -0.475253       -12.9323
  31   2.0000      -0.450859       -12.2685
  32   2.0000      -0.447620       -12.1804
  33   2.0000      -0.435984       -11.8637
  34   2.0000      -0.435319       -11.8456
  35   2.0000      -0.429635       -11.6910
  36   2.0000      -0.421393       -11.4667
  37   2.0000      -0.419303       -11.4098
  38   2.0000      -0.393792       -10.7156
  39   2.0000      -0.383658       -10.4399
  40   2.0000      -0.383154       -10.4262
  41   2.0000      -0.376799       -10.2532
  42   2.0000      -0.354658        -9.6507
  43   2.0000      -0.349902        -9.5213
  44   2.0000      -0.347488        -9.4556
  45   2.0000      -0.344765        -9.3815
  46   2.0000      -0.322873        -8.7858
  47   2.0000      -0.322737        -8.7821
  48   2.0000      -0.286209        -7.7881
  49   2.0000      -0.253415        -6.8958
  50   2.0000      -0.249634        -6.7929
  51   2.0000      -0.219881        -5.9833
  52   0.0000      -0.038900        -1.0585
  53   0.0000      -0.016500        -0.4490
  54   0.0000       0.000653         0.0178
  55   0.0000       0.032900         0.8953
  56   0.0000       0.051685         1.4064

MULLIKEN ATOMIC CHARGES
-----------------------
   0 C :    0.016219
   1 C :    0.029362
   2 C :   -0.051970
   3 C :    0.090850
   4 C :    0.019172
   5 C :   -0.038622
   6 C :   -0.148557
   7 C :    0.088695
   8 C :    0.088694
   9 C :    0.019160
  10 C :   -0.038626
  11 C :    0.016149
  12 C :    0.029405
  13 C :   -0.051947
  14 C :    0.090917
  15 H :   -0.018795
  16 H :   -0.017942
  17 H :   -0.036902
  18 H :   -0.039446
  19 H :    0.008362
  20 H :    0.016867
  21 H :    0.008345
  22 H :    0.008390
  23 H :    0.008365
  24 H :    0.016943
  25 H :   -0.039436
  26 H :   -0.018771
  27 H :   -0.017964
  28 H :   -0.036916
Sum of atomic charges:   -0.0000000

LOEWDIN ATOMIC CHARGES
----------------------
   0 C :   -0.027049
   1 C :   -0.026956
   2 C :   -0.024287
   3 C :   -0.017675
   4 C :   -0.000100
   5 C :   -0.027651
   6 C :   -0.035737
   7 C :   -0.027838
   8 C :   -0.027867
   9 C :   -0.000100
  10 C :   -0.027652
  11 C :   -0.027055
  12 C :   -0.026949
  13 C :   -0.024283
  14 C :   -0.017671
  15 H :    0.025810
  16 H :    0.026532
  17 H :    0.024099
  18 H :    0.022753
  19 H :    0.021220
  20 H :    0.027787
  21 H :    0.021218
  22 H :    0.021225
  23 H :    0.021223
  24 H :    0.027807
  25 H :    0.022754
  26 H :    0.025815
  27 H :    0.026530
  28 H :    0.024096

  Mayer bond orders larger than 0.100000
B(  0-C ,  1-C ) :   1.3810 B(  0-C ,  5-C ) :   1.3439 B(  0-C , 15-H ) :   0.9818
B(  1-C ,  2-C ) :   1.3722 B(  1-C , 16-H ) :   0.9790 B(  2-C ,  3-C ) :   1.3405
B(  2-C , 17-H ) :   0.9874 B(  3-C ,  4-C ) :   1.3785 B(  3-C , 14-C ) :   1.0051
B(  4-C ,  5-C ) :   1.3970 B(  4-C ,  6-C ) :   0.9453 B(  5-C , 18-H ) :   0.9945
B(  6-C ,  7-C ) :   1.0250 B(  6-C ,  8-C ) :   1.0250 B(  6-C ,  9-C ) :   0.9453
B(  7-C , 19-H ) :   0.9619 B(  7-C , 20-H ) :   0.9644 B(  7-C , 21-H ) :   0.9619
B(  8-C , 22-H ) :   0.9618 B(  8-C , 23-H ) :   0.9618 B(  8-C , 24-H ) :   0.9643
B(  9-C , 10-C ) :   1.3970 B(  9-C , 14-C ) :   1.3785 B( 10-C , 11-C ) :   1.3439
B( 10-C , 25-H ) :   0.9945 B( 11-C , 12-C ) :   1.3810 B( 11-C , 26-H ) :   0.9818
B( 12-C , 13-C ) :   1.3722 B( 12-C , 27-H ) :   0.9790 B( 13-C , 14-C ) :   1.3406
B( 13-C , 28-H ) :   0.9874

Dispersion correction           -0.064784915
FINAL SINGLE POINT ENERGY      -579.702821364608

DIPOLE MOMENT
-------------
                                X             Y             Z
Electronic contribution:     -0.00215      -7.34285      -0.05254
Nuclear contribution   :      0.00225       7.53574       0.05331
                        -----------------------------------------
Total Dipole Moment    :      0.00010       0.19289       0.00077
                        -----------------------------------------
Magnitude (a.u.)       :      0.19289
Magnitude (Debye)      :      0.49029

Rotational constants in cm-1:     0.035379     0.018271     0.013077
Rotational constants in MHz :  1060.627362   547.756803   392.047042

                             ****ORCA TERMINATED NORMALLY****
TOTAL RUN TIME: 0 days 0 hours 11 minutes 29 seconds 344 msec
