                         Program Version 4.2.0 -  RELEASE  -
|  1> # ORCA input file
|  2> # SCF done        -69.722177433451          0.000783167287
|  3> ! B3LYP/G D3BJ Opt RIJCOSX def2-SVP def2/J
|  4> * xyz 0 1
|  5>    C        2.42131        -1.34472        -0.03224
|  6>    C        1.17708        -0.77558        -0.01124
|  7>    C       -0.07490        -1.53445        -0.02575
|  8>    O       -0.13715        -2.74171        -0.04931
|  9>    C       -1.27556        -0.65890        -0.00891
| 10>    C       -1.20960         0.76285         0.02903
| 11>    C       -2.46182         1.32901         0.03651
| 12>    S       -3.72707         0.16757        -0.00214
| 13>    C       -2.57492        -1.10637        -0.02869
| 14>    C       -3.05828        -2.52496        -0.07158
| 15>    F       -2.67837        -3.23203         0.99432
| 16>    F       -4.40344        -2.56161        -0.08939
| 17>    F       -2.65087        -3.17550        -1.16330
| 18>    C       -2.81300         2.78604         0.07292
| 19>    F       -2.34334         3.45695        -0.98044
| 20>    F       -4.14902         2.94612         0.05828
| 21>    F       -2.37538         3.39462         1.17761
| 22>    C        0.06733         1.52346         0.05548
| 23>    O        0.11710         2.73078         0.09696
| 24>    C        1.24354         0.65198         0.02543
| 25>    C        2.53531         1.10319         0.02967
| 26>    S        3.66911        -0.17600        -0.01092
| 27>    H        2.64552        -2.39306        -0.06039
| 28>    H        2.85656         2.12607         0.05359
| 29> *
| 30>
| 31>                          ****END OF INPUT****
 Total Charge           Charge          ....    0
 Multiplicity           Mult            ....    1
 Number of Electrons    NEL             ....  176
Dispersion correction           -0.065006977
FINAL SINGLE POINT ENERGY     -2003.300615056008
Dispersion correction            ... done
Dispersion correction           -0.064693694
FINAL SINGLE POINT ENERGY     -2003.304015648870
Dispersion correction            ... done
Dispersion correction           -0.064621251
FINAL SINGLE POINT ENERGY     -2003.304230215172
Dispersion correction            ... done
FINAL SINGLE POINT ENERGY     -2003.304220559373
FINAL SINGLE POINT ENERGY     -2003.304251064930
FINAL SINGLE POINT ENERGY     -2003.304149732127
FINAL SINGLE POINT ENERGY     -2003.303632739027
FINAL SINGLE POINT ENERGY     -2003.303419640022
FINAL SINGLE POINT ENERGY     -2003.303833294809
FINAL SINGLE POINT ENERGY     -2003.303658854658
FINAL SINGLE POINT ENERGY     -2003.303645715722
Dispersion correction            ... done
Dispersion correction           -0.064629563
FINAL SINGLE POINT ENERGY     -2003.303629802220
Dispersion correction            ... done
Dispersion correction           -0.064628643
FINAL SINGLE POINT ENERGY     -2003.303648669189
Dispersion correction            ... done
                    ***********************HURRAY********************

CARTESIAN COORDINATES (ANGSTROEM)
---------------------------------
  C      2.457263   -1.368179    0.074630
  C      1.217294   -0.780969   -0.030707
  C     -0.053647   -1.529556   -0.147940
  O     -0.105491   -2.740779   -0.239974
  C     -1.273930   -0.665230   -0.116841
  C     -1.206039    0.772294   -0.074583
  C     -2.458774    1.350575    0.005863
  S     -3.715313    0.167654    0.023183
  C     -2.577627   -1.124116   -0.077387
  C     -3.099423   -2.541669   -0.062610
  F     -2.610245   -3.232478    0.967937
  F     -4.444946   -2.519784    0.070586
  F     -2.825239   -3.195752   -1.191557
  C     -2.850753    2.807229    0.108543
  F     -2.592105    3.480674   -1.013376
  F     -4.182681    2.886990    0.328038
  F     -2.244664    3.419868    1.126039
  C      0.087689    1.521696   -0.084613
  O      0.143637    2.734869   -0.140945
  C      1.285110    0.655670   -0.003181
  C      2.575613    1.117149    0.119901
  S      3.702068   -0.184768    0.214161
  H      2.677160   -2.434716    0.076428
  H      2.895182    2.157080    0.163906

 Multiplicity           Mult            ....    1
 Number of Electrons    NEL             ....  176
 Basis Dimension        Dim             ....  326

ORBITAL ENERGIES
----------------

  NO   OCC          E(Eh)            E(eV)
   0   2.0000     -88.935300     -2420.0525
   1   2.0000     -88.918973     -2419.6083
   2   2.0000     -24.735652      -673.0913
   3   2.0000     -24.735438      -673.0855
   4   2.0000     -24.730289      -672.9454
   5   2.0000     -24.730273      -672.9449
   6   2.0000     -24.730044      -672.9387
   7   2.0000     -24.729990      -672.9372
   8   2.0000     -19.149337      -521.0799
   9   2.0000     -19.149115      -521.0739
  10   2.0000     -10.460582      -284.6469
  11   2.0000     -10.460363      -284.6410
  12   2.0000     -10.308433      -280.5067
  13   2.0000     -10.308300      -280.5031
  14   2.0000     -10.272255      -279.5223
  15   2.0000     -10.272088      -279.5177
  16   2.0000     -10.253583      -279.0142
  17   2.0000     -10.253501      -279.0119
  18   2.0000     -10.248900      -278.8867
  19   2.0000     -10.248705      -278.8814
  20   2.0000     -10.231508      -278.4135
  21   2.0000     -10.231300      -278.4078
  22   2.0000      -8.029583      -218.4961
  23   2.0000      -8.013903      -218.0694
  24   2.0000      -5.997511      -163.2006
  25   2.0000      -5.993155      -163.0820
  26   2.0000      -5.991445      -163.0355
  27   2.0000      -5.981722      -162.7709
  28   2.0000      -5.977461      -162.6550
  29   2.0000      -5.975979      -162.6147
  30   2.0000      -1.314492       -35.7691
  31   2.0000      -1.314449       -35.7680
  32   2.0000      -1.221128       -33.2286
  33   2.0000      -1.221106       -33.2280
  34   2.0000      -1.220907       -33.2226
  35   2.0000      -1.220886       -33.2220
  36   2.0000      -1.058942       -28.8153
  37   2.0000      -1.056865       -28.7588
  38   2.0000      -0.942732       -25.6530
  39   2.0000      -0.922222       -25.0949
  40   2.0000      -0.831197       -22.6180
  41   2.0000      -0.818658       -22.2768
  42   2.0000      -0.777335       -21.1524
  43   2.0000      -0.768979       -20.9250
  44   2.0000      -0.741367       -20.1736
  45   2.0000      -0.713130       -19.4053
  46   2.0000      -0.672962       -18.3122
  47   2.0000      -0.667191       -18.1552
  48   2.0000      -0.643733       -17.5169
  49   2.0000      -0.628763       -17.1095
  50   2.0000      -0.607746       -16.5376
  51   2.0000      -0.607223       -16.5234
  52   2.0000      -0.606976       -16.5167
  53   2.0000      -0.603440       -16.4204
  54   2.0000      -0.591505       -16.0957
  55   2.0000      -0.560439       -15.2503
  56   2.0000      -0.554472       -15.0879
  57   2.0000      -0.525542       -14.3007
  58   2.0000      -0.514730       -14.0065
  59   2.0000      -0.486463       -13.2373
  60   2.0000      -0.483822       -13.1655
  61   2.0000      -0.482763       -13.1366
  62   2.0000      -0.481817       -13.1109
  63   2.0000      -0.477820       -13.0021
  64   2.0000      -0.474221       -12.9042
  65   2.0000      -0.461532       -12.5589
  66   2.0000      -0.452419       -12.3109
  67   2.0000      -0.448281       -12.1983
  68   2.0000      -0.447673       -12.1818
  69   2.0000      -0.443451       -12.0669
  70   2.0000      -0.441945       -12.0259
  71   2.0000      -0.433733       -11.8025
  72   2.0000      -0.432621       -11.7722
  73   2.0000      -0.426902       -11.6166
  74   2.0000      -0.422514       -11.4972
  75   2.0000      -0.420995       -11.4559
  76   2.0000      -0.419314       -11.4101
  77   2.0000      -0.418144       -11.3783
  78   2.0000      -0.406809       -11.0698
  79   2.0000      -0.400519       -10.8987
  80   2.0000      -0.393939       -10.7196
  81   2.0000      -0.387791       -10.5523
  82   2.0000      -0.308248        -8.3879
  83   2.0000      -0.295760        -8.0480
  84   2.0000      -0.294184        -8.0051
  85   2.0000      -0.287277        -7.8172
  86   2.0000      -0.286134        -7.7861
  87   2.0000      -0.279860        -7.6154
  88   0.0000      -0.112302        -3.0559
  89   0.0000      -0.108048        -2.9401
  90   0.0000      -0.059100        -1.6082
  91   0.0000      -0.008126        -0.2211
  92   0.0000       0.008301         0.2259

MULLIKEN ATOMIC CHARGES
-----------------------
   0 C :   -0.114264
   1 C :    0.009014
   2 C :    0.154509
   3 O :   -0.152567
   4 C :    0.043302
   5 C :    0.045209
   6 C :   -0.336200
   7 S :    0.262748
   8 C :   -0.334401
   9 C :    0.601177
  10 F :   -0.147472
  11 F :   -0.177707
  12 F :   -0.145355
  13 C :    0.601271
  14 F :   -0.145989
  15 F :   -0.178203
  16 F :   -0.146379
  17 C :    0.154350
  18 O :   -0.152909
  19 C :    0.006836
  20 C :   -0.110458
  21 S :    0.165772
  22 H :    0.050005
  23 H :    0.047712
Sum of atomic charges:   -0.0000000

LOEWDIN ATOMIC CHARGES
----------------------
   0 C :   -0.138856
   1 C :   -0.094899
   2 C :    0.075444
   3 O :   -0.134429
   4 C :   -0.067641
   5 C :   -0.067167
   6 C :   -0.206569
   7 S :    0.554408
   8 C :   -0.206644
   9 C :    0.152730
  10 F :   -0.040349
  11 F :   -0.072876
  12 F :   -0.039777
  13 C :    0.153253
  14 F :   -0.041008
  15 F :   -0.072918
  16 F :   -0.039519
  17 C :    0.075560
  18 O :   -0.134214
  19 C :   -0.095155
  20 C :   -0.137847
  21 S :    0.496423
  22 H :    0.041266
  23 H :    0.040785

  Mayer bond orders larger than 0.100000
B(  0-C ,  1-C ) :   1.5104 B(  0-C , 21-S ) :   1.1955 B(  0-C , 22-H ) :   0.9613
B(  1-C ,  2-C ) :   0.9777 B(  1-C , 19-C ) :   1.2222 B(  2-C ,  3-O ) :   2.2009
B(  2-C ,  4-C ) :   0.9219 B(  4-C ,  5-C ) :   1.2141 B(  4-C ,  8-C ) :   1.5602
B(  5-C ,  6-C ) :   1.5588 B(  5-C , 17-C ) :   0.9231 B(  6-C ,  7-S ) :   1.1878
B(  6-C , 13-C ) :   0.9248 B(  7-S ,  8-C ) :   1.1881 B(  8-C ,  9-C ) :   0.9245
B(  9-C , 10-F ) :   1.1703 B(  9-C , 11-F ) :   1.1222 B(  9-C , 12-F ) :   1.1766
B( 13-C , 14-F ) :   1.1773 B( 13-C , 15-F ) :   1.1203 B( 13-C , 16-F ) :   1.1709
B( 17-C , 18-O ) :   2.2018 B( 17-C , 19-C ) :   0.9744 B( 19-C , 20-C ) :   1.5115
B( 20-C , 21-S ) :   1.1952 B( 20-C , 23-H ) :   0.9617

Dispersion correction           -0.064627122
FINAL SINGLE POINT ENERGY     -2003.303666133228

DIPOLE MOMENT
-------------
                                X             Y             Z
Electronic contribution:    -17.30044       0.80640       0.17076
Nuclear contribution   :     18.32235      -0.85449      -0.01448
                        -----------------------------------------
Total Dipole Moment    :      1.02190      -0.04808       0.15628
                        -----------------------------------------
Magnitude (a.u.)       :      1.03490
Magnitude (Debye)      :      2.63052

Rotational constants in cm-1:     0.009386     0.007355     0.004320
Rotational constants in MHz :   281.377663   220.501071   129.500939

                             ****ORCA TERMINATED NORMALLY****
TOTAL RUN TIME: 0 days 0 hours 39 minutes 6 seconds 862 msec
