                         Program Version 4.2.0 -  RELEASE  -
|  1> # ORCA input file
|  2> # SCF done        -59.703972346376          0.000386233674
|  3> ! B3LYP/G D3BJ Opt RIJCOSX def2-SVP def2/J
|  4> * xyz 0 1
|  5>    C        1.85389         1.37416         0.06122
|  6>    C        2.27428         0.05591         0.03667
|  7>    C        1.34437        -0.97793         0.00704
|  8>    C        0.00673        -0.66346        -0.00343
|  9>    C       -0.41925         0.67158         0.02523
| 10>    C        0.50615         1.70274         0.05632
| 11>    N       -1.79466         0.72554         0.01421
| 12>    C       -2.59608         1.91364        -0.00634
| 13>    C       -2.34094        -0.54762        -0.02761
| 14>    C       -1.20657        -1.56786        -0.01744
| 15>    C       -1.32144        -2.40458        -1.27691
| 16>    C       -0.72719        -1.98463        -2.45977
| 17>    C       -0.88414        -2.71554        -3.62422
| 18>    C       -1.64360        -3.87220        -3.62420
| 19>    C       -2.24741        -4.29209        -2.45134
| 20>    C       -2.09032        -3.56248        -1.28701
| 21>    C       -1.16529        -2.41137         1.24219
| 22>    C       -1.81084        -2.00885         2.40327
| 23>    C       -1.71176        -2.76092         3.56094
| 24>    C       -0.95639        -3.91984         3.57757
| 25>    C       -0.29719        -4.32094         2.42769
| 26>    C       -0.39851        -3.57146         1.27036
| 27>    C       -3.63895        -0.83191        -0.08674
| 28>    H        2.58682         2.16743         0.08446
| 29>    H        3.32915        -0.17251         0.03995
| 30>    H        1.66936        -2.00700        -0.01312
| 31>    H        0.20280         2.73865         0.07595
| 32>    H       -1.95520         2.78726         0.07688
| 33>    H       -3.29927         1.91399         0.83138
| 34>    H       -3.16614         1.98093        -0.93828
| 35>    H       -0.13442        -1.08130        -2.47053
| 36>    H       -0.41247        -2.37739        -4.53555
| 37>    H       -1.76642        -4.44247        -4.53323
| 38>    H       -2.84514        -5.19208        -2.44238
| 39>    H       -2.56180        -3.90065        -0.37568
| 40>    H       -2.40263        -1.10562         2.40299
| 41>    H       -2.22699        -2.43757         4.45402
| 42>    H       -0.87999        -4.50676         4.48106
| 43>    H        0.29924        -5.22183         2.43199
| 44>    H        0.11313        -3.89611         0.37593
| 45>    H       -4.39868        -0.07258        -0.10668
| 46>    H       -3.97302        -1.85138        -0.11703
| 47> *
| 48>
| 49>                          ****END OF INPUT****
 Total Charge           Charge          ....    0
 Multiplicity           Mult            ....    1
 Number of Electrons    NEL             ....  158
Dispersion correction           -0.108029240
FINAL SINGLE POINT ENERGY      -903.975021952839
Dispersion correction            ... done
Dispersion correction           -0.106757400
FINAL SINGLE POINT ENERGY      -903.981324066664
Dispersion correction            ... done
Dispersion correction           -0.106653445
FINAL SINGLE POINT ENERGY      -903.981402630347
Dispersion correction            ... done
FINAL SINGLE POINT ENERGY      -903.981301368449
FINAL SINGLE POINT ENERGY      -903.981307488176
FINAL SINGLE POINT ENERGY      -903.981298496177
FINAL SINGLE POINT ENERGY      -903.981286540678
FINAL SINGLE POINT ENERGY      -903.981253434896
FINAL SINGLE POINT ENERGY      -903.981123328136
FINAL SINGLE POINT ENERGY      -903.980870485020
FINAL SINGLE POINT ENERGY      -903.981070538971
FINAL SINGLE POINT ENERGY      -903.981121938178
FINAL SINGLE POINT ENERGY      -903.981174925505
Dispersion correction            ... done
Dispersion correction           -0.106734620
FINAL SINGLE POINT ENERGY      -903.981193356170
Dispersion correction            ... done
Dispersion correction           -0.106737850
FINAL SINGLE POINT ENERGY      -903.981189482582
Dispersion correction            ... done
                    ***********************HURRAY********************

CARTESIAN COORDINATES (ANGSTROEM)
---------------------------------
  C      1.883170    1.351029    0.108681
  C      2.304521    0.026343   -0.036277
  C      1.356138   -1.005049   -0.118301
  C      0.007540   -0.691417   -0.061610
  C     -0.408184    0.641654    0.099162
  C      0.521930    1.680190    0.177888
  N     -1.800283    0.699722    0.144470
  C     -2.583204    1.899481    0.263263
  C     -2.365265   -0.552922   -0.102894
  C     -1.224272   -1.598728   -0.088719
  C     -1.322277   -2.470610   -1.341548
  C     -0.737013   -2.050816   -2.544268
  C     -0.913553   -2.783196   -3.720027
  C     -1.682638   -3.949823   -3.713074
  C     -2.263369   -4.381593   -2.517987
  C     -2.083024   -3.648889   -1.342230
  C     -1.201545   -2.404276    1.221587
  C     -1.893663   -1.974410    2.360311
  C     -1.744887   -2.639496    3.581314
  C     -0.902456   -3.747987    3.682178
  C     -0.220708   -4.196860    2.546594
  C     -0.368117   -3.529848    1.330444
  C     -3.668422   -0.795362   -0.312280
  H      2.624621    2.151448    0.167398
  H      3.369661   -0.209721   -0.088945
  H      1.678753   -2.041368   -0.235257
  H      0.207795    2.719484    0.285108
  H     -1.968470    2.705576    0.683882
  H     -3.433359    1.727430    0.943041
  H     -2.991200    2.234855   -0.708852
  H     -0.143631   -1.135448   -2.561250
  H     -0.447710   -2.434072   -4.645001
  H     -1.830119   -4.521281   -4.632629
  H     -2.860031   -5.296775   -2.497839
  H     -2.538939   -3.998097   -0.414524
  H     -2.553541   -1.109039    2.293908
  H     -2.290601   -2.280663    4.457560
  H     -0.776402   -4.264028    4.636932
  H      0.430388   -5.072197    2.609709
  H      0.169867   -3.889820    0.452224
  H     -4.414448    0.000031   -0.313513
  H     -4.009833   -1.810552   -0.508803

 Multiplicity           Mult            ....    1
 Number of Electrons    NEL             ....  158
 Basis Dimension        Dim             ....  417

ORBITAL ENERGIES
----------------

  NO   OCC          E(Eh)            E(eV)
   0   2.0000     -14.362791      -390.8314
   1   2.0000     -10.231114      -278.4028
   2   2.0000     -10.225858      -278.2597
   3   2.0000     -10.225367      -278.2464
   4   2.0000     -10.218835      -278.0686
   5   2.0000     -10.198038      -277.5027
   6   2.0000     -10.196698      -277.4663
   7   2.0000     -10.189679      -277.2753
   8   2.0000     -10.188971      -277.2560
   9   2.0000     -10.188559      -277.2448
  10   2.0000     -10.188550      -277.2445
  11   2.0000     -10.188105      -277.2324
  12   2.0000     -10.188097      -277.2322
  13   2.0000     -10.188058      -277.2312
  14   2.0000     -10.187800      -277.2241
  15   2.0000     -10.187585      -277.2183
  16   2.0000     -10.187075      -277.2044
  17   2.0000     -10.186263      -277.1823
  18   2.0000     -10.185849      -277.1711
  19   2.0000     -10.184829      -277.1433
  20   2.0000     -10.184793      -277.1423
  21   2.0000     -10.180911      -277.0367
  22   2.0000     -10.165073      -276.6057
  23   2.0000      -0.974512       -26.5178
  24   2.0000      -0.863052       -23.4848
  25   2.0000      -0.842494       -22.9254
  26   2.0000      -0.840622       -22.8745
  27   2.0000      -0.806305       -21.9407
  28   2.0000      -0.754169       -20.5220
  29   2.0000      -0.744517       -20.2593
  30   2.0000      -0.738443       -20.0940
  31   2.0000      -0.734983       -19.9999
  32   2.0000      -0.733869       -19.9696
  33   2.0000      -0.728998       -19.8371
  34   2.0000      -0.683772       -18.6064
  35   2.0000      -0.667942       -18.1756
  36   2.0000      -0.611639       -16.6435
  37   2.0000      -0.602332       -16.3903
  38   2.0000      -0.597468       -16.2579
  39   2.0000      -0.592845       -16.1321
  40   2.0000      -0.587517       -15.9871
  41   2.0000      -0.564688       -15.3660
  42   2.0000      -0.549647       -14.9567
  43   2.0000      -0.523115       -14.2347
  44   2.0000      -0.518946       -14.1213
  45   2.0000      -0.496650       -13.5145
  46   2.0000      -0.489968       -13.3327
  47   2.0000      -0.468603       -12.7513
  48   2.0000      -0.466452       -12.6928
  49   2.0000      -0.457162       -12.4400
  50   2.0000      -0.454589       -12.3700
  51   2.0000      -0.445458       -12.1215
  52   2.0000      -0.442598       -12.0437
  53   2.0000      -0.439726       -11.9655
  54   2.0000      -0.435619       -11.8538
  55   2.0000      -0.423855       -11.5337
  56   2.0000      -0.418664       -11.3924
  57   2.0000      -0.418241       -11.3809
  58   2.0000      -0.412061       -11.2128
  59   2.0000      -0.404724       -11.0131
  60   2.0000      -0.393442       -10.7061
  61   2.0000      -0.382399       -10.4056
  62   2.0000      -0.377717       -10.2782
  63   2.0000      -0.366143        -9.9632
  64   2.0000      -0.363368        -9.8877
  65   2.0000      -0.358819        -9.7640
  66   2.0000      -0.351442        -9.5632
  67   2.0000      -0.347088        -9.4447
  68   2.0000      -0.341707        -9.2983
  69   2.0000      -0.337239        -9.1767
  70   2.0000      -0.330194        -8.9850
  71   2.0000      -0.323824        -8.8117
  72   2.0000      -0.269424        -7.3314
  73   2.0000      -0.259227        -7.0539
  74   2.0000      -0.255423        -6.9504
  75   2.0000      -0.250579        -6.8186
  76   2.0000      -0.241756        -6.5785
  77   2.0000      -0.237249        -6.4559
  78   2.0000      -0.189511        -5.1569
  79   0.0000      -0.023216        -0.6317
  80   0.0000      -0.013669        -0.3719
  81   0.0000      -0.010335        -0.2812
  82   0.0000      -0.005842        -0.1590
  83   0.0000       0.004155         0.1131

MULLIKEN ATOMIC CHARGES
-----------------------
   0 C :    0.029869
   1 C :    0.010933
   2 C :   -0.036808
   3 C :    0.015161
   4 C :    0.200490
   5 C :   -0.104512
   6 N :   -0.241254
   7 C :    0.136387
   8 C :    0.096396
   9 C :    0.009555
  10 C :    0.048569
  11 C :   -0.018808
  12 C :    0.028297
  13 C :    0.025881
  14 C :    0.016951
  15 C :   -0.018169
  16 C :    0.052576
  17 C :    0.002019
  18 C :    0.031051
  19 C :    0.025476
  20 C :    0.021014
  21 C :   -0.020164
  22 C :   -0.086708
  23 H :   -0.017337
  24 H :   -0.024440
  25 H :   -0.036848
  26 H :   -0.047213
  27 H :    0.027138
  28 H :    0.028958
  29 H :    0.023299
  30 H :   -0.007871
  31 H :   -0.023976
  32 H :   -0.020125
  33 H :   -0.020114
  34 H :   -0.010860
  35 H :   -0.014277
  36 H :   -0.024416
  37 H :   -0.021417
  38 H :   -0.020215
  39 H :   -0.012240
  40 H :   -0.002573
  41 H :    0.000326
Sum of atomic charges:   -0.0000000

LOEWDIN ATOMIC CHARGES
----------------------
   0 C :   -0.016710
   1 C :   -0.053217
   2 C :   -0.011093
   3 C :   -0.028917
   4 C :    0.035207
   5 C :   -0.072252
   6 N :   -0.014040
   7 C :    0.036928
   8 C :    0.045376
   9 C :   -0.015160
  10 C :   -0.006555
  11 C :   -0.020617
  12 C :   -0.022952
  13 C :   -0.029059
  14 C :   -0.025279
  15 C :   -0.023584
  16 C :   -0.002194
  17 C :   -0.024051
  18 C :   -0.023415
  19 C :   -0.029279
  20 C :   -0.025322
  21 C :   -0.021498
  22 C :   -0.137269
  23 H :    0.026801
  24 H :    0.024251
  25 H :    0.026060
  26 H :    0.021727
  27 H :    0.029081
  28 H :    0.026621
  29 H :    0.021061
  30 H :    0.029335
  31 H :    0.025789
  32 H :    0.025238
  33 H :    0.026373
  34 H :    0.027545
  35 H :    0.027335
  36 H :    0.025541
  37 H :    0.025004
  38 H :    0.026394
  39 H :    0.025569
  40 H :    0.018805
  41 H :    0.026420

  Mayer bond orders larger than 0.100000
B(  0-C ,  1-C ) :   1.3948 B(  0-C ,  5-C ) :   1.3453 B(  0-C , 23-H ) :   0.9786
B(  1-C ,  2-C ) :   1.3147 B(  1-C , 24-H ) :   0.9852 B(  2-C ,  3-C ) :   1.4434
B(  2-C , 25-H ) :   0.9948 B(  3-C ,  4-C ) :   1.3433 B(  3-C ,  9-C ) :   0.9248
B(  4-C ,  5-C ) :   1.3344 B(  4-C ,  6-N ) :   1.0664 B(  5-C , 26-H ) :   0.9960
B(  6-N ,  7-C ) :   1.0036 B(  6-N ,  8-C ) :   1.0878 B(  7-C , 27-H ) :   0.9645
B(  7-C , 28-H ) :   0.9604 B(  7-C , 29-H ) :   0.9627 B(  8-C ,  9-C ) :   0.9120
B(  8-C , 22-C ) :   1.9112 B(  9-C , 10-C ) :   0.9355 B(  9-C , 16-C ) :   0.9249
B( 10-C , 11-C ) :   1.4074 B( 10-C , 15-C ) :   1.3953 B( 11-C , 12-C ) :   1.3706
B( 11-C , 30-H ) :   0.9771 B( 12-C , 13-C ) :   1.3767 B( 12-C , 31-H ) :   0.9796
B( 13-C , 14-C ) :   1.3779 B( 13-C , 32-H ) :   0.9861 B( 14-C , 15-C ) :   1.3718
B( 14-C , 33-H ) :   0.9812 B( 15-C , 34-H ) :   0.9784 B( 16-C , 17-C ) :   1.4292
B( 16-C , 21-C ) :   1.3840 B( 17-C , 18-C ) :   1.3525 B( 17-C , 35-H ) :   0.9684
B( 18-C , 19-C ) :   1.3864 B( 18-C , 36-H ) :   0.9785 B( 19-C , 20-C ) :   1.3684
B( 19-C , 37-H ) :   0.9856 B( 20-C , 21-C ) :   1.3873 B( 20-C , 38-H ) :   0.9829
B( 21-C , 39-H ) :   0.9808 B( 22-C , 40-H ) :   0.9265 B( 22-C , 41-H ) :   0.9118

Dispersion correction           -0.106737511
FINAL SINGLE POINT ENERGY      -903.981188411003

DIPOLE MOMENT
-------------
                                X             Y             Z
Electronic contribution:      3.42020      -2.23891      -0.12347
Nuclear contribution   :     -3.56362       2.65175       0.19209
                        -----------------------------------------
Total Dipole Moment    :     -0.14341       0.41284       0.06862
                        -----------------------------------------
Magnitude (a.u.)       :      0.44240
Magnitude (Debye)      :      1.12448

Rotational constants in cm-1:     0.010060     0.009106     0.007088
Rotational constants in MHz :   301.597953   272.984541   212.485777

                             ****ORCA TERMINATED NORMALLY****
TOTAL RUN TIME: 0 days 1 hours 37 minutes 25 seconds 115 msec
