                         Program Version 4.2.0 -  RELEASE  -
|  1> # ORCA input file
|  2> # SCF done        -35.208016846758          0.000355924099
|  3> ! B3LYP/G D3BJ Opt RIJCOSX def2-SVP def2/J
|  4> * xyz 0 1
|  5>    C       -1.26288        -1.17326        -0.00374
|  6>    C        0.00829        -0.73756        -0.00336
|  7>    C        0.01272         0.73508        -0.00135
|  8>    N       -1.27730         1.15217        -0.00052
|  9>    C       -2.12536         0.02827        -0.00184
| 10>    O       -3.32829         0.10722        -0.00153
| 11>    C       -1.76252         2.50774         0.00130
| 12>    C        1.28571         1.16765        -0.00101
| 13>    C        2.14648        -0.03361        -0.00285
| 14>    O        3.34987        -0.11227        -0.00331
| 15>    N        1.29860        -1.15709        -0.00420
| 16>    C        1.77095        -2.51458        -0.00619
| 17>    H       -1.65676        -2.16947        -0.00505
| 18>    H       -0.91483         3.18806         0.00225
| 19>    H       -2.37631         2.68409         0.88664
| 20>    H       -2.37627         2.68653        -0.88359
| 21>    H        1.68523         2.16174         0.00027
| 22>    H        2.85981        -2.47889        -0.00792
| 23>    H        1.42202        -3.04249        -0.89574
| 24>    H        1.42498        -3.04419         0.88351
| 25> *
| 26>
| 27>                          ****END OF INPUT****
 Total Charge           Charge          ....    0
 Multiplicity           Mult            ....    1
 Number of Electrons    NEL             ....   86
Dispersion correction           -0.036938849
FINAL SINGLE POINT ENERGY      -569.245171924696
Dispersion correction            ... done
Dispersion correction           -0.036886831
FINAL SINGLE POINT ENERGY      -569.247431524481
Dispersion correction            ... done
Dispersion correction           -0.036890517
FINAL SINGLE POINT ENERGY      -569.247556135430
Dispersion correction            ... done
FINAL SINGLE POINT ENERGY      -569.247601165576
Dispersion correction            ... done
Dispersion correction           -0.036900965
FINAL SINGLE POINT ENERGY      -569.247608221334
Dispersion correction            ... done
Dispersion correction           -0.036900935
FINAL SINGLE POINT ENERGY      -569.247609319111
Dispersion correction            ... done
                    ***********************HURRAY********************

CARTESIAN COORDINATES (ANGSTROEM)
---------------------------------
  C     -1.265342   -1.189786   -0.003380
  C      0.011522   -0.739991   -0.003048
  C      0.020702    0.744366   -0.001297
  N     -1.273748    1.165297   -0.000542
  C     -2.136766    0.018719   -0.001639
  O     -3.340534    0.109119   -0.001594
  C     -1.778461    2.519441    0.001234
  C      1.301167    1.187004   -0.001167
  C      2.170440   -0.023123   -0.002561
  O      3.374440   -0.109502   -0.003168
  N      1.302054   -1.168470   -0.003852
  C      1.770852   -2.532171   -0.006370
  H     -1.661095   -2.201053   -0.004609
  H     -0.931036    3.217027    0.002330
  H     -2.399403    2.704739    0.891394
  H     -2.399154    2.707225   -0.888584
  H      1.704805    2.195322   -0.000203
  H      2.869147   -2.502050   -0.007504
  H      1.421278   -3.072071   -0.902067
  H      1.423272   -3.074904    0.888399

 Multiplicity           Mult            ....    1
 Number of Electrons    NEL             ....   86
 Basis Dimension        Dim             ....  208

ORBITAL ENERGIES
----------------

  NO   OCC          E(Eh)            E(eV)
   0   2.0000     -19.130793      -520.5753
   1   2.0000     -19.129626      -520.5436
   2   2.0000     -14.384176      -391.4133
   3   2.0000     -14.382575      -391.3698
   4   2.0000     -10.307921      -280.4928
   5   2.0000     -10.306385      -280.4510
   6   2.0000     -10.262253      -279.2501
   7   2.0000     -10.260077      -279.1909
   8   2.0000     -10.242628      -278.7161
   9   2.0000     -10.239562      -278.6327
  10   2.0000     -10.207039      -277.7477
  11   2.0000     -10.206739      -277.7395
  12   2.0000      -1.057073       -28.7644
  13   2.0000      -1.052195       -28.6317
  14   2.0000      -0.991991       -26.9934
  15   2.0000      -0.959712       -26.1151
  16   2.0000      -0.826523       -22.4908
  17   2.0000      -0.804028       -21.8787
  18   2.0000      -0.726922       -19.7805
  19   2.0000      -0.696142       -18.9430
  20   2.0000      -0.668139       -18.1810
  21   2.0000      -0.606869       -16.5137
  22   2.0000      -0.587729       -15.9929
  23   2.0000      -0.541120       -14.7246
  24   2.0000      -0.526588       -14.3292
  25   2.0000      -0.513286       -13.9672
  26   2.0000      -0.499241       -13.5850
  27   2.0000      -0.475028       -12.9262
  28   2.0000      -0.464196       -12.6314
  29   2.0000      -0.461498       -12.5580
  30   2.0000      -0.444783       -12.1032
  31   2.0000      -0.431179       -11.7330
  32   2.0000      -0.422168       -11.4878
  33   2.0000      -0.421906       -11.4806
  34   2.0000      -0.411114       -11.1870
  35   2.0000      -0.410268       -11.1640
  36   2.0000      -0.388864       -10.5815
  37   2.0000      -0.366966        -9.9857
  38   2.0000      -0.326056        -8.8724
  39   2.0000      -0.293470        -7.9857
  40   2.0000      -0.275499        -7.4967
  41   2.0000      -0.255507        -6.9527
  42   2.0000      -0.236404        -6.4329
  43   0.0000      -0.092218        -2.5094
  44   0.0000       0.035119         0.9556
  45   0.0000       0.055400         1.5075
  46   0.0000       0.057583         1.5669
  47   0.0000       0.069128         1.8811

MULLIKEN ATOMIC CHARGES
-----------------------
   0 C :   -0.219868
   1 C :    0.232579
   2 C :    0.245495
   3 N :   -0.272520
   4 C :    0.207139
   5 O :   -0.190252
   6 C :    0.146290
   7 C :   -0.226257
   8 C :    0.207702
   9 O :   -0.185298
  10 N :   -0.268775
  11 C :    0.122343
  12 H :   -0.015741
  13 H :    0.030827
  14 H :    0.040977
  15 H :    0.040992
  16 H :   -0.015610
  17 H :    0.054960
  18 H :    0.032458
  19 H :    0.032559
Sum of atomic charges:    0.0000000

LOEWDIN ATOMIC CHARGES
----------------------
   0 C :   -0.115657
   1 C :    0.048148
   2 C :    0.049466
   3 N :   -0.036954
   4 C :    0.095138
   5 O :   -0.161093
   6 C :    0.043131
   7 C :   -0.118749
   8 C :    0.097149
   9 O :   -0.159295
  10 N :   -0.036494
  11 C :    0.036209
  12 H :    0.034828
  13 H :    0.032876
  14 H :    0.032568
  15 H :    0.032562
  16 H :    0.033945
  17 H :    0.039315
  18 H :    0.026448
  19 H :    0.026458

  Mayer bond orders larger than 0.100000
B(  0-C ,  1-C ) :   1.5115 B(  0-C ,  4-C ) :   0.9653 B(  0-C , 12-H ) :   1.0581
B(  1-C ,  2-C ) :   1.0265 B(  1-C , 10-N ) :   1.1523 B(  2-C ,  3-N ) :   1.1530
B(  2-C ,  7-C ) :   1.5053 B(  3-N ,  4-C ) :   0.9802 B(  3-N ,  6-C ) :   0.9559
B(  4-C ,  5-O ) :   2.1211 B(  6-C , 13-H ) :   0.9723 B(  6-C , 14-H ) :   0.9716
B(  6-C , 15-H ) :   0.9717 B(  7-C ,  8-C ) :   0.9652 B(  7-C , 16-H ) :   1.0558
B(  8-C ,  9-O ) :   2.1148 B(  8-C , 10-N ) :   0.9789 B( 10-N , 11-C ) :   0.9649
B( 11-C , 17-H ) :   0.9600 B( 11-C , 18-H ) :   0.9723 B( 11-C , 19-H ) :   0.9723

Dispersion correction           -0.036900117
FINAL SINGLE POINT ENERGY      -569.247609999999

DIPOLE MOMENT
-------------
                                X             Y             Z
Electronic contribution:      0.06046       0.06552       0.00234
Nuclear contribution   :     -0.06966      -0.01210      -0.00229
                        -----------------------------------------
Total Dipole Moment    :     -0.00919       0.05342       0.00005
                        -----------------------------------------
Magnitude (a.u.)       :      0.05421
Magnitude (Debye)      :      0.13779

Rotational constants in cm-1:     0.067875     0.023359     0.017494
Rotational constants in MHz :  2034.848520   700.286191   524.463266

                             ****ORCA TERMINATED NORMALLY****
TOTAL RUN TIME: 0 days 0 hours 7 minutes 59 seconds 720 msec
