                         Program Version 4.2.0 -  RELEASE  -
|  1> # ORCA input file
|  2> # SCF done        -48.797986816435          0.000611211844
|  3> ! B3LYP/G D3BJ Opt RIJCOSX def2-SVP def2/J
|  4> * xyz 0 1
|  5>    C        0.51748         1.87095        -0.00413
|  6>    C        1.85623         1.51539        -0.00593
|  7>    C        2.24102         0.18081        -0.00494
|  8>    C        1.29704        -0.83288        -0.00262
|  9>    C       -0.04914        -0.49307        -0.00106
| 10>    C       -0.44119         0.86664        -0.00145
| 11>    C       -1.88998         0.94665         0.00141
| 12>    C       -2.63560         2.08903         0.00304
| 13>    C       -2.09223         3.39482         0.00171
| 14>    N       -1.72338         4.48098         0.00083
| 15>    C       -4.04729         2.15875         0.00329
| 16>    N       -5.18485         2.30770         0.00270
| 17>    C       -2.40083        -0.43473         0.00246
| 18>    C       -1.23291        -1.33215         0.00171
| 19>    C       -1.25601        -2.69608         0.00296
| 20>    C       -2.41357        -3.50729         0.00655
| 21>    N       -3.29545        -4.24112         0.00958
| 22>    C       -0.10099        -3.51222         0.00020
| 23>    N        0.78962        -4.23481        -0.00181
| 24>    C       -3.68617        -0.80549         0.00495
| 25>    H        0.23678         2.91096        -0.00476
| 26>    H        2.60881         2.28878        -0.00811
| 27>    H        3.28984        -0.07313        -0.00611
| 28>    H        1.61298        -1.86278        -0.00188
| 29>    H       -4.48568        -0.08677         0.00532
| 30>    H       -3.97963        -1.83971         0.00590
| 31> *
| 32>
| 33>                          ****END OF INPUT****
 Total Charge           Charge          ....    0
 Multiplicity           Mult            ....    1
 Number of Electrons    NEL             ....  130
Dispersion correction           -0.069853036
FINAL SINGLE POINT ENERGY      -831.656510750806
Dispersion correction            ... done
Dispersion correction           -0.069411201
FINAL SINGLE POINT ENERGY      -831.662690946237
Dispersion correction            ... done
Dispersion correction           -0.069403721
FINAL SINGLE POINT ENERGY      -831.663010239698
Dispersion correction            ... done
FINAL SINGLE POINT ENERGY      -831.663062562656
FINAL SINGLE POINT ENERGY      -831.663057430127
FINAL SINGLE POINT ENERGY      -831.663048859138
Dispersion correction            ... done
Dispersion correction           -0.069558283
FINAL SINGLE POINT ENERGY      -831.663064847383
Dispersion correction            ... done
Dispersion correction           -0.069550345
FINAL SINGLE POINT ENERGY      -831.663076774696
Dispersion correction            ... done
                    ***********************HURRAY********************

CARTESIAN COORDINATES (ANGSTROEM)
---------------------------------
  C      0.523637    1.881748   -0.003309
  C      1.872544    1.527511   -0.005512
  C      2.261864    0.181759   -0.005816
  C      1.310165   -0.837114   -0.003804
  C     -0.050531   -0.498406   -0.001395
  C     -0.446226    0.869548   -0.001291
  C     -1.909333    0.953567    0.001153
  C     -2.656224    2.111313    0.002209
  C     -2.061655    3.413544    0.000936
  N     -1.592823    4.475996    0.000039
  C     -4.086811    2.147506    0.004682
  N     -5.246734    2.213612    0.006283
  C     -2.425697   -0.443200    0.002266
  C     -1.243675   -1.349394    0.001410
  C     -1.259326   -2.727135    0.003308
  C     -2.452385   -3.517782    0.006838
  N     -3.400610   -4.188720    0.009884
  C     -0.063416   -3.514488    0.002231
  N      0.895186   -4.169889    0.001424
  C     -3.723030   -0.816332    0.003271
  H      0.247391    2.932479   -0.003250
  H      2.630380    2.313524   -0.007141
  H      3.322496   -0.079268   -0.007742
  H      1.639298   -1.872596   -0.004171
  H     -4.528909   -0.086229    0.003580
  H     -4.020677   -1.862324    0.003728

 Multiplicity           Mult            ....    1
 Number of Electrons    NEL             ....  130
 Basis Dimension        Dim             ....  310

ORBITAL ENERGIES
----------------

  NO   OCC          E(Eh)            E(eV)
   0   2.0000     -14.365388      -390.9021
   1   2.0000     -14.364968      -390.8907
   2   2.0000     -14.364359      -390.8741
   3   2.0000     -14.364138      -390.8681
   4   2.0000     -10.298799      -280.2446
   5   2.0000     -10.298672      -280.2411
   6   2.0000     -10.288091      -279.9532
   7   2.0000     -10.287974      -279.9500
   8   2.0000     -10.267300      -279.3874
   9   2.0000     -10.267153      -279.3834
  10   2.0000     -10.267049      -279.3806
  11   2.0000     -10.266715      -279.3715
  12   2.0000     -10.266472      -279.3649
  13   2.0000     -10.257351      -279.1167
  14   2.0000     -10.256968      -279.1063
  15   2.0000     -10.252142      -278.9750
  16   2.0000     -10.243326      -278.7351
  17   2.0000     -10.243001      -278.7262
  18   2.0000     -10.242440      -278.7110
  19   2.0000     -10.242366      -278.7089
  20   2.0000      -0.956209       -26.0198
  21   2.0000      -0.944430       -25.6993
  22   2.0000      -0.932673       -25.3793
  23   2.0000      -0.929586       -25.2953
  24   2.0000      -0.929444       -25.2915
  25   2.0000      -0.882067       -24.0023
  26   2.0000      -0.868279       -23.6271
  27   2.0000      -0.823675       -22.4133
  28   2.0000      -0.805092       -21.9077
  29   2.0000      -0.794671       -21.6241
  30   2.0000      -0.723014       -19.6742
  31   2.0000      -0.720542       -19.6069
  32   2.0000      -0.651047       -17.7159
  33   2.0000      -0.649667       -17.6783
  34   2.0000      -0.629481       -17.1291
  35   2.0000      -0.606803       -16.5119
  36   2.0000      -0.604019       -16.4362
  37   2.0000      -0.568231       -15.4623
  38   2.0000      -0.528989       -14.3945
  39   2.0000      -0.519695       -14.1416
  40   2.0000      -0.510589       -13.8938
  41   2.0000      -0.484708       -13.1896
  42   2.0000      -0.480694       -13.0804
  43   2.0000      -0.478316       -13.0156
  44   2.0000      -0.450523       -12.2594
  45   2.0000      -0.449976       -12.2445
  46   2.0000      -0.446346       -12.1457
  47   2.0000      -0.423608       -11.5270
  48   2.0000      -0.413089       -11.2407
  49   2.0000      -0.405965       -11.0469
  50   2.0000      -0.398749       -10.8505
  51   2.0000      -0.398298       -10.8382
  52   2.0000      -0.393864       -10.7176
  53   2.0000      -0.392793       -10.6884
  54   2.0000      -0.387698       -10.5498
  55   2.0000      -0.378773       -10.3069
  56   2.0000      -0.377522       -10.2729
  57   2.0000      -0.375279       -10.2119
  58   2.0000      -0.371570       -10.1109
  59   2.0000      -0.361298        -9.8314
  60   2.0000      -0.359189        -9.7740
  61   2.0000      -0.342037        -9.3073
  62   2.0000      -0.315297        -8.5797
  63   2.0000      -0.295096        -8.0300
  64   2.0000      -0.272721        -7.4211
  65   0.0000      -0.143189        -3.8964
  66   0.0000      -0.141136        -3.8405
  67   0.0000      -0.050174        -1.3653
  68   0.0000      -0.035757        -0.9730
  69   0.0000      -0.033954        -0.9239

MULLIKEN ATOMIC CHARGES
-----------------------
   0 C :   -0.022278
   1 C :    0.045718
   2 C :    0.044666
   3 C :   -0.014525
   4 C :    0.011819
   5 C :    0.011748
   6 C :    0.261275
   7 C :   -0.296159
   8 C :   -0.141558
   9 N :    0.115807
  10 C :   -0.143665
  11 N :    0.121112
  12 C :   -0.078053
  13 C :    0.258080
  14 C :   -0.299867
  15 C :   -0.138142
  16 N :    0.119893
  17 C :   -0.141072
  18 N :    0.116860
  19 C :    0.023195
  20 H :    0.007737
  21 H :    0.013446
  22 H :    0.010893
  23 H :    0.003931
  24 H :    0.056428
  25 H :    0.052710
Sum of atomic charges:    0.0000000

LOEWDIN ATOMIC CHARGES
----------------------
   0 C :    0.006547
   1 C :    0.008641
   2 C :    0.009403
   3 C :    0.007046
   4 C :   -0.009053
   5 C :   -0.008862
   6 C :    0.065416
   7 C :   -0.111094
   8 C :   -0.009388
   9 N :   -0.043022
  10 C :   -0.013812
  11 N :   -0.039133
  12 C :   -0.031831
  13 C :    0.064879
  14 C :   -0.111020
  15 C :   -0.012921
  16 N :   -0.039222
  17 C :   -0.009302
  18 N :   -0.043083
  19 C :    0.066039
  20 H :    0.042061
  21 H :    0.041288
  22 H :    0.040614
  23 H :    0.041682
  24 H :    0.044231
  25 H :    0.043896

  Mayer bond orders larger than 0.100000
B(  0-C ,  1-C ) :   1.3778 B(  0-C ,  5-C ) :   1.3400 B(  0-C , 20-H ) :   0.9801
B(  1-C ,  2-C ) :   1.3397 B(  1-C , 21-H ) :   0.9809 B(  2-C ,  3-C ) :   1.3698
B(  2-C , 22-H ) :   0.9837 B(  3-C ,  4-C ) :   1.3454 B(  3-C , 23-H ) :   0.9818
B(  4-C ,  5-C ) :   1.2833 B(  4-C , 13-C ) :   1.0314 B(  5-C ,  6-C ) :   1.0395
B(  6-C ,  7-C ) :   1.6115 B(  6-C , 12-C ) :   1.0044 B(  7-C ,  8-C ) :   1.1422
B(  7-C , 10-C ) :   1.1410 B(  8-C ,  9-N ) :   2.9293 B( 10-C , 11-N ) :   2.9281
B( 12-C , 13-C ) :   1.0012 B( 12-C , 19-C ) :   1.8789 B( 13-C , 14-C ) :   1.6177
B( 14-C , 15-C ) :   1.1354 B( 14-C , 17-C ) :   1.1440 B( 15-C , 16-N ) :   2.9317
B( 17-C , 18-N ) :   2.9339 B( 19-C , 24-H ) :   0.9092 B( 19-C , 25-H ) :   0.9108

Dispersion correction           -0.069548912
FINAL SINGLE POINT ENERGY      -831.663074835584

DIPOLE MOMENT
-------------
                                X             Y             Z
Electronic contribution:     -5.05695      -1.46339       0.01532
Nuclear contribution   :      6.58848       1.90747      -0.02104
                        -----------------------------------------
Total Dipole Moment    :      1.53154       0.44408      -0.00572
                        -----------------------------------------
Magnitude (a.u.)       :      1.59463
Magnitude (Debye)      :      4.05322

Rotational constants in cm-1:     0.016284     0.010063     0.006220
Rotational constants in MHz :   488.184493   301.683968   186.458221

                             ****ORCA TERMINATED NORMALLY****
TOTAL RUN TIME: 0 days 0 hours 24 minutes 52 seconds 376 msec
