                         Program Version 4.2.0 -  RELEASE  -
|  1> # ORCA input file
|  2> # SCF done        -39.609874647580          0.000326753273
|  3> ! B3LYP/G D3BJ Opt RIJCOSX def2-SVP def2/J
|  4> * xyz 0 1
|  5>    N       -0.01250        -1.31753        -0.00176
|  6>    C       -1.24998        -0.66837        -0.00114
|  7>    C       -1.37522         0.72898        -0.00145
|  8>    S       -0.00446         1.84378        -0.00297
|  9>    C        1.36490         0.73119        -0.00166
| 10>    C        2.60869         1.34062        -0.00119
| 11>    C        3.77051         0.59147        -0.00066
| 12>    C        3.65989        -0.78335        -0.00055
| 13>    C        2.41591        -1.39329        -0.00081
| 14>    C        1.22265        -0.66139        -0.00139
| 15>    C       -2.60969         1.35796        -0.00080
| 16>    C       -3.78496         0.63162        -0.00002
| 17>    C       -3.69417        -0.74447         0.00021
| 18>    C       -2.46005        -1.37215        -0.00024
| 19>    C        0.06208        -2.76320        -0.00156
| 20>    H        2.64641         2.41959        -0.00134
| 21>    H        4.73384         1.07590        -0.00039
| 22>    H        4.54380        -1.40332        -0.00024
| 23>    H        2.40693        -2.46829        -0.00059
| 24>    H       -2.62773         2.43755        -0.00102
| 25>    H       -4.74009         1.13155         0.00038
| 26>    H       -4.58625        -1.35253         0.00075
| 27>    H       -2.48413        -2.44833         0.00014
| 28>    H       -0.91999        -3.21415        -0.00258
| 29>    H        0.58580        -3.11601         0.89111
| 30>    H        0.58747        -3.11604        -0.89321
| 31> *
| 32>
| 33>                          ****END OF INPUT****
 Total Charge           Charge          ....    0
 Multiplicity           Mult            ....    1
 Number of Electrons    NEL             ....  112
Dispersion correction           -0.063445104
FINAL SINGLE POINT ENERGY      -954.496081985038
Dispersion correction            ... done
Dispersion correction           -0.063057740
FINAL SINGLE POINT ENERGY      -954.499468678356
Dispersion correction            ... done
Dispersion correction           -0.063004824
FINAL SINGLE POINT ENERGY      -954.499598333027
Dispersion correction            ... done
FINAL SINGLE POINT ENERGY      -954.499626319655
FINAL SINGLE POINT ENERGY      -954.499633307427
FINAL SINGLE POINT ENERGY      -954.499640465324
FINAL SINGLE POINT ENERGY      -954.499597567878
FINAL SINGLE POINT ENERGY      -954.499687892681
Dispersion correction            ... done
Dispersion correction           -0.063058066
FINAL SINGLE POINT ENERGY      -954.499682177155
Dispersion correction            ... done
Dispersion correction           -0.063013327
FINAL SINGLE POINT ENERGY      -954.499709371758
Dispersion correction            ... done
                    ***********************HURRAY********************

CARTESIAN COORDINATES (ANGSTROEM)
---------------------------------
  N     -0.009724   -1.317653   -0.027106
  C     -1.262707   -0.662227   -0.012780
  C     -1.378705    0.750055   -0.026869
  S     -0.004384    1.861964   -0.078440
  C      1.368743    0.752933   -0.024965
  C      2.629566    1.352982   -0.006499
  C      3.800594    0.593601    0.020229
  C      3.692342   -0.792110    0.030539
  C      2.434320   -1.401460    0.015733
  C      1.236516   -0.656109   -0.012300
  C     -2.631455    1.369719   -0.008848
  C     -3.814289    0.632493    0.020215
  C     -3.723728   -0.755057    0.035144
  C     -2.475626   -1.381743    0.021137
  C      0.057137   -2.766839   -0.040857
  H      2.688138    2.444786   -0.015746
  H      4.773633    1.088438    0.032682
  H      4.584620   -1.421391    0.051838
  H      2.396511   -2.487092    0.027995
  H     -2.670095    2.462480   -0.019456
  H     -4.779696    1.141759    0.032677
  H     -4.623393   -1.373595    0.060926
  H     -2.470289   -2.468150    0.040679
  H     -0.933198   -3.215905   -0.075924
  H      0.563147   -3.154896    0.859681
  H      0.611683   -3.129196   -0.922664

 Multiplicity           Mult            ....    1
 Number of Electrons    NEL             ....  112
 Basis Dimension        Dim             ....  269

ORBITAL ENERGIES
----------------

  NO   OCC          E(Eh)            E(eV)
   0   2.0000     -88.854509     -2417.8541
   1   2.0000     -14.372286      -391.0898
   2   2.0000     -10.246936      -278.8333
   3   2.0000     -10.243142      -278.7301
   4   2.0000     -10.230728      -278.3923
   5   2.0000     -10.220935      -278.1258
   6   2.0000     -10.220452      -278.1126
   7   2.0000     -10.194875      -277.4167
   8   2.0000     -10.193976      -277.3922
   9   2.0000     -10.193545      -277.3805
  10   2.0000     -10.191641      -277.3287
  11   2.0000     -10.191449      -277.3234
  12   2.0000     -10.190195      -277.2893
  13   2.0000     -10.187575      -277.2180
  14   2.0000     -10.187209      -277.2080
  15   2.0000      -7.949396      -216.3141
  16   2.0000      -5.918381      -161.0473
  17   2.0000      -5.914756      -160.9487
  18   2.0000      -5.908335      -160.7740
  19   2.0000      -0.966393       -26.2969
  20   2.0000      -0.857767       -23.3410
  21   2.0000      -0.855677       -23.2841
  22   2.0000      -0.800727       -21.7889
  23   2.0000      -0.759654       -20.6712
  24   2.0000      -0.746016       -20.3001
  25   2.0000      -0.736254       -20.0345
  26   2.0000      -0.710273       -19.3275
  27   2.0000      -0.672128       -18.2895
  28   2.0000      -0.632650       -17.2153
  29   2.0000      -0.600706       -16.3460
  30   2.0000      -0.599333       -16.3087
  31   2.0000      -0.558118       -15.1872
  32   2.0000      -0.552575       -15.0363
  33   2.0000      -0.518555       -14.1106
  34   2.0000      -0.481285       -13.0964
  35   2.0000      -0.472660       -12.8617
  36   2.0000      -0.469033       -12.7630
  37   2.0000      -0.466870       -12.7042
  38   2.0000      -0.449667       -12.2360
  39   2.0000      -0.446979       -12.1629
  40   2.0000      -0.435703       -11.8561
  41   2.0000      -0.422871       -11.5069
  42   2.0000      -0.400865       -10.9081
  43   2.0000      -0.394657       -10.7392
  44   2.0000      -0.386188       -10.5087
  45   2.0000      -0.377310       -10.2671
  46   2.0000      -0.371894       -10.1197
  47   2.0000      -0.361444        -9.8354
  48   2.0000      -0.344876        -9.3845
  49   2.0000      -0.328936        -8.9508
  50   2.0000      -0.325795        -8.8653
  51   2.0000      -0.312353        -8.4996
  52   2.0000      -0.265652        -7.2288
  53   2.0000      -0.264754        -7.2043
  54   2.0000      -0.227011        -6.1773
  55   2.0000      -0.175770        -4.7829
  56   0.0000      -0.026981        -0.7342
  57   0.0000      -0.012654        -0.3443
  58   0.0000      -0.010167        -0.2767
  59   0.0000       0.024391         0.6637
  60   0.0000       0.031727         0.8633

MULLIKEN ATOMIC CHARGES
-----------------------
   0 N :   -0.269477
   1 C :    0.207612
   2 C :   -0.078894
   3 S :    0.085457
   4 C :   -0.069804
   5 C :   -0.021105
   6 C :    0.033001
   7 C :    0.024289
   8 C :   -0.089148
   9 C :    0.195238
  10 C :   -0.016050
  11 C :    0.030896
  12 C :    0.026967
  13 C :   -0.095039
  14 C :    0.145728
  15 H :   -0.019516
  16 H :   -0.022757
  17 H :   -0.021543
  18 H :   -0.033337
  19 H :   -0.018000
  20 H :   -0.022203
  21 H :   -0.021950
  22 H :   -0.034402
  23 H :    0.025923
  24 H :    0.028884
  25 H :    0.029232
Sum of atomic charges:   -0.0000000

LOEWDIN ATOMIC CHARGES
----------------------
   0 N :   -0.036064
   1 C :    0.024788
   2 C :   -0.171073
   3 S :    0.350550
   4 C :   -0.170328
   5 C :   -0.045072
   6 C :   -0.039097
   7 C :   -0.026913
   8 C :   -0.061576
   9 C :    0.021123
  10 C :   -0.042960
  11 C :   -0.040611
  12 C :   -0.025333
  13 C :   -0.060734
  14 C :    0.039315
  15 H :    0.026414
  16 H :    0.026499
  17 H :    0.026893
  18 H :    0.026076
  19 H :    0.026530
  20 H :    0.026729
  21 H :    0.027048
  22 H :    0.023800
  23 H :    0.026669
  24 H :    0.023053
  25 H :    0.024275

  Mayer bond orders larger than 0.100000
B(  0-N ,  1-C ) :   1.0493 B(  0-N ,  9-C ) :   1.0604 B(  0-N , 14-C ) :   1.0034
B(  1-C ,  2-C ) :   1.3861 B(  1-C , 13-C ) :   1.3485 B(  2-C ,  3-S ) :   0.9750
B(  2-C , 10-C ) :   1.4106 B(  3-S ,  4-C ) :   0.9751 B(  4-C ,  5-C ) :   1.4118
B(  4-C ,  9-C ) :   1.3879 B(  5-C ,  6-C ) :   1.3606 B(  5-C , 15-H ) :   0.9807
B(  6-C ,  7-C ) :   1.3799 B(  6-C , 16-H ) :   0.9899 B(  7-C ,  8-C ) :   1.3417
B(  7-C , 17-H ) :   0.9858 B(  8-C ,  9-C ) :   1.3563 B(  8-C , 18-H ) :   0.9861
B( 10-C , 11-C ) :   1.3685 B( 10-C , 19-H ) :   0.9803 B( 11-C , 12-C ) :   1.3735
B( 11-C , 20-H ) :   0.9901 B( 12-C , 13-C ) :   1.3751 B( 12-C , 21-H ) :   0.9829
B( 13-C , 22-H ) :   0.9876 B( 14-C , 23-H ) :   0.9586 B( 14-C , 24-H ) :   0.9592
B( 14-C , 25-H ) :   0.9581

Dispersion correction           -0.063019846
FINAL SINGLE POINT ENERGY      -954.499708708587

DIPOLE MOMENT
-------------
                                X             Y             Z
Electronic contribution:     -0.22300       8.49744      -0.18959
Nuclear contribution   :      0.17793      -9.32892       0.20078
                        -----------------------------------------
Total Dipole Moment    :     -0.04508      -0.83148       0.01119
                        -----------------------------------------
Magnitude (a.u.)       :      0.83277
Magnitude (Debye)      :      2.11674

Rotational constants in cm-1:     0.039304     0.014154     0.010430
Rotational constants in MHz :  1178.312855   424.317940   312.683202

                             ****ORCA TERMINATED NORMALLY****
TOTAL RUN TIME: 0 days 0 hours 23 minutes 26 seconds 424 msec
