                         Program Version 4.2.0 -  RELEASE  -
|  1> # ORCA input file
|  2> # SCF done        -65.824026990659          0.000948647679
|  3> ! B3LYP/G D3BJ Opt RIJCOSX def2-SVP def2/J
|  4> * xyz 0 1
|  5>    C       -1.27852         0.29501         0.66519
|  6>    C       -0.41229        -0.47514         1.42471
|  7>    C        0.93968        -0.48699         1.14065
|  8>    C        1.44743         0.27206         0.08810
|  9>    C        0.57156         1.06006        -0.65571
| 10>    C       -0.78155         1.06469        -0.37329
| 11>    C        2.88864         0.28048        -0.21597
| 12>    C        3.47447         1.61361        -0.43307
| 13>    C        4.32490         1.86139        -1.50889
| 14>    C        4.84995         3.12350        -1.71071
| 15>    C        4.53499         4.15780        -0.84443
| 16>    C        3.68038         3.92500         0.22040
| 17>    C        3.14777         2.66557         0.42099
| 18>    C        3.61717        -0.85505        -0.28819
| 19>    C        2.99900        -2.19143        -0.25349
| 20>    C        1.88367        -2.48970        -1.03342
| 21>    C        1.32450        -3.75274        -1.00222
| 22>    C        1.86915        -4.73783        -0.19519
| 23>    C        2.98644        -4.45582         0.57283
| 24>    C        3.55215        -3.19524         0.53916
| 25>    C        5.08518        -0.85020        -0.40276
| 26>    C        5.86850        -0.03575         0.41284
| 27>    C        7.24626        -0.06182         0.31269
| 28>    C        7.86415        -0.89976        -0.60116
| 29>    C        7.09525        -1.72186        -1.40810
| 30>    C        5.71706        -1.70360        -1.30524
| 31>    H       -2.33594         0.29927         0.88570
| 32>    H       -0.79254        -1.06680         2.24458
| 33>    H        1.61375        -1.07813         1.74241
| 34>    H        0.95829         1.65932        -1.46794
| 35>    H       -1.45146         1.67229        -0.96479
| 36>    H        4.56333         1.06040        -2.19341
| 37>    H        5.50619         3.30268        -2.55012
| 38>    H        4.94951         5.14270        -1.00195
| 39>    H        3.42652         4.72902         0.89626
| 40>    H        2.48183         2.48447         1.25323
| 41>    H        1.46284        -1.72740        -1.67272
| 42>    H        0.46076        -3.97093        -1.61288
| 43>    H        1.42800        -5.72338        -0.16940
| 44>    H        3.41923        -5.22162         1.19961
| 45>    H        4.42247        -2.97509         1.14129
| 46>    H        5.39055         0.61026         1.13475
| 47>    H        7.84220         0.57199         0.95321
| 48>    H        8.94127        -0.91642        -0.68001
| 49>    H        7.57179        -2.38155        -2.11885
| 50>    H        5.11776        -2.34524        -1.93620
| 51> *
| 52>
| 53>                          ****END OF INPUT****
 Total Charge           Charge          ....    0
 Multiplicity           Mult            ....    1
 Number of Electrons    NEL             ....  176
Dispersion correction           -0.121732321
FINAL SINGLE POINT ENERGY     -1002.204690640235
Dispersion correction            ... done
Dispersion correction           -0.118547695
FINAL SINGLE POINT ENERGY     -1002.211587774452
Dispersion correction            ... done
Dispersion correction           -0.119567722
FINAL SINGLE POINT ENERGY     -1002.211703287419
Dispersion correction            ... done
FINAL SINGLE POINT ENERGY     -1002.212108021049
FINAL SINGLE POINT ENERGY     -1002.212070433021
Dispersion correction            ... done
Dispersion correction           -0.119268776
FINAL SINGLE POINT ENERGY     -1002.212026912663
Dispersion correction            ... done
Dispersion correction           -0.119251461
FINAL SINGLE POINT ENERGY     -1002.212012808637
Dispersion correction            ... done
                    ***********************HURRAY********************

CARTESIAN COORDINATES (ANGSTROEM)
---------------------------------
  C     -1.285797    0.390339    0.885588
  C     -0.400563   -0.434104    1.586920
  C      0.943737   -0.492767    1.219188
  C      1.432222    0.269148    0.141828
  C      0.530398    1.097197   -0.551490
  C     -0.815769    1.152708   -0.187707
  C      2.879246    0.264373   -0.212105
  C      3.465974    1.606529   -0.486290
  C      4.294068    1.828418   -1.601517
  C      4.803195    3.098432   -1.872361
  C      4.498936    4.173600   -1.031896
  C      3.673546    3.969118    0.078364
  C      3.158190    2.699625    0.344082
  C      3.617484   -0.885534   -0.270435
  C      2.989185   -2.235236   -0.291957
  C      1.940015   -2.528897   -1.181201
  C      1.386858   -3.808451   -1.236842
  C      1.868434   -4.818785   -0.398662
  C      2.910193   -4.540467    0.492365
  C      3.473968   -3.264820    0.535393
  C      5.104646   -0.874881   -0.333574
  C      5.861661   -0.049875    0.518478
  C      7.254581   -0.040320    0.452136
  C      7.920790   -0.859098   -0.465686
  C      7.182854   -1.701374   -1.302931
  C      5.789110   -1.716515   -1.229514
  H     -2.334991    0.449972    1.186071
  H     -0.758264   -1.025608    2.433504
  H      1.632535   -1.125924    1.779693
  H      0.896866    1.707734   -1.379258
  H     -1.500446    1.800502   -0.740326
  H      4.536302    0.994764   -2.262041
  H      5.437488    3.253342   -2.748549
  H      4.898653    5.166911   -1.250358
  H      3.423344    4.803082    0.738823
  H      2.502886    2.544688    1.203930
  H      1.561720   -1.740557   -1.833355
  H      0.576425   -4.020765   -1.938511
  H      1.433745   -5.820194   -0.443530
  H      3.292208   -5.324882    1.150314
  H      4.300352   -3.054358    1.217538
  H      5.345139    0.590906    1.234522
  H      7.824916    0.608621    1.121142
  H      9.012378   -0.845105   -0.524422
  H      7.697623   -2.350192   -2.015831
  H      5.216200   -2.379221   -1.881040

 Multiplicity           Mult            ....    1
 Number of Electrons    NEL             ....  176
 Basis Dimension        Dim             ....  464

ORBITAL ENERGIES
----------------

  NO   OCC          E(Eh)            E(eV)
   0   2.0000     -10.199886      -277.5530
   1   2.0000     -10.199144      -277.5328
   2   2.0000     -10.196839      -277.4701
   3   2.0000     -10.196607      -277.4638
   4   2.0000     -10.196475      -277.4602
   5   2.0000     -10.196454      -277.4596
   6   2.0000     -10.190584      -277.2999
   7   2.0000     -10.190479      -277.2970
   8   2.0000     -10.190243      -277.2906
   9   2.0000     -10.190154      -277.2882
  10   2.0000     -10.190049      -277.2853
  11   2.0000     -10.189973      -277.2833
  12   2.0000     -10.189825      -277.2792
  13   2.0000     -10.189795      -277.2784
  14   2.0000     -10.189567      -277.2722
  15   2.0000     -10.189324      -277.2656
  16   2.0000     -10.189125      -277.2602
  17   2.0000     -10.188987      -277.2564
  18   2.0000     -10.188788      -277.2510
  19   2.0000     -10.188247      -277.2363
  20   2.0000     -10.188221      -277.2356
  21   2.0000     -10.188101      -277.2323
  22   2.0000     -10.188012      -277.2299
  23   2.0000     -10.187771      -277.2233
  24   2.0000     -10.187620      -277.2192
  25   2.0000     -10.187601      -277.2187
  26   2.0000      -0.869749       -23.6671
  27   2.0000      -0.850828       -23.1522
  28   2.0000      -0.845431       -23.0054
  29   2.0000      -0.841569       -22.9003
  30   2.0000      -0.804425       -21.8895
  31   2.0000      -0.763556       -20.7774
  32   2.0000      -0.743221       -20.2241
  33   2.0000      -0.737933       -20.0802
  34   2.0000      -0.735891       -20.0246
  35   2.0000      -0.735344       -20.0097
  36   2.0000      -0.733313       -19.9545
  37   2.0000      -0.729031       -19.8379
  38   2.0000      -0.694626       -18.9017
  39   2.0000      -0.637114       -17.3367
  40   2.0000      -0.607480       -16.5304
  41   2.0000      -0.605099       -16.4656
  42   2.0000      -0.598811       -16.2945
  43   2.0000      -0.595483       -16.2039
  44   2.0000      -0.590285       -16.0625
  45   2.0000      -0.590014       -16.0551
  46   2.0000      -0.574541       -15.6341
  47   2.0000      -0.544457       -14.8154
  48   2.0000      -0.525355       -14.2956
  49   2.0000      -0.512992       -13.9592
  50   2.0000      -0.510646       -13.8954
  51   2.0000      -0.484447       -13.1825
  52   2.0000      -0.469345       -12.7715
  53   2.0000      -0.465762       -12.6740
  54   2.0000      -0.458472       -12.4757
  55   2.0000      -0.450396       -12.2559
  56   2.0000      -0.449040       -12.2190
  57   2.0000      -0.446286       -12.1441
  58   2.0000      -0.441968       -12.0265
  59   2.0000      -0.435733       -11.8569
  60   2.0000      -0.430270       -11.7082
  61   2.0000      -0.421385       -11.4665
  62   2.0000      -0.420905       -11.4534
  63   2.0000      -0.419207       -11.4072
  64   2.0000      -0.418693       -11.3932
  65   2.0000      -0.414102       -11.2683
  66   2.0000      -0.399726       -10.8771
  67   2.0000      -0.374986       -10.2039
  68   2.0000      -0.370888       -10.0924
  69   2.0000      -0.367455        -9.9989
  70   2.0000      -0.362976        -9.8771
  71   2.0000      -0.359007        -9.7691
  72   2.0000      -0.355371        -9.6701
  73   2.0000      -0.353184        -9.6106
  74   2.0000      -0.347177        -9.4472
  75   2.0000      -0.343329        -9.3425
  76   2.0000      -0.342881        -9.3303
  77   2.0000      -0.337581        -9.1860
  78   2.0000      -0.326556        -8.8860
  79   2.0000      -0.295241        -8.0339
  80   2.0000      -0.269708        -7.3391
  81   2.0000      -0.262832        -7.1520
  82   2.0000      -0.262427        -7.1410
  83   2.0000      -0.258486        -7.0338
  84   2.0000      -0.251161        -6.8344
  85   2.0000      -0.249328        -6.7845
  86   2.0000      -0.245323        -6.6756
  87   2.0000      -0.201854        -5.4927
  88   0.0000      -0.057836        -1.5738
  89   0.0000      -0.023201        -0.6313
  90   0.0000      -0.019851        -0.5402
  91   0.0000      -0.010177        -0.2769
  92   0.0000      -0.006327        -0.1722

MULLIKEN ATOMIC CHARGES
-----------------------
   0 C :    0.020925
   1 C :    0.017679
   2 C :    0.033147
   3 C :   -0.018931
   4 C :    0.004524
   5 C :    0.017344
   6 C :    0.040710
   7 C :   -0.038690
   8 C :    0.044485
   9 C :    0.010861
  10 C :    0.030559
  11 C :    0.011625
  12 C :    0.012098
  13 C :    0.026927
  14 C :   -0.042575
  15 C :    0.044332
  16 C :    0.015033
  17 C :    0.024295
  18 C :    0.016264
  19 C :    0.016238
  20 C :   -0.031023
  21 C :    0.038300
  22 C :    0.019429
  23 C :    0.011039
  24 C :    0.019282
  25 C :    0.015290
  26 H :   -0.017857
  27 H :   -0.020367
  28 H :   -0.018642
  29 H :   -0.014835
  30 H :   -0.018442
  31 H :   -0.019560
  32 H :   -0.018230
  33 H :   -0.021015
  34 H :   -0.018250
  35 H :   -0.013593
  36 H :   -0.019721
  37 H :   -0.017627
  38 H :   -0.019532
  39 H :   -0.018767
  40 H :   -0.016148
  41 H :   -0.018035
  42 H :   -0.019652
  43 H :   -0.012284
  44 H :   -0.020405
  45 H :   -0.016209
Sum of atomic charges:   -0.0000000

LOEWDIN ATOMIC CHARGES
----------------------
   0 C :   -0.026620
   1 C :   -0.025904
   2 C :   -0.010283
   3 C :   -0.022284
   4 C :   -0.017523
   5 C :   -0.027631
   6 C :   -0.012342
   7 C :   -0.023272
   8 C :   -0.009312
   9 C :   -0.026422
  10 C :   -0.025810
  11 C :   -0.028143
  12 C :   -0.017487
  13 C :   -0.013351
  14 C :   -0.022569
  15 C :   -0.010362
  16 C :   -0.026123
  17 C :   -0.026114
  18 C :   -0.027046
  19 C :   -0.018246
  20 C :   -0.022266
  21 C :   -0.010428
  22 C :   -0.025430
  23 C :   -0.028859
  24 C :   -0.027133
  25 C :   -0.017622
  26 H :    0.025751
  27 H :    0.026789
  28 H :    0.029259
  29 H :    0.028481
  30 H :    0.026675
  31 H :    0.029201
  32 H :    0.027082
  33 H :    0.025227
  34 H :    0.026724
  35 H :    0.028685
  36 H :    0.028751
  37 H :    0.027279
  38 H :    0.025529
  39 H :    0.026748
  40 H :    0.028479
  41 H :    0.029197
  42 H :    0.027112
  43 H :    0.026735
  44 H :    0.026431
  45 H :    0.028445

  Mayer bond orders larger than 0.100000
B(  0-C ,  1-C ) :   1.3701 B(  0-C ,  5-C ) :   1.3726 B(  0-C , 26-H ) :   0.9855
B(  1-C ,  2-C ) :   1.3849 B(  1-C , 27-H ) :   0.9848 B(  2-C ,  3-C ) :   1.3699
B(  2-C , 28-H ) :   0.9820 B(  3-C ,  4-C ) :   1.3684 B(  3-C ,  6-C ) :   0.9948
B(  4-C ,  5-C ) :   1.3791 B(  4-C , 29-H ) :   0.9845 B(  5-C , 30-H ) :   0.9840
B(  6-C ,  7-C ) :   0.9881 B(  6-C , 13-C ) :   1.7397 B(  7-C ,  8-C ) :   1.3759
B(  7-C , 12-C ) :   1.3752 B(  8-C ,  9-C ) :   1.3799 B(  8-C , 31-H ) :   0.9816
B(  9-C , 10-C ) :   1.3750 B(  9-C , 32-H ) :   0.9835 B( 10-C , 11-C ) :   1.3726
B( 10-C , 33-H ) :   0.9850 B( 11-C , 12-C ) :   1.3773 B( 11-C , 34-H ) :   0.9830
B( 12-C , 35-H ) :   0.9840 B( 13-C , 14-C ) :   0.9880 B( 13-C , 20-C ) :   0.9984
B( 14-C , 15-C ) :   1.3777 B( 14-C , 19-C ) :   1.3711 B( 15-C , 16-C ) :   1.3762
B( 15-C , 36-H ) :   0.9835 B( 16-C , 17-C ) :   1.3746 B( 16-C , 37-H ) :   0.9856
B( 17-C , 18-C ) :   1.3707 B( 17-C , 38-H ) :   0.9852 B( 18-C , 19-C ) :   1.3766
B( 18-C , 39-H ) :   0.9844 B( 19-C , 40-H ) :   0.9866 B( 20-C , 21-C ) :   1.3731
B( 20-C , 25-C ) :   1.3738 B( 21-C , 22-C ) :   1.3849 B( 21-C , 41-H ) :   0.9816
B( 22-C , 23-C ) :   1.3723 B( 22-C , 42-H ) :   0.9826 B( 23-C , 24-C ) :   1.3766
B( 23-C , 43-H ) :   0.9842 B( 24-C , 25-C ) :   1.3767 B( 24-C , 44-H ) :   0.9831
B( 25-C , 45-H ) :   0.9834

Dispersion correction           -0.119238690
FINAL SINGLE POINT ENERGY     -1002.212015717295

DIPOLE MOMENT
-------------
                                X             Y             Z
Electronic contribution:     -0.01664      -0.12548       0.02307
Nuclear contribution   :      0.01114       0.13929      -0.02533
                        -----------------------------------------
Total Dipole Moment    :     -0.00549       0.01381      -0.00226
                        -----------------------------------------
Magnitude (a.u.)       :      0.01503
Magnitude (Debye)      :      0.03821

Rotational constants in cm-1:     0.008068     0.007239     0.004270
Rotational constants in MHz :   241.862366   217.020122   128.010887

                             ****ORCA TERMINATED NORMALLY****
TOTAL RUN TIME: 0 days 0 hours 56 minutes 53 seconds 422 msec
