                         Program Version 4.2.0 -  RELEASE  -
|  1> # ORCA input file
|  2> # SCF done        -37.677995497955          0.000994731768
|  3> ! B3LYP/G D3BJ Opt RIJCOSX def2-SVP def2/J
|  4> * xyz 0 1
|  5>    C       -0.36487        -1.08449         0.33573
|  6>    C       -0.55108        -1.89078         1.62461
|  7>    C       -0.86572        -1.86768        -0.88180
|  8>    C        1.04688        -0.61742         0.16383
|  9>    C        1.07760         0.72754         0.17513
| 10>    C       -0.29731         1.19190         0.35113
| 11>    C       -0.74868         2.47604         0.42038
| 12>    C        0.10755         3.59243         0.33420
| 13>    N        0.76456         4.52930         0.27181
| 14>    C       -2.12304         2.75540         0.58826
| 15>    N       -3.23757         2.98466         0.72190
| 16>    O       -1.11522         0.13605         0.44044
| 17>    C        2.21849         1.54418         0.03997
| 18>    N        3.17957         2.15465        -0.07642
| 19>    H        0.00995        -2.81875         1.56595
| 20>    H       -1.60552        -2.11491         1.75905
| 21>    H       -0.20387        -1.31744         2.48157
| 22>    H       -0.31698        -2.80003        -0.97524
| 23>    H       -0.73160        -1.28190        -1.78854
| 24>    H       -1.92362        -2.08243        -0.75922
| 25>    H        1.87594        -1.28901         0.05216
| 26> *
| 27>
| 28>                          ****END OF INPUT****
 Total Charge           Charge          ....    0
 Multiplicity           Mult            ....    1
 Number of Electrons    NEL             ....   96
Dispersion correction           -0.043123721
FINAL SINGLE POINT ENERGY      -624.248440972919
Dispersion correction            ... done
Dispersion correction           -0.042579755
FINAL SINGLE POINT ENERGY      -624.252756886323
Dispersion correction            ... done
Dispersion correction           -0.042526384
FINAL SINGLE POINT ENERGY      -624.252964097565
Dispersion correction            ... done
FINAL SINGLE POINT ENERGY      -624.253031312132
Dispersion correction            ... done
Dispersion correction           -0.042541471
FINAL SINGLE POINT ENERGY      -624.253036056557
Dispersion correction            ... done
Dispersion correction           -0.042550712
FINAL SINGLE POINT ENERGY      -624.253033847706
Dispersion correction            ... done
                    ***********************HURRAY********************

CARTESIAN COORDINATES (ANGSTROEM)
---------------------------------
  C     -0.354035   -1.100790    0.337006
  C     -0.565823   -1.879006    1.636917
  C     -0.878699   -1.845590   -0.892753
  C      1.060792   -0.630974    0.165839
  C      1.106266    0.719854    0.174632
  C     -0.271345    1.205655    0.350492
  C     -0.757229    2.488228    0.417788
  C      0.086357    3.636480    0.313895
  N      0.732903    4.597908    0.236145
  C     -2.159651    2.700976    0.599545
  N     -3.297009    2.881989    0.745705
  O     -1.089195    0.156322    0.447626
  C      2.286352    1.510437    0.043493
  N      3.277784    2.101303   -0.067897
  H     -0.018868   -2.831996    1.604088
  H     -1.636454   -2.090147    1.770761
  H     -0.208077   -1.295935    2.497297
  H     -0.319509   -2.781280   -1.036424
  H     -0.768730   -1.224897   -1.793618
  H     -1.942313   -2.090092   -0.757974
  H      1.911943   -1.301133    0.052336

 Multiplicity           Mult            ....    1
 Number of Electrons    NEL             ....   96
 Basis Dimension        Dim             ....  231

ORBITAL ENERGIES
----------------

  NO   OCC          E(Eh)            E(eV)
   0   2.0000     -19.229745      -523.2680
   1   2.0000     -14.361954      -390.8086
   2   2.0000     -14.339038      -390.1851
   3   2.0000     -14.338491      -390.1702
   4   2.0000     -10.332215      -281.1539
   5   2.0000     -10.316552      -280.7277
   6   2.0000     -10.290128      -280.0086
   7   2.0000     -10.276168      -279.6287
   8   2.0000     -10.275135      -279.6006
   9   2.0000     -10.261140      -279.2198
  10   2.0000     -10.242706      -278.7182
  11   2.0000     -10.242474      -278.7119
  12   2.0000     -10.234233      -278.4876
  13   2.0000     -10.233942      -278.4797
  14   2.0000      -1.140263       -31.0281
  15   2.0000      -0.932069       -25.3629
  16   2.0000      -0.917762       -24.9736
  17   2.0000      -0.902591       -24.5608
  18   2.0000      -0.879969       -23.9452
  19   2.0000      -0.867688       -23.6110
  20   2.0000      -0.812598       -22.1119
  21   2.0000      -0.739715       -20.1287
  22   2.0000      -0.712785       -19.3959
  23   2.0000      -0.685366       -18.6498
  24   2.0000      -0.652411       -17.7530
  25   2.0000      -0.599972       -16.3261
  26   2.0000      -0.586341       -15.9552
  27   2.0000      -0.551211       -14.9992
  28   2.0000      -0.525096       -14.2886
  29   2.0000      -0.499678       -13.5969
  30   2.0000      -0.487129       -13.2555
  31   2.0000      -0.450749       -12.2655
  32   2.0000      -0.449707       -12.2371
  33   2.0000      -0.442578       -12.0432
  34   2.0000      -0.427939       -11.6448
  35   2.0000      -0.412716       -11.2306
  36   2.0000      -0.410019       -11.1572
  37   2.0000      -0.409864       -11.1530
  38   2.0000      -0.387801       -10.5526
  39   2.0000      -0.384939       -10.4747
  40   2.0000      -0.375548       -10.2192
  41   2.0000      -0.371286       -10.1032
  42   2.0000      -0.368892       -10.0381
  43   2.0000      -0.353729        -9.6254
  44   2.0000      -0.351653        -9.5690
  45   2.0000      -0.341137        -9.2828
  46   2.0000      -0.332535        -9.0487
  47   2.0000      -0.265376        -7.2213
  48   0.0000      -0.120005        -3.2655
  49   0.0000      -0.050370        -1.3706
  50   0.0000      -0.022028        -0.5994
  51   0.0000       0.008374         0.2279
  52   0.0000       0.012362         0.3364

MULLIKEN ATOMIC CHARGES
-----------------------
   0 C :   -0.059493
   1 C :    0.114746
   2 C :    0.110845
   3 C :   -0.001907
   4 C :   -0.101778
   5 C :    0.323655
   6 C :   -0.372170
   7 C :   -0.159289
   8 N :    0.145336
   9 C :   -0.121461
  10 N :    0.122509
  11 O :   -0.262290
  12 C :   -0.136498
  13 N :    0.171065
  14 H :    0.023879
  15 H :    0.045116
  16 H :    0.030507
  17 H :    0.025483
  18 H :    0.033555
  19 H :    0.043005
  20 H :    0.025183
Sum of atomic charges:   -0.0000000

LOEWDIN ATOMIC CHARGES
----------------------
   0 C :    0.057573
   1 C :   -0.030911
   2 C :   -0.031486
   3 C :    0.066215
   4 C :   -0.070409
   5 C :    0.120208
   6 C :   -0.162717
   7 C :   -0.030471
   8 N :   -0.039675
   9 C :   -0.017826
  10 N :   -0.048965
  11 O :   -0.048313
  12 C :   -0.031566
  13 N :   -0.010124
  14 H :    0.036004
  15 H :    0.041725
  16 H :    0.036114
  17 H :    0.036189
  18 H :    0.036771
  19 H :    0.041363
  20 H :    0.050300

  Mayer bond orders larger than 0.100000
B(  0-C ,  1-C ) :   1.0413 B(  0-C ,  2-C ) :   1.0407 B(  0-C ,  3-C ) :   0.9734
B(  0-C , 11-O ) :   0.8844 B(  1-C , 14-H ) :   0.9549 B(  1-C , 15-H ) :   0.9546
B(  1-C , 16-H ) :   0.9519 B(  2-C , 17-H ) :   0.9555 B(  2-C , 18-H ) :   0.9521
B(  2-C , 19-H ) :   0.9539 B(  3-C ,  4-C ) :   1.7315 B(  3-C , 20-H ) :   1.0036
B(  4-C ,  5-C ) :   1.0169 B(  4-C , 12-C ) :   1.1095 B(  5-C ,  6-C ) :   1.5963
B(  5-C , 11-O ) :   1.2373 B(  6-C ,  7-C ) :   1.1834 B(  6-C ,  9-C ) :   1.1129
B(  7-C ,  8-N ) :   2.9861 B(  9-C , 10-N ) :   3.0163 B( 12-C , 13-N ) :   3.0176

Dispersion correction           -0.042552352
FINAL SINGLE POINT ENERGY      -624.253031917931

DIPOLE MOMENT
-------------
                                X             Y             Z
Electronic contribution:      2.45158      16.21059      -0.12739
Nuclear contribution   :     -2.24668     -20.01318       0.06164
                        -----------------------------------------
Total Dipole Moment    :      0.20490      -3.80259      -0.06575
                        -----------------------------------------
Magnitude (a.u.)       :      3.80868
Magnitude (Debye)      :      9.68089

Rotational constants in cm-1:     0.029629     0.020827     0.013297
Rotational constants in MHz :   888.251179   624.371143   398.637137

                             ****ORCA TERMINATED NORMALLY****
TOTAL RUN TIME: 0 days 0 hours 10 minutes 43 seconds 569 msec
