                         Program Version 4.2.0 -  RELEASE  -
|  1> # ORCA input file
|  2> # SCF done        -38.423931787883          0.000818697971
|  3> ! B3LYP/G D3BJ Opt RIJCOSX def2-SVP def2/J
|  4> * xyz 0 1
|  5>    C       -0.91215        -1.62638        -0.08845
|  6>    C       -2.20390        -1.15175        -0.08192
|  7>    O       -3.14336        -2.12346        -0.20642
|  8>    C       -4.52856        -1.86192        -0.22098
|  9>    C       -2.45487         0.26161         0.04923
| 10>    O       -3.76220         0.65638         0.05064
| 11>    C       -4.05686         2.02475         0.19730
| 12>    C       -1.41256         1.14637         0.16579
| 13>    C       -0.09378         0.66946         0.16149
| 14>    C        0.16212        -0.73926         0.03301
| 15>    N        1.46508        -1.01672         0.04913
| 16>    S        2.27805         0.36532         0.21046
| 17>    N        1.02590         1.38121         0.26750
| 18>    H       -0.74277        -2.68532        -0.18677
| 19>    H       -4.99379        -2.84159        -0.33216
| 20>    H       -4.81476        -1.22721        -1.06202
| 21>    H       -4.86668        -1.40396         0.71067
| 22>    H       -3.65701         2.61223        -0.63425
| 23>    H       -3.67241         2.41934         1.14238
| 24>    H       -5.14378         2.08755         0.19474
| 25>    H       -1.56945         2.20691         0.26188
| 26> *
| 27>
| 28>                          ****END OF INPUT****
 Total Charge           Charge          ....    0
 Multiplicity           Mult            ....    1
 Number of Electrons    NEL             ....  102
Dispersion correction           -0.042205322
FINAL SINGLE POINT ENERGY      -967.265820118833
Dispersion correction            ... done
Dispersion correction           -0.041941750
FINAL SINGLE POINT ENERGY      -967.269095209058
Dispersion correction            ... done
Dispersion correction           -0.041994218
FINAL SINGLE POINT ENERGY      -967.269637332404
Dispersion correction            ... done
FINAL SINGLE POINT ENERGY      -967.269821211174
FINAL SINGLE POINT ENERGY      -967.269875427057
FINAL SINGLE POINT ENERGY      -967.269888137288
FINAL SINGLE POINT ENERGY      -967.269978787884
FINAL SINGLE POINT ENERGY      -967.270444582994
FINAL SINGLE POINT ENERGY      -967.270998122846
FINAL SINGLE POINT ENERGY      -967.271475356882
FINAL SINGLE POINT ENERGY      -967.271903160036
FINAL SINGLE POINT ENERGY      -967.272049740713
FINAL SINGLE POINT ENERGY      -967.271941701776
FINAL SINGLE POINT ENERGY      -967.272207534323
FINAL SINGLE POINT ENERGY      -967.272182791196
FINAL SINGLE POINT ENERGY      -967.272358854268
FINAL SINGLE POINT ENERGY      -967.272346104548
Dispersion correction            ... done
Dispersion correction           -0.041955682
FINAL SINGLE POINT ENERGY      -967.272338981184
Dispersion correction            ... done
Dispersion correction           -0.041960782
FINAL SINGLE POINT ENERGY      -967.272340564643
Dispersion correction            ... done
                    ***********************HURRAY********************

CARTESIAN COORDINATES (ANGSTROEM)
---------------------------------
  C     -1.060085   -1.623861    0.163183
  C     -2.312510   -1.082637    0.286056
  O     -3.381228   -1.899096    0.475065
  C     -4.288690   -2.020943   -0.611819
  C     -2.514128    0.364080    0.284238
  O     -3.797054    0.743685    0.465031
  C     -4.086703    2.122423    0.564606
  C     -1.455587    1.230259    0.131107
  C     -0.144361    0.686210   -0.009961
  C      0.061189   -0.754806    0.023744
  N      1.338526   -1.114576   -0.099655
  S      2.208937    0.275722   -0.254999
  N      0.985112    1.376989   -0.166437
  H     -0.932888   -2.706220    0.182447
  H     -5.102061   -2.675723   -0.272256
  H     -3.792240   -2.483009   -1.484348
  H     -4.709128   -1.046395   -0.906081
  H     -3.853280    2.654894   -0.374519
  H     -3.521700    2.591649    1.387985
  H     -5.161776    2.203564    0.770729
  H     -1.578084    2.311350    0.127133

 Multiplicity           Mult            ....    1
 Number of Electrons    NEL             ....  102
 Basis Dimension        Dim             ....  226

ORBITAL ENERGIES
----------------

  NO   OCC          E(Eh)            E(eV)
   0   2.0000     -88.922342     -2419.6999
   1   2.0000     -19.186430      -522.0893
   2   2.0000     -19.158154      -521.3199
   3   2.0000     -14.349567      -390.4716
   4   2.0000     -14.347586      -390.4177
   5   2.0000     -10.270477      -279.4739
   6   2.0000     -10.261335      -279.2251
   7   2.0000     -10.260308      -279.1972
   8   2.0000     -10.242793      -278.7206
   9   2.0000     -10.237543      -278.5777
  10   2.0000     -10.235866      -278.5321
  11   2.0000     -10.202090      -277.6130
  12   2.0000     -10.201974      -277.6098
  13   2.0000      -8.013835      -218.0675
  14   2.0000      -5.984009      -162.8332
  15   2.0000      -5.976771      -162.6362
  16   2.0000      -5.974556      -162.5759
  17   2.0000      -1.085750       -29.5448
  18   2.0000      -1.052453       -28.6387
  19   2.0000      -1.006127       -27.3781
  20   2.0000      -0.876316       -23.8458
  21   2.0000      -0.848573       -23.0908
  22   2.0000      -0.766087       -20.8463
  23   2.0000      -0.756530       -20.5862
  24   2.0000      -0.717455       -19.5229
  25   2.0000      -0.694659       -18.9026
  26   2.0000      -0.624281       -16.9875
  27   2.0000      -0.603904       -16.4331
  28   2.0000      -0.596190       -16.2232
  29   2.0000      -0.540569       -14.7096
  30   2.0000      -0.531333       -14.4583
  31   2.0000      -0.524694       -14.2777
  32   2.0000      -0.492956       -13.4140
  33   2.0000      -0.467624       -12.7247
  34   2.0000      -0.463501       -12.6125
  35   2.0000      -0.462952       -12.5976
  36   2.0000      -0.452685       -12.3182
  37   2.0000      -0.445384       -12.1195
  38   2.0000      -0.433119       -11.7858
  39   2.0000      -0.414223       -11.2716
  40   2.0000      -0.386665       -10.5217
  41   2.0000      -0.380567       -10.3558
  42   2.0000      -0.364923        -9.9301
  43   2.0000      -0.349921        -9.5218
  44   2.0000      -0.328902        -8.9499
  45   2.0000      -0.318919        -8.6782
  46   2.0000      -0.317683        -8.6446
  47   2.0000      -0.292551        -7.9607
  48   2.0000      -0.288624        -7.8538
  49   2.0000      -0.242722        -6.6048
  50   2.0000      -0.234809        -6.3895
  51   0.0000      -0.079287        -2.1575
  52   0.0000       0.006138         0.1670
  53   0.0000       0.013288         0.3616
  54   0.0000       0.025867         0.7039
  55   0.0000       0.053603         1.4586

MULLIKEN ATOMIC CHARGES
-----------------------
   0 C :   -0.078425
   1 C :    0.172041
   2 O :   -0.327106
   3 C :    0.209037
   4 C :    0.215818
   5 O :   -0.305916
   6 C :    0.179710
   7 C :   -0.160270
   8 C :    0.062846
   9 C :    0.070554
  10 N :   -0.284418
  11 S :    0.442133
  12 N :   -0.289043
  13 H :   -0.025291
  14 H :    0.032556
  15 H :    0.005251
  16 H :    0.016506
  17 H :    0.026908
  18 H :    0.028746
  19 H :    0.039247
  20 H :   -0.030884
Sum of atomic charges:   -0.0000000

LOEWDIN ATOMIC CHARGES
----------------------
   0 C :   -0.042029
   1 C :    0.037136
   2 O :   -0.118057
   3 C :    0.086555
   4 C :    0.042540
   5 O :   -0.082323
   6 C :    0.083456
   7 C :   -0.090830
   8 C :   -0.050519
   9 C :   -0.057909
  10 N :   -0.283765
  11 S :    0.582288
  12 N :   -0.291470
  13 H :    0.042008
  14 H :    0.025004
  15 H :    0.009213
  16 H :    0.008559
  17 H :    0.016955
  18 H :    0.018650
  19 H :    0.029392
  20 H :    0.035147

  Mayer bond orders larger than 0.100000
B(  0-C ,  1-C ) :   1.5265 B(  0-C ,  7-C ) :   0.1281 B(  0-C ,  9-C ) :   1.1089
B(  0-C , 13-H ) :   1.0336 B(  1-C ,  2-O ) :   1.1045 B(  1-C ,  4-C ) :   1.1388
B(  2-O ,  3-C ) :   0.9424 B(  3-C , 14-H ) :   0.9823 B(  3-C , 15-H ) :   0.9618
B(  3-C , 16-H ) :   0.9635 B(  4-C ,  5-O ) :   1.1543 B(  4-C ,  7-C ) :   1.3966
B(  5-O ,  6-C ) :   0.9567 B(  6-C , 17-H ) :   0.9664 B(  6-C , 18-H ) :   0.9652
B(  6-C , 19-H ) :   0.9758 B(  7-C ,  8-C ) :   1.1421 B(  7-C , 20-H ) :   1.0229
B(  8-C ,  9-C ) :   1.1443 B(  8-C , 12-N ) :   1.5288 B(  9-C , 10-N ) :   1.5243
B( 10-N , 11-S ) :   1.2226 B( 10-N , 12-N ) :   0.1557 B( 11-S , 12-N ) :   1.2133

Dispersion correction           -0.041962522
FINAL SINGLE POINT ENERGY      -967.272342954882

DIPOLE MOMENT
-------------
                                X             Y             Z
Electronic contribution:     16.99939      -0.91683       0.69167
Nuclear contribution   :    -18.22066       1.46641      -0.99460
                        -----------------------------------------
Total Dipole Moment    :     -1.22127       0.54958      -0.30293
                        -----------------------------------------
Magnitude (a.u.)       :      1.37306
Magnitude (Debye)      :      3.49005

Rotational constants in cm-1:     0.047760     0.015476     0.011982
Rotational constants in MHz :  1431.821584   463.950387   359.223188

                             ****ORCA TERMINATED NORMALLY****
TOTAL RUN TIME: 0 days 0 hours 36 minutes 52 seconds 824 msec
