                         Program Version 4.2.0 -  RELEASE  -
|  1> # ORCA input file
|  2> # SCF done        -49.120619144317          0.000711234648
|  3> ! B3LYP/G D3BJ Opt RIJCOSX def2-SVP def2/J
|  4> * xyz 0 1
|  5>    C       -1.65107        -1.43506         0.21564
|  6>    C       -1.05056        -0.18797         0.27054
|  7>    F       -1.75560         0.85091         0.72423
|  8>    C        0.27255         0.00891        -0.13633
|  9>    F        0.80868         1.22988        -0.06587
| 10>    C        1.02935        -1.04922        -0.61002
| 11>    C        0.43171        -2.29477        -0.66487
| 12>    C       -0.89978        -2.50252        -0.25898
| 13>    C       -1.24995        -3.90820        -0.43222
| 14>    C       -2.45555        -4.48105        -0.15811
| 15>    C       -3.57442        -3.78124         0.35021
| 16>    N       -4.51290        -3.26710         0.76147
| 17>    C       -2.75203        -5.85136        -0.34506
| 18>    N       -3.05459        -6.95000        -0.47242
| 19>    C       -0.06581        -4.58885        -0.96178
| 20>    C        1.02018        -3.56949        -1.12373
| 21>    O        2.13339        -3.76541        -1.54092
| 22>    C        0.12954        -5.87180        -1.27472
| 23>    H       -2.67371        -1.53450         0.54109
| 24>    H        2.05045        -0.90246        -0.92459
| 25>    H       -0.61718        -6.63874        -1.17085
| 26>    H        1.09581        -6.16565        -1.65401
| 27> *
| 28>
| 29>                          ****END OF INPUT****
 Total Charge           Charge          ....    0
 Multiplicity           Mult            ....    1
 Number of Electrons    NEL             ....  122
Dispersion correction           -0.054515171
FINAL SINGLE POINT ENERGY      -881.520452451846
Dispersion correction            ... done
Dispersion correction           -0.054194018
FINAL SINGLE POINT ENERGY      -881.524090746851
Dispersion correction            ... done
Dispersion correction           -0.054165591
FINAL SINGLE POINT ENERGY      -881.524325730648
Dispersion correction            ... done
FINAL SINGLE POINT ENERGY      -881.524242452539
FINAL SINGLE POINT ENERGY      -881.524420488049
FINAL SINGLE POINT ENERGY      -881.524467830166
FINAL SINGLE POINT ENERGY      -881.524489932200
Dispersion correction            ... done
Dispersion correction           -0.054246003
FINAL SINGLE POINT ENERGY      -881.524489491795
Dispersion correction            ... done
Dispersion correction           -0.054244974
FINAL SINGLE POINT ENERGY      -881.524483808710
Dispersion correction            ... done
                    ***********************HURRAY********************

CARTESIAN COORDINATES (ANGSTROEM)
---------------------------------
  C     -1.687017   -1.403015    0.167823
  C     -1.060745   -0.165518    0.247718
  F     -1.728504    0.896128    0.682918
  C      0.289426    0.011176   -0.116772
  F      0.823080    1.218562    0.013608
  C      1.037408   -1.055608   -0.593909
  C      0.411189   -2.296634   -0.672114
  C     -0.933333   -2.495682   -0.290713
  C     -1.288333   -3.920215   -0.452675
  C     -2.495997   -4.499932   -0.141002
  C     -3.595572   -3.763983    0.405354
  N     -4.491498   -3.174551    0.851567
  C     -2.745008   -5.897339   -0.321767
  N     -2.953116   -7.030840   -0.464511
  C     -0.092045   -4.607476   -0.984309
  C      1.005521   -3.578531   -1.119794
  O      2.136495   -3.776275   -1.502371
  C      0.138299   -5.890572   -1.311289
  H     -2.727280   -1.475235    0.477898
  H      2.077909   -0.923110   -0.893935
  H     -0.599110   -6.687958   -1.229115
  H      1.136740   -6.139084   -1.683909

 Multiplicity           Mult            ....    1
 Number of Electrons    NEL             ....  122
 Basis Dimension        Dim             ....  272

ORBITAL ENERGIES
----------------

  NO   OCC          E(Eh)            E(eV)
   0   2.0000     -24.744950      -673.3443
   1   2.0000     -24.743319      -673.2999
   2   2.0000     -19.160354      -521.3797
   3   2.0000     -14.362747      -390.8302
   4   2.0000     -14.361690      -390.8014
   5   2.0000     -10.327519      -281.0261
   6   2.0000     -10.327066      -281.0138
   7   2.0000     -10.308123      -280.4983
   8   2.0000     -10.295502      -280.1548
   9   2.0000     -10.286766      -279.9171
  10   2.0000     -10.264566      -279.3130
  11   2.0000     -10.263322      -279.2792
  12   2.0000     -10.261921      -279.2411
  13   2.0000     -10.250190      -278.9218
  14   2.0000     -10.249904      -278.9141
  15   2.0000     -10.246497      -278.8214
  16   2.0000     -10.245442      -278.7926
  17   2.0000     -10.245269      -278.7879
  18   2.0000      -1.265689       -34.4412
  19   2.0000      -1.249879       -34.0109
  20   2.0000      -1.065883       -29.0041
  21   2.0000      -0.946340       -25.7512
  22   2.0000      -0.928766       -25.2730
  23   2.0000      -0.926630       -25.2149
  24   2.0000      -0.882953       -24.0264
  25   2.0000      -0.833541       -22.6818
  26   2.0000      -0.805704       -21.9243
  27   2.0000      -0.799114       -21.7450
  28   2.0000      -0.724370       -19.7111
  29   2.0000      -0.706089       -19.2137
  30   2.0000      -0.661585       -18.0026
  31   2.0000      -0.640515       -17.4293
  32   2.0000      -0.624767       -17.0008
  33   2.0000      -0.600211       -16.3326
  34   2.0000      -0.585326       -15.9275
  35   2.0000      -0.560121       -15.2417
  36   2.0000      -0.543983       -14.8025
  37   2.0000      -0.536607       -14.6018
  38   2.0000      -0.532726       -14.4962
  39   2.0000      -0.500616       -13.6225
  40   2.0000      -0.495615       -13.4864
  41   2.0000      -0.495144       -13.4735
  42   2.0000      -0.474343       -12.9075
  43   2.0000      -0.471958       -12.8426
  44   2.0000      -0.464698       -12.6451
  45   2.0000      -0.448993       -12.2177
  46   2.0000      -0.441611       -12.0169
  47   2.0000      -0.438022       -11.9192
  48   2.0000      -0.422428       -11.4949
  49   2.0000      -0.403978       -10.9928
  50   2.0000      -0.399574       -10.8730
  51   2.0000      -0.396166       -10.7802
  52   2.0000      -0.391395       -10.6504
  53   2.0000      -0.376366       -10.2414
  54   2.0000      -0.373072       -10.1518
  55   2.0000      -0.362788        -9.8720
  56   2.0000      -0.362733        -9.8705
  57   2.0000      -0.312973        -8.5164
  58   2.0000      -0.300359        -8.1732
  59   2.0000      -0.292258        -7.9527
  60   2.0000      -0.278168        -7.5693
  61   0.0000      -0.138204        -3.7607
  62   0.0000      -0.113937        -3.1004
  63   0.0000      -0.051374        -1.3980
  64   0.0000      -0.031373        -0.8537
  65   0.0000      -0.009494        -0.2583

MULLIKEN ATOMIC CHARGES
-----------------------
   0 C :   -0.080462
   1 C :    0.240893
   2 F :   -0.156040
   3 C :    0.243098
   4 F :   -0.157140
   5 C :   -0.087854
   6 C :   -0.017067
   7 C :    0.045313
   8 C :    0.259429
   9 C :   -0.290489
  10 C :   -0.141258
  11 N :    0.118580
  12 C :   -0.142900
  13 N :    0.113604
  14 C :   -0.114563
  15 C :    0.145395
  16 O :   -0.140235
  17 C :    0.015381
  18 H :    0.017352
  19 H :    0.014627
  20 H :    0.060051
  21 H :    0.054285
Sum of atomic charges:   -0.0000000

LOEWDIN ATOMIC CHARGES
----------------------
   0 C :   -0.019515
   1 C :    0.074683
   2 F :   -0.029052
   3 C :    0.071774
   4 F :   -0.028503
   5 C :   -0.005038
   6 C :   -0.044194
   7 C :   -0.010370
   8 C :    0.063404
   9 C :   -0.113341
  10 C :   -0.012281
  11 N :   -0.043068
  12 C :   -0.009930
  13 N :   -0.042581
  14 C :   -0.071526
  15 C :    0.081192
  16 O :   -0.126472
  17 C :    0.071410
  18 H :    0.051828
  19 H :    0.054327
  20 H :    0.041482
  21 H :    0.045772

  Mayer bond orders larger than 0.100000
B(  0-C ,  1-C ) :   1.3534 B(  0-C ,  5-C ) :   0.1016 B(  0-C ,  7-C ) :   1.2846
B(  0-C , 18-H ) :   0.9828 B(  1-C ,  2-F ) :   1.1410 B(  1-C ,  3-C ) :   1.2496
B(  3-C ,  4-F ) :   1.1327 B(  3-C ,  5-C ) :   1.3260 B(  5-C ,  6-C ) :   1.3021
B(  5-C , 19-H ) :   1.0091 B(  6-C ,  7-C ) :   1.3205 B(  6-C , 15-C ) :   0.9493
B(  7-C ,  8-C ) :   1.0418 B(  8-C ,  9-C ) :   1.6376 B(  8-C , 14-C ) :   1.0063
B(  9-C , 10-C ) :   1.1302 B(  9-C , 12-C ) :   1.1416 B( 10-C , 11-N ) :   2.9405
B( 12-C , 13-N ) :   2.9400 B( 14-C , 15-C ) :   0.9194 B( 14-C , 17-C ) :   1.9168
B( 15-C , 16-O ) :   2.2330 B( 17-C , 20-H ) :   0.9227 B( 17-C , 21-H ) :   0.9092

Dispersion correction           -0.054244171
FINAL SINGLE POINT ENERGY      -881.524481516473

DIPOLE MOMENT
-------------
                                X             Y             Z
Electronic contribution:     -1.49689      11.70968       2.94188
Nuclear contribution   :      2.47155     -11.15811      -3.22424
                        -----------------------------------------
Total Dipole Moment    :      0.97466       0.55157      -0.28237
                        -----------------------------------------
Magnitude (a.u.)       :      1.15496
Magnitude (Debye)      :      2.93567

Rotational constants in cm-1:     0.021790     0.010760     0.007205
Rotational constants in MHz :   653.241100   322.564937   215.993176

                             ****ORCA TERMINATED NORMALLY****
TOTAL RUN TIME: 0 days 0 hours 19 minutes 23 seconds 115 msec
