                         Program Version 4.2.0 -  RELEASE  -
|  1> # ORCA input file
|  2> # SCF done        -35.130480373795          0.000710815777
|  3> ! B3LYP/G D3BJ Opt RIJCOSX def2-SVP def2/J
|  4> * xyz 0 1
|  5>    C       -1.32952         0.66661        -0.52136
|  6>    C       -0.16381         1.31666        -0.24444
|  7>    C        0.88487         0.41677         0.00107
|  8>    C        0.48432        -0.90383        -0.09798
|  9>    S       -1.18034        -1.05637        -0.49226
| 10>    C        1.60312        -1.74697         0.16264
| 11>    C        2.70908        -0.95771         0.42413
| 12>    C        2.35329         0.50914         0.34652
| 13>    C        2.56584         1.20503         1.69386
| 14>    C        3.14117         1.21873        -0.75805
| 15>    C        3.85882        -1.71597         0.69441
| 16>    C        3.60467        -3.05383         0.63263
| 17>    S        1.96039        -3.42483         0.24482
| 18>    H       -2.28649         1.09392        -0.74644
| 19>    H       -0.07586         2.38813        -0.22132
| 20>    H        2.20718         2.23017         1.64643
| 21>    H        3.62269         1.21423         1.94847
| 22>    H        2.02303         0.68195         2.47768
| 23>    H        2.98091         0.72248        -1.71264
| 24>    H        4.20438         1.20178        -0.53016
| 25>    H        2.81630         2.25298        -0.84370
| 26>    H        4.82717        -1.30835         0.92364
| 27>    H        4.28802        -3.86394         0.79314
| 28> *
| 29>
| 30>                          ****END OF INPUT****
 Total Charge           Charge          ....    0
 Multiplicity           Mult            ....    1
 Number of Electrons    NEL             ....  108
Dispersion correction           -0.056279946
FINAL SINGLE POINT ENERGY     -1221.075996417638
Dispersion correction            ... done
Dispersion correction           -0.056091089
FINAL SINGLE POINT ENERGY     -1221.079713207017
Dispersion correction            ... done
Dispersion correction           -0.056065326
FINAL SINGLE POINT ENERGY     -1221.079818797507
Dispersion correction            ... done
FINAL SINGLE POINT ENERGY     -1221.079787402259
FINAL SINGLE POINT ENERGY     -1221.079793238826
Dispersion correction            ... done
Dispersion correction           -0.056063921
FINAL SINGLE POINT ENERGY     -1221.079786769129
Dispersion correction            ... done
Dispersion correction           -0.056063800
FINAL SINGLE POINT ENERGY     -1221.079776733929
Dispersion correction            ... done
                    ***********************HURRAY********************

CARTESIAN COORDINATES (ANGSTROEM)
---------------------------------
  C     -1.368356    0.685667   -0.518046
  C     -0.177646    1.333352   -0.266432
  C      0.875991    0.418449   -0.011185
  C      0.466174   -0.906273   -0.078449
  S     -1.212715   -1.051337   -0.450146
  C      1.600851   -1.761940    0.186974
  C      2.718293   -0.970528    0.419405
  C      2.358331    0.511368    0.337887
  C      2.551793    1.195316    1.705489
  C      3.153175    1.233349   -0.764737
  C      3.886723   -1.735402    0.674339
  C      3.632398   -3.089420    0.631843
  S      1.961085   -3.446919    0.281602
  H     -2.335270    1.125038   -0.756512
  H     -0.075720    2.420021   -0.270765
  H      2.208788    2.241694    1.668843
  H      3.613693    1.189467    1.998138
  H      1.974969    0.671945    2.481661
  H      3.035547    0.718501   -1.729806
  H      4.226400    1.262566   -0.516811
  H      2.800565    2.270765   -0.881479
  H      4.872966   -1.320457    0.887391
  H      4.331196   -3.908441    0.791885

 Multiplicity           Mult            ....    1
 Number of Electrons    NEL             ....  108
 Basis Dimension        Dim             ....  240

ORBITAL ENERGIES
----------------

  NO   OCC          E(Eh)            E(eV)
   0   2.0000     -88.876161     -2418.4433
   1   2.0000     -88.876098     -2418.4416
   2   2.0000     -10.214708      -277.9563
   3   2.0000     -10.214567      -277.9525
   4   2.0000     -10.214065      -277.9388
   5   2.0000     -10.211174      -277.8602
   6   2.0000     -10.211011      -277.8557
   7   2.0000     -10.195982      -277.4468
   8   2.0000     -10.195603      -277.4365
   9   2.0000     -10.187634      -277.2196
  10   2.0000     -10.187328      -277.2113
  11   2.0000     -10.187232      -277.2087
  12   2.0000     -10.187087      -277.2047
  13   2.0000      -7.970487      -216.8880
  14   2.0000      -7.970431      -216.8864
  15   2.0000      -5.938667      -161.5993
  16   2.0000      -5.938650      -161.5989
  17   2.0000      -5.934691      -161.4912
  18   2.0000      -5.934644      -161.4899
  19   2.0000      -5.931687      -161.4094
  20   2.0000      -5.931667      -161.4089
  21   2.0000      -0.904383       -24.6095
  22   2.0000      -0.865800       -23.5596
  23   2.0000      -0.817807       -22.2536
  24   2.0000      -0.758103       -20.6290
  25   2.0000      -0.728232       -19.8162
  26   2.0000      -0.723484       -19.6870
  27   2.0000      -0.684041       -18.6137
  28   2.0000      -0.677894       -18.4464
  29   2.0000      -0.607936       -16.5428
  30   2.0000      -0.590957       -16.0808
  31   2.0000      -0.537033       -14.6134
  32   2.0000      -0.535595       -14.5743
  33   2.0000      -0.524851       -14.2819
  34   2.0000      -0.471493       -12.8300
  35   2.0000      -0.467652       -12.7255
  36   2.0000      -0.440077       -11.9751
  37   2.0000      -0.436824       -11.8866
  38   2.0000      -0.425861       -11.5883
  39   2.0000      -0.416388       -11.3305
  40   2.0000      -0.395300       -10.7567
  41   2.0000      -0.395060       -10.7501
  42   2.0000      -0.386352       -10.5132
  43   2.0000      -0.370917       -10.0932
  44   2.0000      -0.365645        -9.9497
  45   2.0000      -0.362588        -9.8665
  46   2.0000      -0.357266        -9.7217
  47   2.0000      -0.350840        -9.5468
  48   2.0000      -0.330281        -8.9874
  49   2.0000      -0.328827        -8.9478
  50   2.0000      -0.277246        -7.5442
  51   2.0000      -0.253755        -6.9050
  52   2.0000      -0.250953        -6.8288
  53   2.0000      -0.197283        -5.3684
  54   0.0000      -0.044037        -1.1983
  55   0.0000       0.017301         0.4708
  56   0.0000       0.035515         0.9664
  57   0.0000       0.040931         1.1138
  58   0.0000       0.052798         1.4367

MULLIKEN ATOMIC CHARGES
-----------------------
   0 C :   -0.096499
   1 C :    0.014139
   2 C :   -0.010056
   3 C :   -0.101957
   4 S :    0.123056
   5 C :   -0.101511
   6 C :   -0.019336
   7 C :   -0.128078
   8 C :    0.102777
   9 C :    0.097792
  10 C :    0.026572
  11 C :   -0.100332
  12 S :    0.124103
  13 H :    0.022558
  14 H :   -0.016397
  15 H :    0.005069
  16 H :    0.007219
  17 H :    0.018178
  18 H :    0.018981
  19 H :    0.008583
  20 H :    0.004832
  21 H :   -0.024686
  22 H :    0.024994
Sum of atomic charges:   -0.0000000

LOEWDIN ATOMIC CHARGES
----------------------
   0 C :   -0.190444
   1 C :   -0.066492
   2 C :   -0.047321
   3 C :   -0.200663
   4 S :    0.421673
   5 C :   -0.199977
   6 C :   -0.047934
   7 C :   -0.030629
   8 C :   -0.024656
   9 C :   -0.026526
  10 C :   -0.064013
  11 C :   -0.192119
  12 S :    0.421875
  13 H :    0.022676
  14 H :    0.029876
  15 H :    0.021157
  16 H :    0.021035
  17 H :    0.028934
  18 H :    0.028922
  19 H :    0.021693
  20 H :    0.021357
  21 H :    0.028507
  22 H :    0.023072

  Mayer bond orders larger than 0.100000
B(  0-C ,  1-C ) :   1.5175 B(  0-C ,  4-S ) :   1.1503 B(  0-C , 13-H ) :   0.9630
B(  1-C ,  2-C ) :   1.2882 B(  1-C , 14-H ) :   0.9974 B(  2-C ,  3-C ) :   1.5366
B(  2-C ,  7-C ) :   0.9601 B(  3-C ,  4-S ) :   1.0927 B(  3-C ,  5-C ) :   1.1697
B(  5-C ,  6-C ) :   1.5397 B(  5-C , 12-S ) :   1.0935 B(  6-C ,  7-C ) :   0.9587
B(  6-C , 10-C ) :   1.2918 B(  7-C ,  8-C ) :   1.0311 B(  7-C ,  9-C ) :   1.0428
B(  8-C , 15-H ) :   0.9607 B(  8-C , 16-H ) :   0.9624 B(  8-C , 17-H ) :   0.9618
B(  9-C , 18-H ) :   0.9625 B(  9-C , 19-H ) :   0.9619 B(  9-C , 20-H ) :   0.9596
B( 10-C , 11-C ) :   1.5189 B( 10-C , 21-H ) :   0.9949 B( 11-C , 12-S ) :   1.1506
B( 11-C , 22-H ) :   0.9622

Dispersion correction           -0.056063297
FINAL SINGLE POINT ENERGY     -1221.079772658084

DIPOLE MOMENT
-------------
                                X             Y             Z
Electronic contribution:     -9.89441     -13.83765      -2.20291
Nuclear contribution   :     10.20833      14.27727       2.26958
                        -----------------------------------------
Total Dipole Moment    :      0.31392       0.43962       0.06667
                        -----------------------------------------
Magnitude (a.u.)       :      0.54430
Magnitude (Debye)      :      1.38349

Rotational constants in cm-1:     0.031392     0.020377     0.013444
Rotational constants in MHz :   941.117048   610.874938   403.030289

                             ****ORCA TERMINATED NORMALLY****
TOTAL RUN TIME: 0 days 0 hours 12 minutes 43 seconds 127 msec
