                         Program Version 4.2.0 -  RELEASE  -
|  1> # ORCA input file
|  2> # SCF done        -52.270780222709          0.000295317748
|  3> ! B3LYP/G D3BJ Opt RIJCOSX def2-SVP def2/J
|  4> * xyz 0 1
|  5>    C       -0.79921         0.86621        -0.70211
|  6>    C        0.57305         0.93921        -0.83981
|  7>    C        1.39956         0.08080        -0.11443
|  8>    C        0.81786        -0.85138         0.74509
|  9>    C       -0.55579        -0.92170         0.86985
| 10>    C       -1.37155        -0.06398         0.15017
| 11>    N        2.78967         0.14976        -0.24946
| 12>    C        3.42073         1.38581        -0.41833
| 13>    C        2.94980         2.51890         0.24564
| 14>    C        3.57656         3.73764         0.07432
| 15>    C        4.68386         3.84876        -0.75072
| 16>    C        5.15869         2.72601        -1.40890
| 17>    C        4.53399         1.50448        -1.25069
| 18>    C        3.55210        -1.02536        -0.22033
| 19>    C        3.08107        -2.19250        -0.81897
| 20>    C        3.83502        -3.34854        -0.78251
| 21>    C        5.07767        -3.37813        -0.16130
| 22>    C        5.54365        -2.20989         0.43027
| 23>    C        4.79556        -1.04999         0.40919
| 24>    C        5.90477        -4.62781        -0.14985
| 25>    H       -1.42706         1.53526        -1.27231
| 26>    H        1.01540         1.65868        -1.51343
| 27>    H        1.45154        -1.51569         1.31438
| 28>    H       -0.99237        -1.64669         1.54130
| 29>    H       -2.44471        -0.12015         0.25245
| 30>    H        2.09280         2.43424         0.89789
| 31>    H        3.20175         4.60609         0.59589
| 32>    H        5.17266         4.80248        -0.87977
| 33>    H        6.01828         2.80329        -2.05863
| 34>    H        4.90118         0.63308        -1.77303
| 35>    H        2.12049        -2.18646        -1.31325
| 36>    H        3.45326        -4.24350        -1.25308
| 37>    H        6.50479        -2.21055         0.92466
| 38>    H        5.16917        -0.15434         0.88380
| 39>    H        5.27340        -5.51172        -0.20314
| 40>    H        6.51307        -4.68152         0.75034
| 41>    H        6.57577        -4.64042        -1.00986
| 42> *
| 43>
| 44>                          ****END OF INPUT****
 Total Charge           Charge          ....    0
 Multiplicity           Mult            ....    1
 Number of Electrons    NEL             ....  138
Dispersion correction           -0.086457899
FINAL SINGLE POINT ENERGY      -788.535291657137
Dispersion correction            ... done
Dispersion correction           -0.085001644
FINAL SINGLE POINT ENERGY      -788.541283317177
Dispersion correction            ... done
Dispersion correction           -0.085026943
FINAL SINGLE POINT ENERGY      -788.541273827333
Dispersion correction            ... done
FINAL SINGLE POINT ENERGY      -788.541219731745
FINAL SINGLE POINT ENERGY      -788.541116485414
FINAL SINGLE POINT ENERGY      -788.541079400009
FINAL SINGLE POINT ENERGY      -788.541030064250
FINAL SINGLE POINT ENERGY      -788.540973116071
FINAL SINGLE POINT ENERGY      -788.540841042231
FINAL SINGLE POINT ENERGY      -788.540630504891
FINAL SINGLE POINT ENERGY      -788.540786827046
FINAL SINGLE POINT ENERGY      -788.540839907540
FINAL SINGLE POINT ENERGY      -788.540879363075
Dispersion correction            ... done
Dispersion correction           -0.085092839
FINAL SINGLE POINT ENERGY      -788.540894835832
Dispersion correction            ... done
Dispersion correction           -0.085090468
FINAL SINGLE POINT ENERGY      -788.540904860666
Dispersion correction            ... done
                    ***********************HURRAY********************

CARTESIAN COORDINATES (ANGSTROEM)
---------------------------------
  C     -0.769006    0.780321   -0.845233
  C      0.622992    0.851210   -0.908330
  C      1.411852    0.094796   -0.024517
  C      0.779623   -0.737305    0.914971
  C     -0.612573   -0.817195    0.959332
  C     -1.394896   -0.056439    0.084435
  N      2.827720    0.159398   -0.086277
  C      3.453547    1.407379   -0.316269
  C      2.977424    2.559312    0.335078
  C      3.543428    3.805850    0.070857
  C      4.607350    3.926485   -0.829589
  C      5.101892    2.779723   -1.457726
  C      4.530581    1.530360   -1.212085
  C      3.579132   -1.040047   -0.115960
  C      3.084461   -2.181937   -0.764189
  C      3.832523   -3.359016   -0.793790
  C      5.099218   -3.439420   -0.200202
  C      5.584151   -2.290501    0.446645
  C      4.840361   -1.114397    0.500724
  C      5.925539   -4.697812   -0.271338
  H     -1.369327    1.373975   -1.538952
  H      1.112255    1.493761   -1.642023
  H      1.390105   -1.324130    1.602816
  H     -1.092653   -1.469884    1.692794
  H     -2.485152   -0.117513    0.126227
  H      2.147885    2.466574    1.037676
  H      3.150578    4.688380    0.581884
  H      5.051115    4.901948   -1.040540
  H      5.935427    2.859688   -2.160285
  H      4.911546    0.644418   -1.720598
  H      2.108382   -2.143959   -1.248265
  H      3.424185   -4.233437   -1.307935
  H      6.563933   -2.320138    0.931194
  H      5.236684   -0.238359    1.016500
  H      5.349445   -5.534364   -0.693394
  H      6.290070   -5.002684    0.723267
  H      6.816679   -4.554662   -0.905570

 Multiplicity           Mult            ....    1
 Number of Electrons    NEL             ....  138
 Basis Dimension        Dim             ....  365

ORBITAL ENERGIES
----------------

  NO   OCC          E(Eh)            E(eV)
   0   2.0000     -14.356188      -390.6517
   1   2.0000     -10.229047      -278.3465
   2   2.0000     -10.228752      -278.3385
   3   2.0000     -10.226167      -278.2681
   4   2.0000     -10.192618      -277.3552
   5   2.0000     -10.192564      -277.3538
   6   2.0000     -10.191244      -277.3178
   7   2.0000     -10.190685      -277.3026
   8   2.0000     -10.190407      -277.2951
   9   2.0000     -10.189017      -277.2572
  10   2.0000     -10.188952      -277.2555
  11   2.0000     -10.188423      -277.2411
  12   2.0000     -10.187136      -277.2061
  13   2.0000     -10.187021      -277.2029
  14   2.0000     -10.186787      -277.1966
  15   2.0000     -10.186664      -277.1932
  16   2.0000     -10.186651      -277.1929
  17   2.0000     -10.186641      -277.1926
  18   2.0000     -10.185318      -277.1566
  19   2.0000     -10.185278      -277.1555
  20   2.0000      -0.960500       -26.1365
  21   2.0000      -0.850368       -23.1397
  22   2.0000      -0.848720       -23.0949
  23   2.0000      -0.830476       -22.5984
  24   2.0000      -0.766643       -20.8614
  25   2.0000      -0.751705       -20.4549
  26   2.0000      -0.739760       -20.1299
  27   2.0000      -0.736633       -20.0448
  28   2.0000      -0.734458       -19.9856
  29   2.0000      -0.714828       -19.4515
  30   2.0000      -0.671655       -18.2766
  31   2.0000      -0.624401       -16.9908
  32   2.0000      -0.613455       -16.6929
  33   2.0000      -0.601433       -16.3658
  34   2.0000      -0.595634       -16.2080
  35   2.0000      -0.589021       -16.0281
  36   2.0000      -0.564059       -15.3488
  37   2.0000      -0.534360       -14.5407
  38   2.0000      -0.532224       -14.4826
  39   2.0000      -0.495829       -13.4922
  40   2.0000      -0.481156       -13.0929
  41   2.0000      -0.471435       -12.8284
  42   2.0000      -0.464309       -12.6345
  43   2.0000      -0.454806       -12.3759
  44   2.0000      -0.449870       -12.2416
  45   2.0000      -0.438701       -11.9377
  46   2.0000      -0.433064       -11.7843
  47   2.0000      -0.426348       -11.6015
  48   2.0000      -0.423812       -11.5325
  49   2.0000      -0.421301       -11.4642
  50   2.0000      -0.419110       -11.4046
  51   2.0000      -0.417704       -11.3663
  52   2.0000      -0.389208       -10.5909
  53   2.0000      -0.375725       -10.2240
  54   2.0000      -0.371323       -10.1042
  55   2.0000      -0.369468       -10.0537
  56   2.0000      -0.362797        -9.8722
  57   2.0000      -0.359387        -9.7794
  58   2.0000      -0.357205        -9.7200
  59   2.0000      -0.350934        -9.5494
  60   2.0000      -0.343865        -9.3571
  61   2.0000      -0.339387        -9.2352
  62   2.0000      -0.308500        -8.3947
  63   2.0000      -0.263903        -7.1812
  64   2.0000      -0.262335        -7.1385
  65   2.0000      -0.257821        -7.0157
  66   2.0000      -0.251132        -6.8336
  67   2.0000      -0.249615        -6.7924
  68   2.0000      -0.187529        -5.1029
  69   0.0000      -0.022742        -0.6188
  70   0.0000      -0.020092        -0.5467
  71   0.0000      -0.017313        -0.4711
  72   0.0000      -0.001483        -0.0404
  73   0.0000      -0.000618        -0.0168

MULLIKEN ATOMIC CHARGES
-----------------------
   0 C :    0.013499
   1 C :   -0.001748
   2 C :    0.102764
   3 C :    0.001121
   4 C :    0.011631
   5 C :    0.018615
   6 N :   -0.203848
   7 C :    0.123752
   8 C :   -0.018283
   9 C :    0.017905
  10 C :    0.028393
  11 C :    0.005634
  12 C :   -0.012772
  13 C :    0.127572
  14 C :   -0.002015
  15 C :   -0.021512
  16 C :   -0.025284
  17 C :   -0.019243
  18 C :   -0.013209
  19 C :    0.086516
  20 H :   -0.017712
  21 H :   -0.010474
  22 H :   -0.016187
  23 H :   -0.018246
  24 H :   -0.014686
  25 H :   -0.010073
  26 H :   -0.019888
  27 H :   -0.023893
  28 H :   -0.015395
  29 H :   -0.012484
  30 H :   -0.015812
  31 H :   -0.035050
  32 H :   -0.038345
  33 H :   -0.017780
  34 H :    0.003661
  35 H :    0.017035
  36 H :    0.025841
Sum of atomic charges:   -0.0000000

LOEWDIN ATOMIC CHARGES
----------------------
   0 C :   -0.021362
   1 C :   -0.038082
   2 C :    0.023793
   3 C :   -0.035689
   4 C :   -0.021728
   5 C :   -0.041227
   6 N :   -0.015464
   7 C :    0.024938
   8 C :   -0.040812
   9 C :   -0.020466
  10 C :   -0.042214
  11 C :   -0.021965
  12 C :   -0.042493
  13 C :    0.018117
  14 C :   -0.039082
  15 C :   -0.026551
  16 C :   -0.039055
  17 C :   -0.023474
  18 C :   -0.036572
  19 C :   -0.045285
  20 H :    0.027645
  21 H :    0.031851
  22 H :    0.031018
  23 H :    0.027389
  24 H :    0.026348
  25 H :    0.031030
  26 H :    0.026959
  27 H :    0.024307
  28 H :    0.027386
  29 H :    0.030728
  30 H :    0.031011
  31 H :    0.023699
  32 H :    0.023654
  33 H :    0.030175
  34 H :    0.026701
  35 H :    0.031017
  36 H :    0.033753

  Mayer bond orders larger than 0.100000
B(  0-C ,  1-C ) :   1.3704 B(  0-C ,  5-C ) :   1.3751 B(  0-C , 20-H ) :   0.9775
B(  1-C ,  2-C ) :   1.3833 B(  1-C , 21-H ) :   0.9823 B(  2-C ,  3-C ) :   1.3814
B(  2-C ,  6-N ) :   0.9802 B(  3-C ,  4-C ) :   1.3725 B(  3-C , 22-H ) :   0.9845
B(  4-C ,  5-C ) :   1.3731 B(  4-C , 23-H ) :   0.9787 B(  5-C , 24-H ) :   0.9855
B(  6-N ,  7-C ) :   0.9926 B(  6-N , 13-C ) :   0.9858 B(  7-C ,  8-C ) :   1.3746
B(  7-C , 12-C ) :   1.3705 B(  8-C ,  9-C ) :   1.3755 B(  8-C , 25-H ) :   0.9847
B(  9-C , 10-C ) :   1.3653 B(  9-C , 26-H ) :   0.9796 B( 10-C , 11-C ) :   1.3723
B( 10-C , 27-H ) :   0.9889 B( 11-C , 12-C ) :   1.3688 B( 11-C , 28-H ) :   0.9818
B( 12-C , 29-H ) :   0.9846 B( 13-C , 14-C ) :   1.3784 B( 13-C , 18-C ) :   1.3620
B( 14-C , 15-C ) :   1.3506 B( 14-C , 30-H ) :   0.9805 B( 15-C , 16-C ) :   1.3891
B( 15-C , 31-H ) :   0.9772 B( 16-C , 17-C ) :   1.3631 B( 16-C , 19-C ) :   1.0665
B( 17-C , 18-C ) :   1.3753 B( 17-C , 32-H ) :   0.9820 B( 18-C , 33-H ) :   0.9847
B( 19-C , 34-H ) :   0.9580 B( 19-C , 35-H ) :   0.9544 B( 19-C , 36-H ) :   0.9532

Dispersion correction           -0.085091262
FINAL SINGLE POINT ENERGY      -788.540914435135

DIPOLE MOMENT
-------------
                                X             Y             Z
Electronic contribution:     -3.78793       5.95605       0.58831
Nuclear contribution   :      3.84302      -6.11625      -0.63734
                        -----------------------------------------
Total Dipole Moment    :      0.05510      -0.16020      -0.04903
                        -----------------------------------------
Magnitude (a.u.)       :      0.17636
Magnitude (Debye)      :      0.44827

Rotational constants in cm-1:     0.013499     0.009724     0.006116
Rotational constants in MHz :   404.697683   291.505512   183.359835

                             ****ORCA TERMINATED NORMALLY****
TOTAL RUN TIME: 0 days 1 hours 0 minutes 32 seconds 332 msec
