                         Program Version 4.2.0 -  RELEASE  -
|  1> # ORCA input file
|  2> # SCF done        -28.743007740258          0.000338452713
|  3> ! B3LYP/G D3BJ Opt RIJCOSX def2-SVP def2/J
|  4> * xyz 0 1
|  5>    C        0.98663         1.48478         0.00272
|  6>    C       -0.11346         0.68945         0.00233
|  7>    C        0.18977        -0.71006        -0.00047
|  8>    C       -1.01474        -1.47893        -0.00069
|  9>    C       -2.15445        -0.75301         0.00172
| 10>    S       -1.83197         0.98066         0.00449
| 11>    C       -3.55313        -1.25094         0.00206
| 12>    F       -1.00567        -2.82640        -0.00306
| 13>    C        1.53366        -0.94639        -0.00218
| 14>    S        2.41935         0.52694        -0.00036
| 15>    H        1.05199         2.55291         0.00458
| 16>    H       -3.55588        -2.33861         0.00225
| 17>    H       -4.08502        -0.89259        -0.87895
| 18>    H       -4.08474        -0.89216         0.88304
| 19>    H        2.04976        -1.88443        -0.00437
| 20> *
| 21>
| 22>                          ****END OF INPUT****
 Total Charge           Charge          ....    0
 Multiplicity           Mult            ....    1
 Number of Electrons    NEL             ....   88
Dispersion correction           -0.034640226
FINAL SINGLE POINT ENERGY     -1165.494597977231
Dispersion correction            ... done
Dispersion correction           -0.034576547
FINAL SINGLE POINT ENERGY     -1165.496495640128
Dispersion correction            ... done
Dispersion correction           -0.034563498
FINAL SINGLE POINT ENERGY     -1165.496604565089
Dispersion correction            ... done
Dispersion correction           -0.034557574
FINAL SINGLE POINT ENERGY     -1165.496623673025
Dispersion correction            ... done
Dispersion correction           -0.034554501
FINAL SINGLE POINT ENERGY     -1165.496626269350
Dispersion correction            ... done
                    ***********************HURRAY********************

CARTESIAN COORDINATES (ANGSTROEM)
---------------------------------
  C      1.012423    1.503400    0.002584
  C     -0.106494    0.707744    0.002447
  C      0.194083   -0.701083   -0.000163
  C     -1.018819   -1.476773   -0.000199
  C     -2.167860   -0.750478    0.002083
  S     -1.842128    0.999916    0.005137
  C     -3.570140   -1.260112    0.001824
  F     -0.989532   -2.815665   -0.002526
  C      1.548545   -0.955777   -0.001906
  S      2.442037    0.524923   -0.001862
  H      1.089956    2.588562    0.004425
  H     -3.567545   -2.359578    0.000909
  H     -4.125902   -0.913103   -0.885542
  H     -4.125830   -0.914505    0.889764
  H      2.059306   -1.916253   -0.003863

 Multiplicity           Mult            ....    1
 Number of Electrons    NEL             ....   88
 Basis Dimension        Dim             ....  173

ORBITAL ENERGIES
----------------

  NO   OCC          E(Eh)            E(eV)
   0   2.0000     -88.885288     -2418.6916
   1   2.0000     -88.870524     -2418.2899
   2   2.0000     -24.704475      -672.2429
   3   2.0000     -10.272375      -279.5255
   4   2.0000     -10.224924      -278.2343
   5   2.0000     -10.224451      -278.2215
   6   2.0000     -10.221746      -278.1478
   7   2.0000     -10.220662      -278.1183
   8   2.0000     -10.208210      -277.7795
   9   2.0000     -10.206154      -277.7236
  10   2.0000      -7.979868      -217.1432
  11   2.0000      -7.965364      -216.7486
  12   2.0000      -5.948084      -161.8556
  13   2.0000      -5.943761      -161.7380
  14   2.0000      -5.941325      -161.6717
  15   2.0000      -5.934187      -161.4774
  16   2.0000      -5.930442      -161.3755
  17   2.0000      -5.924860      -161.2236
  18   2.0000      -1.212038       -32.9812
  19   2.0000      -0.905792       -24.6479
  20   2.0000      -0.849005       -23.1026
  21   2.0000      -0.759166       -20.6580
  22   2.0000      -0.755087       -20.5470
  23   2.0000      -0.696730       -18.9590
  24   2.0000      -0.685511       -18.6537
  25   2.0000      -0.582593       -15.8532
  26   2.0000      -0.578094       -15.7307
  27   2.0000      -0.555017       -15.1028
  28   2.0000      -0.526654       -14.3310
  29   2.0000      -0.477223       -12.9859
  30   2.0000      -0.477178       -12.9847
  31   2.0000      -0.433517       -11.7966
  32   2.0000      -0.428787       -11.6679
  33   2.0000      -0.428182       -11.6514
  34   2.0000      -0.416030       -11.3207
  35   2.0000      -0.403833       -10.9889
  36   2.0000      -0.398082       -10.8324
  37   2.0000      -0.385512       -10.4903
  38   2.0000      -0.356424        -9.6988
  39   2.0000      -0.338208        -9.2031
  40   2.0000      -0.329755        -8.9731
  41   2.0000      -0.280701        -7.6383
  42   2.0000      -0.242985        -6.6120
  43   2.0000      -0.208656        -5.6778
  44   0.0000      -0.041436        -1.1275
  45   0.0000       0.012984         0.3533
  46   0.0000       0.018946         0.5155
  47   0.0000       0.027810         0.7568
  48   0.0000       0.072383         1.9696

MULLIKEN ATOMIC CHARGES
-----------------------
   0 C :   -0.170386
   1 C :    0.012579
   2 C :    0.043787
   3 C :    0.278406
   4 C :   -0.300172
   5 S :    0.102615
   6 C :    0.089325
   7 F :   -0.191663
   8 C :   -0.136552
   9 S :    0.110475
  10 H :    0.029400
  11 H :    0.033944
  12 H :    0.035874
  13 H :    0.035808
  14 H :    0.026562
Sum of atomic charges:   -0.0000000

LOEWDIN ATOMIC CHARGES
----------------------
   0 C :   -0.221015
   1 C :   -0.185853
   2 C :   -0.097465
   3 C :    0.031701
   4 C :   -0.192987
   5 S :    0.358107
   6 C :   -0.057885
   7 F :   -0.063380
   8 C :   -0.198912
   9 S :    0.451322
  10 H :    0.028473
  11 H :    0.041489
  12 H :    0.038314
  13 H :    0.038292
  14 H :    0.029799

  Mayer bond orders larger than 0.100000
B(  0-C ,  1-C ) :   1.5248 B(  0-C ,  8-C ) :   0.1009 B(  0-C ,  9-S ) :   1.1717
B(  0-C , 10-H ) :   0.9739 B(  1-C ,  2-C ) :   1.2322 B(  1-C ,  5-S ) :   1.0248
B(  2-C ,  3-C ) :   1.0911 B(  2-C ,  8-C ) :   1.4588 B(  3-C ,  4-C ) :   1.6238
B(  3-C ,  7-F ) :   1.1433 B(  4-C ,  5-S ) :   1.0418 B(  4-C ,  6-C ) :   1.0852
B(  6-C , 11-H ) :   0.9552 B(  6-C , 12-H ) :   0.9474 B(  6-C , 13-H ) :   0.9473
B(  8-C ,  9-S ) :   1.1683 B(  8-C , 14-H ) :   0.9702

Dispersion correction           -0.034553715
FINAL SINGLE POINT ENERGY     -1165.496625533332

DIPOLE MOMENT
-------------
                                X             Y             Z
Electronic contribution:      5.86841      -0.02414      -0.00458
Nuclear contribution   :     -5.99393       0.20057       0.00451
                        -----------------------------------------
Total Dipole Moment    :     -0.12552       0.17643      -0.00006
                        -----------------------------------------
Magnitude (a.u.)       :      0.21652
Magnitude (Debye)      :      0.55036

Rotational constants in cm-1:     0.065232     0.025512     0.018403
Rotational constants in MHz :  1955.606008   764.832922   551.712235

                             ****ORCA TERMINATED NORMALLY****
TOTAL RUN TIME: 0 days 0 hours 4 minutes 26 seconds 905 msec
