                         Program Version 4.2.0 -  RELEASE  -
|  1> # ORCA input file
|  2> # SCF done        -35.666252288321          0.000863978273
|  3> ! B3LYP/G D3BJ Opt RIJCOSX def2-SVP def2/J
|  4> * xyz 0 1
|  5>    C       -0.12336        -1.31525        -0.00520
|  6>    C       -0.43042        -2.64935        -0.00768
|  7>    C       -1.70946        -3.23449        -0.00823
|  8>    N       -2.71907        -3.78164        -0.00974
|  9>    C        0.61922        -3.59632        -0.00984
| 10>    N        1.46175        -4.37353        -0.01131
| 11>    N       -0.95921        -0.23976        -0.00286
| 12>    C       -2.40642        -0.27582        -0.00155
| 13>    C       -0.35861         1.00743        -0.00308
| 14>    O       -0.97887         2.04030        -0.00184
| 15>    C        1.11388         0.87568        -0.00474
| 16>    S        1.56399        -0.82201        -0.00549
| 17>    C        1.94890         1.91150        -0.00566
| 18>    H       -2.76929        -1.29718         0.01391
| 19>    H       -2.77548         0.23518        -0.89233
| 20>    H       -2.77271         0.26132         0.87473
| 21>    H        1.54568         2.91028        -0.00493
| 22>    H        3.01724         1.79216        -0.00638
| 23> *
| 24>
| 25>                          ****END OF INPUT****
 Total Charge           Charge          ....    0
 Multiplicity           Mult            ....    1
 Number of Electrons    NEL             ....   98
Dispersion correction           -0.042362605
FINAL SINGLE POINT ENERGY      -944.999785659229
Dispersion correction            ... done
Dispersion correction           -0.041986509
FINAL SINGLE POINT ENERGY      -945.003154599612
Dispersion correction            ... done
Dispersion correction           -0.041978368
FINAL SINGLE POINT ENERGY      -945.003375185813
Dispersion correction            ... done
FINAL SINGLE POINT ENERGY      -945.003444707489
FINAL SINGLE POINT ENERGY      -945.003461037185
FINAL SINGLE POINT ENERGY      -945.003461064739
FINAL SINGLE POINT ENERGY      -945.003455353935
FINAL SINGLE POINT ENERGY      -945.003415414817
FINAL SINGLE POINT ENERGY      -945.003293614572
FINAL SINGLE POINT ENERGY      -945.003379978839
FINAL SINGLE POINT ENERGY      -945.005612218618
FINAL SINGLE POINT ENERGY      -945.005915098657
FINAL SINGLE POINT ENERGY      -945.006139023231
FINAL SINGLE POINT ENERGY      -945.006299839968
FINAL SINGLE POINT ENERGY      -945.006381057263
FINAL SINGLE POINT ENERGY      -945.006429751056
FINAL SINGLE POINT ENERGY      -945.006449919887
Dispersion correction            ... done
Dispersion correction           -0.042308273
FINAL SINGLE POINT ENERGY      -945.006457407018
Dispersion correction            ... done
Dispersion correction           -0.042309453
FINAL SINGLE POINT ENERGY      -945.006458151197
Dispersion correction            ... done
                    ***********************HURRAY********************

CARTESIAN COORDINATES (ANGSTROEM)
---------------------------------
  C     -0.116344   -1.315317   -0.042344
  C     -0.442327   -2.659716   -0.089830
  C     -1.765986   -3.191594   -0.121174
  N     -2.821449   -3.676392   -0.156999
  C      0.629040   -3.607118   -0.111651
  N      1.519859   -4.353150   -0.126627
  N     -0.960106   -0.239637    0.012006
  C     -2.417296   -0.321087    0.036731
  C     -0.345084    1.026967    0.071796
  O     -0.952068    2.066509    0.146754
  C      1.137774    0.873722    0.030883
  S      1.582440   -0.832232   -0.046586
  C      1.969391    1.921997    0.051374
  H     -2.760509   -0.908691    0.897896
  H     -2.797988   -0.779182   -0.885672
  H     -2.784344    0.708424    0.120062
  H      1.537521    2.924469    0.099047
  H      3.055234    1.810530    0.022114

 Multiplicity           Mult            ....    1
 Number of Electrons    NEL             ....   98
 Basis Dimension        Dim             ....  211

ORBITAL ENERGIES
----------------

  NO   OCC          E(Eh)            E(eV)
   0   2.0000     -88.919103     -2419.6118
   1   2.0000     -19.164800      -521.5007
   2   2.0000     -14.436821      -392.8459
   3   2.0000     -14.344604      -390.3365
   4   2.0000     -14.344438      -390.3320
   5   2.0000     -10.347181      -281.5611
   6   2.0000     -10.331380      -281.1311
   7   2.0000     -10.279373      -279.7160
   8   2.0000     -10.270867      -279.4845
   9   2.0000     -10.259715      -279.1810
  10   2.0000     -10.250528      -278.9310
  11   2.0000     -10.247713      -278.8544
  12   2.0000     -10.246610      -278.8244
  13   2.0000      -8.014618      -218.0889
  14   2.0000      -5.983247      -162.8124
  15   2.0000      -5.979655      -162.7147
  16   2.0000      -5.973908      -162.5583
  17   2.0000      -1.095311       -29.8049
  18   2.0000      -1.021138       -27.7866
  19   2.0000      -0.923415       -25.1274
  20   2.0000      -0.909863       -24.7586
  21   2.0000      -0.883710       -24.0470
  22   2.0000      -0.847823       -23.0704
  23   2.0000      -0.783891       -21.3308
  24   2.0000      -0.750505       -20.4223
  25   2.0000      -0.714567       -19.4444
  26   2.0000      -0.638642       -17.3783
  27   2.0000      -0.626411       -17.0455
  28   2.0000      -0.576084       -15.6760
  29   2.0000      -0.561233       -15.2719
  30   2.0000      -0.526258       -14.3202
  31   2.0000      -0.519157       -14.1270
  32   2.0000      -0.487890       -13.2761
  33   2.0000      -0.479584       -13.0501
  34   2.0000      -0.450337       -12.2543
  35   2.0000      -0.444151       -12.0860
  36   2.0000      -0.435709       -11.8562
  37   2.0000      -0.434646       -11.8273
  38   2.0000      -0.409328       -11.1384
  39   2.0000      -0.384659       -10.4671
  40   2.0000      -0.380036       -10.3413
  41   2.0000      -0.375460       -10.2168
  42   2.0000      -0.362486        -9.8637
  43   2.0000      -0.361003        -9.8234
  44   2.0000      -0.359164        -9.7733
  45   2.0000      -0.349002        -9.4968
  46   2.0000      -0.320916        -8.7326
  47   2.0000      -0.292014        -7.9461
  48   2.0000      -0.257182        -6.9983
  49   0.0000      -0.110333        -3.0023
  50   0.0000      -0.057467        -1.5637
  51   0.0000      -0.036599        -0.9959
  52   0.0000      -0.002794        -0.0760
  53   0.0000       0.019298         0.5251

MULLIKEN ATOMIC CHARGES
-----------------------
   0 C :    0.111994
   1 C :   -0.260106
   2 C :   -0.151537
   3 N :    0.121624
   4 C :   -0.181673
   5 N :    0.101024
   6 N :   -0.260550
   7 C :    0.122498
   8 C :    0.246731
   9 O :   -0.168828
  10 C :   -0.152685
  11 S :    0.159529
  12 C :   -0.000021
  13 H :    0.066906
  14 H :    0.066179
  15 H :    0.063445
  16 H :    0.064416
  17 H :    0.051052
Sum of atomic charges:    0.0000000

LOEWDIN ATOMIC CHARGES
----------------------
   0 C :   -0.038230
   1 C :   -0.192586
   2 C :   -0.030346
   3 N :   -0.061072
   4 C :   -0.037800
   5 N :   -0.051788
   6 N :   -0.011385
   7 C :    0.046713
   8 C :    0.078107
   9 O :   -0.146639
  10 C :   -0.198666
  11 S :    0.424216
  12 C :    0.003200
  13 H :    0.041457
  14 H :    0.041438
  15 H :    0.042683
  16 H :    0.049854
  17 H :    0.040843

  Mayer bond orders larger than 0.100000
B(  0-C ,  1-C ) :   1.5430 B(  0-C ,  6-N ) :   1.1919 B(  0-C , 11-S ) :   1.0790
B(  1-C ,  2-C ) :   1.1689 B(  1-C ,  4-C ) :   1.1431 B(  2-C ,  3-N ) :   2.9693
B(  4-C ,  5-N ) :   2.9881 B(  6-N ,  7-C ) :   0.9285 B(  6-N ,  8-C ) :   1.0330
B(  7-C , 13-H ) :   0.9674 B(  7-C , 14-H ) :   0.9684 B(  7-C , 15-H ) :   0.9447
B(  8-C ,  9-O ) :   2.1471 B(  8-C , 10-C ) :   0.9238 B( 10-C , 11-S ) :   1.0036
B( 10-C , 12-C ) :   1.9316 B( 12-C , 16-H ) :   0.9302 B( 12-C , 17-H ) :   0.9408

Dispersion correction           -0.042308436
FINAL SINGLE POINT ENERGY      -945.006457394429

DIPOLE MOMENT
-------------
                                X             Y             Z
Electronic contribution:      3.69091      -6.20964      -0.29607
Nuclear contribution   :     -3.19336       8.26986       0.35731
                        -----------------------------------------
Total Dipole Moment    :      0.49756       2.06022       0.06123
                        -----------------------------------------
Magnitude (a.u.)       :      2.12034
Magnitude (Debye)      :      5.38946

Rotational constants in cm-1:     0.038265     0.019949     0.013148
Rotational constants in MHz :  1147.162611   598.055946   394.176679

                             ****ORCA TERMINATED NORMALLY****
TOTAL RUN TIME: 0 days 0 hours 29 minutes 57 seconds 895 msec
