                         Program Version 4.2.0 -  RELEASE  -
|  1> # ORCA input file
|  2> # SCF done        -27.940099960599          0.000728587728
|  3> ! B3LYP/G D3BJ Opt RIJCOSX def2-SVP def2/J
|  4> * xyz 0 1
|  5>    C       -2.46842         0.11198        -0.00113
|  6>    C       -1.58015         1.12607         0.00042
|  7>    C       -0.22738         0.66972         0.00105
|  8>    C        0.95052         1.41157         0.00251
|  9>    C        2.16730         0.74409         0.00275
| 10>    C        2.22563        -0.66082         0.00165
| 11>    C        1.06850        -1.40521         0.00019
| 12>    C       -0.15073        -0.73962        -0.00015
| 13>    S       -1.73268        -1.45710        -0.00197
| 14>    C        3.37129         1.48530         0.00374
| 15>    N        4.34743         2.08694         0.00446
| 16>    H       -3.53943         0.17212        -0.00184
| 17>    H       -1.85218         2.16625         0.00115
| 18>    H        0.91735         2.49095         0.00343
| 19>    H        3.18984        -1.14600         0.00192
| 20>    H        1.10161        -2.48354        -0.00063
| 21> *
| 22>
| 23>                          ****END OF INPUT****
 Total Charge           Charge          ....    0
 Multiplicity           Mult            ....    1
 Number of Electrons    NEL             ....   82
Dispersion correction           -0.037665438
FINAL SINGLE POINT ENERGY      -798.534368226758
Dispersion correction            ... done
Dispersion correction           -0.037471236
FINAL SINGLE POINT ENERGY      -798.537203085753
Dispersion correction            ... done
Dispersion correction           -0.037442697
FINAL SINGLE POINT ENERGY      -798.537266188570
Dispersion correction            ... done
Dispersion correction           -0.037437744
FINAL SINGLE POINT ENERGY      -798.537272640609
Dispersion correction            ... done
Dispersion correction           -0.037437424
FINAL SINGLE POINT ENERGY      -798.537272971817
Dispersion correction            ... done
                    ***********************HURRAY********************

CARTESIAN COORDINATES (ANGSTROEM)
---------------------------------
  C     -2.499309    0.106565   -0.001074
  C     -1.601985    1.130483    0.000382
  C     -0.236180    0.670280    0.001057
  C      0.954104    1.415617    0.002352
  C      2.184328    0.750381    0.002548
  C      2.238614   -0.666837    0.001274
  C      1.072757   -1.418055    0.000046
  C     -0.159803   -0.750684    0.000035
  S     -1.751501   -1.471724   -0.000834
  C      3.406988    1.501879    0.004100
  N      4.400239    2.103084    0.005289
  H     -3.586381    0.180774   -0.002074
  H     -1.886617    2.183120    0.000707
  H      0.922639    2.507033    0.003237
  H      3.211638   -1.160257    0.001355
  H      1.118969   -2.508957   -0.000851

 Multiplicity           Mult            ....    1
 Number of Electrons    NEL             ....   82
 Basis Dimension        Dim             ....  183

ORBITAL ENERGIES
----------------

  NO   OCC          E(Eh)            E(eV)
   0   2.0000     -88.891246     -2418.8538
   1   2.0000     -14.326638      -389.8477
   2   2.0000     -10.242413      -278.7102
   3   2.0000     -10.241242      -278.6784
   4   2.0000     -10.237457      -278.5754
   5   2.0000     -10.227101      -278.2936
   6   2.0000     -10.226231      -278.2699
   7   2.0000     -10.223733      -278.2019
   8   2.0000     -10.223580      -278.1978
   9   2.0000     -10.222192      -278.1600
  10   2.0000     -10.215748      -277.9846
  11   2.0000      -7.986453      -217.3224
  12   2.0000      -5.954836      -162.0393
  13   2.0000      -5.950810      -161.9298
  14   2.0000      -5.947078      -161.8282
  15   2.0000      -0.912508       -24.8306
  16   2.0000      -0.896265       -24.3886
  17   2.0000      -0.851585       -23.1728
  18   2.0000      -0.790416       -21.5083
  19   2.0000      -0.759051       -20.6548
  20   2.0000      -0.731573       -19.9071
  21   2.0000      -0.648249       -17.6398
  22   2.0000      -0.626807       -17.0563
  23   2.0000      -0.594218       -16.1695
  24   2.0000      -0.539530       -14.6814
  25   2.0000      -0.524875       -14.2826
  26   2.0000      -0.491753       -13.3813
  27   2.0000      -0.464137       -12.6298
  28   2.0000      -0.457917       -12.4605
  29   2.0000      -0.430095       -11.7035
  30   2.0000      -0.428359       -11.6562
  31   2.0000      -0.402165       -10.9435
  32   2.0000      -0.385131       -10.4799
  33   2.0000      -0.384250       -10.4560
  34   2.0000      -0.364903        -9.9295
  35   2.0000      -0.357349        -9.7240
  36   2.0000      -0.336453        -9.1554
  37   2.0000      -0.334950        -9.1145
  38   2.0000      -0.309928        -8.4336
  39   2.0000      -0.260963        -7.1012
  40   2.0000      -0.244443        -6.6516
  41   0.0000      -0.057700        -1.5701
  42   0.0000      -0.053940        -1.4678
  43   0.0000       0.011286         0.3071
  44   0.0000       0.011874         0.3231
  45   0.0000       0.034227         0.9314

MULLIKEN ATOMIC CHARGES
-----------------------
   0 C :   -0.069219
   1 C :    0.035816
   2 C :    0.098945
   3 C :   -0.015684
   4 C :   -0.078499
   5 C :    0.035766
   6 C :   -0.003940
   7 C :   -0.067736
   8 S :    0.117919
   9 C :   -0.124627
  10 N :    0.056324
  11 H :    0.041747
  12 H :   -0.006055
  13 H :   -0.009384
  14 H :   -0.002623
  15 H :   -0.008750
Sum of atomic charges:    0.0000000

LOEWDIN ATOMIC CHARGES
----------------------
   0 C :   -0.159716
   1 C :   -0.055496
   2 C :   -0.044468
   3 C :    0.013617
   4 C :   -0.071261
   5 C :    0.000811
   6 C :   -0.031520
   7 C :   -0.148017
   8 S :    0.410549
   9 C :   -0.026357
  10 N :   -0.069338
  11 H :    0.031107
  12 H :    0.035331
  13 H :    0.039569
  14 H :    0.039343
  15 H :    0.035846

  Mayer bond orders larger than 0.100000
B(  0-C ,  1-C ) :   1.6149 B(  0-C ,  8-S ) :   1.1170 B(  0-C , 11-H ) :   0.9643
B(  1-C ,  2-C ) :   1.1669 B(  1-C , 12-H ) :   0.9934 B(  2-C ,  3-C ) :   1.2864
B(  2-C ,  7-C ) :   1.2943 B(  3-C ,  4-C ) :   1.3996 B(  3-C , 13-H ) :   0.9964
B(  4-C ,  5-C ) :   1.3130 B(  4-C ,  9-C ) :   1.0670 B(  5-C ,  6-C ) :   1.4242
B(  5-C , 14-H ) :   0.9869 B(  6-C ,  7-C ) :   1.3391 B(  6-C , 15-H ) :   0.9925
B(  7-C ,  8-S ) :   1.0888 B(  9-C , 10-N ) :   3.0108

Dispersion correction           -0.037438556
FINAL SINGLE POINT ENERGY      -798.537271791363

DIPOLE MOMENT
-------------
                                X             Y             Z
Electronic contribution:      0.46213      -1.42769       0.00109
Nuclear contribution   :     -2.17265       0.70106      -0.00295
                        -----------------------------------------
Total Dipole Moment    :     -1.71052      -0.72663      -0.00186
                        -----------------------------------------
Magnitude (a.u.)       :      1.85846
Magnitude (Debye)      :      4.72382

Rotational constants in cm-1:     0.098128     0.019867     0.016522
Rotational constants in MHz :  2941.814605   595.591023   495.311710

                             ****ORCA TERMINATED NORMALLY****
TOTAL RUN TIME: 0 days 0 hours 5 minutes 10 seconds 623 msec
