                         Program Version 4.2.0 -  RELEASE  -
|  1> # ORCA input file
|  2> # SCF done        -61.105658546571          0.000735850685
|  3> ! B3LYP/G D3BJ Opt RIJCOSX def2-SVP def2/J
|  4> * xyz 0 1
|  5>    C       -0.27940        -1.16280         0.48883
|  6>    C       -0.39403        -1.84917         1.84414
|  7>    C        0.71067        -2.31100         2.54312
|  8>    C        0.53641        -2.94457         3.76255
|  9>    C       -0.73209        -3.10996         4.28934
| 10>    C       -1.83404        -2.63934         3.59445
| 11>    C       -1.66784        -2.01469         2.37263
| 12>    C       -0.82492        -2.11493        -0.57396
| 13>    C       -1.91229        -1.76583        -1.35844
| 14>    C       -2.38823        -2.65426        -2.30818
| 15>    C       -1.77970        -3.88457        -2.47952
| 16>    C       -0.69416        -4.23283        -1.69245
| 17>    C       -0.21668        -3.35251        -0.73962
| 18>    C        1.08842        -0.70293         0.10452
| 19>    C        1.07999         0.63453        -0.05537
| 20>    C       -0.27340         1.09645         0.22880
| 21>    C       -0.75948         2.37037         0.19627
| 22>    C        0.04007         3.48605        -0.11976
| 23>    N        0.65176         4.42251        -0.36991
| 24>    C       -2.11903         2.62554         0.47795
| 25>    N       -3.22575         2.82417         0.70017
| 26>    O       -1.04558         0.04826         0.53591
| 27>    C        2.17152         1.44003        -0.43561
| 28>    N        3.09443         2.04123        -0.74640
| 29>    H        1.70806        -2.17806         2.15150
| 30>    H        1.39946        -3.30458         4.30212
| 31>    H       -0.86181        -3.60161         5.24149
| 32>    H       -2.82596        -2.76002         4.00237
| 33>    H       -2.52050        -1.64339         1.82503
| 34>    H       -2.39352        -0.80915        -1.22280
| 35>    H       -3.23830        -2.37892        -2.91365
| 36>    H       -2.15149        -4.57366        -3.22235
| 37>    H       -0.21797        -5.19330        -1.81850
| 38>    H        0.62051        -3.63120        -0.11664
| 39>    H        1.91302        -1.36808        -0.06267
| 40> *
| 41>
| 42>                          ****END OF INPUT****
 Total Charge           Charge          ....    0
 Multiplicity           Mult            ....    1
 Number of Electrons    NEL             ....  160
Dispersion correction           -0.089002922
FINAL SINGLE POINT ENERGY     -1007.482912673359
Dispersion correction            ... done
Dispersion correction           -0.088025155
FINAL SINGLE POINT ENERGY     -1007.489932670600
Dispersion correction            ... done
Dispersion correction           -0.087930763
FINAL SINGLE POINT ENERGY     -1007.490282254128
Dispersion correction            ... done
FINAL SINGLE POINT ENERGY     -1007.490440188773
FINAL SINGLE POINT ENERGY     -1007.490578625920
FINAL SINGLE POINT ENERGY     -1007.490632517640
FINAL SINGLE POINT ENERGY     -1007.490607427223
Dispersion correction            ... done
Dispersion correction           -0.088060370
FINAL SINGLE POINT ENERGY     -1007.490600282741
Dispersion correction            ... done
Dispersion correction           -0.088051410
FINAL SINGLE POINT ENERGY     -1007.490589725275
Dispersion correction            ... done
                    ***********************HURRAY********************

CARTESIAN COORDINATES (ANGSTROEM)
---------------------------------
  C     -0.296703   -1.265785    0.523031
  C     -0.392866   -1.910735    1.898943
  C      0.704153   -1.949111    2.766458
  C      0.569599   -2.494995    4.046483
  C     -0.666251   -2.986089    4.469812
  C     -1.767655   -2.941815    3.607844
  C     -1.629786   -2.416712    2.323576
  C     -0.896302   -2.126951   -0.588440
  C     -1.961516   -1.673258   -1.371897
  C     -2.452704   -2.472035   -2.409440
  C     -1.878541   -3.716644   -2.673614
  C     -0.814044   -4.171426   -1.887897
  C     -0.329192   -3.384101   -0.843955
  C      1.086151   -0.833916    0.116688
  C      1.123416    0.506671   -0.051890
  C     -0.219076    1.024175    0.243945
  C     -0.711743    2.304152    0.190099
  C      0.103449    3.421862   -0.165238
  N      0.742398    4.348238   -0.451352
  C     -2.093701    2.532700    0.478494
  N     -3.217986    2.713515    0.704967
  O     -1.011762    0.006390    0.583759
  C      2.264036    1.254461   -0.468796
  N      3.224906    1.806824   -0.809959
  H      1.667565   -1.540011    2.455385
  H      1.432984   -2.530726    4.714612
  H     -0.774432   -3.407868    5.471524
  H     -2.734456   -3.326596    3.940038
  H     -2.485930   -2.388792    1.646235
  H     -2.411915   -0.702931   -1.165399
  H     -3.289536   -2.114144   -3.013205
  H     -2.261101   -4.336301   -3.487566
  H     -0.360744   -5.144347   -2.089923
  H      0.490064   -3.750079   -0.219433
  H      1.907372   -1.525840   -0.058530

 Multiplicity           Mult            ....    1
 Number of Electrons    NEL             ....  160
 Basis Dimension        Dim             ....  391

ORBITAL ENERGIES
----------------

  NO   OCC          E(Eh)            E(eV)
   0   2.0000     -19.229306      -523.2560
   1   2.0000     -14.358625      -390.7181
   2   2.0000     -14.338301      -390.1650
   3   2.0000     -14.337873      -390.1534
   4   2.0000     -10.330420      -281.1050
   5   2.0000     -10.316335      -280.7218
   6   2.0000     -10.286155      -279.9005
   7   2.0000     -10.275300      -279.6051
   8   2.0000     -10.273985      -279.5693
   9   2.0000     -10.258109      -279.1373
  10   2.0000     -10.242209      -278.7047
  11   2.0000     -10.241442      -278.6838
  12   2.0000     -10.236069      -278.5376
  13   2.0000     -10.233286      -278.4619
  14   2.0000     -10.224979      -278.2358
  15   2.0000     -10.224191      -278.2144
  16   2.0000     -10.220809      -278.1224
  17   2.0000     -10.220306      -278.1087
  18   2.0000     -10.220134      -278.1040
  19   2.0000     -10.219338      -278.0823
  20   2.0000     -10.219236      -278.0795
  21   2.0000     -10.218772      -278.0669
  22   2.0000     -10.218479      -278.0589
  23   2.0000     -10.217993      -278.0457
  24   2.0000      -1.139913       -31.0186
  25   2.0000      -0.929002       -25.2794
  26   2.0000      -0.917578       -24.9686
  27   2.0000      -0.902110       -24.5477
  28   2.0000      -0.898733       -24.4558
  29   2.0000      -0.877378       -23.8747
  30   2.0000      -0.872586       -23.7443
  31   2.0000      -0.852363       -23.1940
  32   2.0000      -0.807807       -21.9815
  33   2.0000      -0.772360       -21.0170
  34   2.0000      -0.768531       -20.9128
  35   2.0000      -0.767687       -20.8898
  36   2.0000      -0.735658       -20.0183
  37   2.0000      -0.689886       -18.7728
  38   2.0000      -0.667247       -18.1567
  39   2.0000      -0.642014       -17.4701
  40   2.0000      -0.635829       -17.3018
  41   2.0000      -0.627738       -17.0816
  42   2.0000      -0.623168       -16.9573
  43   2.0000      -0.595645       -16.2083
  44   2.0000      -0.585275       -15.9261
  45   2.0000      -0.561148       -15.2696
  46   2.0000      -0.548741       -14.9320
  47   2.0000      -0.533995       -14.5307
  48   2.0000      -0.509642       -13.8681
  49   2.0000      -0.499732       -13.5984
  50   2.0000      -0.487000       -13.2519
  51   2.0000      -0.479423       -13.0458
  52   2.0000      -0.477451       -12.9921
  53   2.0000      -0.467798       -12.7294
  54   2.0000      -0.459279       -12.4976
  55   2.0000      -0.451982       -12.2991
  56   2.0000      -0.450395       -12.2559
  57   2.0000      -0.444163       -12.0863
  58   2.0000      -0.424733       -11.5576
  59   2.0000      -0.409793       -11.1510
  60   2.0000      -0.402774       -10.9600
  61   2.0000      -0.397889       -10.8271
  62   2.0000      -0.393116       -10.6972
  63   2.0000      -0.388172       -10.5627
  64   2.0000      -0.384696       -10.4681
  65   2.0000      -0.378264       -10.2931
  66   2.0000      -0.375004       -10.2044
  67   2.0000      -0.373483       -10.1630
  68   2.0000      -0.370596       -10.0844
  69   2.0000      -0.368476       -10.0267
  70   2.0000      -0.367706       -10.0058
  71   2.0000      -0.353097        -9.6083
  72   2.0000      -0.350687        -9.5427
  73   2.0000      -0.340188        -9.2570
  74   2.0000      -0.331202        -9.0125
  75   2.0000      -0.291805        -7.9404
  76   2.0000      -0.287158        -7.8140
  77   2.0000      -0.285747        -7.7756
  78   2.0000      -0.277836        -7.5603
  79   2.0000      -0.263250        -7.1634
  80   0.0000      -0.118487        -3.2242
  81   0.0000      -0.054304        -1.4777
  82   0.0000      -0.047318        -1.2876
  83   0.0000      -0.044147        -1.2013
  84   0.0000      -0.039179        -1.0661

MULLIKEN ATOMIC CHARGES
-----------------------
   0 C :    0.123856
   1 C :    0.085905
   2 C :   -0.017823
   3 C :    0.021392
   4 C :    0.039165
   5 C :    0.026890
   6 C :    0.000671
   7 C :    0.041975
   8 C :   -0.007833
   9 C :    0.031419
  10 C :    0.027131
  11 C :    0.031450
  12 C :   -0.026355
  13 C :    0.015756
  14 C :   -0.107829
  15 C :    0.342281
  16 C :   -0.374526
  17 C :   -0.162253
  18 N :    0.144362
  19 C :   -0.117852
  20 N :    0.121369
  21 O :   -0.262474
  22 C :   -0.135899
  23 N :    0.176399
  24 H :   -0.012502
  25 H :   -0.003740
  26 H :   -0.004004
  27 H :   -0.005772
  28 H :   -0.001464
  29 H :    0.007191
  30 H :   -0.001660
  31 H :   -0.002743
  32 H :   -0.008402
  33 H :   -0.014428
  34 H :    0.030345
Sum of atomic charges:   -0.0000000

LOEWDIN ATOMIC CHARGES
----------------------
   0 C :    0.080953
   1 C :   -0.034370
   2 C :   -0.024150
   3 C :   -0.016840
   4 C :   -0.009235
   5 C :   -0.011650
   6 C :   -0.001070
   7 C :   -0.028299
   8 C :   -0.019103
   9 C :   -0.010999
  10 C :   -0.014867
  11 C :   -0.012720
  12 C :   -0.022347
  13 C :    0.077585
  14 C :   -0.071310
  15 C :    0.124629
  16 C :   -0.161565
  17 C :   -0.029732
  18 N :   -0.039716
  19 C :   -0.018061
  20 N :   -0.049877
  21 O :   -0.037761
  22 C :   -0.030877
  23 N :   -0.012469
  24 H :    0.027325
  25 H :    0.033193
  26 H :    0.032815
  27 H :    0.033339
  28 H :    0.035819
  29 H :    0.034089
  30 H :    0.034276
  31 H :    0.032404
  32 H :    0.032112
  33 H :    0.028009
  34 H :    0.050469

  Mayer bond orders larger than 0.100000
B(  0-C ,  1-C ) :   0.9433 B(  0-C ,  7-C ) :   0.9154 B(  0-C , 13-C ) :   0.9800
B(  0-C , 21-O ) :   0.9394 B(  1-C ,  2-C ) :   1.4131 B(  1-C ,  6-C ) :   1.3738
B(  2-C ,  3-C ) :   1.3621 B(  2-C , 24-H ) :   0.9684 B(  3-C ,  4-C ) :   1.3968
B(  3-C , 25-H ) :   0.9809 B(  4-C ,  5-C ) :   1.3732 B(  4-C , 26-H ) :   0.9832
B(  5-C ,  6-C ) :   1.3874 B(  5-C , 27-H ) :   0.9827 B(  6-C , 28-H ) :   0.9911
B(  7-C ,  8-C ) :   1.4085 B(  7-C , 12-C ) :   1.3658 B(  8-C ,  9-C ) :   1.3607
B(  8-C , 29-H ) :   0.9838 B(  9-C , 10-C ) :   1.3874 B(  9-C , 30-H ) :   0.9869
B( 10-C , 11-C ) :   1.3722 B( 10-C , 31-H ) :   0.9880 B( 11-C , 12-C ) :   1.3950
B( 11-C , 32-H ) :   0.9831 B( 12-C , 33-H ) :   0.9888 B( 13-C , 14-C ) :   1.7126
B( 13-C , 34-H ) :   0.9927 B( 14-C , 15-C ) :   1.0246 B( 14-C , 22-C ) :   1.1084
B( 15-C , 16-C ) :   1.5980 B( 15-C , 21-O ) :   1.1969 B( 16-C , 17-C ) :   1.1831
B( 16-C , 19-C ) :   1.1161 B( 17-C , 18-N ) :   2.9828 B( 19-C , 20-N ) :   3.0129
B( 22-C , 23-N ) :   3.0207

Dispersion correction           -0.088049600
FINAL SINGLE POINT ENERGY     -1007.490585461908

DIPOLE MOMENT
-------------
                                X             Y             Z
Electronic contribution:      3.65305      18.64707      -2.74646
Nuclear contribution   :     -3.67417     -22.57422       3.26319
                        -----------------------------------------
Total Dipole Moment    :     -0.02112      -3.92715       0.51674
                        -----------------------------------------
Magnitude (a.u.)       :      3.96106
Magnitude (Debye)      :     10.06820

Rotational constants in cm-1:     0.009766     0.006471     0.005514
Rotational constants in MHz :   292.774959   194.006195   165.304187

                             ****ORCA TERMINATED NORMALLY****
TOTAL RUN TIME: 0 days 0 hours 51 minutes 49 seconds 972 msec
