                         Program Version 4.2.0 -  RELEASE  -
|  1> # ORCA input file
|  2> # SCF done        -27.307462401265          0.000238649775
|  3> ! B3LYP/G D3BJ Opt RIJCOSX def2-SVP def2/J
|  4> * xyz 0 1
|  5>    C       -0.87180        -1.44378         0.00131
|  6>    C       -2.04158        -0.73244         0.00104
|  7>    C       -2.06058         0.67706         0.00103
|  8>    C       -0.91057         1.41990         0.00131
|  9>    C        0.30087         0.71941         0.00157
| 10>    C        0.32010        -0.71071         0.00157
| 11>    N        1.60908        -1.09203         0.00181
| 12>    N        2.27303         0.03134         0.00195
| 13>    N        1.57860         1.13614         0.00182
| 14>    C        3.70429         0.04675         0.00223
| 15>    H       -0.85135        -2.52187         0.00130
| 16>    H       -2.98512        -1.25845         0.00078
| 17>    H       -3.01804         1.17734         0.00079
| 18>    H       -0.91925         2.49814         0.00131
| 19>    H        4.05051        -0.98402         0.00192
| 20>    H        4.06885         0.56695         0.88854
| 21>    H        4.06916         0.56761        -0.88356
| 22> *
| 23>
| 24>                          ****END OF INPUT****
 Total Charge           Charge          ....    0
 Multiplicity           Mult            ....    1
 Number of Electrons    NEL             ....   70
Dispersion correction           -0.030726177
FINAL SINGLE POINT ENERGY      -434.896926942085
Dispersion correction            ... done
Dispersion correction           -0.030658476
FINAL SINGLE POINT ENERGY      -434.899481561804
Dispersion correction            ... done
Dispersion correction           -0.030643860
FINAL SINGLE POINT ENERGY      -434.899597552978
Dispersion correction            ... done
Dispersion correction           -0.030640206
FINAL SINGLE POINT ENERGY      -434.899612093541
Dispersion correction            ... done
Dispersion correction           -0.030639443
FINAL SINGLE POINT ENERGY      -434.899613755040
Dispersion correction            ... done
                    ***********************HURRAY********************

CARTESIAN COORDINATES (ANGSTROEM)
---------------------------------
  C     -0.881915   -1.457535    0.001304
  C     -2.061927   -0.741673    0.001065
  C     -2.078937    0.687212    0.001040
  C     -0.916559    1.430977    0.001262
  C      0.305094    0.716809    0.001528
  C      0.322873   -0.714496    0.001539
  N      1.613287   -1.114800    0.001787
  N      2.281813    0.027076    0.001905
  N      1.584379    1.149375    0.001780
  C      3.730409    0.050744    0.002255
  H     -0.864412   -2.548956    0.001313
  H     -3.014747   -1.276131    0.000869
  H     -3.043891    1.199617    0.000819
  H     -0.924427    2.522444    0.001227
  H      4.079053   -0.986982    0.001821
  H      4.092857    0.576383    0.896574
  H      4.093250    0.577278   -0.891366

 Multiplicity           Mult            ....    1
 Number of Electrons    NEL             ....   70
 Basis Dimension        Dim             ....  175

ORBITAL ENERGIES
----------------

  NO   OCC          E(Eh)            E(eV)
   0   2.0000     -14.451277      -393.2392
   1   2.0000     -14.355587      -390.6354
   2   2.0000     -14.353757      -390.5856
   3   2.0000     -10.244017      -278.7539
   4   2.0000     -10.215314      -277.9728
   5   2.0000     -10.214746      -277.9574
   6   2.0000     -10.198661      -277.5197
   7   2.0000     -10.198226      -277.5079
   8   2.0000     -10.196933      -277.4726
   9   2.0000     -10.196621      -277.4642
  10   2.0000      -1.107510       -30.1369
  11   2.0000      -0.890180       -24.2230
  12   2.0000      -0.871281       -23.7088
  13   2.0000      -0.815072       -22.1792
  14   2.0000      -0.745134       -20.2761
  15   2.0000      -0.714683       -19.4475
  16   2.0000      -0.627460       -17.0740
  17   2.0000      -0.627127       -17.0650
  18   2.0000      -0.580451       -15.7949
  19   2.0000      -0.525361       -14.2958
  20   2.0000      -0.513994       -13.9865
  21   2.0000      -0.509482       -13.8637
  22   2.0000      -0.478735       -13.0270
  23   2.0000      -0.444860       -12.1053
  24   2.0000      -0.438700       -11.9376
  25   2.0000      -0.428898       -11.6709
  26   2.0000      -0.424059       -11.5392
  27   2.0000      -0.379589       -10.3291
  28   2.0000      -0.376297       -10.2396
  29   2.0000      -0.355357        -9.6698
  30   2.0000      -0.315075        -8.5736
  31   2.0000      -0.312636        -8.5072
  32   2.0000      -0.296905        -8.0792
  33   2.0000      -0.256301        -6.9743
  34   2.0000      -0.233141        -6.3441
  35   0.0000      -0.053789        -1.4637
  36   0.0000       0.015586         0.4241
  37   0.0000       0.026103         0.7103
  38   0.0000       0.065299         1.7769
  39   0.0000       0.070514         1.9188

MULLIKEN ATOMIC CHARGES
-----------------------
   0 C :   -0.043177
   1 C :    0.024083
   2 C :    0.024259
   3 C :   -0.043725
   4 C :    0.036244
   5 C :    0.029658
   6 N :   -0.073162
   7 N :   -0.100143
   8 N :   -0.084787
   9 C :    0.162103
  10 H :   -0.020410
  11 H :   -0.014595
  12 H :   -0.014813
  13 H :   -0.020874
  14 H :    0.044653
  15 H :    0.047339
  16 H :    0.047348
Sum of atomic charges:   -0.0000000

LOEWDIN ATOMIC CHARGES
----------------------
   0 C :   -0.025715
   1 C :   -0.027746
   2 C :   -0.026452
   3 C :   -0.026931
   4 C :   -0.051054
   5 C :   -0.054035
   6 N :   -0.101445
   7 N :    0.142293
   8 N :   -0.105277
   9 C :    0.039347
  10 H :    0.033362
  11 H :    0.027806
  12 H :    0.027802
  13 H :    0.033307
  14 H :    0.038606
  15 H :    0.038065
  16 H :    0.038067

  Mayer bond orders larger than 0.100000
B(  0-C ,  1-C ) :   1.4843 B(  0-C ,  3-C ) :   0.1203 B(  0-C ,  5-C ) :   1.2185
B(  0-C , 10-H ) :   1.0101 B(  1-C ,  2-C ) :   1.2406 B(  1-C , 11-H ) :   0.9820
B(  2-C ,  3-C ) :   1.4836 B(  2-C , 12-H ) :   0.9820 B(  3-C ,  4-C ) :   1.2182
B(  3-C , 13-H ) :   1.0099 B(  4-C ,  5-C ) :   1.2226 B(  4-C ,  8-N ) :   1.4227
B(  5-C ,  6-N ) :   1.4242 B(  6-N ,  7-N ) :   1.2241 B(  6-N ,  8-N ) :   0.1776
B(  7-N ,  8-N ) :   1.2085 B(  7-N ,  9-C ) :   0.9501 B(  9-C , 14-H ) :   0.9665
B(  9-C , 15-H ) :   0.9692 B(  9-C , 16-H ) :   0.9692

Dispersion correction           -0.030639474
FINAL SINGLE POINT ENERGY      -434.899613856047

DIPOLE MOMENT
-------------
                                X             Y             Z
Electronic contribution:     -0.77834      -0.02985      -0.00025
Nuclear contribution   :      1.09853       0.03079       0.00031
                        -----------------------------------------
Total Dipole Moment    :      0.32020       0.00094       0.00006
                        -----------------------------------------
Magnitude (a.u.)       :      0.32020
Magnitude (Debye)      :      0.81388

Rotational constants in cm-1:     0.129774     0.035139     0.027799
Rotational constants in MHz :  3890.540898  1053.452557   833.390764

                             ****ORCA TERMINATED NORMALLY****
TOTAL RUN TIME: 0 days 0 hours 4 minutes 40 seconds 88 msec
