                         Program Version 4.2.0 -  RELEASE  -
|  1> # ORCA input file
|  2> # SCF done        -53.333502988595          0.000539465866
|  3> ! B3LYP/G D3BJ Opt RIJCOSX def2-SVP def2/J
|  4> * xyz 0 1
|  5>    C       -1.61903         1.19370        -0.29503
|  6>    O       -1.99172         2.31986        -0.48808
|  7>    C       -0.23356         0.69439        -0.13486
|  8>    C       -0.24455        -0.69802         0.07733
|  9>    C        0.94329        -1.39191         0.25486
| 10>    C        2.13060        -0.67759         0.21582
| 11>    C        2.15934         0.70202         0.00576
| 12>    C        0.96094         1.39626        -0.17134
| 13>    F        0.98822         2.70711        -0.37065
| 14>    F        3.32290         1.35035        -0.02530
| 15>    F        3.28299        -1.32490         0.38359
| 16>    C       -1.62332        -1.17887         0.06697
| 17>    C       -2.03024        -2.46734         0.24173
| 18>    C       -1.15995        -3.55988         0.46385
| 19>    N       -0.50414        -4.48223         0.64570
| 20>    C       -3.38087        -2.88908         0.22500
| 21>    N       -4.45100        -3.29964         0.22387
| 22>    C       -2.48727        -0.02132        -0.16584
| 23>    C       -3.81576         0.06465        -0.27027
| 24>    H        0.98344        -2.45588         0.42069
| 25>    H       -4.48316        -0.77458        -0.19026
| 26>    H       -4.25385         1.03479        -0.44694
| 27> *
| 28>
| 29>                          ****END OF INPUT****
 Total Charge           Charge          ....    0
 Multiplicity           Mult            ....    1
 Number of Electrons    NEL             ....  130
Dispersion correction           -0.054963120
FINAL SINGLE POINT ENERGY      -980.667737026738
Dispersion correction            ... done
Dispersion correction           -0.054669597
FINAL SINGLE POINT ENERGY      -980.671129304838
Dispersion correction            ... done
Dispersion correction           -0.054644130
FINAL SINGLE POINT ENERGY      -980.671343259315
Dispersion correction            ... done
FINAL SINGLE POINT ENERGY      -980.671299102027
FINAL SINGLE POINT ENERGY      -980.671195861356
FINAL SINGLE POINT ENERGY      -980.671298201474
FINAL SINGLE POINT ENERGY      -980.671299971267
Dispersion correction            ... done
Dispersion correction           -0.054732953
FINAL SINGLE POINT ENERGY      -980.671291370461
Dispersion correction            ... done
Dispersion correction           -0.054734300
FINAL SINGLE POINT ENERGY      -980.671298898361
Dispersion correction            ... done
                    ***********************HURRAY********************

CARTESIAN COORDINATES (ANGSTROEM)
---------------------------------
  C     -1.623449    1.183649   -0.274727
  O     -1.992639    2.318301   -0.464647
  C     -0.236402    0.679685   -0.125545
  C     -0.244139   -0.714182    0.120470
  C      0.960836   -1.400892    0.313109
  C      2.147080   -0.675147    0.246441
  C      2.166872    0.702007   -0.036331
  C      0.958713    1.385649   -0.210605
  F      0.985783    2.680606   -0.471593
  F      3.316880    1.349340   -0.138758
  F      3.307236   -1.289085    0.441789
  C     -1.639163   -1.204976    0.092757
  C     -2.044186   -2.513291    0.225717
  C     -1.130631   -3.587067    0.472513
  N     -0.386006   -4.455039    0.674804
  C     -3.414996   -2.910587    0.113063
  N     -4.523371   -3.245482    0.019996
  C     -2.508058   -0.034286   -0.133508
  C     -3.843791    0.088793   -0.213843
  H      1.021741   -2.466317    0.522316
  H     -4.540686   -0.743434   -0.126976
  H     -4.244324    1.093645   -0.379844

 Multiplicity           Mult            ....    1
 Number of Electrons    NEL             ....  130
 Basis Dimension        Dim             ....  281

ORBITAL ENERGIES
----------------

  NO   OCC          E(Eh)            E(eV)
   0   2.0000     -24.753485      -673.5766
   1   2.0000     -24.749709      -673.4738
   2   2.0000     -24.749561      -673.4698
   3   2.0000     -19.161843      -521.4203
   4   2.0000     -14.366532      -390.9332
   5   2.0000     -14.365451      -390.9038
   6   2.0000     -10.336411      -281.2681
   7   2.0000     -10.335706      -281.2489
   8   2.0000     -10.333658      -281.1931
   9   2.0000     -10.313850      -280.6541
  10   2.0000     -10.300192      -280.2825
  11   2.0000     -10.290952      -280.0311
  12   2.0000     -10.270320      -279.4696
  13   2.0000     -10.268227      -279.4127
  14   2.0000     -10.266996      -279.3792
  15   2.0000     -10.252519      -278.9852
  16   2.0000     -10.251076      -278.9459
  17   2.0000     -10.249660      -278.9074
  18   2.0000     -10.248446      -278.8744
  19   2.0000      -1.275966       -34.7208
  20   2.0000      -1.263793       -34.3895
  21   2.0000      -1.254977       -34.1497
  22   2.0000      -1.068964       -29.0880
  23   2.0000      -0.950858       -25.8742
  24   2.0000      -0.934340       -25.4247
  25   2.0000      -0.930293       -25.3146
  26   2.0000      -0.888787       -24.1851
  27   2.0000      -0.838487       -22.8164
  28   2.0000      -0.808897       -22.0112
  29   2.0000      -0.804628       -21.8950
  30   2.0000      -0.732048       -19.9200
  31   2.0000      -0.714008       -19.4291
  32   2.0000      -0.667025       -18.1507
  33   2.0000      -0.657016       -17.8783
  34   2.0000      -0.631859       -17.1938
  35   2.0000      -0.608865       -16.5681
  36   2.0000      -0.597981       -16.2719
  37   2.0000      -0.589877       -16.0514
  38   2.0000      -0.562130       -15.2963
  39   2.0000      -0.551894       -15.0178
  40   2.0000      -0.548003       -14.9119
  41   2.0000      -0.530062       -14.4237
  42   2.0000      -0.514700       -14.0057
  43   2.0000      -0.512897       -13.9566
  44   2.0000      -0.498342       -13.5606
  45   2.0000      -0.485863       -13.2210
  46   2.0000      -0.474408       -12.9093
  47   2.0000      -0.471453       -12.8289
  48   2.0000      -0.468874       -12.7587
  49   2.0000      -0.449050       -12.2193
  50   2.0000      -0.443509       -12.0685
  51   2.0000      -0.440195       -11.9783
  52   2.0000      -0.420315       -11.4374
  53   2.0000      -0.415963       -11.3189
  54   2.0000      -0.401451       -10.9240
  55   2.0000      -0.399641       -10.8748
  56   2.0000      -0.394871       -10.7450
  57   2.0000      -0.379880       -10.3371
  58   2.0000      -0.377059       -10.2603
  59   2.0000      -0.366271        -9.9667
  60   2.0000      -0.362718        -9.8701
  61   2.0000      -0.309697        -8.4273
  62   2.0000      -0.304228        -8.2785
  63   2.0000      -0.294058        -8.0017
  64   2.0000      -0.282175        -7.6784
  65   0.0000      -0.142949        -3.8899
  66   0.0000      -0.116011        -3.1568
  67   0.0000      -0.050036        -1.3615
  68   0.0000      -0.034911        -0.9500
  69   0.0000      -0.016496        -0.4489

MULLIKEN ATOMIC CHARGES
-----------------------
   0 C :    0.146743
   1 O :   -0.122014
   2 C :   -0.090151
   3 C :    0.064846
   4 C :   -0.092257
   5 C :    0.238803
   6 C :    0.158701
   7 C :    0.173232
   8 F :   -0.135992
   9 F :   -0.143829
  10 F :   -0.152797
  11 C :    0.253111
  12 C :   -0.285425
  13 C :   -0.139119
  14 N :    0.118146
  15 C :   -0.145348
  16 N :    0.120482
  17 C :   -0.126209
  18 C :    0.021584
  19 H :    0.018321
  20 H :    0.061063
  21 H :    0.058110
Sum of atomic charges:    0.0000000

LOEWDIN ATOMIC CHARGES
----------------------
   0 C :    0.081643
   1 O :   -0.116936
   2 C :   -0.079174
   3 C :   -0.001215
   4 C :   -0.029816
   5 C :    0.079279
   6 C :    0.041389
   7 C :    0.083593
   8 F :   -0.011162
   9 F :   -0.018249
  10 F :   -0.025231
  11 C :    0.063161
  12 C :   -0.110058
  13 C :   -0.011242
  14 N :   -0.041083
  15 C :   -0.010613
  16 N :   -0.038818
  17 C :   -0.072594
  18 C :    0.075175
  19 H :    0.052844
  20 H :    0.042057
  21 H :    0.047050

  Mayer bond orders larger than 0.100000
B(  0-C ,  1-O ) :   2.2692 B(  0-C ,  2-C ) :   0.9314 B(  0-C , 17-C ) :   0.9204
B(  2-C ,  3-C ) :   1.3276 B(  2-C ,  7-C ) :   1.2510 B(  3-C ,  4-C ) :   1.3014
B(  3-C , 11-C ) :   1.0399 B(  4-C ,  5-C ) :   1.3336 B(  4-C , 19-H ) :   0.9903
B(  5-C ,  6-C ) :   1.2606 B(  5-C , 10-F ) :   1.1411 B(  6-C ,  7-C ) :   1.2574
B(  6-C ,  9-F ) :   1.1690 B(  7-C ,  8-F ) :   1.2294 B( 11-C , 12-C ) :   1.6436
B( 11-C , 17-C ) :   1.0121 B( 12-C , 13-C ) :   1.1270 B( 12-C , 15-C ) :   1.1424
B( 13-C , 14-N ) :   2.9390 B( 15-C , 16-N ) :   2.9422 B( 17-C , 18-C ) :   1.9183
B( 18-C , 20-H ) :   0.9204 B( 18-C , 21-H ) :   0.9099

Dispersion correction           -0.054733244
FINAL SINGLE POINT ENERGY      -980.671305699091

DIPOLE MOMENT
-------------
                                X             Y             Z
Electronic contribution:     14.68255       5.10776      -0.15377
Nuclear contribution   :    -14.36977      -4.50280       0.16623
                        -----------------------------------------
Total Dipole Moment    :      0.31277       0.60496       0.01246
                        -----------------------------------------
Magnitude (a.u.)       :      0.68114
Magnitude (Debye)      :      1.73132

Rotational constants in cm-1:     0.019384     0.009875     0.006549
Rotational constants in MHz :   581.103947   296.055088   196.323644

                             ****ORCA TERMINATED NORMALLY****
TOTAL RUN TIME: 0 days 0 hours 21 minutes 41 seconds 478 msec
