                         Program Version 4.2.0 -  RELEASE  -
|  1> # ORCA input file
|  2> # SCF done        -16.422850596182          0.000800803299
|  3> ! B3LYP/G D3BJ Opt RIJCOSX def2-SVP def2/J
|  4> * xyz 0 1
|  5>    C       -0.75015         1.15077         0.01351
|  6>    C        0.63707         1.17631         0.03355
|  7>    N        1.36006         0.06771         0.06235
|  8>    C        0.69450        -1.07259         0.07117
|  9>    N       -0.61776        -1.21761         0.05419
| 10>    C       -1.33700        -0.10657         0.02541
| 11>    H       -1.33718         2.05423        -0.00992
| 12>    H        1.19497         2.10444         0.02661
| 13>    H        1.28426        -1.98026         0.09471
| 14>    H       -2.41166        -0.23938         0.01173
| 15> *
| 16>
| 17>                          ****END OF INPUT****
 Total Charge           Charge          ....    0
 Multiplicity           Mult            ....    1
 Number of Electrons    NEL             ....   42
Dispersion correction           -0.015418180
FINAL SINGLE POINT ENERGY      -264.142825516188
Dispersion correction            ... done
Dispersion correction           -0.015380579
FINAL SINGLE POINT ENERGY      -264.144298012113
Dispersion correction            ... done
Dispersion correction           -0.015377587
FINAL SINGLE POINT ENERGY      -264.144343525890
Dispersion correction            ... done
Dispersion correction           -0.015376971
FINAL SINGLE POINT ENERGY      -264.144358064439
Dispersion correction            ... done
Dispersion correction           -0.015377232
FINAL SINGLE POINT ENERGY      -264.144360419366
Dispersion correction            ... done
                    ***********************HURRAY********************

CARTESIAN COORDINATES (ANGSTROEM)
---------------------------------
  C     -0.750656    1.152294    0.013851
  C      0.644866    1.181625    0.033995
  N      1.377079    0.065318    0.062325
  C      0.702798   -1.086234    0.071341
  N     -0.623929   -1.234483    0.055707
  C     -1.344780   -0.111417    0.026059
  H     -1.344564    2.067596   -0.011373
  H      1.190602    2.132510    0.026493
  H      1.301424   -2.004847    0.094407
  H     -2.435731   -0.225312    0.010504

 Multiplicity           Mult            ....    1
 Number of Electrons    NEL             ....   42
 Basis Dimension        Dim             ....  104

ORBITAL ENERGIES
----------------

  NO   OCC          E(Eh)            E(eV)
   0   2.0000     -14.336718      -390.1219
   1   2.0000     -14.336192      -390.1076
   2   2.0000     -10.260112      -279.1918
   3   2.0000     -10.248544      -278.8770
   4   2.0000     -10.248256      -278.8692
   5   2.0000     -10.216302      -277.9997
   6   2.0000      -0.987288       -26.8655
   7   2.0000      -0.888747       -24.1840
   8   2.0000      -0.793384       -21.5891
   9   2.0000      -0.659036       -17.9333
  10   2.0000      -0.658891       -17.9293
  11   2.0000      -0.542081       -14.7508
  12   2.0000      -0.524252       -14.2656
  13   2.0000      -0.473234       -12.8774
  14   2.0000      -0.435413       -11.8482
  15   2.0000      -0.427358       -11.6290
  16   2.0000      -0.418246       -11.3810
  17   2.0000      -0.327133        -8.9017
  18   2.0000      -0.304092        -8.2748
  19   2.0000      -0.297278        -8.0893
  20   2.0000      -0.257446        -7.0055
  21   0.0000      -0.049729        -1.3532
  22   0.0000      -0.039603        -1.0777
  23   0.0000       0.062520         1.7013
  24   0.0000       0.103827         2.8253
  25   0.0000       0.109454         2.9784

MULLIKEN ATOMIC CHARGES
-----------------------
   0 C :   -0.015989
   1 C :    0.067616
   2 N :   -0.128519
   3 C :    0.082499
   4 N :   -0.121884
   5 C :    0.055040
   6 H :    0.005880
   7 H :    0.013578
   8 H :    0.021586
   9 H :    0.020193
Sum of atomic charges:   -0.0000000

LOEWDIN ATOMIC CHARGES
----------------------
   0 C :   -0.063381
   1 C :    0.047449
   2 N :   -0.094188
   3 C :    0.050489
   4 N :   -0.092887
   5 C :    0.045308
   6 H :    0.035112
   7 H :    0.025617
   8 H :    0.019721
   9 H :    0.026762

  Mayer bond orders larger than 0.100000
B(  0-C ,  1-C ) :   1.3892 B(  0-C ,  5-C ) :   1.3862 B(  0-C ,  6-H ) :   0.9681
B(  1-C ,  2-N ) :   1.5293 B(  1-C ,  7-H ) :   0.9783 B(  2-N ,  3-C ) :   1.5032
B(  3-C ,  4-N ) :   1.5000 B(  3-C ,  8-H ) :   0.9693 B(  4-N ,  5-C ) :   1.5311
B(  5-C ,  9-H ) :   0.9776

Dispersion correction           -0.015377442
FINAL SINGLE POINT ENERGY      -264.144360974354

DIPOLE MOMENT
-------------
                                X             Y             Z
Electronic contribution:      0.73825      -1.14021       0.03153
Nuclear contribution   :     -1.21713       1.87664      -0.05210
                        -----------------------------------------
Total Dipole Moment    :     -0.47888       0.73643      -0.02057
                        -----------------------------------------
Magnitude (a.u.)       :      0.87868
Magnitude (Debye)      :      2.23343

Rotational constants in cm-1:     0.208837     0.202811     0.102890
Rotational constants in MHz :  6260.782325  6080.107360  3084.561835

                             ****ORCA TERMINATED NORMALLY****
TOTAL RUN TIME: 0 days 0 hours 1 minutes 27 seconds 541 msec
