                         Program Version 4.2.0 -  RELEASE  -
|  1> # ORCA input file
|  2> # SCF done        -60.282323899382          0.000380036527
|  3> ! B3LYP/G D3BJ Opt RIJCOSX def2-SVP def2/J
|  4> * xyz 0 1
|  5>    C       -0.31338        -1.44812         0.45953
|  6>    C       -0.38065        -2.11829         1.82171
|  7>    C        0.41705        -3.23898         2.03220
|  8>    C        0.42405        -3.86733         3.26304
|  9>    C       -0.35903        -3.38125         4.29709
| 10>    C       -1.14621        -2.26244         4.09308
| 11>    C       -1.15431        -1.62816         2.86203
| 12>    C       -0.42561        -2.45448        -0.66490
| 13>    C       -1.37029        -3.47047        -0.57768
| 14>    C       -1.51431        -4.37506        -1.61281
| 15>    C       -0.72247        -4.27010        -2.74454
| 16>    C        0.20996        -3.25211        -2.84005
| 17>    C        0.35650        -2.34285        -1.80697
| 18>    C        0.93223        -0.63524         0.42577
| 19>    C        0.79299         0.69118         0.25028
| 20>    C       -0.57750         1.13551         0.07399
| 21>    C       -1.00162         2.41301        -0.15831
| 22>    C       -0.14085         3.52257        -0.27440
| 23>    N        0.50621         4.46315        -0.38229
| 24>    C       -2.37531         2.70094        -0.30524
| 25>    N       -3.49373         2.92571        -0.42136
| 26>    S       -1.67671        -0.20682         0.18921
| 27>    C        1.90389         1.56674         0.23547
| 28>    N        2.85237         2.20763         0.23305
| 29>    H        1.02569        -3.62342         1.22638
| 30>    H        1.04374        -4.73817         3.41370
| 31>    H       -0.35399        -3.87314         5.25772
| 32>    H       -1.75922        -1.87558         4.89270
| 33>    H       -1.77641        -0.75783         2.71640
| 34>    H       -1.99185        -3.54731         0.30255
| 35>    H       -2.24956        -5.16152        -1.53593
| 36>    H       -0.83635        -4.97687        -3.55230
| 37>    H        0.82539        -3.15925        -3.72201
| 38>    H        1.08170        -1.54568        -1.89239
| 39>    H        1.88097        -1.12282         0.57947
| 40> *
| 41>
| 42>                          ****END OF INPUT****
 Total Charge           Charge          ....    0
 Multiplicity           Mult            ....    1
 Number of Electrons    NEL             ....  168
Dispersion correction           -0.098749643
FINAL SINGLE POINT ENERGY     -1330.408325105951
Dispersion correction            ... done
Dispersion correction           -0.097340362
FINAL SINGLE POINT ENERGY     -1330.415541637873
Dispersion correction            ... done
Dispersion correction           -0.097294901
FINAL SINGLE POINT ENERGY     -1330.415619536497
Dispersion correction            ... done
FINAL SINGLE POINT ENERGY     -1330.415506547371
FINAL SINGLE POINT ENERGY     -1330.415442027475
FINAL SINGLE POINT ENERGY     -1330.415421736034
FINAL SINGLE POINT ENERGY     -1330.415438988705
Dispersion correction            ... done
Dispersion correction           -0.097351233
FINAL SINGLE POINT ENERGY     -1330.415463384574
Dispersion correction            ... done
Dispersion correction           -0.097338279
FINAL SINGLE POINT ENERGY     -1330.415474002841
Dispersion correction            ... done
                    ***********************HURRAY********************

CARTESIAN COORDINATES (ANGSTROEM)
---------------------------------
  C     -0.341716   -1.493573    0.352059
  C     -0.438586   -2.096371    1.765728
  C      0.432576   -3.154499    2.079349
  C      0.470537   -3.685278    3.368079
  C     -0.366220   -3.168884    4.362706
  C     -1.241449   -2.125626    4.055246
  C     -1.272990   -1.584836    2.765925
  C     -0.440784   -2.538099   -0.756658
  C     -1.289512   -3.644394   -0.612358
  C     -1.440006   -4.560251   -1.655822
  C     -0.739738   -4.384187   -2.852876
  C      0.109370   -3.283384   -3.001838
  C      0.252667   -2.362912   -1.962311
  C      0.936848   -0.702553    0.334595
  C      0.843381    0.644521    0.243037
  C     -0.532512    1.139364    0.093805
  C     -0.955795    2.445887    0.002114
  C     -0.088277    3.581940    0.042601
  N      0.554240    4.548879    0.070254
  C     -2.353335    2.724741   -0.135170
  N     -3.490609    2.933933   -0.245424
  S     -1.657149   -0.199122    0.015400
  C      2.008324    1.475184    0.293097
  N      2.997254    2.079511    0.336648
  H      1.078365   -3.571237    1.303993
  H      1.152783   -4.507182    3.596739
  H     -0.337245   -3.586081    5.371690
  H     -1.903398   -1.720085    4.823467
  H     -1.951170   -0.761676    2.538510
  H     -1.833171   -3.793399    0.321976
  H     -2.107755   -5.415694   -1.528951
  H     -0.860530   -5.100076   -3.669496
  H      0.654789   -3.129838   -3.935686
  H      0.895371   -1.490124   -2.100628
  H      1.888823   -1.221449    0.454393

 Multiplicity           Mult            ....    1
 Number of Electrons    NEL             ....  168
 Basis Dimension        Dim             ....  395

ORBITAL ENERGIES
----------------

  NO   OCC          E(Eh)            E(eV)
   0   2.0000     -88.904989     -2419.2277
   1   2.0000     -14.352979      -390.5644
   2   2.0000     -14.347128      -390.4052
   3   2.0000     -14.341377      -390.2487
   4   2.0000     -10.298099      -280.2255
   5   2.0000     -10.290201      -280.0106
   6   2.0000     -10.282676      -279.8058
   7   2.0000     -10.282564      -279.8028
   8   2.0000     -10.272362      -279.5252
   9   2.0000     -10.252440      -278.9831
  10   2.0000     -10.248329      -278.8712
  11   2.0000     -10.243722      -278.7459
  12   2.0000     -10.239551      -278.6323
  13   2.0000     -10.235426      -278.5201
  14   2.0000     -10.223253      -278.1889
  15   2.0000     -10.221745      -278.1478
  16   2.0000     -10.220761      -278.1211
  17   2.0000     -10.220676      -278.1187
  18   2.0000     -10.219780      -278.0944
  19   2.0000     -10.219268      -278.0804
  20   2.0000     -10.219007      -278.0733
  21   2.0000     -10.218878      -278.0698
  22   2.0000     -10.218796      -278.0676
  23   2.0000     -10.218268      -278.0532
  24   2.0000      -7.999132      -217.6674
  25   2.0000      -5.967877      -162.3942
  26   2.0000      -5.964245      -162.2954
  27   2.0000      -5.958476      -162.1384
  28   2.0000      -0.946710       -25.7613
  29   2.0000      -0.920654       -25.0523
  30   2.0000      -0.917092       -24.9553
  31   2.0000      -0.906600       -24.6698
  32   2.0000      -0.885989       -24.1090
  33   2.0000      -0.876380       -23.8475
  34   2.0000      -0.844977       -22.9930
  35   2.0000      -0.817398       -22.2425
  36   2.0000      -0.783679       -21.3250
  37   2.0000      -0.771262       -20.9871
  38   2.0000      -0.767860       -20.8945
  39   2.0000      -0.764764       -20.8103
  40   2.0000      -0.731066       -19.8933
  41   2.0000      -0.665525       -18.1099
  42   2.0000      -0.652215       -17.7477
  43   2.0000      -0.634074       -17.2540
  44   2.0000      -0.632750       -17.2180
  45   2.0000      -0.620370       -16.8811
  46   2.0000      -0.614736       -16.7278
  47   2.0000      -0.590647       -16.0723
  48   2.0000      -0.576673       -15.6921
  49   2.0000      -0.553114       -15.0510
  50   2.0000      -0.535296       -14.5661
  51   2.0000      -0.508843       -13.8463
  52   2.0000      -0.494993       -13.4694
  53   2.0000      -0.491462       -13.3734
  54   2.0000      -0.477678       -12.9983
  55   2.0000      -0.472191       -12.8490
  56   2.0000      -0.468219       -12.7409
  57   2.0000      -0.454349       -12.3635
  58   2.0000      -0.451689       -12.2911
  59   2.0000      -0.446820       -12.1586
  60   2.0000      -0.445648       -12.1267
  61   2.0000      -0.439981       -11.9725
  62   2.0000      -0.406968       -11.0742
  63   2.0000      -0.403796       -10.9879
  64   2.0000      -0.398142       -10.8340
  65   2.0000      -0.391155       -10.6439
  66   2.0000      -0.385763       -10.4972
  67   2.0000      -0.381895       -10.3919
  68   2.0000      -0.379669       -10.3313
  69   2.0000      -0.378597       -10.3022
  70   2.0000      -0.374929       -10.2023
  71   2.0000      -0.371591       -10.1115
  72   2.0000      -0.368965       -10.0400
  73   2.0000      -0.366197        -9.9647
  74   2.0000      -0.358045        -9.7429
  75   2.0000      -0.355333        -9.6691
  76   2.0000      -0.352289        -9.5863
  77   2.0000      -0.339822        -9.2470
  78   2.0000      -0.313218        -8.5231
  79   2.0000      -0.289258        -7.8711
  80   2.0000      -0.284840        -7.7509
  81   2.0000      -0.280800        -7.6410
  82   2.0000      -0.277628        -7.5547
  83   2.0000      -0.258792        -7.0421
  84   0.0000      -0.121844        -3.3155
  85   0.0000      -0.060885        -1.6568
  86   0.0000      -0.058187        -1.5834
  87   0.0000      -0.047766        -1.2998
  88   0.0000      -0.036221        -0.9856

MULLIKEN ATOMIC CHARGES
-----------------------
   0 C :   -0.204823
   1 C :    0.088300
   2 C :   -0.022543
   3 C :    0.027088
   4 C :    0.032281
   5 C :    0.028550
   6 C :   -0.011261
   7 C :    0.070278
   8 C :   -0.000841
   9 C :    0.021946
  10 C :    0.028039
  11 C :    0.031384
  12 C :   -0.012994
  13 C :    0.069293
  14 C :   -0.055291
  15 C :    0.077640
  16 C :   -0.279226
  17 C :   -0.153002
  18 N :    0.155021
  19 C :   -0.171603
  20 N :    0.114082
  21 S :    0.155123
  22 C :   -0.141612
  23 N :    0.156905
  24 H :   -0.002838
  25 H :   -0.005488
  26 H :   -0.005159
  27 H :   -0.003232
  28 H :    0.001616
  29 H :   -0.002366
  30 H :   -0.004606
  31 H :   -0.001326
  32 H :   -0.006641
  33 H :   -0.004985
  34 H :    0.032290
Sum of atomic charges:   -0.0000000

LOEWDIN ATOMIC CHARGES
----------------------
   0 C :   -0.102178
   1 C :   -0.030574
   2 C :   -0.019583
   3 C :   -0.015871
   4 C :   -0.013195
   5 C :   -0.012454
   6 C :   -0.027777
   7 C :   -0.046367
   8 C :   -0.016936
   9 C :   -0.014741
  10 C :   -0.014645
  11 C :   -0.013493
  12 C :   -0.022117
  13 C :    0.071823
  14 C :   -0.080329
  15 C :   -0.080702
  16 C :   -0.148758
  17 C :   -0.030834
  18 N :   -0.031302
  19 C :   -0.030429
  20 N :   -0.041484
  21 S :    0.412721
  22 C :   -0.032627
  23 N :   -0.020380
  24 H :    0.030021
  25 H :    0.032975
  26 H :    0.032245
  27 H :    0.034074
  28 H :    0.021428
  29 H :    0.032708
  30 H :    0.032853
  31 H :    0.032703
  32 H :    0.033034
  33 H :    0.029756
  34 H :    0.050436

  Mayer bond orders larger than 0.100000
B(  0-C ,  1-C ) :   0.8802 B(  0-C ,  7-C ) :   0.9026 B(  0-C , 13-C ) :   0.9309
B(  0-C , 21-S ) :   1.0213 B(  1-C ,  2-C ) :   1.3708 B(  1-C ,  6-C ) :   1.4082
B(  2-C ,  3-C ) :   1.3960 B(  2-C , 24-H ) :   0.9863 B(  3-C ,  4-C ) :   1.3692
B(  3-C , 25-H ) :   0.9853 B(  4-C ,  5-C ) :   1.3888 B(  4-C , 26-H ) :   0.9857
B(  5-C ,  6-C ) :   1.3726 B(  5-C , 27-H ) :   0.9819 B(  6-C , 28-H ) :   0.9736
B(  7-C ,  8-C ) :   1.3953 B(  7-C , 12-C ) :   1.3931 B(  8-C ,  9-C ) :   1.3791
B(  8-C , 29-H ) :   0.9836 B(  9-C , 10-C ) :   1.3841 B(  9-C , 30-H ) :   0.9821
B( 10-C , 11-C ) :   1.3805 B( 10-C , 31-H ) :   0.9842 B( 11-C , 12-C ) :   1.3849
B( 11-C , 32-H ) :   0.9789 B( 12-C , 33-H ) :   0.9732 B( 13-C , 14-C ) :   1.7380
B( 13-C , 34-H ) :   0.9831 B( 14-C , 15-C ) :   1.0592 B( 14-C , 22-C ) :   1.1011
B( 15-C , 16-C ) :   1.6203 B( 15-C , 21-S ) :   1.1049 B( 16-C , 17-C ) :   1.1647
B( 16-C , 19-C ) :   1.1368 B( 17-C , 18-N ) :   2.9854 B( 19-C , 20-N ) :   2.9941
B( 22-C , 23-N ) :   3.0156

Dispersion correction           -0.097332042
FINAL SINGLE POINT ENERGY     -1330.415473614885

DIPOLE MOMENT
-------------
                                X             Y             Z
Electronic contribution:     -1.14903      20.93081      -2.71814
Nuclear contribution   :      1.14571     -24.87695       3.07528
                        -----------------------------------------
Total Dipole Moment    :     -0.00331      -3.94614       0.35714
                        -----------------------------------------
Magnitude (a.u.)       :      3.96227
Magnitude (Debye)      :     10.07129

Rotational constants in cm-1:     0.009791     0.005805     0.004935
Rotational constants in MHz :   293.532245   174.036027   147.949688

                             ****ORCA TERMINATED NORMALLY****
TOTAL RUN TIME: 0 days 0 hours 51 minutes 45 seconds 897 msec
