                         Program Version 4.2.0 -  RELEASE  -
|  1> # ORCA input file
|  2> # SCF done        -24.703232192948          0.000178170544
|  3> ! B3LYP/G D3BJ Opt RIJCOSX def2-SVP def2/J
|  4> * xyz 0 1
|  5>    C       -0.90881        -1.45205        -0.00056
|  6>    C       -2.06672        -0.73476        -0.00077
|  7>    C       -2.08261         0.68567        -0.00017
|  8>    C       -0.94104         1.42868         0.00065
|  9>    C        0.27887         0.72423         0.00088
| 10>    C        0.29503        -0.72049         0.00028
| 11>    N        1.56115        -1.09600         0.00066
| 12>    O        2.27829         0.02415         0.00152
| 13>    N        1.53627         1.12797         0.00160
| 14>    H       -0.88757        -2.52917        -0.00102
| 15>    H       -3.01497        -1.25133        -0.00143
| 16>    H       -3.04218         1.18090        -0.00040
| 17>    H       -0.94389         2.50601         0.00110
| 18> *
| 19>
| 20>                          ****END OF INPUT****
 Total Charge           Charge          ....    0
 Multiplicity           Mult            ....    1
 Number of Electrons    NEL             ....   62
Dispersion correction           -0.024609810
FINAL SINGLE POINT ENERGY      -415.390113159718
Dispersion correction            ... done
Dispersion correction           -0.024541452
FINAL SINGLE POINT ENERGY      -415.392398419648
Dispersion correction            ... done
Dispersion correction           -0.024528297
FINAL SINGLE POINT ENERGY      -415.392668024048
Dispersion correction            ... done
Dispersion correction           -0.024530995
FINAL SINGLE POINT ENERGY      -415.392707492131
Dispersion correction            ... done
                    ***********************HURRAY********************

CARTESIAN COORDINATES (ANGSTROEM)
---------------------------------
  C     -0.908167   -1.463815   -0.000595
  C     -2.075472   -0.745348   -0.000749
  C     -2.091541    0.696066   -0.000157
  C     -0.940643    1.440522    0.000608
  C      0.291541    0.721594    0.000871
  C      0.307577   -0.717525    0.000251
  N      1.567221   -1.118441    0.000660
  O      2.295955    0.024125    0.001592
  N      1.541931    1.150339    0.001656
  H     -0.889173   -2.554449   -0.001101
  H     -3.031472   -1.273596   -0.001383
  H     -3.059074    1.203045   -0.000357
  H     -0.946864    2.531293    0.001043

 Multiplicity           Mult            ....    1
 Number of Electrons    NEL             ....   62
 Basis Dimension        Dim             ....  146

ORBITAL ENERGIES
----------------

  NO   OCC          E(Eh)            E(eV)
   0   2.0000     -19.267587      -524.2977
   1   2.0000     -14.398606      -391.8060
   2   2.0000     -14.398505      -391.8032
   3   2.0000     -10.246321      -278.8166
   4   2.0000     -10.246093      -278.8104
   5   2.0000     -10.227033      -278.2917
   6   2.0000     -10.226967      -278.2899
   7   2.0000     -10.226277      -278.2712
   8   2.0000     -10.226123      -278.2669
   9   2.0000      -1.198639       -32.6166
  10   2.0000      -0.917138       -24.9566
  11   2.0000      -0.901833       -24.5401
  12   2.0000      -0.825406       -22.4604
  13   2.0000      -0.772918       -21.0322
  14   2.0000      -0.682140       -18.5620
  15   2.0000      -0.656416       -17.8620
  16   2.0000      -0.612374       -16.6635
  17   2.0000      -0.552650       -15.0384
  18   2.0000      -0.524834       -14.2815
  19   2.0000      -0.513977       -13.9860
  20   2.0000      -0.498943       -13.5769
  21   2.0000      -0.471079       -12.8187
  22   2.0000      -0.434906       -11.8344
  23   2.0000      -0.406461       -11.0604
  24   2.0000      -0.395185       -10.7535
  25   2.0000      -0.390085       -10.6148
  26   2.0000      -0.345891        -9.4122
  27   2.0000      -0.337467        -9.1830
  28   2.0000      -0.323734        -8.8093
  29   2.0000      -0.302564        -8.2332
  30   2.0000      -0.259976        -7.0743
  31   0.0000      -0.097058        -2.6411
  32   0.0000      -0.007512        -0.2044
  33   0.0000      -0.003376        -0.0919
  34   0.0000       0.048947         1.3319
  35   0.0000       0.083554         2.2736

MULLIKEN ATOMIC CHARGES
-----------------------
   0 C :   -0.008127
   1 C :    0.030287
   2 C :    0.029766
   3 C :   -0.008277
   4 C :    0.001383
   5 C :   -0.000140
   6 N :    0.041843
   7 O :   -0.127336
   8 N :    0.041468
   9 H :   -0.001894
  10 H :    0.001737
  11 H :    0.001414
  12 H :   -0.002124
Sum of atomic charges:   -0.0000000

LOEWDIN ATOMIC CHARGES
----------------------
   0 C :   -0.014289
   1 C :   -0.009156
   2 C :   -0.009162
   3 C :   -0.014235
   4 C :   -0.057951
   5 C :   -0.058060
   6 N :   -0.022761
   7 O :    0.055819
   8 N :   -0.022816
   9 H :    0.041428
  10 H :    0.034927
  11 H :    0.034865
  12 H :    0.041391

  Mayer bond orders larger than 0.100000
B(  0-C ,  1-C ) :   1.5483 B(  0-C ,  3-C ) :   0.1188 B(  0-C ,  5-C ) :   1.1628
B(  0-C ,  9-H ) :   1.0123 B(  1-C ,  2-C ) :   1.1795 B(  1-C , 10-H ) :   0.9819
B(  2-C ,  3-C ) :   1.5486 B(  2-C , 11-H ) :   0.9820 B(  3-C ,  4-C ) :   1.1625
B(  3-C , 12-H ) :   1.0125 B(  4-C ,  5-C ) :   1.1458 B(  4-C ,  8-N ) :   1.5668
B(  5-C ,  6-N ) :   1.5671 B(  6-N ,  7-O ) :   1.0511 B(  6-N ,  8-N ) :   0.2020
B(  7-O ,  8-N ) :   1.0512

Dispersion correction           -0.024533179
FINAL SINGLE POINT ENERGY      -415.392710149454

DIPOLE MOMENT
-------------
                                X             Y             Z
Electronic contribution:      6.02722       0.06715       0.00273
Nuclear contribution   :     -7.61299      -0.08472      -0.00350
                        -----------------------------------------
Total Dipole Moment    :     -1.58577      -0.01757      -0.00077
                        -----------------------------------------
Magnitude (a.u.)       :      1.58586
Magnitude (Debye)      :      4.03095

Rotational constants in cm-1:     0.131942     0.056381     0.039501
Rotational constants in MHz :  3955.525152  1690.244916  1184.215122

                             ****ORCA TERMINATED NORMALLY****
TOTAL RUN TIME: 0 days 0 hours 2 minutes 57 seconds 197 msec
