                         Program Version 4.2.0 -  RELEASE  -
|  1> # ORCA input file
|  2> # SCF done        -47.020724591046          0.000606588263
|  3> ! B3LYP/G D3BJ Opt RIJCOSX def2-SVP def2/J
|  4> * xyz 0 1
|  5>    C       -0.85451        -1.44636        -0.00097
|  6>    C       -0.00382        -0.34657        -0.01054
|  7>    C       -0.49785         0.96719         0.50367
|  8>    C        1.30987        -0.46475        -0.49650
|  9>    C        2.22246         0.71834        -0.50286
| 10>    C        1.75956        -1.69176        -0.97073
| 11>    C        0.91079        -2.78125        -0.95693
| 12>    C       -0.40616        -2.67175        -0.47175
| 13>    C       -1.07144        -3.96180        -0.56664
| 14>    C       -2.35447        -4.24375        -0.19693
| 15>    C       -3.25254        -3.29704         0.34374
| 16>    N       -4.02853        -2.57600         0.78502
| 17>    C       -2.95658        -5.51709        -0.30211
| 18>    N       -3.50419        -6.52370        -0.35796
| 19>    C       -0.10642        -4.90647        -1.13406
| 20>    C        1.16876        -4.15977        -1.39554
| 21>    O        2.18069        -4.62091        -1.86763
| 22>    C       -0.22400        -6.20694        -1.40616
| 23>    H       -1.85804        -1.33125         0.37653
| 24>    H       -1.52639         0.88685         0.84397
| 25>    H       -0.44717         1.72654        -0.27586
| 26>    H        0.11865         1.30816         1.33467
| 27>    H        1.79773         1.52719        -1.09627
| 28>    H        3.19177         0.45499        -0.91662
| 29>    H        2.36642         1.09514         0.50928
| 30>    H        2.76461        -1.80513        -1.34865
| 31>    H       -1.11590        -6.78175        -1.23161
| 32>    H        0.62555        -6.72211        -1.82655
| 33> *
| 34>
| 35>                          ****END OF INPUT****
 Total Charge           Charge          ....    0
 Multiplicity           Mult            ....    1
 Number of Electrons    NEL             ....  122
Dispersion correction           -0.065906334
FINAL SINGLE POINT ENERGY      -761.801245328206
Dispersion correction            ... done
Dispersion correction           -0.065363997
FINAL SINGLE POINT ENERGY      -761.805996626421
Dispersion correction            ... done
Dispersion correction           -0.065303069
FINAL SINGLE POINT ENERGY      -761.806213074437
Dispersion correction            ... done
FINAL SINGLE POINT ENERGY      -761.806283718602
FINAL SINGLE POINT ENERGY      -761.806308108289
FINAL SINGLE POINT ENERGY      -761.806314262606
FINAL SINGLE POINT ENERGY      -761.806330178562
Dispersion correction            ... done
Dispersion correction           -0.065360036
FINAL SINGLE POINT ENERGY      -761.806339277177
Dispersion correction            ... done
Dispersion correction           -0.065359051
FINAL SINGLE POINT ENERGY      -761.806343826126
Dispersion correction            ... done
                    ***********************HURRAY********************

CARTESIAN COORDINATES (ANGSTROEM)
---------------------------------
  C     -0.867559   -1.436101    0.026197
  C     -0.003476   -0.333147    0.016524
  C     -0.474547    0.995109    0.544963
  C      1.319290   -0.459565   -0.492829
  C      2.236289    0.731044   -0.522148
  C      1.751765   -1.699541   -0.974625
  C      0.885573   -2.785409   -0.954423
  C     -0.430773   -2.676457   -0.460322
  C     -1.107940   -3.984394   -0.560841
  C     -2.409697   -4.264526   -0.212270
  C     -3.313182   -3.275537    0.291606
  N     -4.063619   -2.487244    0.697609
  C     -2.980585   -5.571039   -0.336427
  N     -3.462705   -6.624121   -0.425831
  C     -0.127406   -4.938598   -1.122469
  C      1.141025   -4.168406   -1.412903
  O      2.147699   -4.611383   -1.919954
  C     -0.194175   -6.257834   -1.369352
  H     -1.872740   -1.307509    0.421603
  H     -1.494848    0.930953    0.946532
  H     -0.465158    1.763491   -0.246313
  H      0.184785    1.364512    1.347138
  H      1.794231    1.560354   -1.097866
  H      3.203966    0.477219   -0.975532
  H      2.424107    1.121102    0.492080
  H      2.760342   -1.827068   -1.373699
  H     -1.068195   -6.876049   -1.167943
  H      0.696381   -6.731604   -1.794494

 Multiplicity           Mult            ....    1
 Number of Electrons    NEL             ....  122
 Basis Dimension        Dim             ....  302

ORBITAL ENERGIES
----------------

  NO   OCC          E(Eh)            E(eV)
   0   2.0000     -19.145852      -520.9851
   1   2.0000     -14.350679      -390.5018
   2   2.0000     -14.349999      -390.4833
   3   2.0000     -10.292713      -280.0790
   4   2.0000     -10.281345      -279.7696
   5   2.0000     -10.272536      -279.5299
   6   2.0000     -10.253152      -279.0024
   7   2.0000     -10.252274      -278.9785
   8   2.0000     -10.238279      -278.5977
   9   2.0000     -10.234167      -278.4858
  10   2.0000     -10.233993      -278.4811
  11   2.0000     -10.233883      -278.4781
  12   2.0000     -10.232287      -278.4347
  13   2.0000     -10.224218      -278.2151
  14   2.0000     -10.223778      -278.2031
  15   2.0000     -10.221792      -278.1491
  16   2.0000     -10.214225      -277.9432
  17   2.0000     -10.212544      -277.8974
  18   2.0000      -1.050954       -28.5979
  19   2.0000      -0.932616       -25.3778
  20   2.0000      -0.914971       -24.8976
  21   2.0000      -0.910514       -24.7763
  22   2.0000      -0.870391       -23.6846
  23   2.0000      -0.823739       -22.4151
  24   2.0000      -0.798771       -21.7357
  25   2.0000      -0.791656       -21.5421
  26   2.0000      -0.737325       -20.0636
  27   2.0000      -0.729911       -19.8619
  28   2.0000      -0.679256       -18.4835
  29   2.0000      -0.660057       -17.9611
  30   2.0000      -0.621827       -16.9208
  31   2.0000      -0.611733       -16.6461
  32   2.0000      -0.591406       -16.0930
  33   2.0000      -0.546435       -14.8693
  34   2.0000      -0.537603       -14.6289
  35   2.0000      -0.509001       -13.8506
  36   2.0000      -0.497527       -13.5384
  37   2.0000      -0.470520       -12.8035
  38   2.0000      -0.468994       -12.7620
  39   2.0000      -0.466440       -12.6925
  40   2.0000      -0.454409       -12.3651
  41   2.0000      -0.452752       -12.3200
  42   2.0000      -0.436391       -11.8748
  43   2.0000      -0.426086       -11.5944
  44   2.0000      -0.423989       -11.5373
  45   2.0000      -0.419746       -11.4219
  46   2.0000      -0.414180       -11.2704
  47   2.0000      -0.410486       -11.1699
  48   2.0000      -0.385758       -10.4970
  49   2.0000      -0.384788       -10.4706
  50   2.0000      -0.381944       -10.3932
  51   2.0000      -0.380223       -10.3464
  52   2.0000      -0.379058       -10.3147
  53   2.0000      -0.365013        -9.9325
  54   2.0000      -0.358448        -9.7539
  55   2.0000      -0.350224        -9.5301
  56   2.0000      -0.348558        -9.4847
  57   2.0000      -0.293919        -7.9979
  58   2.0000      -0.283062        -7.7025
  59   2.0000      -0.277022        -7.5381
  60   2.0000      -0.263565        -7.1720
  61   0.0000      -0.124543        -3.3890
  62   0.0000      -0.099037        -2.6949
  63   0.0000      -0.030307        -0.8247
  64   0.0000      -0.020138        -0.5480
  65   0.0000      -0.002016        -0.0549

MULLIKEN ATOMIC CHARGES
-----------------------
   0 C :   -0.058926
   1 C :   -0.078762
   2 C :    0.106234
   3 C :   -0.071318
   4 C :    0.111555
   5 C :   -0.055221
   6 C :   -0.016049
   7 C :    0.045146
   8 C :    0.267770
   9 C :   -0.302886
  10 C :   -0.133580
  11 N :    0.105061
  12 C :   -0.144600
  13 N :    0.106355
  14 C :   -0.119677
  15 C :    0.145648
  16 O :   -0.148276
  17 C :    0.006769
  18 H :   -0.014633
  19 H :    0.024431
  20 H :    0.033006
  21 H :    0.026027
  22 H :    0.029878
  23 H :    0.016605
  24 H :    0.028735
  25 H :   -0.018327
  26 H :    0.056682
  27 H :    0.052353
Sum of atomic charges:    0.0000000

LOEWDIN ATOMIC CHARGES
----------------------
   0 C :   -0.003175
   1 C :   -0.000285
   2 C :   -0.041522
   3 C :   -0.001486
   4 C :   -0.040911
   5 C :    0.009551
   6 C :   -0.046737
   7 C :   -0.013816
   8 C :    0.065391
   9 C :   -0.120851
  10 C :   -0.011105
  11 N :   -0.054111
  12 C :   -0.010929
  13 N :   -0.050835
  14 C :   -0.070226
  15 C :    0.079958
  16 O :   -0.134521
  17 C :    0.062098
  18 H :    0.035998
  19 H :    0.036079
  20 H :    0.040341
  21 H :    0.037901
  22 H :    0.039495
  23 H :    0.033356
  24 H :    0.039383
  25 H :    0.037119
  26 H :    0.039987
  27 H :    0.043852

  Mayer bond orders larger than 0.100000
B(  0-C ,  1-C ) :   1.3855 B(  0-C ,  7-C ) :   1.3196 B(  0-C , 18-H ) :   0.9757
B(  1-C ,  2-C ) :   1.1148 B(  1-C ,  3-C ) :   1.3377 B(  2-C , 19-H ) :   0.9461
B(  2-C , 20-H ) :   0.9352 B(  2-C , 21-H ) :   0.9361 B(  3-C ,  4-C ) :   1.1104
B(  3-C ,  5-C ) :   1.3505 B(  4-C , 22-H ) :   0.9359 B(  4-C , 23-H ) :   0.9488
B(  4-C , 24-H ) :   0.9363 B(  5-C ,  6-C ) :   1.3439 B(  5-C , 25-H ) :   0.9978
B(  6-C ,  7-C ) :   1.3112 B(  6-C , 15-C ) :   0.9402 B(  7-C ,  8-C ) :   1.0218
B(  8-C ,  9-C ) :   1.6289 B(  8-C , 14-C ) :   1.0007 B(  9-C , 10-C ) :   1.1350
B(  9-C , 12-C ) :   1.1400 B( 10-C , 11-N ) :   2.9304 B( 12-C , 13-N ) :   2.9392
B( 14-C , 15-C ) :   0.9111 B( 14-C , 17-C ) :   1.9230 B( 15-C , 16-O ) :   2.2269
B( 17-C , 26-H ) :   0.9198 B( 17-C , 27-H ) :   0.9095

Dispersion correction           -0.065360018
FINAL SINGLE POINT ENERGY      -761.806344961611

DIPOLE MOMENT
-------------
                                X             Y             Z
Electronic contribution:     -9.09524     -17.01140      -1.54430
Nuclear contribution   :     10.58335      18.77347       1.59469
                        -----------------------------------------
Total Dipole Moment    :      1.48811       1.76206       0.05039
                        -----------------------------------------
Magnitude (a.u.)       :      2.30692
Magnitude (Debye)      :      5.86372

Rotational constants in cm-1:     0.021656     0.011113     0.007368
Rotational constants in MHz :   649.230842   333.165355   220.880572

                             ****ORCA TERMINATED NORMALLY****
TOTAL RUN TIME: 0 days 0 hours 26 minutes 22 seconds 721 msec
