                         Program Version 4.2.0 -  RELEASE  -
|  1> # ORCA input file
|  2> # SCF done        -33.667089557727          0.000754362665
|  3> ! B3LYP/G D3BJ Opt RIJCOSX def2-SVP def2/J
|  4> * xyz 0 1
|  5>    C       -0.99522         0.12164         0.39240
|  6>    C       -0.14644         1.12406         0.04877
|  7>    O        0.96281         0.63381        -0.53389
|  8>    C        0.84511        -0.69287        -0.55240
|  9>    C       -0.35090        -1.08712        -0.00609
| 10>    C       -0.76511        -2.48945         0.14209
| 11>    O        0.05727        -3.38513         0.22572
| 12>    C       -2.19549        -2.79212         0.16397
| 13>    C       -2.73099        -4.02067         0.46881
| 14>    C       -4.12911        -4.05944         0.35457
| 15>    C       -4.64822        -2.86729        -0.05354
| 16>    S       -3.44447        -1.67491        -0.29065
| 17>    H       -1.93619         0.22434         0.89078
| 18>    H       -0.21366         2.18782         0.16172
| 19>    H        1.63584        -1.27086        -0.98798
| 20>    H       -2.11688        -4.85064         0.76836
| 21>    H       -4.72518        -4.93084         0.55821
| 22>    H       -5.67617        -2.61771        -0.22935
| 23> *
| 24>
| 25>                          ****END OF INPUT****
 Total Charge           Charge          ....    0
 Multiplicity           Mult            ....    1
 Number of Electrons    NEL             ....   92
Dispersion correction           -0.039137281
FINAL SINGLE POINT ENERGY      -894.731834582363
Dispersion correction            ... done
Dispersion correction           -0.038827671
FINAL SINGLE POINT ENERGY      -894.734859198511
Dispersion correction            ... done
Dispersion correction           -0.038932768
FINAL SINGLE POINT ENERGY      -894.735029389929
Dispersion correction            ... done
FINAL SINGLE POINT ENERGY      -894.735161189346
FINAL SINGLE POINT ENERGY      -894.735244479766
FINAL SINGLE POINT ENERGY      -894.735289461909
FINAL SINGLE POINT ENERGY      -894.735320696793
FINAL SINGLE POINT ENERGY      -894.735344838859
FINAL SINGLE POINT ENERGY      -894.735366136762
Dispersion correction            ... done
Dispersion correction           -0.038846486
FINAL SINGLE POINT ENERGY      -894.735377152977
Dispersion correction            ... done
Dispersion correction           -0.038843552
FINAL SINGLE POINT ENERGY      -894.735391340603
Dispersion correction            ... done
                    ***********************HURRAY********************

CARTESIAN COORDINATES (ANGSTROEM)
---------------------------------
  C     -0.997439    0.192701    0.324993
  C     -0.103711    1.173124    0.016855
  O      1.044196    0.628898   -0.475244
  C      0.897296   -0.708796   -0.468536
  C     -0.346093   -1.057179    0.003629
  C     -0.786889   -2.469468    0.111253
  O      0.034523   -3.375137    0.133653
  C     -2.232236   -2.793408    0.160704
  C     -2.735056   -4.054384    0.423107
  C     -4.151167   -4.118052    0.352125
  C     -4.714304   -2.905017    0.021269
  S     -3.527870   -1.679732   -0.201099
  H     -1.979440    0.341183    0.763472
  H     -0.126663    2.256525    0.099809
  H      1.728652   -1.307861   -0.828681
  H     -2.071962   -4.887005    0.656637
  H     -4.736053   -5.019466    0.537412
  H     -5.768784   -2.664304   -0.109857

 Multiplicity           Mult            ....    1
 Number of Electrons    NEL             ....   92
 Basis Dimension        Dim             ....  202

ORBITAL ENERGIES
----------------

  NO   OCC          E(Eh)            E(eV)
   0   2.0000     -88.888832     -2418.7881
   1   2.0000     -19.218669      -522.9666
   2   2.0000     -19.117364      -520.2099
   3   2.0000     -10.283289      -279.8225
   4   2.0000     -10.254729      -279.0454
   5   2.0000     -10.250874      -278.9405
   6   2.0000     -10.229213      -278.3510
   7   2.0000     -10.220669      -278.1185
   8   2.0000     -10.206980      -277.7461
   9   2.0000     -10.205876      -277.7160
  10   2.0000     -10.203359      -277.6475
  11   2.0000     -10.201707      -277.6026
  12   2.0000      -7.983542      -217.2432
  13   2.0000      -5.951613      -161.9516
  14   2.0000      -5.947355      -161.8358
  15   2.0000      -5.945164      -161.7761
  16   2.0000      -1.122323       -30.5400
  17   2.0000      -1.025956       -27.9177
  18   2.0000      -0.890743       -24.2384
  19   2.0000      -0.814491       -22.1634
  20   2.0000      -0.759266       -20.6607
  21   2.0000      -0.746105       -20.3025
  22   2.0000      -0.743004       -20.2182
  23   2.0000      -0.657454       -17.8902
  24   2.0000      -0.608893       -16.5688
  25   2.0000      -0.579926       -15.7806
  26   2.0000      -0.571920       -15.5627
  27   2.0000      -0.548618       -14.9286
  28   2.0000      -0.526421       -14.3246
  29   2.0000      -0.488370       -13.2892
  30   2.0000      -0.472865       -12.8673
  31   2.0000      -0.455285       -12.3889
  32   2.0000      -0.444719       -12.1014
  33   2.0000      -0.435561       -11.8522
  34   2.0000      -0.420658       -11.4467
  35   2.0000      -0.416757       -11.3405
  36   2.0000      -0.409291       -11.1374
  37   2.0000      -0.394145       -10.7252
  38   2.0000      -0.382920       -10.4198
  39   2.0000      -0.374055       -10.1785
  40   2.0000      -0.358178        -9.7465
  41   2.0000      -0.294850        -8.0233
  42   2.0000      -0.269110        -7.3229
  43   2.0000      -0.262478        -7.1424
  44   2.0000      -0.252016        -6.8577
  45   2.0000      -0.246882        -6.7180
  46   0.0000      -0.073859        -2.0098
  47   0.0000      -0.014906        -0.4056
  48   0.0000       0.005816         0.1583
  49   0.0000       0.038469         1.0468
  50   0.0000       0.049108         1.3363

MULLIKEN ATOMIC CHARGES
-----------------------
   0 C :   -0.030113
   1 C :    0.129428
   2 O :   -0.191989
   3 C :    0.120884
   4 C :   -0.061401
   5 C :    0.180608
   6 O :   -0.205153
   7 C :   -0.174972
   8 C :    0.040383
   9 C :    0.050937
  10 C :   -0.076643
  11 S :    0.128396
  12 H :   -0.000587
  13 H :    0.019991
  14 H :    0.025384
  15 H :    0.007006
  16 H :   -0.000824
  17 H :    0.038665
Sum of atomic charges:   -0.0000000

LOEWDIN ATOMIC CHARGES
----------------------
   0 C :   -0.074204
   1 C :    0.034450
   2 O :    0.018826
   3 C :    0.079365
   4 C :   -0.117279
   5 C :    0.066093
   6 O :   -0.169334
   7 C :   -0.221833
   8 C :   -0.015797
   9 C :   -0.061955
  10 C :   -0.177407
  11 S :    0.453804
  12 H :    0.024754
  13 H :    0.026358
  14 H :    0.032964
  15 H :    0.039540
  16 H :    0.033202
  17 H :    0.028452

  Mayer bond orders larger than 0.100000
B(  0-C ,  1-C ) :   1.5797 B(  0-C ,  4-C ) :   1.2129 B(  0-C , 12-H ) :   0.9863
B(  1-C ,  2-O ) :   1.1191 B(  1-C , 13-H ) :   0.9962 B(  2-O ,  3-C ) :   1.1792
B(  3-C ,  4-C ) :   1.5039 B(  3-C , 14-H ) :   1.0000 B(  4-C ,  5-C ) :   0.9706
B(  5-C ,  6-O ) :   2.1516 B(  5-C ,  7-C ) :   1.0030 B(  7-C ,  8-C ) :   1.5048
B(  7-C , 11-S ) :   1.1245 B(  8-C ,  9-C ) :   1.2596 B(  8-C , 15-H ) :   0.9915
B(  9-C , 10-C ) :   1.5174 B(  9-C , 16-H ) :   0.9913 B( 10-C , 11-S ) :   1.1904
B( 10-C , 17-H ) :   0.9695

Dispersion correction           -0.038841344
FINAL SINGLE POINT ENERGY      -894.735399660137

DIPOLE MOMENT
-------------
                                X             Y             Z
Electronic contribution:      1.83585       1.37306      -0.99821
Nuclear contribution   :     -2.83897      -0.77498       1.03237
                        -----------------------------------------
Total Dipole Moment    :     -1.00312       0.59808       0.03416
                        -----------------------------------------
Magnitude (a.u.)       :      1.16838
Magnitude (Debye)      :      2.96979

Rotational constants in cm-1:     0.065917     0.017908     0.014340
Rotational constants in MHz :  1976.130589   536.868806   429.893829

                             ****ORCA TERMINATED NORMALLY****
TOTAL RUN TIME: 0 days 0 hours 13 minutes 25 seconds 849 msec
