                         Program Version 4.2.0 -  RELEASE  -
|  1> # ORCA input file
|  2> # SCF done        -23.701517474765          0.000662790916
|  3> ! B3LYP/G D3BJ Opt RIJCOSX def2-SVP def2/J
|  4> * xyz 0 1
|  5>    C       -0.91748         1.36940         0.00252
|  6>    C        0.26154         0.62905         0.00176
|  7>    C        0.19736        -0.78347         0.00069
|  8>    C       -1.01644        -1.44967         0.00039
|  9>    C       -2.17197        -0.69367         0.00116
| 10>    C       -2.12194         0.69964         0.00221
| 11>    S        1.80959        -1.43687        -0.00008
| 12>    C        2.40490         0.21112         0.00108
| 13>    N        1.53052         1.13488         0.00193
| 14>    H       -0.86377         2.44621         0.00333
| 15>    H       -1.05202        -2.52796        -0.00043
| 16>    H       -3.13037        -1.19061         0.00094
| 17>    H       -3.04479         1.25996         0.00279
| 18>    H        3.46236         0.39066         0.00104
| 19> *
| 20>
| 21>                          ****END OF INPUT****
 Total Charge           Charge          ....    0
 Multiplicity           Mult            ....    1
 Number of Electrons    NEL             ....   70
Dispersion correction           -0.030738700
FINAL SINGLE POINT ENERGY      -722.387020197730
Dispersion correction            ... done
Dispersion correction           -0.030658171
FINAL SINGLE POINT ENERGY      -722.389466025850
Dispersion correction            ... done
Dispersion correction           -0.030642612
FINAL SINGLE POINT ENERGY      -722.389539401930
Dispersion correction            ... done
Dispersion correction           -0.030637682
FINAL SINGLE POINT ENERGY      -722.389545988454
Dispersion correction            ... done
Dispersion correction           -0.030636174
FINAL SINGLE POINT ENERGY      -722.389545104288
Dispersion correction            ... done
                    ***********************HURRAY********************

CARTESIAN COORDINATES (ANGSTROEM)
---------------------------------
  C     -0.921633    1.374804    0.002506
  C      0.267007    0.627543    0.001744
  C      0.202958   -0.791891    0.000698
  C     -1.024435   -1.464061    0.000384
  C     -2.190694   -0.701753    0.001146
  C     -2.140332    0.705980    0.002213
  S      1.826813   -1.441400   -0.000001
  C      2.430572    0.217493    0.001076
  N      1.545701    1.155075    0.001905
  H     -0.858589    2.464766    0.003369
  H     -1.069168   -2.555114   -0.000481
  H     -3.159329   -1.206899    0.000910
  H     -3.070797    1.277722    0.002849
  H      3.509416    0.396405    0.001011

 Multiplicity           Mult            ....    1
 Number of Electrons    NEL             ....   70
 Basis Dimension        Dim             ....  155

ORBITAL ENERGIES
----------------

  NO   OCC          E(Eh)            E(eV)
   0   2.0000     -88.881437     -2418.5869
   1   2.0000     -14.333567      -390.0362
   2   2.0000     -10.256678      -279.0984
   3   2.0000     -10.227192      -278.2960
   4   2.0000     -10.226831      -278.2862
   5   2.0000     -10.208370      -277.7839
   6   2.0000     -10.202020      -277.6111
   7   2.0000     -10.199852      -277.5521
   8   2.0000     -10.199161      -277.5333
   9   2.0000      -7.977087      -217.0676
  10   2.0000      -5.945181      -161.7766
  11   2.0000      -5.941484      -161.6760
  12   2.0000      -5.937859      -161.5774
  13   2.0000      -0.965539       -26.2737
  14   2.0000      -0.850473       -23.1425
  15   2.0000      -0.803587       -21.8667
  16   2.0000      -0.743837       -20.2408
  17   2.0000      -0.730565       -19.8797
  18   2.0000      -0.629305       -17.1243
  19   2.0000      -0.600952       -16.3527
  20   2.0000      -0.583392       -15.8749
  21   2.0000      -0.497724       -13.5438
  22   2.0000      -0.493548       -13.4301
  23   2.0000      -0.485735       -13.2175
  24   2.0000      -0.445383       -12.1195
  25   2.0000      -0.429917       -11.6986
  26   2.0000      -0.420088       -11.4312
  27   2.0000      -0.403700       -10.9852
  28   2.0000      -0.377369       -10.2687
  29   2.0000      -0.352999        -9.6056
  30   2.0000      -0.349059        -9.4984
  31   2.0000      -0.311305        -8.4711
  32   2.0000      -0.280653        -7.6370
  33   2.0000      -0.251621        -6.8470
  34   2.0000      -0.243697        -6.6313
  35   0.0000      -0.045087        -1.2269
  36   0.0000      -0.017495        -0.4761
  37   0.0000       0.016433         0.4472
  38   0.0000       0.023899         0.6503
  39   0.0000       0.067725         1.8429

MULLIKEN ATOMIC CHARGES
-----------------------
   0 C :   -0.017123
   1 C :    0.062134
   2 C :   -0.031795
   3 C :   -0.049722
   4 C :    0.031498
   5 C :    0.020444
   6 S :    0.080534
   7 C :    0.003884
   8 N :   -0.092818
   9 H :   -0.015776
  10 H :   -0.014914
  11 H :   -0.013027
  12 H :   -0.012783
  13 H :    0.049462
Sum of atomic charges:   -0.0000000

LOEWDIN ATOMIC CHARGES
----------------------
   0 C :   -0.016834
   1 C :   -0.031608
   2 C :   -0.170168
   3 C :   -0.041109
   4 C :   -0.023249
   5 C :   -0.027567
   6 S :    0.370218
   7 C :   -0.109824
   8 N :   -0.097832
   9 H :    0.036117
  10 H :    0.030932
  11 H :    0.029066
  12 H :    0.029216
  13 H :    0.022642

  Mayer bond orders larger than 0.100000
B(  0-C ,  1-C ) :   1.3350 B(  0-C ,  3-C ) :   0.1006 B(  0-C ,  5-C ) :   1.3904
B(  0-C ,  9-H ) :   0.9999 B(  1-C ,  2-C ) :   1.3112 B(  1-C ,  8-N ) :   1.2715
B(  2-C ,  3-C ) :   1.3543 B(  2-C ,  6-S ) :   1.0650 B(  3-C ,  4-C ) :   1.4213
B(  3-C , 10-H ) :   0.9975 B(  4-C ,  5-C ) :   1.3304 B(  4-C , 11-H ) :   0.9849
B(  5-C , 12-H ) :   0.9845 B(  6-S ,  7-C ) :   1.1008 B(  6-S ,  8-N ) :   0.1220
B(  7-C ,  8-N ) :   1.7509 B(  7-C , 13-H ) :   0.9574

Dispersion correction           -0.030635932
FINAL SINGLE POINT ENERGY      -722.389544120716

DIPOLE MOMENT
-------------
                                X             Y             Z
Electronic contribution:      5.42993      -1.90361      -0.00225
Nuclear contribution   :     -5.61308       1.43868       0.00196
                        -----------------------------------------
Total Dipole Moment    :     -0.18316      -0.46493      -0.00029
                        -----------------------------------------
Magnitude (a.u.)       :      0.49970
Magnitude (Debye)      :      1.27014

Rotational constants in cm-1:     0.105233     0.044286     0.031169
Rotational constants in MHz :  3154.814607  1327.671220   934.427173

                             ****ORCA TERMINATED NORMALLY****
TOTAL RUN TIME: 0 days 0 hours 3 minutes 40 seconds 690 msec
