                         Program Version 4.2.0 -  RELEASE  -
|  1> # ORCA input file
|  2> # SCF done        -23.888568006529          0.000281372279
|  3> ! B3LYP/G D3BJ Opt RIJCOSX def2-SVP def2/J
|  4> * xyz 0 1
|  5>    C       -0.93181        -1.43557         0.00040
|  6>    C       -2.10044        -0.73232         0.00021
|  7>    C       -2.11554         0.68177         0.00010
|  8>    C       -0.96220         1.40982         0.00018
|  9>    C        0.26903         0.72216         0.00039
| 10>    C        0.28445        -0.72177         0.00050
| 11>    N        1.49954        -1.25928         0.00066
| 12>   Se        2.68575         0.02592         0.00098
| 13>    N        1.47237         1.28549         0.00046
| 14>    H       -0.90802        -2.51376         0.00047
| 15>    H       -3.04368        -1.25812         0.00011
| 16>    H       -3.06979         1.18731        -0.00008
| 17>    H       -0.96144         2.48827         0.00009
| 18> *
| 19>
| 20>                          ****END OF INPUT****
 Total Charge           Charge          ....    0
 Multiplicity           Mult            ....    1
 Number of Electrons    NEL             ....   88
Dispersion correction           -0.028870134
FINAL SINGLE POINT ENERGY     -2741.585843481560
Dispersion correction            ... done
Dispersion correction           -0.028757734
FINAL SINGLE POINT ENERGY     -2741.589447439168
Dispersion correction            ... done
Dispersion correction           -0.028721764
FINAL SINGLE POINT ENERGY     -2741.590307866194
Dispersion correction            ... done
FINAL SINGLE POINT ENERGY     -2741.590526346202
Dispersion correction            ... done
Dispersion correction           -0.028753715
FINAL SINGLE POINT ENERGY     -2741.590599051061
Dispersion correction            ... done
Dispersion correction           -0.028766227
FINAL SINGLE POINT ENERGY     -2741.590610134358
Dispersion correction            ... done
                    ***********************HURRAY********************

CARTESIAN COORDINATES (ANGSTROEM)
---------------------------------
  C     -0.936435   -1.450073    0.000389
  C     -2.109369   -0.743970    0.000231
  C     -2.124729    0.693290    0.000121
  C     -0.967069    1.423993    0.000173
  C      0.290019    0.735145    0.000443
  C      0.306023   -0.734846    0.000552
  N      1.503359   -1.306385    0.000616
  Se     2.711325    0.026558    0.001039
  N      1.474377    1.332750    0.000422
  H     -0.912422   -2.541113    0.000410
  H     -3.062162   -1.278642    0.000128
  H     -3.088550    1.207938   -0.000069
  H     -0.966147    2.515274    0.000016

 Multiplicity           Mult            ....    1
 Number of Electrons    NEL             ....   88
 Basis Dimension        Dim             ....  164

ORBITAL ENERGIES
----------------

  NO   OCC          E(Eh)            E(eV)
   0   2.0000    -453.892891    -12351.0535
   1   2.0000     -58.113053     -1581.3366
   2   2.0000     -52.181779     -1419.9384
   3   2.0000     -52.179693     -1419.8816
   4   2.0000     -52.179044     -1419.8640
   5   2.0000     -14.354226      -390.5983
   6   2.0000     -14.354157      -390.5965
   7   2.0000     -10.240806      -278.6665
   8   2.0000     -10.240640      -278.6620
   9   2.0000     -10.210281      -277.8359
  10   2.0000     -10.210076      -277.8303
  11   2.0000     -10.207162      -277.7510
  12   2.0000     -10.207063      -277.7483
  13   2.0000      -7.877757      -214.3647
  14   2.0000      -5.825939      -158.5319
  15   2.0000      -5.819889      -158.3672
  16   2.0000      -5.815670      -158.2524
  17   2.0000      -2.178314       -59.2749
  18   2.0000      -2.178065       -59.2682
  19   2.0000      -2.173427       -59.1420
  20   2.0000      -2.168512       -59.0082
  21   2.0000      -2.168405       -59.0053
  22   2.0000      -0.979530       -26.6544
  23   2.0000      -0.873345       -23.7649
  24   2.0000      -0.846332       -23.0299
  25   2.0000      -0.745400       -20.2834
  26   2.0000      -0.743923       -20.2432
  27   2.0000      -0.643973       -17.5234
  28   2.0000      -0.598842       -16.2953
  29   2.0000      -0.595888       -16.2149
  30   2.0000      -0.496996       -13.5239
  31   2.0000      -0.492421       -13.3995
  32   2.0000      -0.485595       -13.2137
  33   2.0000      -0.448115       -12.1938
  34   2.0000      -0.437567       -11.9068
  35   2.0000      -0.389404       -10.5962
  36   2.0000      -0.387511       -10.5447
  37   2.0000      -0.384187       -10.4543
  38   2.0000      -0.350433        -9.5358
  39   2.0000      -0.334302        -9.0968
  40   2.0000      -0.307728        -8.3737
  41   2.0000      -0.292007        -7.9459
  42   2.0000      -0.260894        -7.0993
  43   2.0000      -0.244052        -6.6410
  44   0.0000      -0.095859        -2.6085
  45   0.0000      -0.022154        -0.6028
  46   0.0000       0.000844         0.0230
  47   0.0000       0.004842         0.1318
  48   0.0000       0.048593         1.3223

MULLIKEN ATOMIC CHARGES
-----------------------
   0 C :   -0.001338
   1 C :    0.031328
   2 C :    0.030858
   3 C :   -0.001062
   4 C :    0.040969
   5 C :    0.040970
   6 N :   -0.287152
   7 Se:    0.473145
   8 N :   -0.286881
   9 H :   -0.013726
  10 H :   -0.006404
  11 H :   -0.006729
  12 H :   -0.013978
Sum of atomic charges:   -0.0000000

LOEWDIN ATOMIC CHARGES
----------------------
   0 C :   -0.022176
   1 C :   -0.017698
   2 C :   -0.017753
   3 C :   -0.022043
   4 C :   -0.046180
   5 C :   -0.046172
   6 N :   -0.243996
   7 Se:    0.523411
   8 N :   -0.243870
   9 H :    0.036722
  10 H :    0.031566
  11 H :    0.031501
  12 H :    0.036688

  Mayer bond orders larger than 0.100000
B(  0-C ,  1-C ) :   1.5374 B(  0-C ,  3-C ) :   0.1099 B(  0-C ,  5-C ) :   1.1742
B(  0-C ,  9-H ) :   1.0036 B(  1-C ,  2-C ) :   1.1691 B(  1-C , 10-H ) :   0.9833
B(  2-C ,  3-C ) :   1.5376 B(  2-C , 11-H ) :   0.9833 B(  3-C ,  4-C ) :   1.1742
B(  3-C , 12-H ) :   1.0036 B(  4-C ,  5-C ) :   1.0866 B(  4-C ,  8-N ) :   1.5668
B(  5-C ,  6-N ) :   1.5666 B(  6-N ,  7-Se) :   1.2102 B(  6-N ,  8-N ) :   0.1453
B(  7-Se,  8-N ) :   1.2101

Dispersion correction           -0.028769707
FINAL SINGLE POINT ENERGY     -2741.590612332873

DIPOLE MOMENT
-------------
                                X             Y             Z
Electronic contribution:     28.54107       0.30814       0.00617
Nuclear contribution   :    -28.95401      -0.31195      -0.00595
                        -----------------------------------------
Total Dipole Moment    :     -0.41294      -0.00381       0.00022
                        -----------------------------------------
Magnitude (a.u.)       :      0.41296
Magnitude (Debye)      :      1.04966

Rotational constants in cm-1:     0.120595     0.027375     0.022311
Rotational constants in MHz :  3615.336494   820.689431   668.857332

                             ****ORCA TERMINATED NORMALLY****
TOTAL RUN TIME: 0 days 0 hours 5 minutes 38 seconds 751 msec
