                         Program Version 4.2.0 -  RELEASE  -
|  1> # ORCA input file
|  2> # SCF done        -38.611198648284          0.000739560680
|  3> ! B3LYP/G D3BJ Opt RIJCOSX def2-SVP def2/J
|  4> * xyz 0 1
|  5>    C        1.35445        -1.33527        -0.00129
|  6>    O        1.75884        -2.47218        -0.00172
|  7>    C       -0.01147        -0.83192         0.00059
|  8>    C       -0.04207         0.56126         0.00209
|  9>    C       -1.35490         1.07397         0.00336
| 10>    C       -2.27100         0.06479         0.00256
| 11>    S       -1.57782        -1.51397         0.00070
| 12>    C        1.30640         1.07828         0.00131
| 13>    C        1.65755         2.39638         0.00480
| 14>    C        0.69016         3.42613         0.01124
| 15>    N       -0.08280         4.27306         0.01656
| 16>    C        2.98391         2.87816         0.00580
| 17>    N        4.04011         3.32573         0.00636
| 18>    C        2.20043        -0.08670        -0.00166
| 19>    C        3.53173        -0.14232        -0.00598
| 20>    H       -1.61137         2.11694         0.00440
| 21>    H       -3.33937         0.16071         0.00288
| 22>    H        4.16443         0.72774        -0.00889
| 23>    H        4.01107        -1.10826        -0.01012
| 24> *
| 25>
| 26>                          ****END OF INPUT****
 Total Charge           Charge          ....    0
 Multiplicity           Mult            ....    1
 Number of Electrons    NEL             ....  108
Dispersion correction           -0.049582146
FINAL SINGLE POINT ENERGY     -1003.905191988821
Dispersion correction            ... done
Dispersion correction           -0.049326139
FINAL SINGLE POINT ENERGY     -1003.909045168295
Dispersion correction            ... done
Dispersion correction           -0.049312537
FINAL SINGLE POINT ENERGY     -1003.909250704393
Dispersion correction            ... done
FINAL SINGLE POINT ENERGY     -1003.909342046535
FINAL SINGLE POINT ENERGY     -1003.909376854811
FINAL SINGLE POINT ENERGY     -1003.909403842930
FINAL SINGLE POINT ENERGY     -1003.909411723946
Dispersion correction            ... done
Dispersion correction           -0.049372590
FINAL SINGLE POINT ENERGY     -1003.909422272597
Dispersion correction            ... done
Dispersion correction           -0.049375312
FINAL SINGLE POINT ENERGY     -1003.909427269798
Dispersion correction            ... done
                    ***********************HURRAY********************

CARTESIAN COORDINATES (ANGSTROEM)
---------------------------------
  C      1.367724   -1.334224   -0.005227
  O      1.767743   -2.475370   -0.009755
  C     -0.012542   -0.824429   -0.001634
  C     -0.045754    0.569623    0.002211
  C     -1.377399    1.082285    0.005628
  C     -2.295611    0.058625    0.004505
  S     -1.575364   -1.525268   -0.000605
  C      1.319903    1.097424    0.001888
  C      1.661896    2.429486    0.004946
  C      0.658172    3.450568    0.008711
  N     -0.169914    4.265013    0.011833
  C      3.015338    2.892356    0.004360
  N      4.107703    3.287625    0.003590
  C      2.224425   -0.075608   -0.002271
  C      3.563631   -0.155778   -0.003173
  H     -1.654019    2.134591    0.008710
  H     -3.381132    0.155920    0.006477
  H      4.220770    0.713455   -0.000962
  H      4.012711   -1.153764   -0.006243

 Multiplicity           Mult            ....    1
 Number of Electrons    NEL             ....  108
 Basis Dimension        Dim             ....  234

ORBITAL ENERGIES
----------------

  NO   OCC          E(Eh)            E(eV)
   0   2.0000     -88.925346     -2419.7817
   1   2.0000     -19.153961      -521.2058
   2   2.0000     -14.356361      -390.6565
   3   2.0000     -14.356181      -390.6515
   4   2.0000     -10.309199      -280.5276
   5   2.0000     -10.289174      -279.9827
   6   2.0000     -10.281702      -279.7793
   7   2.0000     -10.261417      -279.2274
   8   2.0000     -10.258316      -279.1430
   9   2.0000     -10.258204      -279.1399
  10   2.0000     -10.254053      -279.0270
  11   2.0000     -10.252286      -278.9789
  12   2.0000     -10.241876      -278.6956
  13   2.0000     -10.239527      -278.6317
  14   2.0000     -10.239175      -278.6221
  15   2.0000      -8.019694      -218.2270
  16   2.0000      -5.987707      -162.9338
  17   2.0000      -5.983484      -162.8189
  18   2.0000      -5.981337      -162.7605
  19   2.0000      -1.061114       -28.8744
  20   2.0000      -0.945652       -25.7325
  21   2.0000      -0.930776       -25.3277
  22   2.0000      -0.920478       -25.0475
  23   2.0000      -0.883300       -24.0358
  24   2.0000      -0.826185       -22.4816
  25   2.0000      -0.789365       -21.4797
  26   2.0000      -0.778260       -21.1775
  27   2.0000      -0.698592       -19.0096
  28   2.0000      -0.681602       -18.5473
  29   2.0000      -0.622861       -16.9489
  30   2.0000      -0.599725       -16.3194
  31   2.0000      -0.590129       -16.0582
  32   2.0000      -0.550234       -14.9726
  33   2.0000      -0.536113       -14.5884
  34   2.0000      -0.492404       -13.3990
  35   2.0000      -0.489179       -13.3112
  36   2.0000      -0.474676       -12.9166
  37   2.0000      -0.461026       -12.5452
  38   2.0000      -0.449019       -12.2184
  39   2.0000      -0.433459       -11.7950
  40   2.0000      -0.426869       -11.6157
  41   2.0000      -0.417475       -11.3601
  42   2.0000      -0.410557       -11.1718
  43   2.0000      -0.396230       -10.7820
  44   2.0000      -0.390664       -10.6305
  45   2.0000      -0.384503       -10.4629
  46   2.0000      -0.370604       -10.0846
  47   2.0000      -0.369350       -10.0505
  48   2.0000      -0.362352        -9.8601
  49   2.0000      -0.358218        -9.7476
  50   2.0000      -0.306357        -8.3364
  51   2.0000      -0.290955        -7.9173
  52   2.0000      -0.288815        -7.8590
  53   2.0000      -0.272479        -7.4145
  54   0.0000      -0.129062        -3.5119
  55   0.0000      -0.107106        -2.9145
  56   0.0000      -0.029250        -0.7959
  57   0.0000      -0.024951        -0.6790
  58   0.0000       0.004826         0.1313

MULLIKEN ATOMIC CHARGES
-----------------------
   0 C :    0.136019
   1 O :   -0.141655
   2 C :   -0.161033
   3 C :    0.008846
   4 C :    0.033607
   5 C :   -0.065566
   6 S :    0.210953
   7 C :    0.262447
   8 C :   -0.284431
   9 C :   -0.146245
  10 N :    0.116780
  11 C :   -0.149836
  12 N :    0.116900
  13 C :   -0.141250
  14 C :    0.014700
  15 H :    0.023626
  16 H :    0.053937
  17 H :    0.058044
  18 H :    0.054158
Sum of atomic charges:    0.0000000

LOEWDIN ATOMIC CHARGES
----------------------
   0 C :    0.064162
   1 O :   -0.130555
   2 C :   -0.206373
   3 C :   -0.033795
   4 C :   -0.041515
   5 C :   -0.144329
   6 S :    0.503256
   7 C :    0.062635
   8 C :   -0.117128
   9 C :   -0.011025
  10 N :   -0.050211
  11 C :   -0.013455
  12 N :   -0.044746
  13 C :   -0.066971
  14 C :    0.060302
  15 H :    0.045883
  16 H :    0.036599
  17 H :    0.041714
  18 H :    0.045551

  Mayer bond orders larger than 0.100000
B(  0-C ,  1-O ) :   2.2105 B(  0-C ,  2-C ) :   1.0413 B(  0-C , 13-C ) :   0.9122
B(  2-C ,  3-C ) :   1.4090 B(  2-C ,  6-S ) :   1.1354 B(  3-C ,  4-C ) :   1.2567
B(  3-C ,  7-C ) :   1.0445 B(  4-C ,  5-C ) :   1.5282 B(  4-C , 15-H ) :   0.9910
B(  5-C ,  6-S ) :   1.1739 B(  5-C , 16-H ) :   0.9594 B(  7-C ,  8-C ) :   1.6464
B(  7-C , 13-C ) :   0.9992 B(  8-C ,  9-C ) :   1.1313 B(  8-C , 11-C ) :   1.1376
B(  9-C , 10-N ) :   2.9580 B( 11-C , 12-N ) :   2.9467 B( 13-C , 14-C ) :   1.9414
B( 14-C , 17-H ) :   0.9212 B( 14-C , 18-H ) :   0.9112

Dispersion correction           -0.049374608
FINAL SINGLE POINT ENERGY     -1003.909427694825

DIPOLE MOMENT
-------------
                                X             Y             Z
Electronic contribution:     -1.53394      -0.52338      -0.00163
Nuclear contribution   :      0.31622      -0.50367       0.00236
                        -----------------------------------------
Total Dipole Moment    :     -1.21772      -1.02704       0.00073
                        -----------------------------------------
Magnitude (a.u.)       :      1.59300
Magnitude (Debye)      :      4.04909

Rotational constants in cm-1:     0.028174     0.015725     0.010092
Rotational constants in MHz :   844.641509   471.438131   302.562432

                             ****ORCA TERMINATED NORMALLY****
TOTAL RUN TIME: 0 days 0 hours 14 minutes 50 seconds 110 msec
