                         Program Version 4.2.0 -  RELEASE  -
|  1> # ORCA input file
|  2> # SCF done        -65.824027020408          0.000944647642
|  3> ! B3LYP/G D3BJ Opt RIJCOSX def2-SVP def2/J
|  4> * xyz 0 1
|  5>    C       -1.27853         0.29503         0.66524
|  6>    C       -0.41228        -0.47513         1.42473
|  7>    C        0.93968        -0.48699         1.14065
|  8>    C        1.44741         0.27208         0.08811
|  9>    C        0.57154         1.06008        -0.65569
| 10>    C       -0.78157         1.06472        -0.37324
| 11>    C        2.88862         0.28050        -0.21598
| 12>    C        3.47446         1.61361        -0.43309
| 13>    C        4.32489         1.86138        -1.50891
| 14>    C        4.84996         3.12348        -1.71073
| 15>    C        4.53503         4.15778        -0.84444
| 16>    C        3.68044         3.92499         0.22040
| 17>    C        3.14780         2.66557         0.42098
| 18>    C        3.61715        -0.85504        -0.28819
| 19>    C        2.99898        -2.19142        -0.25348
| 20>    C        1.88367        -2.48971        -1.03345
| 21>    C        1.32454        -3.75277        -1.00227
| 22>    C        1.86920        -4.73785        -0.19526
| 23>    C        2.98645        -4.45581         0.57282
| 24>    C        3.55213        -3.19522         0.53918
| 25>    C        5.08516        -0.85019        -0.40276
| 26>    C        5.86848        -0.03574         0.41284
| 27>    C        7.24624        -0.06182         0.31271
| 28>    C        7.86413        -0.89977        -0.60113
| 29>    C        7.09523        -1.72185        -1.40808
| 30>    C        5.71704        -1.70359        -1.30523
| 31>    H       -2.33593         0.29928         0.88576
| 32>    H       -0.79252        -1.06682         2.24460
| 33>    H        1.61376        -1.07815         1.74239
| 34>    H        0.95825         1.65936        -1.46792
| 35>    H       -1.45149         1.67231        -0.96472
| 36>    H        4.56329         1.06039        -2.19344
| 37>    H        5.50620         3.30264        -2.55015
| 38>    H        4.94958         5.14267        -1.00195
| 39>    H        3.42660         4.72901         0.89626
| 40>    H        2.48186         2.48447         1.25322
| 41>    H        1.46283        -1.72741        -1.67274
| 42>    H        0.46080        -3.97096        -1.61295
| 43>    H        1.42807        -5.72342        -0.16949
| 44>    H        3.41923        -5.22160         1.19961
| 45>    H        4.42241        -2.97505         1.14135
| 46>    H        5.39053         0.61028         1.13474
| 47>    H        7.84218         0.57199         0.95323
| 48>    H        8.94125        -0.91644        -0.67997
| 49>    H        7.57178        -2.38154        -2.11884
| 50>    H        5.11774        -2.34522        -1.93620
| 51> *
| 52>
| 53>                          ****END OF INPUT****
 Total Charge           Charge          ....    0
 Multiplicity           Mult            ....    1
 Number of Electrons    NEL             ....  176
Dispersion correction           -0.121732293
FINAL SINGLE POINT ENERGY     -1002.204690151261
Dispersion correction            ... done
Dispersion correction           -0.118547617
FINAL SINGLE POINT ENERGY     -1002.211587640644
Dispersion correction            ... done
Dispersion correction           -0.119567727
FINAL SINGLE POINT ENERGY     -1002.211703269093
Dispersion correction            ... done
FINAL SINGLE POINT ENERGY     -1002.212108016700
FINAL SINGLE POINT ENERGY     -1002.212070440230
Dispersion correction            ... done
Dispersion correction           -0.119268755
FINAL SINGLE POINT ENERGY     -1002.212026927382
Dispersion correction            ... done
Dispersion correction           -0.119251463
FINAL SINGLE POINT ENERGY     -1002.212012794772
Dispersion correction            ... done
                    ***********************HURRAY********************

CARTESIAN COORDINATES (ANGSTROEM)
---------------------------------
  C     -1.285794    0.390345    0.885594
  C     -0.400561   -0.434101    1.586924
  C      0.943739   -0.492766    1.219190
  C      1.432223    0.269151    0.141831
  C      0.530400    1.097202   -0.551485
  C     -0.815766    1.152715   -0.187700
  C      2.879248    0.264374   -0.212104
  C      3.465978    1.606530   -0.486286
  C      4.294071    1.828420   -1.601514
  C      4.803200    3.098434   -1.872355
  C      4.498943    4.173601   -1.031887
  C      3.673553    3.969117    0.078374
  C      3.158195    2.699624    0.344088
  C      3.617484   -0.885534   -0.270437
  C      2.989183   -2.235235   -0.291961
  C      1.940011   -2.528893   -1.181204
  C      1.386852   -3.808445   -1.236848
  C      1.868427   -4.818782   -0.398670
  C      2.910188   -4.540467    0.492356
  C      3.473965   -3.264822    0.535385
  C      5.104646   -0.874883   -0.333576
  C      5.861661   -0.049880    0.518478
  C      7.254582   -0.040327    0.452136
  C      7.920790   -0.859104   -0.465687
  C      7.182852   -1.701377   -1.302935
  C      5.789109   -1.716516   -1.229518
  H     -2.334988    0.449979    1.186078
  H     -0.758262   -1.025606    2.433507
  H      1.632537   -1.125925    1.779692
  H      0.896868    1.707740   -1.379252
  H     -1.500443    1.800511   -0.740317
  H      4.536303    0.994767   -2.262039
  H      5.437492    3.253345   -2.748543
  H      4.898661    5.166912   -1.250347
  H      3.423353    4.803080    0.738835
  H      2.502892    2.544686    1.203937
  H      1.561716   -1.740551   -1.833357
  H      0.576418   -4.020756   -1.938516
  H      1.433737   -5.820190   -0.443540
  H      3.292203   -5.324884    1.150303
  H      4.300350   -3.054362    1.217530
  H      5.345141    0.590900    1.234523
  H      7.824918    0.608612    1.121143
  H      9.012378   -0.845113   -0.524423
  H      7.697621   -2.350195   -2.015836
  H      5.216197   -2.379220   -1.881046

 Multiplicity           Mult            ....    1
 Number of Electrons    NEL             ....  176
 Basis Dimension        Dim             ....  464

ORBITAL ENERGIES
----------------

  NO   OCC          E(Eh)            E(eV)
   0   2.0000     -10.199886      -277.5530
   1   2.0000     -10.199144      -277.5328
   2   2.0000     -10.196839      -277.4701
   3   2.0000     -10.196607      -277.4638
   4   2.0000     -10.196475      -277.4602
   5   2.0000     -10.196454      -277.4596
   6   2.0000     -10.190584      -277.2999
   7   2.0000     -10.190479      -277.2970
   8   2.0000     -10.190243      -277.2906
   9   2.0000     -10.190154      -277.2882
  10   2.0000     -10.190049      -277.2853
  11   2.0000     -10.189973      -277.2833
  12   2.0000     -10.189825      -277.2792
  13   2.0000     -10.189795      -277.2784
  14   2.0000     -10.189567      -277.2722
  15   2.0000     -10.189324      -277.2656
  16   2.0000     -10.189125      -277.2602
  17   2.0000     -10.188987      -277.2564
  18   2.0000     -10.188788      -277.2510
  19   2.0000     -10.188247      -277.2363
  20   2.0000     -10.188221      -277.2356
  21   2.0000     -10.188101      -277.2323
  22   2.0000     -10.188012      -277.2299
  23   2.0000     -10.187771      -277.2233
  24   2.0000     -10.187620      -277.2192
  25   2.0000     -10.187601      -277.2187
  26   2.0000      -0.869749       -23.6671
  27   2.0000      -0.850828       -23.1522
  28   2.0000      -0.845431       -23.0054
  29   2.0000      -0.841569       -22.9003
  30   2.0000      -0.804425       -21.8895
  31   2.0000      -0.763556       -20.7774
  32   2.0000      -0.743221       -20.2241
  33   2.0000      -0.737933       -20.0802
  34   2.0000      -0.735891       -20.0246
  35   2.0000      -0.735344       -20.0097
  36   2.0000      -0.733313       -19.9545
  37   2.0000      -0.729031       -19.8379
  38   2.0000      -0.694626       -18.9017
  39   2.0000      -0.637114       -17.3367
  40   2.0000      -0.607480       -16.5304
  41   2.0000      -0.605099       -16.4656
  42   2.0000      -0.598811       -16.2945
  43   2.0000      -0.595483       -16.2039
  44   2.0000      -0.590285       -16.0625
  45   2.0000      -0.590014       -16.0551
  46   2.0000      -0.574541       -15.6341
  47   2.0000      -0.544457       -14.8154
  48   2.0000      -0.525355       -14.2956
  49   2.0000      -0.512992       -13.9592
  50   2.0000      -0.510646       -13.8954
  51   2.0000      -0.484447       -13.1825
  52   2.0000      -0.469345       -12.7715
  53   2.0000      -0.465762       -12.6740
  54   2.0000      -0.458472       -12.4757
  55   2.0000      -0.450396       -12.2559
  56   2.0000      -0.449040       -12.2190
  57   2.0000      -0.446286       -12.1441
  58   2.0000      -0.441968       -12.0265
  59   2.0000      -0.435733       -11.8569
  60   2.0000      -0.430270       -11.7082
  61   2.0000      -0.421385       -11.4665
  62   2.0000      -0.420905       -11.4534
  63   2.0000      -0.419207       -11.4072
  64   2.0000      -0.418693       -11.3932
  65   2.0000      -0.414102       -11.2683
  66   2.0000      -0.399726       -10.8771
  67   2.0000      -0.374986       -10.2039
  68   2.0000      -0.370888       -10.0924
  69   2.0000      -0.367455        -9.9989
  70   2.0000      -0.362976        -9.8771
  71   2.0000      -0.359007        -9.7691
  72   2.0000      -0.355371        -9.6701
  73   2.0000      -0.353184        -9.6106
  74   2.0000      -0.347177        -9.4472
  75   2.0000      -0.343329        -9.3425
  76   2.0000      -0.342881        -9.3303
  77   2.0000      -0.337581        -9.1860
  78   2.0000      -0.326556        -8.8860
  79   2.0000      -0.295241        -8.0339
  80   2.0000      -0.269708        -7.3391
  81   2.0000      -0.262832        -7.1520
  82   2.0000      -0.262427        -7.1410
  83   2.0000      -0.258486        -7.0338
  84   2.0000      -0.251161        -6.8344
  85   2.0000      -0.249328        -6.7845
  86   2.0000      -0.245323        -6.6756
  87   2.0000      -0.201854        -5.4927
  88   0.0000      -0.057836        -1.5738
  89   0.0000      -0.023201        -0.6313
  90   0.0000      -0.019851        -0.5402
  91   0.0000      -0.010177        -0.2769
  92   0.0000      -0.006327        -0.1722

MULLIKEN ATOMIC CHARGES
-----------------------
   0 C :    0.020925
   1 C :    0.017680
   2 C :    0.033147
   3 C :   -0.018931
   4 C :    0.004524
   5 C :    0.017345
   6 C :    0.040710
   7 C :   -0.038689
   8 C :    0.044485
   9 C :    0.010861
  10 C :    0.030559
  11 C :    0.011625
  12 C :    0.012098
  13 C :    0.026927
  14 C :   -0.042575
  15 C :    0.044332
  16 C :    0.015033
  17 C :    0.024295
  18 C :    0.016265
  19 C :    0.016238
  20 C :   -0.031023
  21 C :    0.038300
  22 C :    0.019429
  23 C :    0.011039
  24 C :    0.019281
  25 C :    0.015290
  26 H :   -0.017857
  27 H :   -0.020367
  28 H :   -0.018642
  29 H :   -0.014835
  30 H :   -0.018442
  31 H :   -0.019560
  32 H :   -0.018230
  33 H :   -0.021015
  34 H :   -0.018250
  35 H :   -0.013593
  36 H :   -0.019721
  37 H :   -0.017627
  38 H :   -0.019532
  39 H :   -0.018767
  40 H :   -0.016148
  41 H :   -0.018035
  42 H :   -0.019652
  43 H :   -0.012284
  44 H :   -0.020405
  45 H :   -0.016209
Sum of atomic charges:    0.0000000

LOEWDIN ATOMIC CHARGES
----------------------
   0 C :   -0.026620
   1 C :   -0.025904
   2 C :   -0.010283
   3 C :   -0.022284
   4 C :   -0.017523
   5 C :   -0.027631
   6 C :   -0.012342
   7 C :   -0.023272
   8 C :   -0.009313
   9 C :   -0.026422
  10 C :   -0.025810
  11 C :   -0.028143
  12 C :   -0.017487
  13 C :   -0.013351
  14 C :   -0.022569
  15 C :   -0.010362
  16 C :   -0.026123
  17 C :   -0.026114
  18 C :   -0.027046
  19 C :   -0.018246
  20 C :   -0.022266
  21 C :   -0.010427
  22 C :   -0.025430
  23 C :   -0.028859
  24 C :   -0.027133
  25 C :   -0.017622
  26 H :    0.025751
  27 H :    0.026789
  28 H :    0.029259
  29 H :    0.028481
  30 H :    0.026675
  31 H :    0.029201
  32 H :    0.027082
  33 H :    0.025227
  34 H :    0.026724
  35 H :    0.028685
  36 H :    0.028751
  37 H :    0.027279
  38 H :    0.025529
  39 H :    0.026748
  40 H :    0.028479
  41 H :    0.029197
  42 H :    0.027112
  43 H :    0.026735
  44 H :    0.026431
  45 H :    0.028445

  Mayer bond orders larger than 0.100000
B(  0-C ,  1-C ) :   1.3701 B(  0-C ,  5-C ) :   1.3726 B(  0-C , 26-H ) :   0.9855
B(  1-C ,  2-C ) :   1.3849 B(  1-C , 27-H ) :   0.9848 B(  2-C ,  3-C ) :   1.3699
B(  2-C , 28-H ) :   0.9820 B(  3-C ,  4-C ) :   1.3684 B(  3-C ,  6-C ) :   0.9948
B(  4-C ,  5-C ) :   1.3791 B(  4-C , 29-H ) :   0.9845 B(  5-C , 30-H ) :   0.9840
B(  6-C ,  7-C ) :   0.9881 B(  6-C , 13-C ) :   1.7397 B(  7-C ,  8-C ) :   1.3759
B(  7-C , 12-C ) :   1.3752 B(  8-C ,  9-C ) :   1.3799 B(  8-C , 31-H ) :   0.9816
B(  9-C , 10-C ) :   1.3750 B(  9-C , 32-H ) :   0.9835 B( 10-C , 11-C ) :   1.3726
B( 10-C , 33-H ) :   0.9850 B( 11-C , 12-C ) :   1.3773 B( 11-C , 34-H ) :   0.9830
B( 12-C , 35-H ) :   0.9840 B( 13-C , 14-C ) :   0.9880 B( 13-C , 20-C ) :   0.9984
B( 14-C , 15-C ) :   1.3777 B( 14-C , 19-C ) :   1.3711 B( 15-C , 16-C ) :   1.3762
B( 15-C , 36-H ) :   0.9835 B( 16-C , 17-C ) :   1.3746 B( 16-C , 37-H ) :   0.9856
B( 17-C , 18-C ) :   1.3707 B( 17-C , 38-H ) :   0.9852 B( 18-C , 19-C ) :   1.3766
B( 18-C , 39-H ) :   0.9844 B( 19-C , 40-H ) :   0.9866 B( 20-C , 21-C ) :   1.3731
B( 20-C , 25-C ) :   1.3738 B( 21-C , 22-C ) :   1.3849 B( 21-C , 41-H ) :   0.9816
B( 22-C , 23-C ) :   1.3723 B( 22-C , 42-H ) :   0.9826 B( 23-C , 24-C ) :   1.3766
B( 23-C , 43-H ) :   0.9842 B( 24-C , 25-C ) :   1.3767 B( 24-C , 44-H ) :   0.9831
B( 25-C , 45-H ) :   0.9834

Dispersion correction           -0.119238690
FINAL SINGLE POINT ENERGY     -1002.212015715614

DIPOLE MOMENT
-------------
                                X             Y             Z
Electronic contribution:     -0.01664      -0.12548       0.02307
Nuclear contribution   :      0.01115       0.13929      -0.02532
                        -----------------------------------------
Total Dipole Moment    :     -0.00549       0.01381      -0.00226
                        -----------------------------------------
Magnitude (a.u.)       :      0.01503
Magnitude (Debye)      :      0.03821

Rotational constants in cm-1:     0.008068     0.007239     0.004270
Rotational constants in MHz :   241.862338   217.020138   128.010891

                             ****ORCA TERMINATED NORMALLY****
TOTAL RUN TIME: 0 days 0 hours 59 minutes 24 seconds 530 msec
