                         Program Version 4.2.0 -  RELEASE  -
|  1> # ORCA input file
|  2> # SCF done        -21.630138137980          0.000936837429
|  3> ! B3LYP/G D3BJ Opt RIJCOSX def2-SVP def2/J
|  4> * xyz 0 1
|  5>    C        1.01144         1.33977         0.00204
|  6>    C        2.14512         0.60003        -0.00133
|  7>    S        1.87147        -1.11711        -0.00559
|  8>    C        0.17910        -0.83673        -0.00276
|  9>    C       -0.14523         0.52117         0.00128
| 10>    N       -1.47638         0.77240         0.00359
| 11>    C       -2.15460        -0.30912         0.00153
| 12>    S       -1.23878        -1.81146        -0.00362
| 13>    H        0.98263         2.41302         0.00494
| 14>    H        3.15940         0.94683        -0.00165
| 15>    H       -3.22555        -0.34266         0.00275
| 16> *
| 17>
| 18>                          ****END OF INPUT****
 Total Charge           Charge          ....    0
 Multiplicity           Mult            ....    1
 Number of Electrons    NEL             ....   72
Dispersion correction           -0.027030756
FINAL SINGLE POINT ENERGY     -1043.074567366238
Dispersion correction            ... done
Dispersion correction           -0.026982432
FINAL SINGLE POINT ENERGY     -1043.076729648677
Dispersion correction            ... done
Dispersion correction           -0.026967923
FINAL SINGLE POINT ENERGY     -1043.076843074698
Dispersion correction            ... done
FINAL SINGLE POINT ENERGY     -1043.076862875510
Dispersion correction            ... done
Dispersion correction           -0.026955790
FINAL SINGLE POINT ENERGY     -1043.076863246172
Dispersion correction            ... done
Dispersion correction           -0.026954758
FINAL SINGLE POINT ENERGY     -1043.076863387307
Dispersion correction            ... done
                    ***********************HURRAY********************

CARTESIAN COORDINATES (ANGSTROEM)
---------------------------------
  C      1.019449    1.342547    0.001875
  C      2.169546    0.604703   -0.001385
  S      1.885673   -1.126720   -0.005979
  C      0.181591   -0.854435   -0.002962
  C     -0.144190    0.506635    0.001007
  N     -1.489026    0.787667    0.003473
  C     -2.178294   -0.306452    0.001678
  S     -1.252478   -1.817835   -0.003240
  H      0.988556    2.431914    0.005112
  H      3.197442    0.965059   -0.001214
  H     -3.269648   -0.356943    0.002814

 Multiplicity           Mult            ....    1
 Number of Electrons    NEL             ....   72
 Basis Dimension        Dim             ....  135

ORBITAL ENERGIES
----------------

  NO   OCC          E(Eh)            E(eV)
   0   2.0000     -88.891862     -2418.8705
   1   2.0000     -88.889727     -2418.8124
   2   2.0000     -14.337949      -390.1554
   3   2.0000     -10.255677      -279.0712
   4   2.0000     -10.238723      -278.6098
   5   2.0000     -10.226267      -278.2709
   6   2.0000     -10.223533      -278.1965
   7   2.0000     -10.204436      -277.6768
   8   2.0000      -7.986784      -217.3314
   9   2.0000      -7.984129      -217.2592
  10   2.0000      -5.955063      -162.0455
  11   2.0000      -5.952725      -161.9819
  12   2.0000      -5.951089      -161.9374
  13   2.0000      -5.948477      -161.8663
  14   2.0000      -5.947596      -161.8423
  15   2.0000      -5.944724      -161.7642
  16   2.0000      -0.970445       -26.4071
  17   2.0000      -0.876122       -23.8405
  18   2.0000      -0.805315       -21.9137
  19   2.0000      -0.737073       -20.0568
  20   2.0000      -0.714134       -19.4326
  21   2.0000      -0.608091       -16.5470
  22   2.0000      -0.572528       -15.5793
  23   2.0000      -0.552145       -15.0246
  24   2.0000      -0.483834       -13.1658
  25   2.0000      -0.467136       -12.7114
  26   2.0000      -0.440692       -11.9918
  27   2.0000      -0.436349       -11.8737
  28   2.0000      -0.404014       -10.9938
  29   2.0000      -0.375254       -10.2112
  30   2.0000      -0.362262        -9.8577
  31   2.0000      -0.359885        -9.7930
  32   2.0000      -0.310873        -8.4593
  33   2.0000      -0.283935        -7.7263
  34   2.0000      -0.248508        -6.7622
  35   2.0000      -0.236884        -6.4460
  36   0.0000      -0.034035        -0.9261
  37   0.0000      -0.015634        -0.4254
  38   0.0000       0.019113         0.5201
  39   0.0000       0.029126         0.7925
  40   0.0000       0.050062         1.3623

MULLIKEN ATOMIC CHARGES
-----------------------
   0 C :    0.041839
   1 C :   -0.100068
   2 S :    0.123447
   3 C :   -0.210493
   4 C :    0.052040
   5 N :   -0.077873
   6 C :   -0.007511
   7 S :    0.094932
   8 H :   -0.002517
   9 H :    0.035230
  10 H :    0.050975
Sum of atomic charges:    0.0000000

LOEWDIN ATOMIC CHARGES
----------------------
   0 C :   -0.057770
   1 C :   -0.176787
   2 S :    0.415308
   3 C :   -0.369388
   4 C :   -0.074580
   5 N :   -0.091812
   6 C :   -0.120246
   7 S :    0.386036
   8 H :    0.039448
   9 H :    0.027309
  10 H :    0.022482

  Mayer bond orders larger than 0.100000
B(  0-C ,  1-C ) :   1.5756 B(  0-C ,  4-C ) :   1.2256 B(  0-C ,  8-H ) :   1.0057
B(  1-C ,  2-S ) :   1.1332 B(  1-C ,  9-H ) :   0.9624 B(  2-S ,  3-C ) :   1.1134
B(  3-C ,  4-C ) :   1.3829 B(  3-C ,  7-S ) :   1.1113 B(  4-C ,  5-N ) :   1.3102
B(  5-N ,  6-C ) :   1.7300 B(  5-N ,  7-S ) :   0.1158 B(  6-C ,  7-S ) :   1.1058
B(  6-C , 10-H ) :   0.9588

Dispersion correction           -0.026955589
FINAL SINGLE POINT ENERGY     -1043.076864556630

DIPOLE MOMENT
-------------
                                X             Y             Z
Electronic contribution:     -0.36093      -4.47585      -0.01180
Nuclear contribution   :      0.57974       4.20873       0.01123
                        -----------------------------------------
Total Dipole Moment    :      0.21881      -0.26712      -0.00057
                        -----------------------------------------
Magnitude (a.u.)       :      0.34530
Magnitude (Debye)      :      0.87768

Rotational constants in cm-1:     0.103181     0.048004     0.032762
Rotational constants in MHz :  3093.288867  1439.127699   982.177546

                             ****ORCA TERMINATED NORMALLY****
TOTAL RUN TIME: 0 days 0 hours 3 minutes 7 seconds 818 msec
