                         Program Version 4.2.0 -  RELEASE  -
|  1> # ORCA input file
|  2> # SCF done        -34.088336711618          0.000254451741
|  3> ! B3LYP/G D3BJ Opt RIJCOSX def2-SVP def2/J
|  4> * xyz 0 1
|  5>    C        0.24635        -1.45911        -0.06023
|  6>    C       -0.93975        -0.73406        -0.03652
|  7>    C       -0.93201         0.70444         0.06844
|  8>    N       -2.10494         1.39209         0.08863
|  9>    C       -3.20548         0.71065         0.00975
| 10>    C       -3.21311        -0.70736        -0.09371
| 11>    N       -2.11998        -1.40477        -0.11544
| 12>    C        0.26179         1.41251         0.14930
| 13>    C        1.44781         0.69228         0.12439
| 14>    C        1.44002        -0.75562         0.01875
| 15>    N        2.68546        -1.25642         0.01033
| 16>    S        3.72339        -0.04758         0.12151
| 17>    N        2.69855         1.17563         0.18780
| 18>    H        0.22709        -2.53326        -0.13859
| 19>    H       -4.13032         1.27210         0.02624
| 20>    H       -4.14391        -1.25533        -0.15816
| 21>    H        0.25409         2.48680         0.22773
| 22> *
| 23>
| 24>                          ****END OF INPUT****
 Total Charge           Charge          ....    0
 Multiplicity           Mult            ....    1
 Number of Electrons    NEL             ....   96
Dispersion correction           -0.041342600
FINAL SINGLE POINT ENERGY      -923.962013455356
Dispersion correction            ... done
Dispersion correction           -0.041178490
FINAL SINGLE POINT ENERGY      -923.965867047926
Dispersion correction            ... done
Dispersion correction           -0.041163616
FINAL SINGLE POINT ENERGY      -923.966331699999
Dispersion correction            ... done
FINAL SINGLE POINT ENERGY      -923.966484396503
FINAL SINGLE POINT ENERGY      -923.966501495489
Dispersion correction            ... done
Dispersion correction           -0.041191064
FINAL SINGLE POINT ENERGY      -923.966514032132
Dispersion correction            ... done
Dispersion correction           -0.041187457
FINAL SINGLE POINT ENERGY      -923.966518213173
Dispersion correction            ... done
                    ***********************HURRAY********************

CARTESIAN COORDINATES (ANGSTROEM)
---------------------------------
  C      0.250636   -1.465659   -0.067038
  C     -0.938420   -0.741589   -0.048485
  C     -0.930486    0.713595    0.059180
  N     -2.117231    1.410205    0.090935
  C     -3.216719    0.720211    0.020019
  C     -3.224270   -0.717970   -0.092761
  N     -2.132087   -1.422046   -0.128493
  C      0.266644    1.420866    0.134789
  C      1.476615    0.699470    0.119141
  C      1.467940   -0.761849    0.018556
  N      2.704308   -1.295693    0.024034
  S      3.750553   -0.050012    0.143856
  N      2.719833    1.213250    0.195412
  H      0.221058   -2.552242   -0.148282
  H     -4.169255    1.264148    0.047933
  H     -4.182350   -1.249433   -0.153246
  H      0.248279    2.507739    0.214670

 Multiplicity           Mult            ....    1
 Number of Electrons    NEL             ....   96
 Basis Dimension        Dim             ....  206

ORBITAL ENERGIES
----------------

  NO   OCC          E(Eh)            E(eV)
   0   2.0000     -88.951293     -2420.4877
   1   2.0000     -14.367353      -390.9555
   2   2.0000     -14.367271      -390.9533
   3   2.0000     -14.352504      -390.5515
   4   2.0000     -14.352366      -390.5477
   5   2.0000     -10.253523      -279.0125
   6   2.0000     -10.253339      -279.0075
   7   2.0000     -10.250299      -278.9248
   8   2.0000     -10.250125      -278.9201
   9   2.0000     -10.249179      -278.8944
  10   2.0000     -10.248985      -278.8891
  11   2.0000     -10.216986      -278.0183
  12   2.0000     -10.216849      -278.0146
  13   2.0000      -8.042201      -218.8394
  14   2.0000      -6.011861      -163.5911
  15   2.0000      -6.004621      -163.3941
  16   2.0000      -6.004078      -163.3793
  17   2.0000      -1.028249       -27.9801
  18   2.0000      -0.988326       -26.8937
  19   2.0000      -0.919754       -25.0278
  20   2.0000      -0.894045       -24.3282
  21   2.0000      -0.858538       -23.3620
  22   2.0000      -0.775961       -21.1150
  23   2.0000      -0.762149       -20.7391
  24   2.0000      -0.700331       -19.0570
  25   2.0000      -0.656167       -17.8552
  26   2.0000      -0.631252       -17.1772
  27   2.0000      -0.610493       -16.6124
  28   2.0000      -0.570633       -15.5277
  29   2.0000      -0.543023       -14.7764
  30   2.0000      -0.530478       -14.4350
  31   2.0000      -0.482202       -13.1214
  32   2.0000      -0.472885       -12.8679
  33   2.0000      -0.470195       -12.7947
  34   2.0000      -0.462110       -12.5747
  35   2.0000      -0.442670       -12.0457
  36   2.0000      -0.432265       -11.7625
  37   2.0000      -0.412932       -11.2365
  38   2.0000      -0.396388       -10.7863
  39   2.0000      -0.367090        -9.9890
  40   2.0000      -0.352953        -9.6044
  41   2.0000      -0.337919        -9.1952
  42   2.0000      -0.337300        -9.1784
  43   2.0000      -0.320864        -8.7312
  44   2.0000      -0.310213        -8.4413
  45   2.0000      -0.279774        -7.6130
  46   2.0000      -0.260412        -7.0862
  47   2.0000      -0.241211        -6.5637
  48   0.0000      -0.123227        -3.3532
  49   0.0000      -0.057659        -1.5690
  50   0.0000      -0.030649        -0.8340
  51   0.0000      -0.000063        -0.0017
  52   0.0000       0.013674         0.3721

MULLIKEN ATOMIC CHARGES
-----------------------
   0 C :   -0.048868
   1 C :    0.035634
   2 C :    0.034857
   3 N :   -0.053514
   4 C :    0.030455
   5 C :    0.030488
   6 N :   -0.053849
   7 C :   -0.049223
   8 C :    0.084231
   9 C :    0.083379
  10 N :   -0.286861
  11 S :    0.499248
  12 N :   -0.286724
  13 H :   -0.021717
  14 H :    0.012206
  15 H :    0.012049
  16 H :   -0.021789
Sum of atomic charges:   -0.0000000

LOEWDIN ATOMIC CHARGES
----------------------
   0 C :   -0.008295
   1 C :   -0.009054
   2 C :   -0.009005
   3 N :   -0.046136
   4 C :    0.007531
   5 C :    0.007565
   6 N :   -0.046133
   7 C :   -0.008394
   8 C :   -0.050464
   9 C :   -0.050615
  10 N :   -0.286180
  11 S :    0.646399
  12 N :   -0.286395
  13 H :    0.043888
  14 H :    0.025736
  15 H :    0.025717
  16 H :    0.043835

  Mayer bond orders larger than 0.100000
B(  0-C ,  1-C ) :   1.3430 B(  0-C ,  7-C ) :   0.1693 B(  0-C ,  9-C ) :   1.1921
B(  0-C , 13-H ) :   1.0363 B(  1-C ,  2-C ) :   1.1219 B(  1-C ,  6-N ) :   1.3325
B(  2-C ,  3-N ) :   1.3331 B(  2-C ,  7-C ) :   1.3434 B(  3-N ,  4-C ) :   1.7326
B(  4-C ,  5-C ) :   1.1424 B(  4-C , 14-H ) :   0.9636 B(  5-C ,  6-N ) :   1.7328
B(  5-C , 15-H ) :   0.9636 B(  7-C ,  8-C ) :   1.1919 B(  7-C , 16-H ) :   1.0363
B(  8-C ,  9-C ) :   1.1207 B(  8-C , 12-N ) :   1.4388 B(  9-C , 10-N ) :   1.4393
B( 10-N , 11-S ) :   1.2761 B( 10-N , 12-N ) :   0.1804 B( 11-S , 12-N ) :   1.2761

Dispersion correction           -0.041187369
FINAL SINGLE POINT ENERGY      -923.966518757421

DIPOLE MOMENT
-------------
                                X             Y             Z
Electronic contribution:      8.50467      -0.06201       0.21061
Nuclear contribution   :     -8.90064       0.06355      -0.21568
                        -----------------------------------------
Total Dipole Moment    :     -0.39597       0.00154      -0.00506
                        -----------------------------------------
Magnitude (a.u.)       :      0.39600
Magnitude (Debye)      :      1.00656

Rotational constants in cm-1:     0.082051     0.015092     0.012748
Rotational constants in MHz :  2459.827670   452.456734   382.170737

                             ****ORCA TERMINATED NORMALLY****
TOTAL RUN TIME: 0 days 0 hours 9 minutes 41 seconds 888 msec
