                         Program Version 4.2.0 -  RELEASE  -
|  1> # ORCA input file
|  2> # SCF done        -40.995786669707          0.000866555087
|  3> ! B3LYP/G D3BJ Opt RIJCOSX def2-SVP def2/J
|  4> * xyz 0 1
|  5>    C       -2.44056        -0.60287        -0.00003
|  6>    C       -1.32905        -1.59539        -0.00121
|  7>    O       -1.42937        -2.79413        -0.00145
|  8>    C       -0.08205        -0.78218        -0.00067
|  9>    C       -0.39617         0.58638        -0.00043
| 10>    C       -1.87293         0.77470        -0.00079
| 11>    O       -2.48529         1.81017        -0.00064
| 12>    C        0.62241         1.52573         0.00010
| 13>    C        1.95193         1.11429         0.00037
| 14>    C        2.26114        -0.23277         0.00014
| 15>    C        1.24431        -1.18296        -0.00037
| 16>    F        1.57280        -2.47504        -0.00057
| 17>    F        0.35419         2.83165         0.00036
| 18>    C       -3.73861        -0.90105         0.00102
| 19>    H        2.73085         1.86071         0.00082
| 20>    H        3.28768        -0.56459         0.00039
| 21>    H       -4.06956        -1.92727        -0.00139
| 22>    H       -4.48472        -0.12271        -0.00099
| 23> *
| 24>
| 25>                          ****END OF INPUT****
 Total Charge           Charge          ....    0
 Multiplicity           Mult            ....    1
 Number of Electrons    NEL             ....   98
Dispersion correction           -0.038791046
FINAL SINGLE POINT ENERGY      -733.066623954250
Dispersion correction            ... done
Dispersion correction           -0.038664117
FINAL SINGLE POINT ENERGY      -733.068090784368
Dispersion correction            ... done
Dispersion correction           -0.038651595
FINAL SINGLE POINT ENERGY      -733.068125721928
Dispersion correction            ... done
Dispersion correction           -0.038645272
FINAL SINGLE POINT ENERGY      -733.068107172438
Dispersion correction            ... done
Dispersion correction           -0.038654448
FINAL SINGLE POINT ENERGY      -733.068135833771
Dispersion correction            ... done
                    ***********************HURRAY********************

CARTESIAN COORDINATES (ANGSTROEM)
---------------------------------
  C     -2.454551   -0.608788   -0.000642
  C     -1.333130   -1.605640   -0.000771
  O     -1.429665   -2.811308   -0.000925
  C     -0.074388   -0.790227   -0.000400
  C     -0.391460    0.585758   -0.000171
  C     -1.876893    0.773327   -0.000276
  O     -2.486365    1.817735    0.000236
  C      0.623362    1.538729    0.000117
  C      1.958660    1.126158    0.000214
  C      2.273879   -0.235716    0.000026
  C      1.258609   -1.196081   -0.000276
  F      1.588175   -2.484103   -0.000439
  F      0.341432    2.838062    0.000259
  C     -3.759643   -0.899542   -0.000873
  H      2.744915    1.883182    0.000450
  H      3.312660   -0.571405    0.000108
  H     -4.095249   -1.940106   -0.001195
  H     -4.503347   -0.097362   -0.000781

 Multiplicity           Mult            ....    1
 Number of Electrons    NEL             ....   98
 Basis Dimension        Dim             ....  216

ORBITAL ENERGIES
----------------

  NO   OCC          E(Eh)            E(eV)
   0   2.0000     -24.724835      -672.7970
   1   2.0000     -24.724635      -672.7915
   2   2.0000     -19.145816      -520.9842
   3   2.0000     -19.145109      -520.9649
   4   2.0000     -10.310426      -280.5609
   5   2.0000     -10.310296      -280.5574
   6   2.0000     -10.298811      -280.2449
   7   2.0000     -10.297849      -280.2187
   8   2.0000     -10.240225      -278.6507
   9   2.0000     -10.239839      -278.6402
  10   2.0000     -10.236085      -278.5380
  11   2.0000     -10.235272      -278.5159
  12   2.0000     -10.234812      -278.5034
  13   2.0000     -10.217877      -278.0426
  14   2.0000      -1.237801       -33.6823
  15   2.0000      -1.237619       -33.6773
  16   2.0000      -1.053693       -28.6724
  17   2.0000      -1.049253       -28.5516
  18   2.0000      -0.907770       -24.7017
  19   2.0000      -0.846232       -23.0272
  20   2.0000      -0.789377       -21.4800
  21   2.0000      -0.779131       -21.2012
  22   2.0000      -0.705950       -19.2099
  23   2.0000      -0.686029       -18.6678
  24   2.0000      -0.629144       -17.1199
  25   2.0000      -0.603917       -16.4334
  26   2.0000      -0.581043       -15.8110
  27   2.0000      -0.565813       -15.3965
  28   2.0000      -0.551380       -15.0038
  29   2.0000      -0.519680       -14.1412
  30   2.0000      -0.507629       -13.8133
  31   2.0000      -0.506515       -13.7830
  32   2.0000      -0.492828       -13.4105
  33   2.0000      -0.476980       -12.9793
  34   2.0000      -0.467682       -12.7263
  35   2.0000      -0.452876       -12.3234
  36   2.0000      -0.450771       -12.2661
  37   2.0000      -0.449684       -12.2365
  38   2.0000      -0.447085       -12.1658
  39   2.0000      -0.416921       -11.3450
  40   2.0000      -0.408708       -11.1215
  41   2.0000      -0.405848       -11.0437
  42   2.0000      -0.395826       -10.7710
  43   2.0000      -0.380173       -10.3450
  44   2.0000      -0.306879        -8.3506
  45   2.0000      -0.302548        -8.2327
  46   2.0000      -0.293945        -7.9986
  47   2.0000      -0.275594        -7.4993
  48   2.0000      -0.262120        -7.1326
  49   0.0000      -0.103806        -2.8247
  50   0.0000      -0.100433        -2.7329
  51   0.0000      -0.022128        -0.6021
  52   0.0000       0.008038         0.2187
  53   0.0000       0.048359         1.3159

MULLIKEN ATOMIC CHARGES
-----------------------
   0 C :   -0.174257
   1 C :    0.171191
   2 O :   -0.130751
   3 C :   -0.065157
   4 C :   -0.074002
   5 C :    0.172802
   6 O :   -0.130020
   7 C :    0.236057
   8 C :   -0.036905
   9 C :   -0.037903
  10 C :    0.235897
  11 F :   -0.158865
  12 F :   -0.157378
  13 C :    0.022584
  14 H :    0.013745
  15 H :    0.012629
  16 H :    0.048273
  17 H :    0.052061
Sum of atomic charges:   -0.0000000

LOEWDIN ATOMIC CHARGES
----------------------
   0 C :   -0.106908
   1 C :    0.078469
   2 O :   -0.123193
   3 C :   -0.066395
   4 C :   -0.066861
   5 C :    0.077503
   6 O :   -0.123415
   7 C :    0.093032
   8 C :   -0.020893
   9 C :   -0.020651
  10 C :    0.093223
  11 F :   -0.034780
  12 F :   -0.034361
  13 C :    0.077534
  14 H :    0.046391
  15 H :    0.045841
  16 H :    0.042371
  17 H :    0.043094

  Mayer bond orders larger than 0.100000
B(  0-C ,  1-C ) :   0.9319 B(  0-C ,  5-C ) :   0.9336 B(  0-C , 13-C ) :   1.9462
B(  1-C ,  2-O ) :   2.2724 B(  1-C ,  3-C ) :   0.8874 B(  3-C ,  4-C ) :   1.3578
B(  3-C , 10-C ) :   1.2940 B(  4-C ,  5-C ) :   0.8949 B(  4-C ,  7-C ) :   1.2900
B(  5-C ,  6-O ) :   2.2728 B(  7-C ,  8-C ) :   1.3497 B(  7-C , 12-F ) :   1.1867
B(  8-C ,  9-C ) :   1.3227 B(  8-C , 14-H ) :   0.9849 B(  9-C , 10-C ) :   1.3441
B(  9-C , 15-H ) :   0.9872 B( 10-C , 11-F ) :   1.1842 B( 13-C , 16-H ) :   0.9277
B( 13-C , 17-H ) :   0.9278

Dispersion correction           -0.038656890
FINAL SINGLE POINT ENERGY      -733.068135410329

DIPOLE MOMENT
-------------
                                X             Y             Z
Electronic contribution:      4.25013       0.94534       0.00050
Nuclear contribution   :     -3.49528      -0.76846      -0.00065
                        -----------------------------------------
Total Dipole Moment    :      0.75486       0.17687      -0.00016
                        -----------------------------------------
Magnitude (a.u.)       :      0.77530
Magnitude (Debye)      :      1.97066

Rotational constants in cm-1:     0.029269     0.025833     0.013722
Rotational constants in MHz :   877.452439   774.446251   411.368905

                             ****ORCA TERMINATED NORMALLY****
TOTAL RUN TIME: 0 days 0 hours 7 minutes 10 seconds 690 msec
