                         Program Version 4.2.0 -  RELEASE  -
|  1> # ORCA input file
|  2> # SCF done        -31.905021319464          0.000470648338
|  3> ! B3LYP/G D3BJ Opt RIJCOSX def2-SVP def2/J
|  4> * xyz 0 1
|  5>    C        0.76899         0.57551        -0.06390
|  6>    C        2.07752         0.29398        -0.06064
|  7>    C        3.17362         1.22336        -0.05240
|  8>    C        4.39380         0.64960        -0.04733
|  9>    C        4.37510        -0.77772        -0.05087
| 10>    S        2.71717        -1.35798        -0.06460
| 11>    C        5.44911        -1.62363        -0.04049
| 12>    C        6.83217        -1.27092        -0.02368
| 13>    C        7.67580        -2.32265        -0.00880
| 14>    C        7.02922        -3.60607        -0.01391
| 15>    S        5.27354        -3.37143        -0.04001
| 16>    C        7.60945        -4.81218         0.00073
| 17>    H        0.42726         1.59568        -0.06064
| 18>    H        0.02341        -0.19825        -0.06997
| 19>    H        2.99051         2.28353        -0.04989
| 20>    H        5.32070         1.19573        -0.04048
| 21>    H        7.14582        -0.24181        -0.02286
| 22>    H        8.74926        -2.25210         0.00598
| 23>    H        8.68113        -4.90523         0.01940
| 24>    H        7.03192        -5.71832        -0.00163
| 25> *
| 26>
| 27>                          ****END OF INPUT****
 Total Charge           Charge          ....    0
 Multiplicity           Mult            ....    1
 Number of Electrons    NEL             ....  100
Dispersion correction           -0.047905602
FINAL SINGLE POINT ENERGY     -1181.750333807184
Dispersion correction            ... done
Dispersion correction           -0.047647136
FINAL SINGLE POINT ENERGY     -1181.753486752233
Dispersion correction            ... done
Dispersion correction           -0.047602245
FINAL SINGLE POINT ENERGY     -1181.753611526782
Dispersion correction            ... done
Dispersion correction           -0.047590880
FINAL SINGLE POINT ENERGY     -1181.753634720974
Dispersion correction            ... done
Dispersion correction           -0.047589433
FINAL SINGLE POINT ENERGY     -1181.753637771433
Dispersion correction            ... done
                    ***********************HURRAY********************

CARTESIAN COORDINATES (ANGSTROEM)
---------------------------------
  C      0.731040    0.610458   -0.069432
  C      2.045003    0.304790   -0.059590
  C      3.162952    1.234218   -0.054301
  C      4.386166    0.646538   -0.044126
  C      4.357527   -0.797575   -0.040454
  S      2.678668   -1.364380   -0.050284
  C      5.435667   -1.644579   -0.030478
  C      6.833105   -1.277183   -0.019134
  C      7.691852   -2.328108   -0.009734
  C      7.050867   -3.633392   -0.012615
  S      5.279757   -3.409268   -0.028912
  C      7.651098   -4.841598   -0.004029
  H      0.416580    1.656368   -0.074600
  H     -0.045372   -0.156022   -0.072730
  H      2.991491    2.312191   -0.058760
  H      5.326028    1.198450   -0.039495
  H      7.150989   -0.234202   -0.017659
  H      8.779452   -2.236135    0.000390
  H      8.741302   -4.909395    0.006104
  H      7.081327   -5.772076   -0.006150

 Multiplicity           Mult            ....    1
 Number of Electrons    NEL             ....  100
 Basis Dimension        Dim             ....  216

ORBITAL ENERGIES
----------------

  NO   OCC          E(Eh)            E(eV)
   0   2.0000     -88.862059     -2418.0595
   1   2.0000     -88.861984     -2418.0575
   2   2.0000     -10.231011      -278.4000
   3   2.0000     -10.230575      -278.3881
   4   2.0000     -10.229137      -278.3490
   5   2.0000     -10.228890      -278.3422
   6   2.0000     -10.212781      -277.9039
   7   2.0000     -10.212610      -277.8993
   8   2.0000     -10.207774      -277.7676
   9   2.0000     -10.207746      -277.7669
  10   2.0000     -10.194619      -277.4097
  11   2.0000     -10.194270      -277.4002
  12   2.0000      -7.957553      -216.5360
  13   2.0000      -7.957503      -216.5347
  14   2.0000      -5.926177      -161.2595
  15   2.0000      -5.926127      -161.2581
  16   2.0000      -5.922597      -161.1620
  17   2.0000      -5.922571      -161.1613
  18   2.0000      -5.917145      -161.0137
  19   2.0000      -5.917078      -161.0119
  20   2.0000      -0.890818       -24.2404
  21   2.0000      -0.867889       -23.6165
  22   2.0000      -0.789359       -21.4795
  23   2.0000      -0.755202       -20.5501
  24   2.0000      -0.752865       -20.4865
  25   2.0000      -0.727958       -19.8087
  26   2.0000      -0.689613       -18.7653
  27   2.0000      -0.628280       -17.0964
  28   2.0000      -0.594860       -16.1870
  29   2.0000      -0.553073       -15.0499
  30   2.0000      -0.539001       -14.6670
  31   2.0000      -0.519288       -14.1305
  32   2.0000      -0.515395       -14.0246
  33   2.0000      -0.475666       -12.9435
  34   2.0000      -0.454054       -12.3554
  35   2.0000      -0.431951       -11.7540
  36   2.0000      -0.429403       -11.6846
  37   2.0000      -0.412452       -11.2234
  38   2.0000      -0.410220       -11.1627
  39   2.0000      -0.404852       -11.0166
  40   2.0000      -0.382072       -10.3967
  41   2.0000      -0.378779       -10.3071
  42   2.0000      -0.356725        -9.7070
  43   2.0000      -0.351143        -9.5551
  44   2.0000      -0.331929        -9.0322
  45   2.0000      -0.316144        -8.6027
  46   2.0000      -0.272026        -7.4022
  47   2.0000      -0.269535        -7.3344
  48   2.0000      -0.250239        -6.8093
  49   2.0000      -0.182586        -4.9684
  50   0.0000      -0.083952        -2.2845
  51   0.0000      -0.022206        -0.6043
  52   0.0000       0.000071         0.0019
  53   0.0000       0.040397         1.0993
  54   0.0000       0.046948         1.2775

MULLIKEN ATOMIC CHARGES
-----------------------
   0 C :   -0.036211
   1 C :   -0.062832
   2 C :    0.038537
   3 C :    0.036441
   4 C :   -0.073027
   5 S :    0.075045
   6 C :   -0.069185
   7 C :    0.037545
   8 C :    0.037624
   9 C :   -0.056549
  10 S :    0.076217
  11 C :   -0.042242
  12 H :    0.019374
  13 H :    0.022704
  14 H :   -0.009411
  15 H :   -0.012537
  16 H :   -0.015466
  17 H :   -0.009599
  18 H :    0.022622
  19 H :    0.020949
Sum of atomic charges:    0.0000000

LOEWDIN ATOMIC CHARGES
----------------------
   0 C :   -0.082118
   1 C :   -0.140010
   2 C :   -0.037947
   3 C :   -0.028291
   4 C :   -0.177883
   5 S :    0.344432
   6 C :   -0.177923
   7 C :   -0.028104
   8 C :   -0.037699
   9 C :   -0.139071
  10 S :    0.345380
  11 C :   -0.083709
  12 H :    0.029271
  13 H :    0.027064
  14 H :    0.033608
  15 H :    0.031753
  16 H :    0.031137
  17 H :    0.033578
  18 H :    0.029840
  19 H :    0.026693

  Mayer bond orders larger than 0.100000
B(  0-C ,  1-C ) :   1.8278 B(  0-C , 12-H ) :   0.9450 B(  0-C , 13-H ) :   0.9398
B(  1-C ,  2-C ) :   1.0900 B(  1-C ,  5-S ) :   1.0121 B(  2-C ,  3-C ) :   1.6249
B(  2-C , 14-H ) :   0.9868 B(  3-C ,  4-C ) :   1.1581 B(  3-C , 15-H ) :   0.9847
B(  4-C ,  5-S ) :   1.0415 B(  4-C ,  6-C ) :   1.5594 B(  6-C ,  7-C ) :   1.1568
B(  6-C , 10-S ) :   1.0430 B(  7-C ,  8-C ) :   1.6239 B(  7-C , 16-H ) :   0.9853
B(  8-C ,  9-C ) :   1.0920 B(  8-C , 17-H ) :   0.9860 B(  9-C , 10-S ) :   1.0110
B(  9-C , 11-C ) :   1.8237 B( 11-C , 18-H ) :   0.9453 B( 11-C , 19-H ) :   0.9406

Dispersion correction           -0.047589522
FINAL SINGLE POINT ENERGY     -1181.753637926400

DIPOLE MOMENT
-------------
                                X             Y             Z
Electronic contribution:     -2.77922      -3.53767      -0.02046
Nuclear contribution   :      3.29588       4.20077       0.02422
                        -----------------------------------------
Total Dipole Moment    :      0.51667       0.66309       0.00376
                        -----------------------------------------
Magnitude (a.u.)       :      0.84062
Magnitude (Debye)      :      2.13669

Rotational constants in cm-1:     0.077859     0.013146     0.011247
Rotational constants in MHz :  2334.159465   394.113960   337.182195

                             ****ORCA TERMINATED NORMALLY****
TOTAL RUN TIME: 0 days 0 hours 6 minutes 45 seconds 132 msec
