                         Program Version 4.2.0 -  RELEASE  -
|  1> # ORCA input file
|  2> # SCF done        -27.340240004682          0.000536862732
|  3> ! B3LYP/G D3BJ Opt RIJCOSX def2-SVP def2/J
|  4> * xyz 0 1
|  5>    C       -0.87925        -1.44053        -0.00202
|  6>    C       -2.05631        -0.75047        -0.00204
|  7>    C       -2.01161         0.66076        -0.00182
|  8>    N       -0.90316         1.34860        -0.00150
|  9>    C        0.24155         0.68891        -0.00145
| 10>    N        1.46354         1.16381        -0.00117
| 11>    C        2.28119         0.09485        -0.00127
| 12>    C        1.58450        -1.09540        -0.00165
| 13>    N        0.27243        -0.73995        -0.00174
| 14>    C        2.04792        -2.50637        -0.00194
| 15>    H       -0.81753        -2.52016        -0.00224
| 16>    H       -2.99851        -1.27140        -0.00225
| 17>    H       -2.92576         1.23752        -0.00168
| 18>    H        3.34578         0.22622        -0.00109
| 19>    H        3.13367        -2.53118        -0.00200
| 20>    H        1.68653        -3.03393        -0.88595
| 21>    H        1.68662        -3.03427         0.88189
| 22> *
| 23>
| 24>                          ****END OF INPUT****
 Total Charge           Charge          ....    0
 Multiplicity           Mult            ....    1
 Number of Electrons    NEL             ....   70
Dispersion correction           -0.031465854
FINAL SINGLE POINT ENERGY      -434.920723026908
Dispersion correction            ... done
Dispersion correction           -0.031409900
FINAL SINGLE POINT ENERGY      -434.923519236428
Dispersion correction            ... done
Dispersion correction           -0.031407669
FINAL SINGLE POINT ENERGY      -434.923658106356
Dispersion correction            ... done
FINAL SINGLE POINT ENERGY      -434.923705534246
Dispersion correction            ... done
Dispersion correction           -0.031415660
FINAL SINGLE POINT ENERGY      -434.923712338972
Dispersion correction            ... done
Dispersion correction           -0.031415489
FINAL SINGLE POINT ENERGY      -434.923713710431
Dispersion correction            ... done
                    ***********************HURRAY********************

CARTESIAN COORDINATES (ANGSTROEM)
---------------------------------
  C     -0.876560   -1.439358   -0.002017
  C     -2.063712   -0.755644   -0.002021
  C     -2.030384    0.670135   -0.001729
  N     -0.919718    1.373151   -0.001439
  C      0.247088    0.715108   -0.001428
  N      1.478163    1.197562   -0.001184
  C      2.299537    0.115413   -0.001320
  C      1.605545   -1.090423   -0.001663
  N      0.280073   -0.716172   -0.001725
  C      2.038737   -2.514280   -0.001936
  H     -0.788716   -2.527296   -0.002243
  H     -3.010488   -1.295814   -0.002260
  H     -2.972914    1.229110   -0.001743
  H      3.384882    0.228218   -0.001179
  H      3.135923   -2.574764   -0.001831
  H      1.672169   -3.058766   -0.890883
  H      1.671976   -3.059171    0.886680

 Multiplicity           Mult            ....    1
 Number of Electrons    NEL             ....   70
 Basis Dimension        Dim             ....  175

ORBITAL ENERGIES
----------------

  NO   OCC          E(Eh)            E(eV)
   0   2.0000     -14.412804      -392.1923
   1   2.0000     -14.333648      -390.0384
   2   2.0000     -14.303670      -389.2226
   3   2.0000     -10.272744      -279.5356
   4   2.0000     -10.263600      -279.2868
   5   2.0000     -10.239030      -278.6182
   6   2.0000     -10.228374      -278.3282
   7   2.0000     -10.214454      -277.9494
   8   2.0000     -10.214351      -277.9466
   9   2.0000     -10.213320      -277.9186
  10   2.0000      -1.041007       -28.3272
  11   2.0000      -0.930905       -25.3312
  12   2.0000      -0.909072       -24.7371
  13   2.0000      -0.794365       -21.6158
  14   2.0000      -0.772086       -21.0095
  15   2.0000      -0.710811       -19.3422
  16   2.0000      -0.660740       -17.9796
  17   2.0000      -0.634180       -17.2569
  18   2.0000      -0.609172       -16.5764
  19   2.0000      -0.545979       -14.8568
  20   2.0000      -0.509809       -13.8726
  21   2.0000      -0.501561       -13.6482
  22   2.0000      -0.485292       -13.2055
  23   2.0000      -0.456072       -12.4103
  24   2.0000      -0.435569       -11.8524
  25   2.0000      -0.429439       -11.6856
  26   2.0000      -0.426120       -11.5953
  27   2.0000      -0.412775       -11.2322
  28   2.0000      -0.406853       -11.0710
  29   2.0000      -0.362804        -9.8724
  30   2.0000      -0.355464        -9.6727
  31   2.0000      -0.281216        -7.6523
  32   2.0000      -0.264770        -7.2048
  33   2.0000      -0.262784        -7.1507
  34   2.0000      -0.222705        -6.0601
  35   0.0000      -0.058369        -1.5883
  36   0.0000      -0.013704        -0.3729
  37   0.0000       0.042891         1.1671
  38   0.0000       0.058298         1.5864
  39   0.0000       0.068227         1.8566

MULLIKEN ATOMIC CHARGES
-----------------------
   0 C :    0.110867
   1 C :   -0.038716
   2 C :    0.052291
   3 N :   -0.050116
   4 C :    0.039827
   5 N :   -0.098501
   6 C :   -0.016503
   7 C :   -0.048019
   8 N :   -0.158629
   9 C :    0.097319
  10 H :    0.023222
  11 H :    0.006365
  12 H :    0.007699
  13 H :   -0.009247
  14 H :    0.026870
  15 H :    0.027631
  16 H :    0.027639
Sum of atomic charges:    0.0000000

LOEWDIN ATOMIC CHARGES
----------------------
   0 C :    0.044333
   1 C :   -0.078278
   2 C :    0.021695
   3 N :   -0.063694
   4 C :    0.024213
   5 N :   -0.123262
   6 C :   -0.016956
   7 C :   -0.057169
   8 N :    0.076798
   9 C :   -0.055355
  10 H :    0.033095
  11 H :    0.037462
  12 H :    0.023549
  13 H :    0.021030
  14 H :    0.045124
  15 H :    0.033707
  16 H :    0.033708

  Mayer bond orders larger than 0.100000
B(  0-C ,  1-C ) :   1.5539 B(  0-C ,  8-N ) :   1.1722 B(  0-C , 10-H ) :   0.9695
B(  1-C ,  2-C ) :   1.2381 B(  1-C , 11-H ) :   0.9686 B(  2-C ,  3-N ) :   1.6359
B(  2-C , 12-H ) :   0.9745 B(  3-N ,  4-C ) :   1.4080 B(  4-C ,  5-N ) :   1.5553
B(  4-C ,  8-N ) :   1.0024 B(  5-N ,  6-C ) :   1.4186 B(  6-C ,  7-C ) :   1.4356
B(  6-C , 13-H ) :   0.9938 B(  7-C ,  8-N ) :   1.1535 B(  7-C ,  9-C ) :   1.1138
B(  9-C , 14-H ) :   0.9411 B(  9-C , 15-H ) :   0.9405 B(  9-C , 16-H ) :   0.9405

Dispersion correction           -0.031414837
FINAL SINGLE POINT ENERGY      -434.923714257316

DIPOLE MOMENT
-------------
                                X             Y             Z
Electronic contribution:     -1.88514       6.46831       0.00126
Nuclear contribution   :      1.44668      -8.54472      -0.00177
                        -----------------------------------------
Total Dipole Moment    :     -0.43846      -2.07641      -0.00051
                        -----------------------------------------
Magnitude (a.u.)       :      2.12220
Magnitude (Debye)      :      5.39420

Rotational constants in cm-1:     0.089654     0.046138     0.030638
Rotational constants in MHz :  2687.762400  1383.195398   918.511374

                             ****ORCA TERMINATED NORMALLY****
TOTAL RUN TIME: 0 days 0 hours 5 minutes 53 seconds 970 msec
