                         Program Version 4.2.0 -  RELEASE  -
|  1> # ORCA input file
|  2> # SCF done        -40.601872772314          0.000482516269
|  3> ! B3LYP/G D3BJ Opt RIJCOSX def2-SVP def2/J
|  4> * xyz 0 1
|  5>    C        2.71927        -1.22197        -0.00154
|  6>    C        1.44015        -0.71260        -0.00138
|  7>    C        1.43138         0.73957        -0.00099
|  8>    N        0.27444         1.42403        -0.00080
|  9>    C       -0.82795         0.71954        -0.00099
| 10>    C       -2.10825         1.47952        -0.00082
| 11>    O       -2.15272         2.68920        -0.00034
| 12>    C       -3.33066         0.65232        -0.00128
| 13>    C       -3.32260        -0.68288        -0.00160
| 14>    C       -2.09029        -1.49525        -0.00153
| 15>    O       -2.12013        -2.70538        -0.00159
| 16>    C       -0.81926        -0.71986        -0.00135
| 17>    N        0.29156        -1.41098        -0.00155
| 18>    C        2.70425         1.26435        -0.00086
| 19>    S        3.87711         0.02823        -0.00120
| 20>    H        3.01592        -2.25101        -0.00182
| 21>    H       -4.25742         1.21072        -0.00131
| 22>    H       -4.24255        -1.25243        -0.00189
| 23>    H        2.98848         2.29689        -0.00057
| 24> *
| 25>
| 26>                          ****END OF INPUT****
 Total Charge           Charge          ....    0
 Multiplicity           Mult            ....    1
 Number of Electrons    NEL             ....  110
Dispersion correction           -0.047547497
FINAL SINGLE POINT ENERGY     -1041.026240111657
Dispersion correction            ... done
Dispersion correction           -0.047383757
FINAL SINGLE POINT ENERGY     -1041.028755912745
Dispersion correction            ... done
Dispersion correction           -0.047348352
FINAL SINGLE POINT ENERGY     -1041.028908040627
Dispersion correction            ... done
Dispersion correction           -0.047339844
FINAL SINGLE POINT ENERGY     -1041.028933527343
Dispersion correction            ... done
Dispersion correction           -0.047339928
FINAL SINGLE POINT ENERGY     -1041.028937599355
Dispersion correction            ... done
                    ***********************HURRAY********************

CARTESIAN COORDINATES (ANGSTROEM)
---------------------------------
  C      2.746382   -1.235720   -0.001433
  C      1.456201   -0.715639   -0.001452
  C      1.447279    0.742465   -0.001025
  N      0.284102    1.438251   -0.000783
  C     -0.816501    0.726060   -0.000961
  C     -2.124298    1.478039   -0.000681
  O     -2.168460    2.690630   -0.000878
  C     -3.362929    0.657933   -0.001165
  C     -3.354949   -0.688607   -0.001473
  C     -2.106844   -1.494175   -0.001335
  O     -2.137163   -2.707207   -0.002011
  C     -0.807774   -0.726848   -0.001349
  N      0.301379   -1.425579   -0.001598
  C      2.730772    1.278722   -0.000718
  S      3.900781    0.028787   -0.001676
  H      3.042831   -2.282294   -0.001617
  H     -4.294524    1.229729   -0.001219
  H     -4.279635   -1.271496   -0.001800
  H      3.014080    2.328955   -0.000236

 Multiplicity           Mult            ....    1
 Number of Electrons    NEL             ....  110
 Basis Dimension        Dim             ....  234

ORBITAL ENERGIES
----------------

  NO   OCC          E(Eh)            E(eV)
   0   2.0000     -88.922335     -2419.6997
   1   2.0000     -19.144545      -520.9496
   2   2.0000     -19.144508      -520.9485
   3   2.0000     -14.362960      -390.8360
   4   2.0000     -14.362817      -390.8321
   5   2.0000     -10.294024      -280.1146
   6   2.0000     -10.293916      -280.1117
   7   2.0000     -10.258777      -279.1555
   8   2.0000     -10.258577      -279.1501
   9   2.0000     -10.253239      -279.0048
  10   2.0000     -10.253053      -278.9997
  11   2.0000     -10.242992      -278.7260
  12   2.0000     -10.242932      -278.7243
  13   2.0000     -10.232925      -278.4520
  14   2.0000     -10.232293      -278.4349
  15   2.0000      -8.016637      -218.1438
  16   2.0000      -5.984063      -162.8346
  17   2.0000      -5.979988      -162.7237
  18   2.0000      -5.979520      -162.7110
  19   2.0000      -1.053055       -28.6551
  20   2.0000      -1.050003       -28.5720
  21   2.0000      -0.999094       -27.1867
  22   2.0000      -0.930546       -25.3214
  23   2.0000      -0.907506       -24.6945
  24   2.0000      -0.841563       -22.9001
  25   2.0000      -0.779156       -21.2019
  26   2.0000      -0.755600       -20.5609
  27   2.0000      -0.701076       -19.0773
  28   2.0000      -0.698555       -19.0087
  29   2.0000      -0.649704       -17.6793
  30   2.0000      -0.607416       -16.5286
  31   2.0000      -0.587486       -15.9863
  32   2.0000      -0.566020       -15.4022
  33   2.0000      -0.556346       -15.1390
  34   2.0000      -0.518934       -14.1209
  35   2.0000      -0.483810       -13.1651
  36   2.0000      -0.480415       -13.0728
  37   2.0000      -0.477352       -12.9894
  38   2.0000      -0.473878       -12.8949
  39   2.0000      -0.447948       -12.1893
  40   2.0000      -0.440833       -11.9957
  41   2.0000      -0.434393       -11.8204
  42   2.0000      -0.430594       -11.7171
  43   2.0000      -0.421557       -11.4712
  44   2.0000      -0.416984       -11.3467
  45   2.0000      -0.387292       -10.5387
  46   2.0000      -0.380989       -10.3672
  47   2.0000      -0.363301        -9.8859
  48   2.0000      -0.330472        -8.9926
  49   2.0000      -0.310329        -8.4445
  50   2.0000      -0.290048        -7.8926
  51   2.0000      -0.287901        -7.8342
  52   2.0000      -0.274151        -7.4600
  53   2.0000      -0.261350        -7.1117
  54   2.0000      -0.253900        -6.9090
  55   0.0000      -0.122649        -3.3375
  56   0.0000      -0.118302        -3.2192
  57   0.0000      -0.026041        -0.7086
  58   0.0000      -0.023900        -0.6504
  59   0.0000       0.024466         0.6658

MULLIKEN ATOMIC CHARGES
-----------------------
   0 C :   -0.126057
   1 C :    0.057252
   2 C :    0.057254
   3 N :    0.022068
   4 C :   -0.106437
   5 C :    0.145917
   6 O :   -0.124388
   7 C :   -0.005378
   8 C :   -0.005175
   9 C :    0.146075
  10 O :   -0.124320
  11 C :   -0.106398
  12 N :    0.021888
  13 C :   -0.126215
  14 S :    0.180766
  15 H :    0.035243
  16 H :    0.011221
  17 H :    0.011228
  18 H :    0.035457
Sum of atomic charges:   -0.0000000

LOEWDIN ATOMIC CHARGES
----------------------
   0 C :   -0.190104
   1 C :   -0.047916
   2 C :   -0.047954
   3 N :   -0.007175
   4 C :   -0.043562
   5 C :    0.055248
   6 O :   -0.102912
   7 C :   -0.011460
   8 C :   -0.011418
   9 C :    0.055282
  10 O :   -0.102913
  11 C :   -0.043538
  12 N :   -0.007268
  13 C :   -0.190224
  14 S :    0.533756
  15 H :    0.037516
  16 H :    0.043521
  17 H :    0.043532
  18 H :    0.037590

  Mayer bond orders larger than 0.100000
B(  0-C ,  1-C ) :   1.3622 B(  0-C , 13-C ) :   0.1193 B(  0-C , 14-S ) :   1.2256
B(  0-C , 15-H ) :   0.9682 B(  1-C ,  2-C ) :   1.1591 B(  1-C , 12-N ) :   1.3743
B(  2-C ,  3-N ) :   1.3742 B(  2-C , 13-C ) :   1.3623 B(  3-N ,  4-C ) :   1.7231
B(  4-C ,  5-C ) :   0.8891 B(  4-C , 11-C ) :   1.0747 B(  5-C ,  6-O ) :   2.1941
B(  5-C ,  7-C ) :   1.0206 B(  7-C ,  8-C ) :   1.6348 B(  7-C , 16-H ) :   0.9928
B(  8-C ,  9-C ) :   1.0205 B(  8-C , 17-H ) :   0.9928 B(  9-C , 10-O ) :   2.1941
B(  9-C , 11-C ) :   0.8890 B( 11-C , 12-N ) :   1.7229 B( 13-C , 14-S ) :   1.2256
B( 13-C , 18-H ) :   0.9681

Dispersion correction           -0.047341104
FINAL SINGLE POINT ENERGY     -1041.028938110426

DIPOLE MOMENT
-------------
                                X             Y             Z
Electronic contribution:      3.58368       0.02107      -0.00000
Nuclear contribution   :     -2.73485      -0.01569       0.00025
                        -----------------------------------------
Total Dipole Moment    :      0.84883       0.00537       0.00025
                        -----------------------------------------
Magnitude (a.u.)       :      0.84885
Magnitude (Debye)      :      2.15760

Rotational constants in cm-1:     0.039044     0.012784     0.009631
Rotational constants in MHz :  1170.511639   383.246146   288.715579

                             ****ORCA TERMINATED NORMALLY****
TOTAL RUN TIME: 0 days 0 hours 8 minutes 34 seconds 189 msec
