                         Program Version 4.2.0 -  RELEASE  -
|  1> # ORCA input file
|  2> # SCF done        -37.151965173747          0.000762583719
|  3> ! B3LYP/G D3BJ Opt RIJCOSX def2-SVP def2/J
|  4> * xyz 0 1
|  5>    C        0.69826         1.29943         0.52604
|  6>    O        1.25816         2.37129         0.49031
|  7>    N       -0.67549         1.19989         0.59900
|  8>    C       -1.46093         2.42418         0.63576
|  9>    C       -1.40489         0.02464         0.64800
| 10>    O       -2.60895         0.04398         0.71855
| 11>    N       -0.68941        -1.15959         0.61290
| 12>    C       -1.43746        -2.40643         0.66178
| 13>    C        0.68303        -1.26841         0.54147
| 14>    O        1.22110        -2.35135         0.51883
| 15>    C        1.42575         0.01053         0.49761
| 16>    C        2.76070         0.00216         0.43416
| 17>    H       -0.76844         3.26219         0.63771
| 18>    H       -2.07820         2.43650         1.53303
| 19>    H       -2.11084         2.47174        -0.23722
| 20>    H       -2.49488        -2.16711         0.73375
| 21>    H       -1.11760        -2.98704         1.52646
| 22>    H       -1.23835        -2.98493        -0.23977
| 23>    H        3.30000        -0.93017         0.41362
| 24>    H        3.31193         0.92709         0.40301
| 25> *
| 26>
| 27>                          ****END OF INPUT****
 Total Charge           Charge          ....    0
 Multiplicity           Mult            ....    1
 Number of Electrons    NEL             ....   88
Dispersion correction           -0.037525705
FINAL SINGLE POINT ENERGY      -606.367025834835
Dispersion correction            ... done
Dispersion correction           -0.037235228
FINAL SINGLE POINT ENERGY      -606.368921332780
Dispersion correction            ... done
Dispersion correction           -0.037206424
FINAL SINGLE POINT ENERGY      -606.368951376093
Dispersion correction            ... done
FINAL SINGLE POINT ENERGY      -606.368932620032
FINAL SINGLE POINT ENERGY      -606.368901473688
FINAL SINGLE POINT ENERGY      -606.368895005253
FINAL SINGLE POINT ENERGY      -606.368875252149
FINAL SINGLE POINT ENERGY      -606.368868468471
FINAL SINGLE POINT ENERGY      -606.368850371750
FINAL SINGLE POINT ENERGY      -606.368775989054
FINAL SINGLE POINT ENERGY      -606.368568918298
FINAL SINGLE POINT ENERGY      -606.368509658390
FINAL SINGLE POINT ENERGY      -606.368481387005
FINAL SINGLE POINT ENERGY      -606.368415990196
FINAL SINGLE POINT ENERGY      -606.368235676591
FINAL SINGLE POINT ENERGY      -606.368604025634
FINAL SINGLE POINT ENERGY      -606.368547093643
Dispersion correction            ... done
Dispersion correction           -0.037214479
FINAL SINGLE POINT ENERGY      -606.368607827016
Dispersion correction            ... done
Dispersion correction           -0.037217264
FINAL SINGLE POINT ENERGY      -606.368610299025
Dispersion correction            ... done
                    ***********************HURRAY********************

CARTESIAN COORDINATES (ANGSTROEM)
---------------------------------
  C      0.711389    1.307353    0.606037
  O      1.278623    2.378751    0.667386
  N     -0.678384    1.209689    0.565511
  C     -1.473872    2.437977    0.537045
  C     -1.400566    0.012510    0.592181
  O     -2.611913    0.014628    0.590160
  N     -0.676298   -1.183992    0.631284
  C     -1.458815   -2.418427    0.707097
  C      0.708274   -1.283260    0.515135
  O      1.265251   -2.358082    0.423292
  C      1.442282    0.011521    0.542946
  C      2.783857    0.012514    0.513304
  H     -0.775856    3.278658    0.482544
  H     -2.092476    2.515135    1.442010
  H     -2.142017    2.430352   -0.334759
  H     -2.293337   -2.271121    1.401215
  H     -0.791327   -3.216424    1.047721
  H     -1.870876   -2.685672   -0.278033
  H      3.325062   -0.934243    0.459969
  H      3.324489    0.960723    0.542956

 Multiplicity           Mult            ....    1
 Number of Electrons    NEL             ....   88
 Basis Dimension        Dim             ....  208

ORBITAL ENERGIES
----------------

  NO   OCC          E(Eh)            E(eV)
   0   2.0000     -19.133784      -520.6567
   1   2.0000     -19.133468      -520.6481
   2   2.0000     -19.133305      -520.6437
   3   2.0000     -14.398491      -391.8029
   4   2.0000     -14.398251      -391.7963
   5   2.0000     -10.347433      -281.5680
   6   2.0000     -10.321799      -280.8704
   7   2.0000     -10.321033      -280.8496
   8   2.0000     -10.236512      -278.5497
   9   2.0000     -10.232553      -278.4419
  10   2.0000     -10.232409      -278.4380
  11   2.0000     -10.231219      -278.4056
  12   2.0000      -1.088949       -29.6318
  13   2.0000      -1.059335       -28.8260
  14   2.0000      -1.056136       -28.7389
  15   2.0000      -0.964378       -26.2421
  16   2.0000      -0.941594       -25.6221
  17   2.0000      -0.826090       -22.4790
  18   2.0000      -0.746129       -20.3032
  19   2.0000      -0.714980       -19.4556
  20   2.0000      -0.698707       -19.0128
  21   2.0000      -0.643225       -17.5030
  22   2.0000      -0.620292       -16.8790
  23   2.0000      -0.585624       -15.9356
  24   2.0000      -0.523260       -14.2386
  25   2.0000      -0.518324       -14.1043
  26   2.0000      -0.476176       -12.9574
  27   2.0000      -0.471132       -12.8201
  28   2.0000      -0.465902       -12.6778
  29   2.0000      -0.460727       -12.5370
  30   2.0000      -0.459198       -12.4954
  31   2.0000      -0.454520       -12.3681
  32   2.0000      -0.432200       -11.7607
  33   2.0000      -0.409301       -11.1376
  34   2.0000      -0.408637       -11.1196
  35   2.0000      -0.407044       -11.0762
  36   2.0000      -0.405630       -11.0378
  37   2.0000      -0.404331       -11.0024
  38   2.0000      -0.316219        -8.6048
  39   2.0000      -0.308745        -8.4014
  40   2.0000      -0.306947        -8.3524
  41   2.0000      -0.297043        -8.0830
  42   2.0000      -0.286285        -7.7902
  43   2.0000      -0.273348        -7.4382
  44   0.0000      -0.097684        -2.6581
  45   0.0000      -0.006816        -0.1855
  46   0.0000       0.007333         0.1995
  47   0.0000       0.067237         1.8296
  48   0.0000       0.082423         2.2428

MULLIKEN ATOMIC CHARGES
-----------------------
   0 C :    0.217572
   1 O :   -0.202204
   2 N :   -0.300143
   3 C :    0.143387
   4 C :    0.258346
   5 O :   -0.229471
   6 N :   -0.301285
   7 C :    0.148180
   8 C :    0.216205
   9 O :   -0.204187
  10 C :   -0.190959
  11 C :    0.062197
  12 H :    0.052470
  13 H :    0.039894
  14 H :    0.041316
  15 H :    0.045211
  16 H :    0.048514
  17 H :    0.036039
  18 H :    0.059275
  19 H :    0.059641
Sum of atomic charges:   -0.0000000

LOEWDIN ATOMIC CHARGES
----------------------
   0 C :    0.082637
   1 O :   -0.175969
   2 N :   -0.042755
   3 C :    0.046626
   4 C :    0.101918
   5 O :   -0.185474
   6 N :   -0.042931
   7 C :    0.047805
   8 C :    0.081672
   9 O :   -0.176596
  10 C :   -0.115444
  11 C :    0.094783
  12 H :    0.033891
  13 H :    0.031649
  14 H :    0.032388
  15 H :    0.033246
  16 H :    0.033786
  17 H :    0.030873
  18 H :    0.043919
  19 H :    0.043976

  Mayer bond orders larger than 0.100000
B(  0-C ,  1-O ) :   2.1222 B(  0-C ,  2-N ) :   1.0679 B(  0-C , 10-C ) :   0.9166
B(  2-N ,  3-C ) :   0.9347 B(  2-N ,  4-C ) :   1.0497 B(  3-C , 12-H ) :   0.9545
B(  3-C , 13-H ) :   0.9756 B(  3-C , 14-H ) :   0.9731 B(  4-C ,  5-O ) :   2.0502
B(  4-C ,  6-N ) :   1.0486 B(  6-N ,  7-C ) :   0.9389 B(  6-N ,  8-C ) :   1.0687
B(  7-C , 15-H ) :   0.9660 B(  7-C , 16-H ) :   0.9583 B(  7-C , 17-H ) :   0.9792
B(  8-C ,  9-O ) :   2.1236 B(  8-C , 10-C ) :   0.9156 B( 10-C , 11-C ) :   1.9682
B( 11-C , 18-H ) :   0.9253 B( 11-C , 19-H ) :   0.9248

Dispersion correction           -0.037216336
FINAL SINGLE POINT ENERGY      -606.368625716394

DIPOLE MOMENT
-------------
                                X             Y             Z
Electronic contribution:      2.83886       0.01893      -0.12119
Nuclear contribution   :     -2.77619      -0.01510       0.15407
                        -----------------------------------------
Total Dipole Moment    :      0.06267       0.00383       0.03288
                        -----------------------------------------
Magnitude (a.u.)       :      0.07088
Magnitude (Debye)      :      0.18015

Rotational constants in cm-1:     0.039728     0.037177     0.019381
Rotational constants in MHz :  1191.001617  1114.546396   581.023883

                             ****ORCA TERMINATED NORMALLY****
TOTAL RUN TIME: 0 days 0 hours 25 minutes 8 seconds 124 msec
