                         Program Version 4.2.0 -  RELEASE  -
|  1> # ORCA input file
|  2> # SCF done        -35.429507951215          0.000424842028
|  3> ! B3LYP/G D3BJ Opt RIJCOSX def2-SVP def2/J
|  4> * xyz 0 1
|  5>    C       -1.43613         0.16624        -0.18193
|  6>    C       -0.54534         1.08277        -0.54784
|  7>    C        0.87247         0.88287        -0.32362
|  8>    C        1.34757        -0.28746         0.09301
|  9>    C        0.45285        -1.47861         0.32443
| 10>    C       -1.02866        -1.08953         0.54582
| 11>    N       -1.97303        -2.12267         0.18698
| 12>    C       -1.63002        -2.99142        -0.65337
| 13>    C       -0.27608        -3.04974        -1.23674
| 14>    N        0.68179        -2.36670        -0.79846
| 15>    F       -0.08374        -3.85789        -2.27613
| 16>    F       -2.50515        -3.92216        -1.02302
| 17>    H       -2.49524         0.27850        -0.35195
| 18>    H       -0.85816         1.99231        -1.03699
| 19>    H        1.53717         1.70874        -0.52542
| 20>    H        2.40397        -0.47467         0.19544
| 21>    H        0.81921        -2.02908         1.20224
| 22>    H       -1.19468        -0.90621         1.61755
| 23> *
| 24>
| 25>                          ****END OF INPUT****
 Total Charge           Charge          ....    0
 Multiplicity           Mult            ....    1
 Number of Electrons    NEL             ....   86
Dispersion correction           -0.036883906
FINAL SINGLE POINT ENERGY      -617.151756532336
Dispersion correction            ... done
Dispersion correction           -0.036581060
FINAL SINGLE POINT ENERGY      -617.154284841744
Dispersion correction            ... done
Dispersion correction           -0.036487948
FINAL SINGLE POINT ENERGY      -617.154675300933
Dispersion correction            ... done
FINAL SINGLE POINT ENERGY      -617.154780768556
FINAL SINGLE POINT ENERGY      -617.154872074329
FINAL SINGLE POINT ENERGY      -617.154962741746
FINAL SINGLE POINT ENERGY      -617.155060941734
FINAL SINGLE POINT ENERGY      -617.155107473523
Dispersion correction            ... done
Dispersion correction           -0.036829554
FINAL SINGLE POINT ENERGY      -617.155113037395
Dispersion correction            ... done
Dispersion correction           -0.036818296
FINAL SINGLE POINT ENERGY      -617.155110052116
Dispersion correction            ... done
                    ***********************HURRAY********************

CARTESIAN COORDINATES (ANGSTROEM)
---------------------------------
  C     -1.440916    0.143498   -0.236829
  C     -0.544556    1.085550   -0.568206
  C      0.878036    0.905124   -0.268112
  C      1.361562   -0.277801    0.146725
  C      0.464210   -1.489209    0.289340
  C     -1.017275   -1.086977    0.532247
  N     -1.971398   -2.163795    0.265585
  C     -1.635323   -3.012622   -0.592784
  C     -0.307401   -3.029264   -1.265492
  N      0.669368   -2.344714   -0.884805
  F     -0.214244   -3.838997   -2.315816
  F     -2.467722   -3.982124   -0.961660
  H     -2.504605    0.242065   -0.466191
  H     -0.866380    1.995157   -1.081415
  H      1.555515    1.746652   -0.434624
  H      2.432867   -0.436433    0.292721
  H      0.804359   -2.087649    1.153842
  H     -1.107296   -0.833172    1.605473

 Multiplicity           Mult            ....    1
 Number of Electrons    NEL             ....   86
 Basis Dimension        Dim             ....  198

ORBITAL ENERGIES
----------------

  NO   OCC          E(Eh)            E(eV)
   0   2.0000     -24.724303      -672.7825
   1   2.0000     -24.722333      -672.7289
   2   2.0000     -14.351866      -390.5341
   3   2.0000     -14.350723      -390.5030
   4   2.0000     -10.334183      -281.2074
   5   2.0000     -10.332140      -281.1518
   6   2.0000     -10.250999      -278.9439
   7   2.0000     -10.250527      -278.9310
   8   2.0000     -10.207077      -277.7487
   9   2.0000     -10.206659      -277.7373
  10   2.0000     -10.206212      -277.7251
  11   2.0000     -10.205282      -277.6998
  12   2.0000      -1.247688       -33.9513
  13   2.0000      -1.231452       -33.5095
  14   2.0000      -0.988431       -26.8966
  15   2.0000      -0.927321       -25.2337
  16   2.0000      -0.848736       -23.0953
  17   2.0000      -0.764776       -20.8106
  18   2.0000      -0.759186       -20.6585
  19   2.0000      -0.690128       -18.7793
  20   2.0000      -0.668959       -18.2033
  21   2.0000      -0.614838       -16.7306
  22   2.0000      -0.586493       -15.9593
  23   2.0000      -0.581815       -15.8320
  24   2.0000      -0.551967       -15.0198
  25   2.0000      -0.534924       -14.5560
  26   2.0000      -0.513465       -13.9721
  27   2.0000      -0.503642       -13.7048
  28   2.0000      -0.483693       -13.1620
  29   2.0000      -0.466159       -12.6848
  30   2.0000      -0.459778       -12.5112
  31   2.0000      -0.455096       -12.3838
  32   2.0000      -0.439225       -11.9519
  33   2.0000      -0.431360       -11.7379
  34   2.0000      -0.421802       -11.4778
  35   2.0000      -0.385974       -10.5029
  36   2.0000      -0.366882        -9.9834
  37   2.0000      -0.347968        -9.4687
  38   2.0000      -0.337188        -9.1754
  39   2.0000      -0.327311        -8.9066
  40   2.0000      -0.295971        -8.0538
  41   2.0000      -0.279345        -7.6014
  42   2.0000      -0.242189        -6.5903
  43   0.0000      -0.077072        -2.0972
  44   0.0000      -0.054263        -1.4766
  45   0.0000       0.047581         1.2947
  46   0.0000       0.052723         1.4347
  47   0.0000       0.059517         1.6195

MULLIKEN ATOMIC CHARGES
-----------------------
   0 C :   -0.037066
   1 C :    0.039174
   2 C :    0.010698
   3 C :   -0.003136
   4 C :    0.103543
   5 C :    0.092055
   6 N :   -0.099920
   7 C :    0.110953
   8 C :    0.130112
   9 N :   -0.099704
  10 F :   -0.154128
  11 F :   -0.152984
  12 H :    0.009685
  13 H :   -0.007433
  14 H :   -0.002183
  15 H :    0.006442
  16 H :    0.019814
  17 H :    0.034079
Sum of atomic charges:   -0.0000000

LOEWDIN ATOMIC CHARGES
----------------------
   0 C :   -0.022260
   1 C :   -0.033626
   2 C :   -0.027104
   3 C :   -0.017259
   4 C :    0.017679
   5 C :    0.015224
   6 N :   -0.076890
   7 C :    0.043554
   8 C :    0.039797
   9 N :   -0.073531
  10 F :   -0.035446
  11 F :   -0.034790
  12 H :    0.031159
  13 H :    0.031287
  14 H :    0.031806
  15 H :    0.030439
  16 H :    0.035654
  17 H :    0.044307

  Mayer bond orders larger than 0.100000
B(  0-C ,  1-C ) :   1.8166 B(  0-C ,  5-C ) :   0.9656 B(  0-C , 12-H ) :   0.9731
B(  1-C ,  2-C ) :   1.0647 B(  1-C , 13-H ) :   0.9735 B(  2-C ,  3-C ) :   1.8290
B(  2-C , 14-H ) :   0.9755 B(  3-C ,  4-C ) :   0.9911 B(  3-C , 15-H ) :   0.9691
B(  4-C ,  5-C ) :   0.9853 B(  4-C ,  9-N ) :   0.9897 B(  4-C , 16-H ) :   0.8982
B(  5-C ,  6-N ) :   0.9903 B(  5-C , 17-H ) :   0.8833 B(  6-N ,  7-C ) :   1.9379
B(  7-C ,  8-C ) :   0.9348 B(  7-C , 11-F ) :   1.1408 B(  8-C ,  9-N ) :   1.9420
B(  8-C , 10-F ) :   1.1404

Dispersion correction           -0.036820023
FINAL SINGLE POINT ENERGY      -617.155110257006

DIPOLE MOMENT
-------------
                                X             Y             Z
Electronic contribution:     -4.59919     -13.59257      -5.62861
Nuclear contribution   :      4.93034      14.39324       6.14140
                        -----------------------------------------
Total Dipole Moment    :      0.33114       0.80067       0.51280
                        -----------------------------------------
Magnitude (a.u.)       :      1.00682
Magnitude (Debye)      :      2.55914

Rotational constants in cm-1:     0.062261     0.024960     0.020698
Rotational constants in MHz :  1866.537708   748.283100   620.501980

                             ****ORCA TERMINATED NORMALLY****
TOTAL RUN TIME: 0 days 0 hours 12 minutes 14 seconds 853 msec
