                         Program Version 4.2.0 -  RELEASE  -
|  1> # ORCA input file
|  2> # SCF done        -33.618628066725          0.000490969658
|  3> ! B3LYP/G D3BJ Opt RIJCOSX def2-SVP def2/J
|  4> * xyz 0 1
|  5>    C       -1.28150         1.35876         0.02248
|  6>    C       -0.02113         0.75767         0.00326
|  7>    C        0.06272        -0.63689        -0.02873
|  8>    C       -1.09657        -1.41282        -0.03867
|  9>    C       -2.32862        -0.79644        -0.01871
| 10>    C       -2.42441         0.59225         0.01139
| 11>    O        1.25297        -1.29302        -0.05211
| 12>    C        2.39278        -0.57714        -0.04362
| 13>    C        3.61540        -1.44026        -0.07727
| 14>    C        2.42121         0.76910        -0.01054
| 15>    C        1.20999         1.57224         0.01678
| 16>    O        1.20230         2.79138         0.04403
| 17>    H       -1.31957         2.43741         0.04584
| 18>    H       -1.00290        -2.48727        -0.06215
| 19>    H       -3.22526        -1.39775        -0.02662
| 20>    H       -3.39524         1.06339         0.02558
| 21>    H        3.32326        -2.48680        -0.07061
| 22>    H        4.24616        -1.23741         0.78538
| 23>    H        4.19539        -1.23695        -0.97519
| 24>    H        3.36647         1.28730        -0.00490
| 25> *
| 26>
| 27>                          ****END OF INPUT****
 Total Charge           Charge          ....    0
 Multiplicity           Mult            ....    1
 Number of Electrons    NEL             ....   84
Dispersion correction           -0.039362054
FINAL SINGLE POINT ENERGY      -535.981691804515
Dispersion correction            ... done
Dispersion correction           -0.039159156
FINAL SINGLE POINT ENERGY      -535.983664615456
Dispersion correction            ... done
Dispersion correction           -0.039130564
FINAL SINGLE POINT ENERGY      -535.983737264790
Dispersion correction            ... done
FINAL SINGLE POINT ENERGY      -535.983746038733
FINAL SINGLE POINT ENERGY      -535.983761690950
FINAL SINGLE POINT ENERGY      -535.983763727929
FINAL SINGLE POINT ENERGY      -535.983771650739
FINAL SINGLE POINT ENERGY      -535.983733785729
FINAL SINGLE POINT ENERGY      -535.983679852955
FINAL SINGLE POINT ENERGY      -535.983749930902
FINAL SINGLE POINT ENERGY      -535.984414208061
FINAL SINGLE POINT ENERGY      -535.984789445359
FINAL SINGLE POINT ENERGY      -535.985080362643
FINAL SINGLE POINT ENERGY      -535.981622766809
FINAL SINGLE POINT ENERGY      -535.985514387954
FINAL SINGLE POINT ENERGY      -535.985734708450
Dispersion correction            ... done
Dispersion correction           -0.039143942
FINAL SINGLE POINT ENERGY      -535.985799032116
Dispersion correction            ... done
Dispersion correction           -0.039140580
FINAL SINGLE POINT ENERGY      -535.985821890463
Dispersion correction            ... done
                    ***********************HURRAY********************

CARTESIAN COORDINATES (ANGSTROEM)
---------------------------------
  C     -1.292885    1.367303    0.073500
  C     -0.022821    0.770219    0.020447
  C      0.061812   -0.625156   -0.098827
  C     -1.088509   -1.420088   -0.165676
  C     -2.335233   -0.806476   -0.110202
  C     -2.441887    0.590459    0.010980
  O      1.266604   -1.268001   -0.148400
  C      2.418913   -0.560254   -0.042631
  C      3.615992   -1.450637   -0.067270
  C      2.437197    0.790925    0.070230
  C      1.212928    1.589599    0.094422
  O      1.193446    2.810511    0.174607
  H     -1.328478    2.454316    0.172586
  H     -0.977474   -2.501758   -0.261418
  H     -3.237706   -1.419467   -0.161935
  H     -3.426370    1.060966    0.057998
  H      3.535894   -2.215354    0.722274
  H      4.534502   -0.869193    0.081258
  H      3.677682   -1.985710   -1.029174
  H      3.389844    1.314546    0.152850

 Multiplicity           Mult            ....    1
 Number of Electrons    NEL             ....   84
 Basis Dimension        Dim             ....  208

ORBITAL ENERGIES
----------------

  NO   OCC          E(Eh)            E(eV)
   0   2.0000     -19.215034      -522.8676
   1   2.0000     -19.100232      -519.7437
   2   2.0000     -10.282336      -279.7966
   3   2.0000     -10.271574      -279.5037
   4   2.0000     -10.263826      -279.2929
   5   2.0000     -10.212680      -277.9011
   6   2.0000     -10.211251      -277.8623
   7   2.0000     -10.207670      -277.7648
   8   2.0000     -10.203247      -277.6445
   9   2.0000     -10.202468      -277.6233
  10   2.0000     -10.202098      -277.6132
  11   2.0000     -10.192871      -277.3621
  12   2.0000      -1.114976       -30.3400
  13   2.0000      -1.007967       -27.4282
  14   2.0000      -0.868240       -23.6260
  15   2.0000      -0.818145       -22.2629
  16   2.0000      -0.778500       -21.1841
  17   2.0000      -0.753670       -20.5084
  18   2.0000      -0.722328       -19.6555
  19   2.0000      -0.658736       -17.9251
  20   2.0000      -0.632027       -17.1983
  21   2.0000      -0.598574       -16.2880
  22   2.0000      -0.560030       -15.2392
  23   2.0000      -0.530747       -14.4424
  24   2.0000      -0.508206       -13.8290
  25   2.0000      -0.488564       -13.2945
  26   2.0000      -0.479170       -13.0389
  27   2.0000      -0.449716       -12.2374
  28   2.0000      -0.444749       -12.1022
  29   2.0000      -0.428960       -11.6726
  30   2.0000      -0.427741       -11.6394
  31   2.0000      -0.421294       -11.4640
  32   2.0000      -0.411266       -11.1911
  33   2.0000      -0.393909       -10.7188
  34   2.0000      -0.393362       -10.7039
  35   2.0000      -0.376440       -10.2435
  36   2.0000      -0.365889        -9.9563
  37   2.0000      -0.353722        -9.6253
  38   2.0000      -0.278308        -7.5731
  39   2.0000      -0.269609        -7.3364
  40   2.0000      -0.244786        -6.6610
  41   2.0000      -0.244401        -6.6505
  42   0.0000      -0.058650        -1.5959
  43   0.0000      -0.026698        -0.7265
  44   0.0000      -0.006271        -0.1706
  45   0.0000       0.058554         1.5933
  46   0.0000       0.060281         1.6403

MULLIKEN ATOMIC CHARGES
-----------------------
   0 C :   -0.016882
   1 C :   -0.067027
   2 C :    0.189056
   3 C :   -0.033267
   4 C :    0.036201
   5 C :    0.039010
   6 O :   -0.238019
   7 C :    0.053371
   8 C :    0.102372
   9 C :   -0.087003
  10 C :    0.173710
  11 O :   -0.213330
  12 H :   -0.000379
  13 H :   -0.014201
  14 H :   -0.005830
  15 H :   -0.012378
  16 H :    0.042772
  17 H :    0.023670
  18 H :    0.040885
  19 H :   -0.012731
Sum of atomic charges:    0.0000000

LOEWDIN ATOMIC CHARGES
----------------------
   0 C :    0.017172
   1 C :   -0.080740
   2 C :    0.064367
   3 C :   -0.041681
   4 C :   -0.003823
   5 C :   -0.029384
   6 O :   -0.019775
   7 C :    0.077979
   8 C :   -0.045458
   9 C :   -0.107622
  10 C :    0.054708
  11 O :   -0.189592
  12 H :    0.037967
  13 H :    0.035561
  14 H :    0.031901
  15 H :    0.029989
  16 H :    0.044828
  17 H :    0.040108
  18 H :    0.045088
  19 H :    0.038406

  Mayer bond orders larger than 0.100000
B(  0-C ,  1-C ) :   1.3504 B(  0-C ,  5-C ) :   1.3823 B(  0-C , 12-H ) :   0.9890
B(  1-C ,  2-C ) :   1.3083 B(  1-C , 10-C ) :   0.9583 B(  2-C ,  3-C ) :   1.3472
B(  2-C ,  6-O ) :   1.0727 B(  3-C ,  4-C ) :   1.3950 B(  3-C , 13-H ) :   0.9893
B(  4-C ,  5-C ) :   1.3251 B(  4-C , 14-H ) :   0.9855 B(  5-C , 15-H ) :   0.9912
B(  6-O ,  7-C ) :   1.0988 B(  7-C ,  8-C ) :   1.0792 B(  7-C ,  9-C ) :   1.6124
B(  8-C , 16-H ) :   0.9439 B(  8-C , 17-H ) :   0.9567 B(  8-C , 18-H ) :   0.9424
B(  9-C , 10-C ) :   1.0704 B(  9-C , 19-H ) :   0.9656 B( 10-C , 11-O ) :   2.1090

Dispersion correction           -0.039139909
FINAL SINGLE POINT ENERGY      -535.985825447563

DIPOLE MOMENT
-------------
                                X             Y             Z
Electronic contribution:     -2.19717       3.46097       0.05349
Nuclear contribution   :      2.22934      -4.98411      -0.13439
                        -----------------------------------------
Total Dipole Moment    :      0.03217      -1.52314      -0.08090
                        -----------------------------------------
Magnitude (a.u.)       :      1.52562
Magnitude (Debye)      :      3.87783

Rotational constants in cm-1:     0.053778     0.028658     0.018764
Rotational constants in MHz :  1612.227808   859.154413   562.543067

                             ****ORCA TERMINATED NORMALLY****
TOTAL RUN TIME: 0 days 0 hours 24 minutes 6 seconds 930 msec
