                         Program Version 4.2.0 -  RELEASE  -
|  1> # ORCA input file
|  2> # SCF done        -47.091544279919          0.000734991001
|  3> ! B3LYP/G D3BJ Opt RIJCOSX def2-SVP def2/J
|  4> * xyz 0 1
|  5>    C       -0.37800        -1.34673         0.19087
|  6>    C       -1.14931        -0.08831         0.13409
|  7>    O       -2.34323         0.00445         0.28430
|  8>    N       -0.31840         0.99006        -0.10800
|  9>    C        1.00927         0.71476        -0.25153
| 10>    C        2.08156         1.52505        -0.50710
| 11>    C        2.19793         2.94222        -0.83125
| 12>    O        1.31475         3.76017        -0.97930
| 13>    N        3.53524         3.27711        -0.99027
| 14>    C        4.46589         2.29959        -0.86502
| 15>    S        6.07321         2.50950        -1.03485
| 16>    S        3.68108         0.77387        -0.49978
| 17>    C        3.92083         4.63157        -1.30442
| 18>    S        1.32449        -1.00582        -0.04676
| 19>    C       -0.90782         2.31041        -0.11693
| 20>    C       -0.92526        -2.54177         0.39975
| 21>    H        3.01339         5.23298        -1.32154
| 22>    H        4.41409         4.66416        -2.27642
| 23>    H        4.61224         5.00372        -0.54796
| 24>    H       -1.96561         2.18008         0.11130
| 25>    H       -0.79403         2.78236        -1.08990
| 26>    H       -0.43941         2.94075         0.63654
| 27>    H       -1.99146        -2.61386         0.53365
| 28>    H       -0.34118        -3.44283         0.44513
| 29> *
| 30>
| 31>                          ****END OF INPUT****
 Total Charge           Charge          ....    0
 Multiplicity           Mult            ....    1
 Number of Electrons    NEL             ....  140
Dispersion correction           -0.063615867
FINAL SINGLE POINT ENERGY     -1801.593004302634
Dispersion correction            ... done
Dispersion correction           -0.063045860
FINAL SINGLE POINT ENERGY     -1801.596623396324
Dispersion correction            ... done
Dispersion correction           -0.062950146
FINAL SINGLE POINT ENERGY     -1801.596738161724
Dispersion correction            ... done
FINAL SINGLE POINT ENERGY     -1801.596645057612
FINAL SINGLE POINT ENERGY     -1801.596624442209
FINAL SINGLE POINT ENERGY     -1801.596658950477
FINAL SINGLE POINT ENERGY     -1801.596639904910
FINAL SINGLE POINT ENERGY     -1801.596613585863
FINAL SINGLE POINT ENERGY     -1801.596605593000
Dispersion correction            ... done
Dispersion correction           -0.062938276
FINAL SINGLE POINT ENERGY     -1801.596600417992
Dispersion correction            ... done
Dispersion correction           -0.062937386
FINAL SINGLE POINT ENERGY     -1801.596595165000
Dispersion correction            ... done
                    ***********************HURRAY********************

CARTESIAN COORDINATES (ANGSTROEM)
---------------------------------
  C     -0.382833   -1.376065    0.188859
  C     -1.172411   -0.113753    0.088834
  O     -2.377136   -0.036249    0.160988
  N     -0.322704    0.989988   -0.090092
  C      1.026364    0.714972   -0.192156
  C      2.117321    1.522353   -0.415146
  C      2.221037    2.965486   -0.715146
  O      1.340946    3.802294   -0.766052
  N      3.567903    3.301098   -0.971365
  C      4.514911    2.312091   -0.890829
  S      6.128097    2.470072   -1.153782
  S      3.747000    0.788873   -0.449462
  C      3.928185    4.662792   -1.333676
  S      1.330742   -1.030957    0.000341
  C     -0.945621    2.312990   -0.141556
  C     -0.953236   -2.569378    0.399037
  H      3.018621    5.269902   -1.266140
  H      4.334887    4.684501   -2.356413
  H      4.704503    5.036677   -0.653072
  H     -1.993000    2.167717    0.147020
  H     -0.887238    2.732791   -1.152557
  H     -0.439629    2.997913    0.543389
  H     -2.040744   -2.611596    0.498308
  H     -0.375707   -3.491022    0.485269

 Multiplicity           Mult            ....    1
 Number of Electrons    NEL             ....  140
 Basis Dimension        Dim             ....  276

ORBITAL ENERGIES
----------------

  NO   OCC          E(Eh)            E(eV)
   0   2.0000     -88.903165     -2419.1781
   1   2.0000     -88.889559     -2418.8079
   2   2.0000     -88.813497     -2416.7381
   3   2.0000     -19.145844      -520.9849
   4   2.0000     -19.135380      -520.7002
   5   2.0000     -14.417164      -392.3110
   6   2.0000     -14.404623      -391.9697
   7   2.0000     -10.328566      -281.0546
   8   2.0000     -10.326572      -281.0003
   9   2.0000     -10.309966      -280.5484
  10   2.0000     -10.302693      -280.3505
  11   2.0000     -10.257035      -279.1081
  12   2.0000     -10.248954      -278.8882
  13   2.0000     -10.234236      -278.4877
  14   2.0000     -10.233836      -278.4768
  15   2.0000     -10.231371      -278.4097
  16   2.0000      -7.998920      -217.6617
  17   2.0000      -7.985131      -217.2865
  18   2.0000      -7.909642      -215.2323
  19   2.0000      -5.967589      -162.3864
  20   2.0000      -5.964008      -162.2889
  21   2.0000      -5.958181      -162.1303
  22   2.0000      -5.954035      -162.0175
  23   2.0000      -5.950002      -161.9078
  24   2.0000      -5.944391      -161.7551
  25   2.0000      -5.878468      -159.9612
  26   2.0000      -5.874869      -159.8633
  27   2.0000      -5.868936      -159.7019
  28   2.0000      -1.075655       -29.2701
  29   2.0000      -1.066826       -29.0298
  30   2.0000      -0.996393       -27.1132
  31   2.0000      -0.988066       -26.8867
  32   2.0000      -0.871422       -23.7126
  33   2.0000      -0.852100       -23.1868
  34   2.0000      -0.801933       -21.8217
  35   2.0000      -0.773945       -21.0601
  36   2.0000      -0.740451       -20.1487
  37   2.0000      -0.724199       -19.7064
  38   2.0000      -0.715668       -19.4743
  39   2.0000      -0.666840       -18.1456
  40   2.0000      -0.635268       -17.2865
  41   2.0000      -0.612630       -16.6705
  42   2.0000      -0.595888       -16.2149
  43   2.0000      -0.545137       -14.8339
  44   2.0000      -0.512161       -13.9366
  45   2.0000      -0.507301       -13.8043
  46   2.0000      -0.502503       -13.6738
  47   2.0000      -0.493361       -13.4250
  48   2.0000      -0.491387       -13.3713
  49   2.0000      -0.474453       -12.9105
  50   2.0000      -0.462999       -12.5988
  51   2.0000      -0.451984       -12.2991
  52   2.0000      -0.429647       -11.6913
  53   2.0000      -0.423509       -11.5243
  54   2.0000      -0.418609       -11.3909
  55   2.0000      -0.417187       -11.3522
  56   2.0000      -0.413182       -11.2433
  57   2.0000      -0.396815       -10.7979
  58   2.0000      -0.394152       -10.7254
  59   2.0000      -0.389925       -10.6104
  60   2.0000      -0.375253       -10.2111
  61   2.0000      -0.373846       -10.1729
  62   2.0000      -0.347824        -9.4648
  63   2.0000      -0.306893        -8.3510
  64   2.0000      -0.302371        -8.2279
  65   2.0000      -0.293987        -7.9998
  66   2.0000      -0.270583        -7.3629
  67   2.0000      -0.263232        -7.1629
  68   2.0000      -0.230345        -6.2680
  69   2.0000      -0.224040        -6.0964
  70   0.0000      -0.099831        -2.7165
  71   0.0000      -0.062073        -1.6891
  72   0.0000      -0.035862        -0.9759
  73   0.0000      -0.023669        -0.6441
  74   0.0000       0.032287         0.8786

MULLIKEN ATOMIC CHARGES
-----------------------
   0 C :   -0.131919
   1 C :    0.226223
   2 O :   -0.183652
   3 N :   -0.258414
   4 C :    0.036892
   5 C :   -0.223410
   6 C :    0.262380
   7 O :   -0.215228
   8 N :   -0.243193
   9 C :   -0.007055
  10 S :   -0.166096
  11 S :    0.121748
  12 C :    0.139747
  13 S :    0.105200
  14 C :    0.150425
  15 C :   -0.005601
  16 H :    0.054478
  17 H :    0.039549
  18 H :    0.045035
  19 H :    0.049855
  20 H :    0.051725
  21 H :    0.052658
  22 H :    0.060848
  23 H :    0.037804
Sum of atomic charges:   -0.0000000

LOEWDIN ATOMIC CHARGES
----------------------
   0 C :   -0.197309
   1 C :    0.071017
   2 O :   -0.159954
   3 N :   -0.013086
   4 C :   -0.078036
   5 C :   -0.282116
   6 C :    0.068824
   7 O :   -0.182385
   8 N :   -0.027396
   9 C :   -0.259305
  10 S :   -0.038761
  11 S :    0.365062
  12 C :    0.037995
  13 S :    0.379151
  14 C :    0.045455
  15 C :   -0.010455
  16 H :    0.034129
  17 H :    0.031804
  18 H :    0.031120
  19 H :    0.033530
  20 H :    0.034075
  21 H :    0.033088
  22 H :    0.047401
  23 H :    0.036153

  Mayer bond orders larger than 0.100000
B(  0-C ,  1-C ) :   0.9224 B(  0-C , 13-S ) :   1.0135 B(  0-C , 15-C ) :   1.9316
B(  1-C ,  2-O ) :   2.1227 B(  1-C ,  3-N ) :   1.0578 B(  3-N ,  4-C ) :   1.1715
B(  3-N , 14-C ) :   0.9266 B(  4-C ,  5-C ) :   1.6382 B(  4-C , 13-S ) :   1.0593
B(  5-C ,  6-C ) :   0.9866 B(  5-C , 11-S ) :   1.0245 B(  6-C ,  7-O ) :   2.0635
B(  6-C ,  8-N ) :   1.0426 B(  8-N ,  9-C ) :   1.1510 B(  8-N , 12-C ) :   0.9489
B(  9-C , 10-S ) :   1.6618 B(  9-C , 11-S ) :   1.0522 B( 10-S , 11-S ) :   0.1142
B( 12-C , 16-H ) :   0.9516 B( 12-C , 17-H ) :   0.9685 B( 12-C , 18-H ) :   0.9659
B( 14-C , 19-H ) :   0.9438 B( 14-C , 20-H ) :   0.9732 B( 14-C , 21-H ) :   0.9668
B( 15-C , 22-H ) :   0.9286 B( 15-C , 23-H ) :   0.9404

Dispersion correction           -0.062939479
FINAL SINGLE POINT ENERGY     -1801.596592307088

DIPOLE MOMENT
-------------
                                X             Y             Z
Electronic contribution:      7.95439      -7.06883       0.50538
Nuclear contribution   :     -8.60154       6.61639      -0.31637
                        -----------------------------------------
Total Dipole Moment    :     -0.64714      -0.45244       0.18901
                        -----------------------------------------
Magnitude (a.u.)       :      0.81193
Magnitude (Debye)      :      2.06375

Rotational constants in cm-1:     0.029505     0.007766     0.006169
Rotational constants in MHz :   884.538428   232.831319   184.953336

                             ****ORCA TERMINATED NORMALLY****
TOTAL RUN TIME: 0 days 0 hours 23 minutes 27 seconds 83 msec
