                         Program Version 4.2.0 -  RELEASE  -
|  1> # ORCA input file
|  2> # SCF done        -28.192182626057          0.000485523594
|  3> ! B3LYP/G D3BJ Opt RIJCOSX def2-SVP def2/J
|  4> * xyz 0 1
|  5>    C       -0.96982         1.41325        -0.00082
|  6>    C       -2.12240         0.68109        -0.00064
|  7>    C       -2.07621        -0.72814        -0.00010
|  8>    F       -3.25523        -1.38006         0.00005
|  9>    C       -0.91805        -1.45212         0.00026
| 10>    C        0.27923        -0.71936         0.00009
| 11>    C        0.25433         0.72195        -0.00046
| 12>    N        1.48345         1.24074        -0.00055
| 13>    S        2.54753         0.04007        -0.00002
| 14>    N        1.52452        -1.19743         0.00037
| 15>    H       -0.97618         2.49071        -0.00122
| 16>    H       -3.09020         1.15753        -0.00090
| 17>    H       -0.91498        -2.52894         0.00067
| 18> *
| 19>
| 20>                          ****END OF INPUT****
 Total Charge           Charge          ....    0
 Multiplicity           Mult            ....    1
 Number of Electrons    NEL             ....   78
Dispersion correction           -0.028173025
FINAL SINGLE POINT ENERGY      -837.542228951591
Dispersion correction            ... done
Dispersion correction           -0.028061684
FINAL SINGLE POINT ENERGY      -837.545225516110
Dispersion correction            ... done
Dispersion correction           -0.028052666
FINAL SINGLE POINT ENERGY      -837.545658861780
Dispersion correction            ... done
FINAL SINGLE POINT ENERGY      -837.545777247375
Dispersion correction            ... done
Dispersion correction           -0.028073989
FINAL SINGLE POINT ENERGY      -837.545800477202
Dispersion correction            ... done
Dispersion correction           -0.028076394
FINAL SINGLE POINT ENERGY      -837.545804773358
Dispersion correction            ... done
                    ***********************HURRAY********************

CARTESIAN COORDINATES (ANGSTROEM)
---------------------------------
  C     -0.973569    1.423308   -0.000865
  C     -2.131730    0.688303   -0.000783
  C     -2.086882   -0.742320   -0.000210
  F     -3.257109   -1.393257    0.000166
  C     -0.923140   -1.461751    0.000187
  C      0.297045   -0.726519    0.000024
  C      0.274250    0.730564   -0.000480
  N      1.491854    1.279706    0.000104
  S      2.568756    0.041205   -0.000883
  N      1.532626   -1.234419    0.000894
  H     -0.982209    2.514497   -0.001159
  H     -3.110993    1.171216   -0.001010
  H     -0.932909   -2.551244    0.000744

 Multiplicity           Mult            ....    1
 Number of Electrons    NEL             ....   78
 Basis Dimension        Dim             ....  159

ORBITAL ENERGIES
----------------

  NO   OCC          E(Eh)            E(eV)
   0   2.0000     -88.940190     -2420.1856
   1   2.0000     -24.712417      -672.4591
   2   2.0000     -14.365153      -390.8957
   3   2.0000     -14.361964      -390.8089
   4   2.0000     -10.295412      -280.1524
   5   2.0000     -10.252011      -278.9714
   6   2.0000     -10.249606      -278.9060
   7   2.0000     -10.224595      -278.2254
   8   2.0000     -10.223740      -278.2021
   9   2.0000     -10.214553      -277.9521
  10   2.0000      -8.031462      -218.5472
  11   2.0000      -6.001444      -163.3076
  12   2.0000      -5.994229      -163.1113
  13   2.0000      -5.992590      -163.0667
  14   2.0000      -1.223383       -33.2900
  15   2.0000      -1.022493       -27.8235
  16   2.0000      -0.891229       -24.2516
  17   2.0000      -0.867389       -23.6029
  18   2.0000      -0.769656       -20.9434
  19   2.0000      -0.762545       -20.7499
  20   2.0000      -0.663244       -18.0478
  21   2.0000      -0.625872       -17.0308
  22   2.0000      -0.611934       -16.6516
  23   2.0000      -0.551589       -15.0095
  24   2.0000      -0.532308       -14.4848
  25   2.0000      -0.514092       -13.9892
  26   2.0000      -0.486237       -13.2312
  27   2.0000      -0.466536       -12.6951
  28   2.0000      -0.458721       -12.4824
  29   2.0000      -0.447034       -12.1644
  30   2.0000      -0.436910       -11.8889
  31   2.0000      -0.395104       -10.7513
  32   2.0000      -0.384096       -10.4518
  33   2.0000      -0.360858        -9.8195
  34   2.0000      -0.344369        -9.3708
  35   2.0000      -0.331895        -9.0313
  36   2.0000      -0.306312        -8.3352
  37   2.0000      -0.274504        -7.4696
  38   2.0000      -0.253834        -6.9072
  39   0.0000      -0.097472        -2.6524
  40   0.0000      -0.009996        -0.2720
  41   0.0000      -0.000679        -0.0185
  42   0.0000       0.013645         0.3713
  43   0.0000       0.061409         1.6710

MULLIKEN ATOMIC CHARGES
-----------------------
   0 C :   -0.004066
   1 C :   -0.026653
   2 C :    0.302706
   3 F :   -0.190247
   4 C :   -0.086458
   5 C :    0.048896
   6 C :    0.054657
   7 N :   -0.278201
   8 S :    0.469370
   9 N :   -0.286580
  10 H :   -0.002530
  11 H :    0.006552
  12 H :   -0.007448
Sum of atomic charges:   -0.0000000

LOEWDIN ATOMIC CHARGES
----------------------
   0 C :   -0.007677
   1 C :   -0.036069
   2 C :    0.087835
   3 F :   -0.058104
   4 C :   -0.058370
   5 C :   -0.047320
   6 C :   -0.058848
   7 N :   -0.277259
   8 S :    0.611044
   9 N :   -0.284728
  10 H :    0.041880
  11 H :    0.041521
  12 H :    0.046094

  Mayer bond orders larger than 0.100000
B(  0-C ,  1-C ) :   1.4920 B(  0-C ,  4-C ) :   0.1203 B(  0-C ,  6-C ) :   1.1924
B(  0-C , 10-H ) :   1.0078 B(  1-C ,  2-C ) :   1.1867 B(  1-C , 11-H ) :   0.9867
B(  2-C ,  3-F ) :   1.0668 B(  2-C ,  4-C ) :   1.4640 B(  4-C ,  5-C ) :   1.1550
B(  4-C , 12-H ) :   1.0237 B(  5-C ,  6-C ) :   1.1395 B(  5-C ,  9-N ) :   1.5028
B(  6-C ,  7-N ) :   1.5061 B(  7-N ,  8-S ) :   1.2478 B(  7-N ,  9-N ) :   0.1626
B(  8-S ,  9-N ) :   1.2356

Dispersion correction           -0.028077560
FINAL SINGLE POINT ENERGY      -837.545807209235

DIPOLE MOMENT
-------------
                                X             Y             Z
Electronic contribution:      1.45162      -2.32266      -0.00033
Nuclear contribution   :     -1.64832       2.65066      -0.00100
                        -----------------------------------------
Total Dipole Moment    :     -0.19670       0.32801      -0.00133
                        -----------------------------------------
Magnitude (a.u.)       :      0.38247
Magnitude (Debye)      :      0.97215

Rotational constants in cm-1:     0.111461     0.026580     0.021462
Rotational constants in MHz :  3341.510930   796.856669   643.419273

                             ****ORCA TERMINATED NORMALLY****
TOTAL RUN TIME: 0 days 0 hours 4 minutes 55 seconds 219 msec
