                         Program Version 4.2.0 -  RELEASE  -
|  1> # ORCA input file
|  2> # SCF done        -33.630840152274          0.000798499351
|  3> ! B3LYP/G D3BJ Opt RIJCOSX def2-SVP def2/J
|  4> * xyz 0 1
|  5>    C       -2.40546        -0.76208        -0.00416
|  6>    C       -2.45664         0.63079        -0.03549
|  7>    C       -1.29900         1.37534        -0.04249
|  8>    C       -0.05227         0.74110        -0.01859
|  9>    C       -0.00649        -0.66330         0.01590
| 10>    C       -1.18898        -1.40578         0.02244
| 11>    C        1.28004        -1.35636         0.04360
| 12>    O        1.42947        -2.55184         0.08107
| 13>    O        2.40339        -0.57081         0.02335
| 14>    C        2.35270         0.77910        -0.01400
| 15>    C        3.70735         1.41354        -0.02995
| 16>    C        1.18907         1.45633        -0.03193
| 17>    H       -3.32174        -1.33241        -0.00142
| 18>    H       -3.41491         1.12886        -0.05574
| 19>    H       -1.33906         2.45439        -0.06733
| 20>    H       -1.11630        -2.48220         0.04779
| 21>    H        4.46651         0.63960        -0.09741
| 22>    H        3.86753         1.98882         0.88020
| 23>    H        3.80194         2.08728        -0.87883
| 24>    H        1.18577         2.53303        -0.05992
| 25> *
| 26>
| 27>                          ****END OF INPUT****
 Total Charge           Charge          ....    0
 Multiplicity           Mult            ....    1
 Number of Electrons    NEL             ....   84
Dispersion correction           -0.039741750
FINAL SINGLE POINT ENERGY      -535.995433798908
Dispersion correction            ... done
Dispersion correction           -0.039503311
FINAL SINGLE POINT ENERGY      -535.997637600598
Dispersion correction            ... done
Dispersion correction           -0.039459484
FINAL SINGLE POINT ENERGY      -535.997768972756
Dispersion correction            ... done
FINAL SINGLE POINT ENERGY      -535.997832161828
FINAL SINGLE POINT ENERGY      -535.997911264506
FINAL SINGLE POINT ENERGY      -535.998100176809
FINAL SINGLE POINT ENERGY      -535.998462749504
FINAL SINGLE POINT ENERGY      -535.998993119584
FINAL SINGLE POINT ENERGY      -535.999568181650
FINAL SINGLE POINT ENERGY      -536.000104867324
FINAL SINGLE POINT ENERGY      -536.000385710221
FINAL SINGLE POINT ENERGY      -536.000333945917
Dispersion correction            ... done
Dispersion correction           -0.039468061
FINAL SINGLE POINT ENERGY      -536.000480937132
Dispersion correction            ... done
Dispersion correction           -0.039468965
FINAL SINGLE POINT ENERGY      -536.000484126610
Dispersion correction            ... done
                    ***********************HURRAY********************

CARTESIAN COORDINATES (ANGSTROEM)
---------------------------------
  C     -2.429201   -0.776679    0.009862
  C     -2.484273    0.623098   -0.105434
  C     -1.317595    1.377452   -0.140061
  C     -0.058590    0.749822   -0.059176
  C     -0.011848   -0.659819    0.059691
  C     -1.196300   -1.413007    0.091256
  C      1.282423   -1.356518    0.150412
  O      1.451210   -2.542474    0.250261
  O      2.405340   -0.543030    0.114047
  C      2.361934    0.811693   -0.008861
  C      3.727657    1.409408   -0.025599
  C      1.187580    1.476748   -0.094878
  H     -3.351524   -1.360436    0.035877
  H     -3.452779    1.125119   -0.172181
  H     -1.365445    2.465126   -0.235901
  H     -1.114157   -2.497595    0.184950
  H      4.343558    0.927433   -0.801295
  H      4.234649    1.235014    0.938765
  H      3.683422    2.489532   -0.218353
  H      1.186860    2.562513   -0.196294

 Multiplicity           Mult            ....    1
 Number of Electrons    NEL             ....   84
 Basis Dimension        Dim             ....  208

ORBITAL ENERGIES
----------------

  NO   OCC          E(Eh)            E(eV)
   0   2.0000     -19.197279      -522.3845
   1   2.0000     -19.116770      -520.1938
   2   2.0000     -10.318302      -280.7753
   3   2.0000     -10.272482      -279.5284
   4   2.0000     -10.220816      -278.1225
   5   2.0000     -10.210807      -277.8502
   6   2.0000     -10.209771      -277.8220
   7   2.0000     -10.207518      -277.7607
   8   2.0000     -10.206960      -277.7455
   9   2.0000     -10.206277      -277.7269
  10   2.0000     -10.204000      -277.6649
  11   2.0000     -10.200504      -277.5698
  12   2.0000      -1.107920       -30.1480
  13   2.0000      -1.020429       -27.7673
  14   2.0000      -0.872971       -23.7548
  15   2.0000      -0.809987       -22.0409
  16   2.0000      -0.780898       -21.2493
  17   2.0000      -0.761947       -20.7336
  18   2.0000      -0.702140       -19.1062
  19   2.0000      -0.663396       -18.0519
  20   2.0000      -0.640082       -17.4175
  21   2.0000      -0.606869       -16.5137
  22   2.0000      -0.555154       -15.1065
  23   2.0000      -0.522546       -14.2192
  24   2.0000      -0.503981       -13.7140
  25   2.0000      -0.484055       -13.1718
  26   2.0000      -0.473658       -12.8889
  27   2.0000      -0.449204       -12.2235
  28   2.0000      -0.448431       -12.2024
  29   2.0000      -0.438064       -11.9203
  30   2.0000      -0.428215       -11.6523
  31   2.0000      -0.418436       -11.3862
  32   2.0000      -0.410772       -11.1777
  33   2.0000      -0.393990       -10.7210
  34   2.0000      -0.388007       -10.5582
  35   2.0000      -0.360078        -9.7982
  36   2.0000      -0.358186        -9.7467
  37   2.0000      -0.354479        -9.6459
  38   2.0000      -0.305493        -8.3129
  39   2.0000      -0.280707        -7.6384
  40   2.0000      -0.272741        -7.4217
  41   2.0000      -0.230153        -6.2628
  42   0.0000      -0.057544        -1.5658
  43   0.0000      -0.043010        -1.1704
  44   0.0000       0.025980         0.7070
  45   0.0000       0.054427         1.4810
  46   0.0000       0.057697         1.5700

MULLIKEN ATOMIC CHARGES
-----------------------
   0 C :    0.027770
   1 C :    0.047227
   2 C :   -0.043857
   3 C :    0.153798
   4 C :   -0.102994
   5 C :   -0.002891
   6 C :    0.216135
   7 O :   -0.170665
   8 O :   -0.246900
   9 C :    0.049566
  10 C :    0.100896
  11 C :   -0.070494
  12 H :   -0.009665
  13 H :   -0.010957
  14 H :   -0.021011
  15 H :    0.004540
  16 H :    0.040567
  17 H :    0.043588
  18 H :    0.017989
  19 H :   -0.022642
Sum of atomic charges:    0.0000000

LOEWDIN ATOMIC CHARGES
----------------------
   0 C :   -0.027809
   1 C :   -0.001619
   2 C :   -0.026338
   3 C :    0.001914
   4 C :   -0.078746
   5 C :    0.017487
   6 C :    0.095192
   7 O :   -0.157260
   8 O :   -0.043759
   9 C :    0.071535
  10 C :   -0.047818
  11 C :   -0.091795
  12 H :    0.030425
  13 H :    0.030843
  14 H :    0.028740
  15 H :    0.039045
  16 H :    0.044626
  17 H :    0.045485
  18 H :    0.036782
  19 H :    0.033070

  Mayer bond orders larger than 0.100000
B(  0-C ,  1-C ) :   1.3249 B(  0-C ,  5-C ) :   1.3837 B(  0-C , 12-H ) :   0.9887
B(  1-C ,  2-C ) :   1.4093 B(  1-C , 13-H ) :   0.9843 B(  2-C ,  3-C ) :   1.3121
B(  2-C , 14-H ) :   0.9903 B(  3-C ,  4-C ) :   1.2962 B(  3-C , 11-C ) :   1.1087
B(  4-C ,  5-C ) :   1.3597 B(  4-C ,  6-C ) :   0.9799 B(  5-C , 15-H ) :   0.9898
B(  6-C ,  7-O ) :   2.1906 B(  6-C ,  8-O ) :   1.0290 B(  8-O ,  9-C ) :   1.0921
B(  9-C , 10-C ) :   1.0937 B(  9-C , 11-C ) :   1.6460 B( 10-C , 16-H ) :   0.9389
B( 10-C , 17-H ) :   0.9399 B( 10-C , 18-H ) :   0.9542 B( 11-C , 19-H ) :   0.9680

Dispersion correction           -0.039468940
FINAL SINGLE POINT ENERGY      -536.000487124062

DIPOLE MOMENT
-------------
                                X             Y             Z
Electronic contribution:     -0.70016      -5.66805       0.47248
Nuclear contribution   :      0.26412       7.19756      -0.61312
                        -----------------------------------------
Total Dipole Moment    :     -0.43605       1.52951      -0.14064
                        -----------------------------------------
Magnitude (a.u.)       :      1.59666
Magnitude (Debye)      :      4.05838

Rotational constants in cm-1:     0.058611     0.026931     0.018517
Rotational constants in MHz :  1757.102416   807.376150   555.111690

                             ****ORCA TERMINATED NORMALLY****
TOTAL RUN TIME: 0 days 0 hours 18 minutes 25 seconds 173 msec
