                         Program Version 4.2.0 -  RELEASE  -
|  1> # ORCA input file
|  2> # SCF done        -31.561452450007          0.000601031135
|  3> ! B3LYP/G D3BJ Opt RIJCOSX def2-SVP def2/J
|  4> * xyz 0 1
|  5>    C        0.74628         1.52028        -0.00006
|  6>    C        0.65811         3.00200         0.00168
|  7>    N        1.91125         0.94578        -0.00147
|  8>    N        2.08109        -0.37369        -0.00313
|  9>    C        1.09959        -1.22449        -0.00354
| 10>    C       -0.23927        -0.72654        -0.00207
| 11>    C       -0.42283         0.69951        -0.00025
| 12>    N       -1.72130         0.92822         0.00092
| 13>    O       -2.30214        -0.26724        -0.00005
| 14>    N       -1.43749        -1.27663        -0.00189
| 15>    C        1.38952        -2.68024        -0.00553
| 16>    H        1.65728         3.42626         0.00220
| 17>    H        0.10998         3.33777         0.88042
| 18>    H        0.11013         3.33980        -0.87639
| 19>    H        2.46356        -2.83765        -0.00519
| 20>    H        0.94517        -3.14348        -0.88494
| 21>    H        0.94405        -3.14618         0.87187
| 22> *
| 23>
| 24>                          ****END OF INPUT****
 Total Charge           Charge          ....    0
 Multiplicity           Mult            ....    1
 Number of Electrons    NEL             ....   78
Dispersion correction           -0.031612973
FINAL SINGLE POINT ENERGY      -525.985700845902
Dispersion correction            ... done
Dispersion correction           -0.031495641
FINAL SINGLE POINT ENERGY      -525.989138873012
Dispersion correction            ... done
Dispersion correction           -0.031477131
FINAL SINGLE POINT ENERGY      -525.989654621295
Dispersion correction            ... done
Dispersion correction           -0.031486265
FINAL SINGLE POINT ENERGY      -525.989716319077
Dispersion correction            ... done
Dispersion correction           -0.031490199
FINAL SINGLE POINT ENERGY      -525.989720361818
Dispersion correction            ... done
                    ***********************HURRAY********************

CARTESIAN COORDINATES (ANGSTROEM)
---------------------------------
  C      0.749951    1.535458   -0.000062
  C      0.644193    3.025673    0.001894
  N      1.928987    0.970363   -0.001569
  N      2.105156   -0.391594   -0.003227
  C      1.107511   -1.237834   -0.003558
  C     -0.234870   -0.718176   -0.002189
  C     -0.416258    0.692856   -0.000373
  N     -1.709219    0.953543    0.000598
  O     -2.303062   -0.265306   -0.000923
  N     -1.419640   -1.297398   -0.002295
  C      1.383660   -2.707230   -0.005358
  H      1.649953    3.462219    0.001728
  H      0.087996    3.374960    0.886835
  H      0.086747    3.377240   -0.881344
  H      2.467229   -2.877021   -0.005761
  H      0.932214   -3.186033   -0.889451
  H      0.932433   -3.188240    0.877634

 Multiplicity           Mult            ....    1
 Number of Electrons    NEL             ....   78
 Basis Dimension        Dim             ....  184

ORBITAL ENERGIES
----------------

  NO   OCC          E(Eh)            E(eV)
   0   2.0000     -19.292024      -524.9627
   1   2.0000     -14.425646      -392.5418
   2   2.0000     -14.425546      -392.5391
   3   2.0000     -14.370436      -391.0395
   4   2.0000     -14.370267      -391.0349
   5   2.0000     -10.269642      -279.4512
   6   2.0000     -10.269293      -279.4417
   7   2.0000     -10.264795      -279.3193
   8   2.0000     -10.264411      -279.3088
   9   2.0000     -10.209845      -277.8240
  10   2.0000     -10.209358      -277.8108
  11   2.0000      -1.222965       -33.2786
  12   2.0000      -1.021458       -27.7953
  13   2.0000      -0.942780       -25.6543
  14   2.0000      -0.900870       -24.5139
  15   2.0000      -0.870332       -23.6829
  16   2.0000      -0.774432       -21.0734
  17   2.0000      -0.723134       -19.6775
  18   2.0000      -0.706042       -19.2124
  19   2.0000      -0.689488       -18.7619
  20   2.0000      -0.605676       -16.4813
  21   2.0000      -0.580540       -15.7973
  22   2.0000      -0.571712       -15.5571
  23   2.0000      -0.539377       -14.6772
  24   2.0000      -0.473745       -12.8913
  25   2.0000      -0.467164       -12.7122
  26   2.0000      -0.454906       -12.3786
  27   2.0000      -0.452042       -12.3007
  28   2.0000      -0.446578       -12.1520
  29   2.0000      -0.415567       -11.3081
  30   2.0000      -0.409007       -11.1296
  31   2.0000      -0.402693       -10.9578
  32   2.0000      -0.363594        -9.8939
  33   2.0000      -0.357794        -9.7361
  34   2.0000      -0.347768        -9.4632
  35   2.0000      -0.345128        -9.3914
  36   2.0000      -0.321458        -8.7473
  37   2.0000      -0.286665        -7.8006
  38   2.0000      -0.253255        -6.8914
  39   0.0000      -0.118382        -3.2213
  40   0.0000      -0.039532        -1.0757
  41   0.0000      -0.014968        -0.4073
  42   0.0000       0.063382         1.7247
  43   0.0000       0.065286         1.7765

MULLIKEN ATOMIC CHARGES
-----------------------
   0 C :   -0.145286
   1 C :    0.097365
   2 N :   -0.062329
   3 N :   -0.060308
   4 C :   -0.152070
   5 C :    0.000603
   6 C :   -0.007663
   7 N :    0.062353
   8 O :   -0.117968
   9 N :    0.057937
  10 C :    0.102191
  11 H :    0.031938
  12 H :    0.040797
  13 H :    0.040827
  14 H :    0.031789
  15 H :    0.039904
  16 H :    0.039920
Sum of atomic charges:   -0.0000000

LOEWDIN ATOMIC CHARGES
----------------------
   0 C :    0.001849
   1 C :   -0.043957
   2 N :   -0.051700
   3 N :   -0.051130
   4 C :    0.001698
   5 C :   -0.069951
   6 C :   -0.071017
   7 N :   -0.001940
   8 O :    0.064624
   9 N :   -0.002863
  10 C :   -0.044057
  11 H :    0.042685
  12 H :    0.045816
  13 H :    0.045817
  14 H :    0.042722
  15 H :    0.045707
  16 H :    0.045697

  Mayer bond orders larger than 0.100000
B(  0-C ,  1-C ) :   1.1129 B(  0-C ,  2-N ) :   1.7873 B(  0-C ,  6-C ) :   1.0606
B(  1-C , 11-H ) :   0.9369 B(  1-C , 12-H ) :   0.9472 B(  1-C , 13-H ) :   0.9472
B(  2-N ,  3-N ) :   1.0999 B(  3-N ,  4-C ) :   1.7902 B(  4-C ,  5-C ) :   1.0621
B(  4-C , 10-C ) :   1.1147 B(  5-C ,  6-C ) :   1.1763 B(  5-C ,  9-N ) :   1.5934
B(  6-C ,  7-N ) :   1.5948 B(  7-N ,  8-O ) :   1.0543 B(  7-N ,  9-N ) :   0.1983
B(  8-O ,  9-N ) :   1.0528 B( 10-C , 14-H ) :   0.9354 B( 10-C , 15-H ) :   0.9464
B( 10-C , 16-H ) :   0.9465

Dispersion correction           -0.031490945
FINAL SINGLE POINT ENERGY      -525.989720665161

DIPOLE MOMENT
-------------
                                X             Y             Z
Electronic contribution:     -5.12107      -0.65152       0.00131
Nuclear contribution   :      4.95873       0.63256      -0.00101
                        -----------------------------------------
Total Dipole Moment    :     -0.16235      -0.01895       0.00030
                        -----------------------------------------
Magnitude (a.u.)       :      0.16345
Magnitude (Debye)      :      0.41545

Rotational constants in cm-1:     0.051004     0.044723     0.024043
Rotational constants in MHz :  1529.072419  1340.759672   720.786658

                             ****ORCA TERMINATED NORMALLY****
TOTAL RUN TIME: 0 days 0 hours 5 minutes 50 seconds 61 msec
