                         Program Version 4.2.0 -  RELEASE  -
|  1> # ORCA input file
|  2> # SCF done        -32.550688542154          0.000789604676
|  3> ! B3LYP/G D3BJ Opt RIJCOSX def2-SVP def2/J
|  4> * xyz 0 1
|  5>    C        1.90161         1.11199         0.00381
|  6>    C        2.21389        -0.24215         0.00446
|  7>    C        1.21513        -1.20574         0.00457
|  8>    C       -0.10297        -0.78330         0.00394
|  9>    C       -0.41814         0.58357         0.00326
| 10>    C        0.58165         1.54076         0.00323
| 11>    C       -1.88708         0.77000         0.00254
| 12>    O       -2.49936         1.81067         0.00203
| 13>    C       -2.46198        -0.60698         0.00348
| 14>    C       -1.34224        -1.59370         0.00386
| 15>    O       -1.43816        -2.79723         0.00450
| 16>    C       -3.75902        -0.90686         0.00359
| 17>    H        2.69898         1.84055         0.00371
| 18>    H        3.24981        -0.54780         0.00501
| 19>    H        1.44744        -2.25981         0.00516
| 20>    H        0.32870         2.59007         0.00260
| 21>    H       -4.50747        -0.13076         0.00194
| 22>    H       -4.08899        -1.93348         0.00272
| 23> *
| 24>
| 25>                          ****END OF INPUT****
 Total Charge           Charge          ....    0
 Multiplicity           Mult            ....    1
 Number of Electrons    NEL             ....   82
Dispersion correction           -0.038032871
FINAL SINGLE POINT ENERGY      -534.757462313176
Dispersion correction            ... done
Dispersion correction           -0.037865671
FINAL SINGLE POINT ENERGY      -534.759404667767
Dispersion correction            ... done
Dispersion correction           -0.037846538
FINAL SINGLE POINT ENERGY      -534.759462786487
Dispersion correction            ... done
Dispersion correction           -0.037842429
FINAL SINGLE POINT ENERGY      -534.759465594740
Dispersion correction            ... done
Dispersion correction           -0.037847204
FINAL SINGLE POINT ENERGY      -534.759476982806
Dispersion correction            ... done
                    ***********************HURRAY********************

CARTESIAN COORDINATES (ANGSTROEM)
---------------------------------
  C      1.914496    1.124836    0.004148
  C      2.232169   -0.245933    0.004673
  C      1.227732   -1.217188    0.004459
  C     -0.098540   -0.785878    0.003671
  C     -0.415169    0.583550    0.002983
  C      0.584571    1.554775    0.003283
  C     -1.897313    0.769484    0.001812
  O     -2.499088    1.821021    0.000916
  C     -2.481042   -0.612647    0.002935
  C     -1.351037   -1.602463    0.003548
  O     -1.434200   -2.811512    0.003833
  C     -3.784614   -0.909893    0.003409
  H      2.721936    1.860747    0.004400
  H      3.280956   -0.553231    0.005311
  H      1.459451   -2.284212    0.004951
  H      0.319405    2.614407    0.002805
  H     -4.534236   -0.113331    0.002994
  H     -4.113673   -1.952732    0.004278

 Multiplicity           Mult            ....    1
 Number of Electrons    NEL             ....   82
 Basis Dimension        Dim             ....  198

ORBITAL ENERGIES
----------------

  NO   OCC          E(Eh)            E(eV)
   0   2.0000     -19.138104      -520.7743
   1   2.0000     -19.137873      -520.7680
   2   2.0000     -10.286991      -279.9233
   3   2.0000     -10.286463      -279.9089
   4   2.0000     -10.227570      -278.3063
   5   2.0000     -10.224305      -278.2175
   6   2.0000     -10.223962      -278.2081
   7   2.0000     -10.221992      -278.1546
   8   2.0000     -10.221831      -278.1502
   9   2.0000     -10.217731      -278.0386
  10   2.0000     -10.217142      -278.0226
  11   2.0000     -10.210292      -277.8362
  12   2.0000      -1.044526       -28.4230
  13   2.0000      -1.040143       -28.3037
  14   2.0000      -0.890509       -24.2320
  15   2.0000      -0.831465       -22.6253
  16   2.0000      -0.773800       -21.0562
  17   2.0000      -0.772042       -21.0083
  18   2.0000      -0.688666       -18.7396
  19   2.0000      -0.655942       -17.8491
  20   2.0000      -0.605476       -16.4758
  21   2.0000      -0.577783       -15.7223
  22   2.0000      -0.558899       -15.2084
  23   2.0000      -0.509754       -13.8711
  24   2.0000      -0.494303       -13.4507
  25   2.0000      -0.486346       -13.2342
  26   2.0000      -0.460694       -12.5361
  27   2.0000      -0.453236       -12.3332
  28   2.0000      -0.447078       -12.1656
  29   2.0000      -0.444587       -12.0978
  30   2.0000      -0.436956       -11.8902
  31   2.0000      -0.411244       -11.1905
  32   2.0000      -0.401534       -10.9263
  33   2.0000      -0.392470       -10.6796
  34   2.0000      -0.384333       -10.4582
  35   2.0000      -0.378079       -10.2881
  36   2.0000      -0.299595        -8.1524
  37   2.0000      -0.285537        -7.7699
  38   2.0000      -0.284649        -7.7457
  39   2.0000      -0.283958        -7.7269
  40   2.0000      -0.255377        -6.9492
  41   0.0000      -0.098154        -2.6709
  42   0.0000      -0.087100        -2.3701
  43   0.0000      -0.024009        -0.6533
  44   0.0000       0.021672         0.5897
  45   0.0000       0.054451         1.4817

MULLIKEN ATOMIC CHARGES
-----------------------
   0 C :    0.034322
   1 C :    0.038847
   2 C :   -0.007438
   3 C :   -0.014838
   4 C :   -0.014246
   5 C :   -0.012957
   6 C :    0.172345
   7 O :   -0.151670
   8 C :   -0.171535
   9 C :    0.172647
  10 O :   -0.153656
  11 C :    0.018654
  12 H :    0.003936
  13 H :   -0.000695
  14 H :   -0.003673
  15 H :   -0.001538
  16 H :    0.047512
  17 H :    0.043982
Sum of atomic charges:    0.0000000

LOEWDIN ATOMIC CHARGES
----------------------
   0 C :   -0.001680
   1 C :   -0.000673
   2 C :    0.010574
   3 C :   -0.044236
   4 C :   -0.044124
   5 C :    0.009912
   6 C :    0.076462
   7 O :   -0.137531
   8 C :   -0.106211
   9 C :    0.077152
  10 O :   -0.137507
  11 C :    0.069709
  12 H :    0.034801
  13 H :    0.033768
  14 H :    0.038911
  15 H :    0.039349
  16 H :    0.040964
  17 H :    0.040360

  Mayer bond orders larger than 0.100000
B(  0-C ,  1-C ) :   1.3540 B(  0-C ,  5-C ) :   1.3668 B(  0-C , 12-H ) :   0.9828
B(  1-C ,  2-C ) :   1.3596 B(  1-C , 13-H ) :   0.9855 B(  2-C ,  3-C ) :   1.3660
B(  2-C , 14-H ) :   0.9985 B(  3-C ,  4-C ) :   1.3330 B(  3-C ,  9-C ) :   0.9169
B(  4-C ,  5-C ) :   1.3588 B(  4-C ,  6-C ) :   0.9238 B(  5-C , 15-H ) :   0.9990
B(  6-C ,  7-O ) :   2.2367 B(  6-C ,  8-C ) :   0.9238 B(  8-C ,  9-C ) :   0.9237
B(  8-C , 11-C ) :   1.9480 B(  9-C , 10-O ) :   2.2331 B( 11-C , 16-H ) :   0.9282
B( 11-C , 17-H ) :   0.9274

Dispersion correction           -0.037850034
FINAL SINGLE POINT ENERGY      -534.759477351242

DIPOLE MOMENT
-------------
                                X             Y             Z
Electronic contribution:     -2.27974      -0.53933      -0.00356
Nuclear contribution   :      3.16047       0.74235       0.00466
                        -----------------------------------------
Total Dipole Moment    :      0.88073       0.20301       0.00110
                        -----------------------------------------
Magnitude (a.u.)       :      0.90383
Magnitude (Debye)      :      2.29734

Rotational constants in cm-1:     0.055028     0.029925     0.019384
Rotational constants in MHz :  1649.703277   897.138741   581.116862

                             ****ORCA TERMINATED NORMALLY****
TOTAL RUN TIME: 0 days 0 hours 6 minutes 23 seconds 276 msec
