                         Program Version 4.2.0 -  RELEASE  -
|  1> # ORCA input file
|  2> # SCF done        -56.613922582942          0.000425901142
|  3> ! B3LYP/G D3BJ Opt RIJCOSX def2-SVP def2/J
|  4> * xyz 0 1
|  5>    C        1.25243         0.32186         0.14484
|  6>    C        0.60458         1.34150        -0.65821
|  7>    C        0.67415         1.36838        -2.05495
|  8>    C        0.03775         2.35708        -2.77163
|  9>    C       -0.67524         3.36414        -2.12092
| 10>    C       -0.76536         3.33654        -0.73013
| 11>    C       -0.14309         2.33379        -0.01603
| 12>    C       -1.33565         4.40025        -2.96386
| 13>    O       -1.60642         4.22379        -4.11995
| 14>    O       -1.61246         5.57553        -2.36738
| 15>    C        2.23874        -0.48791        -0.26639
| 16>    C        2.89627        -1.49775         0.54161
| 17>    C        4.14554        -1.98315         0.13977
| 18>    C        4.81046        -2.93104         0.88532
| 19>    C        4.23512        -3.45211         2.04387
| 20>    C        2.98645        -2.98088         2.44814
| 21>    C        2.33247        -2.01550         1.71125
| 22>    C        5.00968        -4.47591         2.79997
| 23>    O        6.19916        -4.59938         2.69621
| 24>    O        4.30718        -5.28451         3.61612
| 25>    H        0.90997         0.26775         1.16998
| 26>    H        1.21289         0.59642        -2.58168
| 27>    H        0.07821         2.37625        -3.85009
| 28>    H       -1.35159         4.07052        -0.19164
| 29>    H       -0.22766         2.31758         1.06117
| 30>    H       -1.29944         5.61005        -1.45399
| 31>    H        2.63491        -0.38111        -1.26735
| 32>    H        4.59860        -1.59506        -0.76079
| 33>    H        5.78186        -3.29515         0.58759
| 34>    H        2.52231        -3.33768         3.35914
| 35>    H        1.36315        -1.67195         2.03807
| 36>    H        3.35619        -5.12124         3.57062
| 37> *
| 38>
| 39>                          ****END OF INPUT****
 Total Charge           Charge          ....    0
 Multiplicity           Mult            ....    1
 Number of Electrons    NEL             ....  140
Dispersion correction           -0.068232615
FINAL SINGLE POINT ENERGY      -917.245115848768
Dispersion correction            ... done
Dispersion correction           -0.067720761
FINAL SINGLE POINT ENERGY      -917.248387327749
Dispersion correction            ... done
Dispersion correction           -0.067655572
FINAL SINGLE POINT ENERGY      -917.248461773949
Dispersion correction            ... done
FINAL SINGLE POINT ENERGY      -917.248242311015
FINAL SINGLE POINT ENERGY      -917.247975739990
FINAL SINGLE POINT ENERGY      -917.248355048932
FINAL SINGLE POINT ENERGY      -917.248588650397
FINAL SINGLE POINT ENERGY      -917.248860294521
FINAL SINGLE POINT ENERGY      -917.248102588440
FINAL SINGLE POINT ENERGY      -917.248433336005
FINAL SINGLE POINT ENERGY      -917.248774046787
FINAL SINGLE POINT ENERGY      -917.248773815498
FINAL SINGLE POINT ENERGY      -917.248774027793
FINAL SINGLE POINT ENERGY      -917.248643630556
FINAL SINGLE POINT ENERGY      -917.248883108997
FINAL SINGLE POINT ENERGY      -917.248785043931
FINAL SINGLE POINT ENERGY      -917.248850482451
Dispersion correction            ... done
Dispersion correction           -0.067687719
FINAL SINGLE POINT ENERGY      -917.248848384200
Dispersion correction            ... done
Dispersion correction           -0.067687584
FINAL SINGLE POINT ENERGY      -917.248882015636
Dispersion correction            ... done
                    ***********************HURRAY********************

CARTESIAN COORDINATES (ANGSTROEM)
---------------------------------
  C      1.309338    0.362574    0.121748
  C      0.692648    1.427955   -0.667573
  C      1.117400    1.785898   -1.966252
  C      0.454134    2.769102   -2.687561
  C     -0.639814    3.454286   -2.131429
  C     -1.056807    3.122563   -0.834477
  C     -0.400014    2.125947   -0.117241
  C     -1.364823    4.446605   -2.990584
  O     -1.300177    4.449725   -4.191517
  O     -2.131301    5.354412   -2.343349
  C      2.292891   -0.474711   -0.271149
  C      2.898790   -1.538821    0.529011
  C      3.879887   -2.362388   -0.061152
  C      4.512636   -3.367437    0.660557
  C      4.184286   -3.590636    2.005269
  C      3.204058   -2.779097    2.601999
  C      2.567701   -1.777126    1.879033
  C      4.951248   -4.652843    2.736272
  O      5.921885   -5.191632    2.272615
  O      4.510782   -4.988001    3.969079
  H      0.892519    0.246125    1.126782
  H      1.969021    1.277985   -2.421840
  H      0.766335    3.031588   -3.699532
  H     -1.925095    3.609155   -0.382257
  H     -0.752378    1.857659    0.881369
  H     -1.941173    5.337408   -1.394999
  H      2.700071   -0.377655   -1.282249
  H      4.155163   -2.193277   -1.104960
  H      5.279036   -3.996738    0.205764
  H      2.935572   -2.897809    3.655854
  H      1.822748   -1.157689    2.380747
  H      3.664595   -4.562029    4.160703

 Multiplicity           Mult            ....    1
 Number of Electrons    NEL             ....  140
 Basis Dimension        Dim             ....  340

ORBITAL ENERGIES
----------------

  NO   OCC          E(Eh)            E(eV)
   0   2.0000     -19.185647      -522.0680
   1   2.0000     -19.185236      -522.0568
   2   2.0000     -19.123330      -520.3723
   3   2.0000     -19.121594      -520.3250
   4   2.0000     -10.323738      -280.9232
   5   2.0000     -10.323076      -280.9052
   6   2.0000     -10.230406      -278.3835
   7   2.0000     -10.230184      -278.3775
   8   2.0000     -10.229151      -278.3493
   9   2.0000     -10.227623      -278.3078
  10   2.0000     -10.224172      -278.2139
  11   2.0000     -10.223544      -278.1968
  12   2.0000     -10.222300      -278.1629
  13   2.0000     -10.221612      -278.1442
  14   2.0000     -10.221564      -278.1429
  15   2.0000     -10.220885      -278.1244
  16   2.0000     -10.218349      -278.0554
  17   2.0000     -10.217592      -278.0348
  18   2.0000     -10.216961      -278.0176
  19   2.0000     -10.216135      -277.9952
  20   2.0000      -1.096816       -29.8459
  21   2.0000      -1.096480       -29.8367
  22   2.0000      -1.014163       -27.5968
  23   2.0000      -1.013200       -27.5706
  24   2.0000      -0.887098       -24.1392
  25   2.0000      -0.881660       -23.9912
  26   2.0000      -0.827133       -22.5074
  27   2.0000      -0.792396       -21.5622
  28   2.0000      -0.769993       -20.9526
  29   2.0000      -0.769683       -20.9442
  30   2.0000      -0.745294       -20.2805
  31   2.0000      -0.681913       -18.5558
  32   2.0000      -0.647133       -17.6094
  33   2.0000      -0.639906       -17.4127
  34   2.0000      -0.633092       -17.2273
  35   2.0000      -0.624155       -16.9841
  36   2.0000      -0.613422       -16.6921
  37   2.0000      -0.579405       -15.7664
  38   2.0000      -0.571632       -15.5549
  39   2.0000      -0.570347       -15.5199
  40   2.0000      -0.523103       -14.2344
  41   2.0000      -0.510612       -13.8945
  42   2.0000      -0.487802       -13.2738
  43   2.0000      -0.476020       -12.9532
  44   2.0000      -0.471251       -12.8234
  45   2.0000      -0.469575       -12.7778
  46   2.0000      -0.460593       -12.5334
  47   2.0000      -0.459220       -12.4960
  48   2.0000      -0.450627       -12.2622
  49   2.0000      -0.449144       -12.2218
  50   2.0000      -0.445500       -12.1227
  51   2.0000      -0.442315       -12.0360
  52   2.0000      -0.420041       -11.4299
  53   2.0000      -0.415515       -11.3067
  54   2.0000      -0.409293       -11.1374
  55   2.0000      -0.398237       -10.8366
  56   2.0000      -0.392612       -10.6835
  57   2.0000      -0.382494       -10.4082
  58   2.0000      -0.377265       -10.2659
  59   2.0000      -0.373900       -10.1743
  60   2.0000      -0.364333        -9.9140
  61   2.0000      -0.344594        -9.3769
  62   2.0000      -0.328212        -8.9311
  63   2.0000      -0.323987        -8.8161
  64   2.0000      -0.297765        -8.1026
  65   2.0000      -0.288299        -7.8450
  66   2.0000      -0.287005        -7.8098
  67   2.0000      -0.283289        -7.7087
  68   2.0000      -0.281503        -7.6601
  69   2.0000      -0.239809        -6.5255
  70   0.0000      -0.101076        -2.7504
  71   0.0000      -0.053035        -1.4432
  72   0.0000      -0.039348        -1.0707
  73   0.0000      -0.037987        -1.0337
  74   0.0000      -0.002773        -0.0755

MULLIKEN ATOMIC CHARGES
-----------------------
   0 C :    0.019760
   1 C :    0.111556
   2 C :   -0.008603
   3 C :    0.023948
   4 C :   -0.046520
   5 C :   -0.001780
   6 C :   -0.021815
   7 C :    0.184115
   8 O :   -0.184446
   9 O :   -0.160707
  10 C :    0.020476
  11 C :    0.114433
  12 C :   -0.015610
  13 C :    0.017793
  14 C :   -0.035826
  15 C :   -0.008286
  16 C :   -0.020992
  17 C :    0.183449
  18 O :   -0.183777
  19 O :   -0.158635
  20 H :   -0.025526
  21 H :   -0.016786
  22 H :    0.001087
  23 H :   -0.024231
  24 H :   -0.022404
  25 H :    0.172055
  26 H :   -0.022020
  27 H :   -0.015157
  28 H :    0.008271
  29 H :   -0.033439
  30 H :   -0.021933
  31 H :    0.171548
Sum of atomic charges:    0.0000000

LOEWDIN ATOMIC CHARGES
----------------------
   0 C :   -0.010917
   1 C :   -0.011958
   2 C :   -0.007468
   3 C :    0.018435
   4 C :   -0.080331
   5 C :   -0.022853
   6 C :   -0.012875
   7 C :    0.080269
   8 O :   -0.153565
   9 O :   -0.033233
  10 C :   -0.008693
  11 C :   -0.010906
  12 C :   -0.010460
  13 C :    0.019003
  14 C :   -0.080666
  15 C :   -0.021263
  16 C :   -0.011405
  17 C :    0.080718
  18 O :   -0.155937
  19 O :   -0.032243
  20 H :    0.025596
  21 H :    0.029712
  22 H :    0.039664
  23 H :    0.024477
  24 H :    0.028414
  25 H :    0.085503
  26 H :    0.027814
  27 H :    0.030696
  28 H :    0.040931
  29 H :    0.022080
  30 H :    0.027942
  31 H :    0.083518

  Mayer bond orders larger than 0.100000
B(  0-C ,  1-C ) :   1.0931 B(  0-C , 10-C ) :   1.6762 B(  0-C , 20-H ) :   0.9644
B(  1-C ,  2-C ) :   1.3087 B(  1-C ,  6-C ) :   1.3328 B(  2-C ,  3-C ) :   1.3969
B(  2-C , 21-H ) :   0.9888 B(  3-C ,  4-C ) :   1.3675 B(  3-C , 22-H ) :   0.9847
B(  4-C ,  5-C ) :   1.3233 B(  4-C ,  7-C ) :   0.9094 B(  5-C ,  6-C ) :   1.3912
B(  5-C , 23-H ) :   0.9746 B(  6-C , 24-H ) :   0.9879 B(  7-C ,  8-O ) :   2.1533
B(  7-C ,  9-O ) :   1.2118 B(  9-O , 25-H ) :   0.9554 B( 10-C , 11-C ) :   1.0901
B( 10-C , 26-H ) :   0.9677 B( 11-C , 12-C ) :   1.3143 B( 11-C , 16-C ) :   1.3252
B( 12-C , 13-C ) :   1.3599 B( 12-C , 27-H ) :   0.9927 B( 13-C , 14-C ) :   1.3894
B( 13-C , 28-H ) :   0.9874 B( 14-C , 15-C ) :   1.2972 B( 14-C , 17-C ) :   0.9059
B( 15-C , 16-C ) :   1.4378 B( 15-C , 29-H ) :   0.9634 B( 16-C , 30-H ) :   0.9827
B( 17-C , 18-O ) :   2.1502 B( 17-C , 19-O ) :   1.2207 B( 19-O , 31-H ) :   0.9574

Dispersion correction           -0.067691086
FINAL SINGLE POINT ENERGY      -917.248876133626

DIPOLE MOMENT
-------------
                                X             Y             Z
Electronic contribution:      0.70820      -0.39275      -1.24740
Nuclear contribution   :     -1.59060       0.93546       2.70191
                        -----------------------------------------
Total Dipole Moment    :     -0.88240       0.54271       1.45451
                        -----------------------------------------
Magnitude (a.u.)       :      1.78571
Magnitude (Debye)      :      4.53892

Rotational constants in cm-1:     0.060457     0.002861     0.002736
Rotational constants in MHz :  1812.458050    85.755976    82.036494

                             ****ORCA TERMINATED NORMALLY****
TOTAL RUN TIME: 0 days 2 hours 45 minutes 21 seconds 316 msec
