                         Program Version 4.2.0 -  RELEASE  -
|  1> # ORCA input file
|  2> # SCF done        -20.010188302332          0.000729740617
|  3> ! B3LYP/G D3BJ Opt RIJCOSX def2-SVP def2/J
|  4> * xyz 0 1
|  5>    C        1.00211        -0.66707        -0.00823
|  6>    C        0.96418         0.66464         0.09686
|  7>    C       -0.36064         1.22444         0.25858
|  8>    S       -1.56347        -0.07225         0.26891
|  9>    C       -0.29852        -1.33320         0.05708
| 10>    O       -0.54443        -2.50344        -0.00957
| 11>    C       -0.66165         2.51740         0.38377
| 12>    H        1.88402        -1.27060        -0.13355
| 13>    H        1.82217         1.31488         0.06922
| 14>    H        0.10945         3.26908         0.37234
| 15>    H       -1.67667         2.85138         0.50225
| 16> *
| 17>
| 18>                          ****END OF INPUT****
 Total Charge           Charge          ....    0
 Multiplicity           Mult            ....    1
 Number of Electrons    NEL             ....   58
Dispersion correction           -0.021060837
FINAL SINGLE POINT ENERGY      -666.041636049194
Dispersion correction            ... done
Dispersion correction           -0.020968350
FINAL SINGLE POINT ENERGY      -666.043444514424
Dispersion correction            ... done
Dispersion correction           -0.020950803
FINAL SINGLE POINT ENERGY      -666.043559038383
Dispersion correction            ... done
FINAL SINGLE POINT ENERGY      -666.043575264594
FINAL SINGLE POINT ENERGY      -666.043642901942
Dispersion correction            ... done
Dispersion correction           -0.020951886
FINAL SINGLE POINT ENERGY      -666.043652839609
Dispersion correction            ... done
Dispersion correction           -0.020952802
FINAL SINGLE POINT ENERGY      -666.043656524002
Dispersion correction            ... done
                    ***********************HURRAY********************

CARTESIAN COORDINATES (ANGSTROEM)
---------------------------------
  C      1.013323   -0.675364   -0.007403
  C      0.956993    0.665031    0.104803
  C     -0.386467    1.220546    0.268819
  S     -1.596854   -0.075939    0.286739
  C     -0.300635   -1.356663    0.056570
  O     -0.532080   -2.531964   -0.024504
  C     -0.666964    2.530853    0.382436
  H      1.913273   -1.275351   -0.144915
  H      1.823942    1.328733    0.075300
  H      0.140508    3.267092    0.362100
  H     -1.688490    2.898286    0.497714

 Multiplicity           Mult            ....    1
 Number of Electrons    NEL             ....   58
 Basis Dimension        Dim             ....  122

ORBITAL ENERGIES
----------------

  NO   OCC          E(Eh)            E(eV)
   0   2.0000     -88.861802     -2418.0526
   1   2.0000     -19.140417      -520.8372
   2   2.0000     -10.302045      -280.3329
   3   2.0000     -10.246085      -278.8102
   4   2.0000     -10.235586      -278.5244
   5   2.0000     -10.221733      -278.1475
   6   2.0000     -10.221086      -278.1299
   7   2.0000      -7.958499      -216.5618
   8   2.0000      -5.926618      -161.2715
   9   2.0000      -5.923499      -161.1866
  10   2.0000      -5.918322      -161.0457
  11   2.0000      -1.051460       -28.6117
  12   2.0000      -0.878735       -23.9116
  13   2.0000      -0.776165       -21.1205
  14   2.0000      -0.742605       -20.2073
  15   2.0000      -0.652155       -17.7460
  16   2.0000      -0.562561       -15.3081
  17   2.0000      -0.550278       -14.9738
  18   2.0000      -0.506488       -13.7822
  19   2.0000      -0.462043       -12.5728
  20   2.0000      -0.451216       -12.2782
  21   2.0000      -0.434234       -11.8161
  22   2.0000      -0.431519       -11.7422
  23   2.0000      -0.405091       -11.0231
  24   2.0000      -0.369518       -10.0551
  25   2.0000      -0.358308        -9.7501
  26   2.0000      -0.285979        -7.7819
  27   2.0000      -0.271150        -7.3784
  28   2.0000      -0.248073        -6.7504
  29   0.0000      -0.091910        -2.5010
  30   0.0000       0.015126         0.4116
  31   0.0000       0.017435         0.4744
  32   0.0000       0.053602         1.4586
  33   0.0000       0.058828         1.6008

MULLIKEN ATOMIC CHARGES
-----------------------
   0 C :    0.003149
   1 C :    0.087198
   2 C :   -0.095991
   3 S :    0.021649
   4 C :    0.069880
   5 O :   -0.164528
   6 C :   -0.009584
   7 H :    0.012291
   8 H :    0.007698
   9 H :    0.031790
  10 H :    0.036447
Sum of atomic charges:   -0.0000000

LOEWDIN ATOMIC CHARGES
----------------------
   0 C :   -0.061827
   1 C :    0.006972
   2 C :   -0.152328
   3 S :    0.286786
   4 C :   -0.051859
   5 O :   -0.138979
   6 C :   -0.035856
   7 H :    0.040717
   8 H :    0.038931
   9 H :    0.033679
  10 H :    0.033764

  Mayer bond orders larger than 0.100000
B(  0-C ,  1-C ) :   1.6819 B(  0-C ,  4-C ) :   0.9663 B(  0-C ,  6-C ) :   0.1063
B(  0-C ,  7-H ) :   0.9870 B(  1-C ,  2-C ) :   1.0530 B(  1-C ,  8-H ) :   0.9830
B(  2-C ,  3-S ) :   1.0243 B(  2-C ,  6-C ) :   1.8670 B(  3-S ,  4-C ) :   0.9763
B(  3-S ,  5-O ) :   0.1302 B(  4-C ,  5-O ) :   2.1095 B(  6-C ,  9-H ) :   0.9453
B(  6-C , 10-H ) :   0.9415

Dispersion correction           -0.020952334
FINAL SINGLE POINT ENERGY      -666.043657533447

DIPOLE MOMENT
-------------
                                X             Y             Z
Electronic contribution:     -3.01096      -4.70165      -0.05337
Nuclear contribution   :      3.76238       6.06694       0.09033
                        -----------------------------------------
Total Dipole Moment    :      0.75142       1.36528       0.03696
                        -----------------------------------------
Magnitude (a.u.)       :      1.55885
Magnitude (Debye)      :      3.96227

Rotational constants in cm-1:     0.158816     0.066280     0.046766
Rotational constants in MHz :  4761.175482  1987.033185  1402.005641

                             ****ORCA TERMINATED NORMALLY****
TOTAL RUN TIME: 0 days 0 hours 3 minutes 5 seconds 648 msec
