                         Program Version 4.2.0 -  RELEASE  -
|  1> # ORCA input file
|  2> # SCF done        -57.914740137645          0.000862001058
|  3> ! B3LYP/G D3BJ Opt RIJCOSX def2-SVP def2/J
|  4> * xyz 0 1
|  5>    C       -2.60268        -0.30688        -0.04667
|  6>    C       -1.54623        -1.21613        -0.61089
|  7>    O       -1.73717        -2.28650        -1.13547
|  8>    C       -0.27001        -0.53868        -0.34293
|  9>    C       -0.52467         0.73560         0.20012
| 10>    C       -1.96537         0.98797         0.21929
| 11>    C       -2.56195         2.21810         0.26277
| 12>    C       -1.87669         3.49280        -0.08920
| 13>    O       -0.70968         3.67581        -0.35659
| 14>    C       -2.93960         4.52130        -0.16133
| 15>    C       -4.17232         3.95620         0.17122
| 16>    C       -3.99377         2.52054         0.48810
| 17>    O       -4.85502         1.79650         0.94117
| 18>    C       -5.32408         4.72101         0.18742
| 19>    C       -5.21855         6.06504        -0.14513
| 20>    C       -3.99291         6.62590        -0.48027
| 21>    C       -2.83537         5.85933        -0.49472
| 22>    C        0.53327         1.48074         0.70190
| 23>    C        1.82072         0.98146         0.56986
| 24>    C        2.06719        -0.24494        -0.03320
| 25>    C        1.01496        -1.03203        -0.47578
| 26>    C       -3.83871        -0.76465         0.15472
| 27>    H       -6.27199         4.27596         0.44789
| 28>    H       -6.10244         6.68550        -0.14314
| 29>    H       -3.94055         7.67498        -0.73118
| 30>    H       -1.87775         6.28525        -0.75184
| 31>    H        0.37126         2.42272         1.19646
| 32>    H        2.64959         1.56170         0.94710
| 33>    H        3.08298        -0.59644        -0.13582
| 34>    H        1.17776        -2.00846        -0.90579
| 35>    H       -4.06627        -1.77302        -0.15653
| 36>    H       -4.61328        -0.19201         0.63163
| 37> *
| 38>
| 39>                          ****END OF INPUT****
 Total Charge           Charge          ....    0
 Multiplicity           Mult            ....    1
 Number of Electrons    NEL             ....  148
Dispersion correction           -0.080912290
FINAL SINGLE POINT ENERGY      -955.080337893192
Dispersion correction            ... done
Dispersion correction           -0.080364482
FINAL SINGLE POINT ENERGY      -955.085336559208
Dispersion correction            ... done
Dispersion correction           -0.080241224
FINAL SINGLE POINT ENERGY      -955.085511365022
Dispersion correction            ... done
FINAL SINGLE POINT ENERGY      -955.085780712703
FINAL SINGLE POINT ENERGY      -955.086004411778
FINAL SINGLE POINT ENERGY      -955.086141234424
FINAL SINGLE POINT ENERGY      -955.086122993051
FINAL SINGLE POINT ENERGY      -955.086119788923
FINAL SINGLE POINT ENERGY      -955.086119849993
Dispersion correction            ... done
Dispersion correction           -0.080153510
FINAL SINGLE POINT ENERGY      -955.086094941451
Dispersion correction            ... done
Dispersion correction           -0.080141705
FINAL SINGLE POINT ENERGY      -955.086077315608
Dispersion correction            ... done
                    ***********************HURRAY********************

CARTESIAN COORDINATES (ANGSTROEM)
---------------------------------
  C     -2.599741   -0.305387   -0.005509
  C     -1.548318   -1.306692   -0.423311
  O     -1.748709   -2.450478   -0.772334
  C     -0.251584   -0.621150   -0.263384
  C     -0.468323    0.721682    0.123255
  C     -1.931526    1.015028    0.170966
  C     -2.530138    2.258926    0.238538
  C     -1.873970    3.608302    0.059711
  O     -0.697394    3.908957   -0.017530
  C     -2.969610    4.613533   -0.052721
  C     -4.207114    3.986847    0.083822
  C     -4.005213    2.533420    0.339098
  O     -4.914935    1.780185    0.632348
  C     -5.398821    4.705142    0.010395
  C     -5.310632    6.084466   -0.201833
  C     -4.061219    6.719449   -0.323741
  C     -2.871204    5.988795   -0.253200
  C      0.651204    1.502299    0.452156
  C      1.926805    0.940640    0.350430
  C      2.120650   -0.382576   -0.070938
  C      1.017320   -1.181160   -0.374778
  C     -3.851261   -0.767466    0.176758
  H     -6.357752    4.194421    0.116411
  H     -6.222179    6.682177   -0.274624
  H     -4.024876    7.799657   -0.484560
  H     -1.893125    6.463677   -0.351349
  H      0.533506    2.530661    0.772773
  H      2.791988    1.552638    0.615052
  H      3.132154   -0.789589   -0.145962
  H      1.121012   -2.222029   -0.687022
  H     -4.008547   -1.825650   -0.058130
  H     -4.667777   -0.154050    0.542386

 Multiplicity           Mult            ....    1
 Number of Electrons    NEL             ....  148
 Basis Dimension        Dim             ....  358

ORBITAL ENERGIES
----------------

  NO   OCC          E(Eh)            E(eV)
   0   2.0000     -19.139528      -520.8130
   1   2.0000     -19.139212      -520.8044
   2   2.0000     -19.131056      -520.5825
   3   2.0000     -10.291945      -280.0581
   4   2.0000     -10.289985      -280.0047
   5   2.0000     -10.276177      -279.6290
   6   2.0000     -10.254870      -279.0492
   7   2.0000     -10.223640      -278.1994
   8   2.0000     -10.221674      -278.1459
   9   2.0000     -10.221329      -278.1365
  10   2.0000     -10.219767      -278.0940
  11   2.0000     -10.219475      -278.0860
  12   2.0000     -10.219334      -278.0822
  13   2.0000     -10.215882      -277.9883
  14   2.0000     -10.213693      -277.9287
  15   2.0000     -10.213269      -277.9172
  16   2.0000     -10.213137      -277.9136
  17   2.0000     -10.212691      -277.9015
  18   2.0000     -10.212518      -277.8967
  19   2.0000     -10.208677      -277.7922
  20   2.0000     -10.208063      -277.7755
  21   2.0000     -10.206645      -277.7369
  22   2.0000      -1.047308       -28.4987
  23   2.0000      -1.042956       -28.3803
  24   2.0000      -1.035888       -28.1879
  25   2.0000      -0.894211       -24.3327
  26   2.0000      -0.888374       -24.1739
  27   2.0000      -0.842429       -22.9237
  28   2.0000      -0.820355       -22.3230
  29   2.0000      -0.771613       -20.9967
  30   2.0000      -0.769544       -20.9404
  31   2.0000      -0.764466       -20.8022
  32   2.0000      -0.749525       -20.3956
  33   2.0000      -0.690059       -18.7775
  34   2.0000      -0.672729       -18.3059
  35   2.0000      -0.653655       -17.7869
  36   2.0000      -0.630230       -17.1494
  37   2.0000      -0.599383       -16.3100
  38   2.0000      -0.585781       -15.9399
  39   2.0000      -0.577115       -15.7041
  40   2.0000      -0.559193       -15.2164
  41   2.0000      -0.544740       -14.8231
  42   2.0000      -0.516084       -14.0433
  43   2.0000      -0.508214       -13.8292
  44   2.0000      -0.493300       -13.4234
  45   2.0000      -0.483411       -13.1543
  46   2.0000      -0.479044       -13.0354
  47   2.0000      -0.469151       -12.7662
  48   2.0000      -0.460509       -12.5311
  49   2.0000      -0.458178       -12.4677
  50   2.0000      -0.453151       -12.3309
  51   2.0000      -0.452901       -12.3241
  52   2.0000      -0.442367       -12.0374
  53   2.0000      -0.437464       -11.9040
  54   2.0000      -0.434838       -11.8325
  55   2.0000      -0.432818       -11.7776
  56   2.0000      -0.409692       -11.1483
  57   2.0000      -0.404866       -11.0170
  58   2.0000      -0.393145       -10.6980
  59   2.0000      -0.391285       -10.6474
  60   2.0000      -0.383481       -10.4350
  61   2.0000      -0.378381       -10.2963
  62   2.0000      -0.376987       -10.2583
  63   2.0000      -0.374993       -10.2041
  64   2.0000      -0.364238        -9.9114
  65   2.0000      -0.342255        -9.3132
  66   2.0000      -0.287683        -7.8282
  67   2.0000      -0.285399        -7.7661
  68   2.0000      -0.282743        -7.6938
  69   2.0000      -0.278783        -7.5861
  70   2.0000      -0.274467        -7.4686
  71   2.0000      -0.264398        -7.1946
  72   2.0000      -0.256016        -6.9666
  73   2.0000      -0.252775        -6.8784
  74   0.0000      -0.115849        -3.1524
  75   0.0000      -0.087274        -2.3748
  76   0.0000      -0.083213        -2.2644
  77   0.0000      -0.040910        -1.1132
  78   0.0000      -0.014472        -0.3938

MULLIKEN ATOMIC CHARGES
-----------------------
   0 C :   -0.133296
   1 C :    0.136838
   2 O :   -0.163107
   3 C :   -0.022658
   4 C :    0.043071
   5 C :    0.142143
   6 C :   -0.188439
   7 C :    0.163457
   8 O :   -0.176269
   9 C :    0.013106
  10 C :    0.012189
  11 C :    0.161701
  12 O :   -0.179984
  13 C :   -0.014967
  14 C :    0.041605
  15 C :    0.029674
  16 C :   -0.014917
  17 C :   -0.012517
  18 C :    0.036655
  19 C :    0.041042
  20 C :   -0.008190
  21 C :    0.023577
  22 H :   -0.007796
  23 H :   -0.001754
  24 H :    0.002982
  25 H :   -0.007777
  26 H :    0.000968
  27 H :   -0.003532
  28 H :   -0.004472
  29 H :   -0.007534
  30 H :    0.038195
  31 H :    0.060006
Sum of atomic charges:   -0.0000000

LOEWDIN ATOMIC CHARGES
----------------------
   0 C :   -0.075144
   1 C :    0.079369
   2 O :   -0.142014
   3 C :   -0.046856
   4 C :   -0.007520
   5 C :    0.070571
   6 C :   -0.113621
   7 C :    0.085438
   8 O :   -0.142108
   9 C :   -0.041674
  10 C :   -0.040288
  11 C :    0.086061
  12 O :   -0.141812
  13 C :    0.009120
  14 C :   -0.002029
  15 C :   -0.004445
  16 C :    0.009797
  17 C :    0.010331
  18 C :   -0.005610
  19 C :   -0.002590
  20 C :    0.009099
  21 C :    0.065727
  22 H :    0.037456
  23 H :    0.033302
  24 H :    0.034067
  25 H :    0.037353
  26 H :    0.030681
  27 H :    0.033482
  28 H :    0.032281
  29 H :    0.038083
  30 H :    0.034384
  31 H :    0.029105

  Mayer bond orders larger than 0.100000
B(  0-C ,  1-C ) :   0.9255 B(  0-C ,  5-C ) :   1.0276 B(  0-C , 21-C ) :   1.9300
B(  1-C ,  2-O ) :   2.1949 B(  1-C ,  3-C ) :   0.9519 B(  3-C ,  4-C ) :   1.2930
B(  3-C , 20-C ) :   1.3768 B(  4-C ,  5-C ) :   1.0449 B(  4-C , 17-C ) :   1.3740
B(  5-C ,  6-C ) :   1.5753 B(  6-C ,  7-C ) :   0.9518 B(  6-C , 11-C ) :   0.9667
B(  7-C ,  8-O ) :   2.1321 B(  7-C ,  9-C ) :   0.9453 B(  9-C , 10-C ) :   1.3468
B(  9-C , 16-C ) :   1.3656 B( 10-C , 11-C ) :   0.9421 B( 10-C , 13-C ) :   1.3627
B( 11-C , 12-O ) :   2.1179 B( 13-C , 14-C ) :   1.3581 B( 13-C , 22-H ) :   0.9980
B( 14-C , 15-C ) :   1.3555 B( 14-C , 23-H ) :   0.9838 B( 15-C , 16-C ) :   1.3587
B( 15-C , 24-H ) :   0.9827 B( 16-C , 25-H ) :   0.9969 B( 17-C , 18-C ) :   1.3772
B( 17-C , 26-H ) :   0.9669 B( 18-C , 19-C ) :   1.3471 B( 18-C , 27-H ) :   0.9812
B( 19-C , 20-C ) :   1.3448 B( 19-C , 28-H ) :   0.9860 B( 20-C , 29-H ) :   0.9939
B( 21-C , 30-H ) :   0.9030 B( 21-C , 31-H ) :   0.9026

Dispersion correction           -0.080139855
FINAL SINGLE POINT ENERGY      -955.086083963177

DIPOLE MOMENT
-------------
                                X             Y             Z
Electronic contribution:     -0.91496      -3.02295       0.01159
Nuclear contribution   :      1.12716       4.40753       0.10722
                        -----------------------------------------
Total Dipole Moment    :      0.21219       1.38458       0.11882
                        -----------------------------------------
Magnitude (a.u.)       :      1.40578
Magnitude (Debye)      :      3.57321

Rotational constants in cm-1:     0.020122     0.006300     0.004886
Rotational constants in MHz :   603.247907   188.868100   146.481756

                             ****ORCA TERMINATED NORMALLY****
TOTAL RUN TIME: 0 days 0 hours 46 minutes 31 seconds 246 msec
