                         Program Version 4.2.0 -  RELEASE  -
|  1> # ORCA input file
|  2> # SCF done        -39.670743086571          0.000780173557
|  3> ! B3LYP/G D3BJ Opt RIJCOSX def2-SVP def2/J
|  4> * xyz 0 1
|  5>    C        3.42610        -0.08941        -0.01001
|  6>    C        2.53630        -1.10278        -0.01359
|  7>    C        1.18743        -0.64280        -0.00926
|  8>    C       -0.00850        -1.34949        -0.01090
|  9>    C       -1.18684        -0.61309        -0.00548
| 10>    C       -1.10461         0.80316         0.00134
| 11>    N        0.01459         1.49012         0.00300
| 12>    C        1.12425         0.77893        -0.00219
| 13>    S        2.70486         1.48955        -0.00113
| 14>    S       -2.67624         1.55976         0.00743
| 15>    C       -3.42760        -0.01715         0.00084
| 16>    C       -2.54717        -1.04555        -0.00554
| 17>    F       -2.89187        -2.34013        -0.01136
| 18>    F       -4.75228        -0.10660         0.00241
| 19>    H        4.49651        -0.15870        -0.01201
| 20>    H        2.80405        -2.14368        -0.01911
| 21>    H       -0.02880        -2.42881        -0.01616
| 22> *
| 23>
| 24>                          ****END OF INPUT****
 Total Charge           Charge          ....    0
 Multiplicity           Mult            ....    1
 Number of Electrons    NEL             ....  114
Dispersion correction           -0.045269987
FINAL SINGLE POINT ENERGY     -1394.934110169238
Dispersion correction            ... done
Dispersion correction           -0.045231883
FINAL SINGLE POINT ENERGY     -1394.936291685652
Dispersion correction            ... done
Dispersion correction           -0.045217692
FINAL SINGLE POINT ENERGY     -1394.936429350622
Dispersion correction            ... done
Dispersion correction           -0.045210440
FINAL SINGLE POINT ENERGY     -1394.936454882813
Dispersion correction            ... done
Dispersion correction           -0.045207509
FINAL SINGLE POINT ENERGY     -1394.936458007759
Dispersion correction            ... done
                    ***********************HURRAY********************

CARTESIAN COORDINATES (ANGSTROEM)
---------------------------------
  C      3.457051   -0.083138   -0.010821
  C      2.557290   -1.105474   -0.014002
  C      1.194019   -0.642954   -0.008394
  C     -0.013341   -1.354560   -0.010234
  C     -1.200591   -0.617859   -0.004919
  C     -1.113430    0.808691    0.001670
  N      0.008376    1.504304    0.004310
  C      1.124590    0.788430   -0.000579
  S      2.730984    1.506443    0.001315
  S     -2.706266    1.577179    0.004806
  C     -3.453875   -0.017329   -0.000315
  C     -2.571857   -1.052322   -0.005160
  F     -2.922286   -2.339664   -0.008989
  F     -4.772401   -0.113405    0.001170
  H      4.543465   -0.169564   -0.014165
  H      2.840989   -2.158487   -0.021103
  H     -0.032536   -2.446961   -0.016312

 Multiplicity           Mult            ....    1
 Number of Electrons    NEL             ....  114
 Basis Dimension        Dim             ....  219

ORBITAL ENERGIES
----------------

  NO   OCC          E(Eh)            E(eV)
   0   2.0000     -88.892036     -2418.8753
   1   2.0000     -88.882042     -2418.6033
   2   2.0000     -24.733999      -673.0463
   3   2.0000     -24.720563      -672.6807
   4   2.0000     -14.351125      -390.5140
   5   2.0000     -10.310081      -280.5516
   6   2.0000     -10.289451      -279.9902
   7   2.0000     -10.271171      -279.4928
   8   2.0000     -10.263239      -279.2769
   9   2.0000     -10.233098      -278.4567
  10   2.0000     -10.229799      -278.3670
  11   2.0000     -10.228205      -278.3236
  12   2.0000     -10.221546      -278.1424
  13   2.0000     -10.211892      -277.8797
  14   2.0000      -7.987963      -217.3635
  15   2.0000      -7.977689      -217.0839
  16   2.0000      -5.956401      -162.0819
  17   2.0000      -5.952901      -161.9867
  18   2.0000      -5.947624      -161.8431
  19   2.0000      -5.945999      -161.7988
  20   2.0000      -5.942100      -161.6928
  21   2.0000      -5.938189      -161.5863
  22   2.0000      -1.247558       -33.9478
  23   2.0000      -1.227600       -33.4047
  24   2.0000      -0.979115       -26.6431
  25   2.0000      -0.894368       -24.3370
  26   2.0000      -0.871505       -23.7148
  27   2.0000      -0.817403       -22.2427
  28   2.0000      -0.761056       -20.7094
  29   2.0000      -0.736125       -20.0310
  30   2.0000      -0.725726       -19.7480
  31   2.0000      -0.653419       -17.7804
  32   2.0000      -0.628297       -17.0968
  33   2.0000      -0.612948       -16.6792
  34   2.0000      -0.580116       -15.7858
  35   2.0000      -0.577644       -15.7185
  36   2.0000      -0.536542       -14.6000
  37   2.0000      -0.525562       -14.3013
  38   2.0000      -0.512270       -13.9396
  39   2.0000      -0.505863       -13.7652
  40   2.0000      -0.476650       -12.9703
  41   2.0000      -0.473386       -12.8815
  42   2.0000      -0.460979       -12.5439
  43   2.0000      -0.448172       -12.1954
  44   2.0000      -0.438184       -11.9236
  45   2.0000      -0.430142       -11.7047
  46   2.0000      -0.407353       -11.0847
  47   2.0000      -0.393733       -10.7140
  48   2.0000      -0.386945       -10.5293
  49   2.0000      -0.373154       -10.1540
  50   2.0000      -0.365378        -9.9425
  51   2.0000      -0.341870        -9.3028
  52   2.0000      -0.323337        -8.7984
  53   2.0000      -0.287052        -7.8111
  54   2.0000      -0.271588        -7.3903
  55   2.0000      -0.247699        -6.7402
  56   2.0000      -0.228266        -6.2114
  57   0.0000      -0.064221        -1.7475
  58   0.0000      -0.042900        -1.1674
  59   0.0000       0.000607         0.0165
  60   0.0000       0.008630         0.2348
  61   0.0000       0.024892         0.6773

MULLIKEN ATOMIC CHARGES
-----------------------
   0 C :   -0.072100
   1 C :    0.034500
   2 C :    0.090947
   3 C :   -0.015763
   4 C :    0.046099
   5 C :   -0.134063
   6 N :   -0.046937
   7 C :   -0.134200
   8 S :    0.116666
   9 S :    0.113291
  10 C :    0.063329
  11 C :    0.243390
  12 F :   -0.177842
  13 F :   -0.151329
  14 H :    0.038891
  15 H :   -0.008606
  16 H :   -0.006273
Sum of atomic charges:    0.0000000

LOEWDIN ATOMIC CHARGES
----------------------
   0 C :   -0.158763
   1 C :   -0.062330
   2 C :   -0.061659
   3 C :    0.008820
   4 C :   -0.082193
   5 C :   -0.126015
   6 N :   -0.094091
   7 C :   -0.130527
   8 S :    0.402973
   9 S :    0.390935
  10 C :   -0.102349
  11 C :   -0.000099
  12 F :   -0.050531
  13 F :   -0.035811
  14 H :    0.029987
  15 H :    0.033367
  16 H :    0.038285

  Mayer bond orders larger than 0.100000
B(  0-C ,  1-C ) :   1.6092 B(  0-C ,  8-S ) :   1.1189 B(  0-C , 14-H ) :   0.9652
B(  1-C ,  2-C ) :   1.1650 B(  1-C , 15-H ) :   0.9936 B(  2-C ,  3-C ) :   1.3410
B(  2-C ,  7-C ) :   1.1899 B(  3-C ,  4-C ) :   1.3594 B(  3-C , 16-H ) :   0.9916
B(  4-C ,  5-C ) :   1.1725 B(  4-C , 11-C ) :   1.0844 B(  5-C ,  6-N ) :   1.5612
B(  5-C ,  9-S ) :   1.0651 B(  6-N ,  7-C ) :   1.5207 B(  7-C ,  8-S ) :   1.0922
B(  9-S , 10-C ) :   1.0689 B( 10-C , 11-C ) :   1.4835 B( 10-C , 13-F ) :   1.1276
B( 11-C , 12-F ) :   1.1556

Dispersion correction           -0.045206451
FINAL SINGLE POINT ENERGY     -1394.936457139666

DIPOLE MOMENT
-------------
                                X             Y             Z
Electronic contribution:    -13.73834       1.84902       0.03330
Nuclear contribution   :     14.57859      -2.40459      -0.03899
                        -----------------------------------------
Total Dipole Moment    :      0.84025      -0.55557      -0.00569
                        -----------------------------------------
Magnitude (a.u.)       :      1.00733
Magnitude (Debye)      :      2.56043

Rotational constants in cm-1:     0.047721     0.010944     0.008902
Rotational constants in MHz :  1430.635665   328.084045   266.881051

                             ****ORCA TERMINATED NORMALLY****
TOTAL RUN TIME: 0 days 0 hours 7 minutes 3 seconds 637 msec
