                         Program Version 4.2.0 -  RELEASE  -
|  1> # ORCA input file
|  2> # SCF done        -30.993098081769          0.000247587958
|  3> ! B3LYP/G D3BJ Opt RIJCOSX def2-SVP def2/J
|  4> * xyz 0 1
|  5>    C       -0.30862        -1.31636        -0.00446
|  6>    C       -0.79239        -2.62783        -0.00484
|  7>    N       -1.18587        -3.70479        -0.00484
|  8>    C       -1.04632        -0.15225        -0.00002
|  9>    F       -2.37598        -0.12351         0.00476
| 10>    C       -0.24571         1.00595        -0.00115
| 11>    F       -0.74621         2.24203         0.00252
| 12>    C        1.10463         0.73409        -0.00645
| 13>    S        1.39372        -0.97569        -0.01012
| 14>    C        2.15259         1.65789        -0.00898
| 15>    C        3.05590         2.45113        -0.01113
| 16>    H        3.83559         3.15298        -0.01289
| 17> *
| 18>
| 19>                          ****END OF INPUT****
 Total Charge           Charge          ....    0
 Multiplicity           Mult            ....    1
 Number of Electrons    NEL             ....   84
Dispersion correction           -0.026402423
FINAL SINGLE POINT ENERGY      -919.372064525475
Dispersion correction            ... done
Dispersion correction           -0.026276779
FINAL SINGLE POINT ENERGY      -919.374191498164
Dispersion correction            ... done
Dispersion correction           -0.026256566
FINAL SINGLE POINT ENERGY      -919.374259453895
Dispersion correction            ... done
FINAL SINGLE POINT ENERGY      -919.374262176622
Dispersion correction            ... done
Dispersion correction           -0.026250022
FINAL SINGLE POINT ENERGY      -919.374254546085
Dispersion correction            ... done
Dispersion correction           -0.026250400
FINAL SINGLE POINT ENERGY      -919.374251358713
Dispersion correction            ... done
                    ***********************HURRAY********************

CARTESIAN COORDINATES (ANGSTROEM)
---------------------------------
  C     -0.305626   -1.331560   -0.006588
  C     -0.817410   -2.647732   -0.003702
  N     -1.244828   -3.728326   -0.000869
  C     -1.046006   -0.165864   -0.001742
  F     -2.365082   -0.124422    0.002845
  C     -0.245909    1.003361   -0.001226
  F     -0.774534    2.213492    0.005606
  C      1.112543    0.742939   -0.007156
  S      1.407071   -0.982927   -0.013180
  C      2.165666    1.681024   -0.009013
  C      3.077412    2.483374   -0.010608
  H      3.878032    3.200281   -0.011968

 Multiplicity           Mult            ....    1
 Number of Electrons    NEL             ....   84
 Basis Dimension        Dim             ....  163

ORBITAL ENERGIES
----------------

  NO   OCC          E(Eh)            E(eV)
   0   2.0000     -88.926899     -2419.8239
   1   2.0000     -24.747913      -673.4250
   2   2.0000     -24.743734      -673.3112
   3   2.0000     -14.349558      -390.4713
   4   2.0000     -10.326424      -280.9963
   5   2.0000     -10.320937      -280.8470
   6   2.0000     -10.280833      -279.7557
   7   2.0000     -10.280004      -279.7331
   8   2.0000     -10.252939      -278.9966
   9   2.0000     -10.232624      -278.4439
  10   2.0000     -10.228348      -278.3275
  11   2.0000      -8.021343      -218.2718
  12   2.0000      -5.989758      -162.9896
  13   2.0000      -5.985926      -162.8853
  14   2.0000      -5.981592      -162.7674
  15   2.0000      -1.265271       -34.4298
  16   2.0000      -1.253020       -34.0964
  17   2.0000      -0.942204       -25.6387
  18   2.0000      -0.913058       -24.8456
  19   2.0000      -0.820128       -22.3168
  20   2.0000      -0.785383       -21.3714
  21   2.0000      -0.761955       -20.7338
  22   2.0000      -0.687292       -18.7022
  23   2.0000      -0.644646       -17.5417
  24   2.0000      -0.618929       -16.8419
  25   2.0000      -0.572962       -15.5911
  26   2.0000      -0.563469       -15.3328
  27   2.0000      -0.539474       -14.6798
  28   2.0000      -0.533075       -14.5057
  29   2.0000      -0.506187       -13.7740
  30   2.0000      -0.497800       -13.5458
  31   2.0000      -0.457663       -12.4536
  32   2.0000      -0.434760       -11.8304
  33   2.0000      -0.429405       -11.6847
  34   2.0000      -0.404524       -11.0076
  35   2.0000      -0.386008       -10.5038
  36   2.0000      -0.379097       -10.3158
  37   2.0000      -0.356527        -9.7016
  38   2.0000      -0.334636        -9.1059
  39   2.0000      -0.317754        -8.6465
  40   2.0000      -0.287621        -7.8266
  41   2.0000      -0.261837        -7.1250
  42   0.0000      -0.098040        -2.6678
  43   0.0000      -0.033830        -0.9206
  44   0.0000      -0.020582        -0.5601
  45   0.0000      -0.006961        -0.1894
  46   0.0000       0.022271         0.6060

MULLIKEN ATOMIC CHARGES
-----------------------
   0 C :   -0.322296
   1 C :   -0.113069
   2 N :    0.106171
   3 C :    0.280126
   4 F :   -0.139870
   5 C :    0.245061
   6 F :   -0.145102
   7 C :   -0.193473
   8 S :    0.250817
   9 C :    0.410623
  10 C :   -0.413446
  11 H :    0.034458
Sum of atomic charges:   -0.0000000

LOEWDIN ATOMIC CHARGES
----------------------
   0 C :   -0.249413
   1 C :   -0.047904
   2 N :   -0.038508
   3 C :    0.049251
   4 F :   -0.016749
   5 C :    0.035367
   6 F :   -0.021901
   7 C :   -0.206162
   8 S :    0.502563
   9 C :   -0.041160
  10 C :   -0.014440
  11 H :    0.049055

  Mayer bond orders larger than 0.100000
B(  0-C ,  1-C ) :   1.2034 B(  0-C ,  3-C ) :   1.4390 B(  0-C ,  7-C ) :   0.1394
B(  0-C ,  8-S ) :   1.1082 B(  1-C ,  2-N ) :   2.9758 B(  3-C ,  4-F ) :   1.2029
B(  3-C ,  5-C ) :   1.2009 B(  5-C ,  6-F ) :   1.1943 B(  5-C ,  7-C ) :   1.4473
B(  7-C ,  8-S ) :   1.0965 B(  7-C ,  9-C ) :   0.9923 B(  9-C , 10-C ) :   2.3028
B( 10-C , 11-H ) :   1.0806

Dispersion correction           -0.026250512
FINAL SINGLE POINT ENERGY      -919.374255577742

DIPOLE MOMENT
-------------
                                X             Y             Z
Electronic contribution:     -5.42714       0.24058       0.01778
Nuclear contribution   :      6.60654       0.96594      -0.02294
                        -----------------------------------------
Total Dipole Moment    :      1.17940       1.20652      -0.00516
                        -----------------------------------------
Magnitude (a.u.)       :      1.68722
Magnitude (Debye)      :      4.28857

Rotational constants in cm-1:     0.057011     0.024511     0.017141
Rotational constants in MHz :  1709.142620   734.823483   513.886059

                             ****ORCA TERMINATED NORMALLY****
TOTAL RUN TIME: 0 days 0 hours 4 minutes 26 seconds 720 msec
