                         Program Version 4.2.0 -  RELEASE  -
|  1> # ORCA input file
|  2> # SCF done        -44.725738003399          0.000193391247
|  3> ! B3LYP/G D3BJ Opt RIJCOSX def2-SVP def2/J
|  4> * xyz 0 1
|  5>    C       -2.58285        -0.40472        -0.00194
|  6>    C       -1.47090        -1.40941        -0.00439
|  7>    O       -1.58878        -2.60928        -0.00649
|  8>    C       -0.22598        -0.61548        -0.00393
|  9>    C       -0.53718         0.75823        -0.00231
| 10>    C       -1.98284         0.93206        -0.00103
| 11>    C       -2.65734         2.11768         0.00074
| 12>    C       -2.03729         3.38769        -0.00131
| 13>    N       -1.59236         4.44481        -0.00382
| 14>    C       -4.06550         2.23891         0.00448
| 15>    N       -5.20001         2.40699         0.00805
| 16>    C        0.49518         1.68979        -0.00104
| 17>    C        1.80412         1.23953        -0.00113
| 18>    C        2.09327        -0.12325        -0.00259
| 19>    C        1.07712        -1.07150        -0.00415
| 20>   Cl        3.73489        -0.63658        -0.00218
| 21>    C       -3.86351        -0.78026        -0.00190
| 22>    H        0.29750         2.74923         0.00016
| 23>    H        2.61526         1.95063         0.00007
| 24>    H        1.28897        -2.12901        -0.00532
| 25>    H       -4.08994        -1.83499        -0.00340
| 26>    H       -4.69234        -0.09498        -0.00046
| 27> *
| 28>
| 29>                          ****END OF INPUT****
 Total Charge           Charge          ....    0
 Multiplicity           Mult            ....    1
 Number of Electrons    NEL             ....  122
Dispersion correction           -0.057622609
FINAL SINGLE POINT ENERGY     -1142.678718308787
Dispersion correction            ... done
Dispersion correction           -0.057273216
FINAL SINGLE POINT ENERGY     -1142.682755080224
Dispersion correction            ... done
Dispersion correction           -0.057243694
FINAL SINGLE POINT ENERGY     -1142.683021499858
Dispersion correction            ... done
FINAL SINGLE POINT ENERGY     -1142.683119146633
FINAL SINGLE POINT ENERGY     -1142.683132737516
FINAL SINGLE POINT ENERGY     -1142.683132569373
Dispersion correction            ... done
Dispersion correction           -0.057342288
FINAL SINGLE POINT ENERGY     -1142.683129479545
Dispersion correction            ... done
Dispersion correction           -0.057333663
FINAL SINGLE POINT ENERGY     -1142.683143694536
Dispersion correction            ... done
                    ***********************HURRAY********************

CARTESIAN COORDINATES (ANGSTROEM)
---------------------------------
  C     -2.611830   -0.382253   -0.001818
  C     -1.486281   -1.389373   -0.002649
  O     -1.597983   -2.594027   -0.003555
  C     -0.232289   -0.593961   -0.002761
  C     -0.540545    0.784752   -0.001608
  C     -2.005358    0.965782   -0.000762
  C     -2.681361    2.164468    0.000851
  C     -2.012710    3.429179    0.002071
  N     -1.463343    4.452434    0.002481
  C     -4.109977    2.231936    0.001576
  N     -5.270566    2.279154    0.002516
  C      0.513629    1.713538   -0.001516
  C      1.827069    1.245488   -0.002483
  C      2.104125   -0.133284   -0.003568
  C      1.071463   -1.074000   -0.003757
  Cl     3.756346   -0.666777   -0.004643
  C     -3.890155   -0.799581   -0.002071
  H      0.334481    2.786823   -0.000718
  H      2.658511    1.951686   -0.002404
  H      1.270034   -2.146539   -0.004646
  H     -4.058738   -1.880844   -0.002879
  H     -4.755032   -0.138511   -0.001547

 Multiplicity           Mult            ....    1
 Number of Electrons    NEL             ....  122
 Basis Dimension        Dim             ....  267

ORBITAL ENERGIES
----------------

  NO   OCC          E(Eh)            E(eV)
   0   2.0000    -101.536062     -2762.9367
   1   2.0000     -19.157951      -521.3144
   2   2.0000     -14.359106      -390.7311
   3   2.0000     -14.358679      -390.7195
   4   2.0000     -10.304933      -280.4115
   5   2.0000     -10.290894      -280.0295
   6   2.0000     -10.288949      -279.9765
   7   2.0000     -10.282219      -279.7934
   8   2.0000     -10.261398      -279.2268
   9   2.0000     -10.260554      -279.2039
  10   2.0000     -10.252780      -278.9923
  11   2.0000     -10.244510      -278.7673
  12   2.0000     -10.244012      -278.7537
  13   2.0000     -10.243613      -278.7429
  14   2.0000     -10.243419      -278.7376
  15   2.0000     -10.242314      -278.7075
  16   2.0000     -10.239859      -278.6407
  17   2.0000      -9.490135      -258.2397
  18   2.0000      -7.259236      -197.5339
  19   2.0000      -7.249517      -197.2694
  20   2.0000      -7.248844      -197.2511
  21   2.0000      -1.063351       -28.9353
  22   2.0000      -0.942866       -25.6567
  23   2.0000      -0.929624       -25.2963
  24   2.0000      -0.923641       -25.1335
  25   2.0000      -0.904950       -24.6249
  26   2.0000      -0.858037       -23.3484
  27   2.0000      -0.826950       -22.5024
  28   2.0000      -0.795160       -21.6374
  29   2.0000      -0.782585       -21.2952
  30   2.0000      -0.707173       -19.2432
  31   2.0000      -0.698353       -19.0032
  32   2.0000      -0.637520       -17.3478
  33   2.0000      -0.624695       -16.9988
  34   2.0000      -0.615847       -16.7580
  35   2.0000      -0.562622       -15.3097
  36   2.0000      -0.552555       -15.0358
  37   2.0000      -0.520229       -14.1561
  38   2.0000      -0.516806       -14.0630
  39   2.0000      -0.490713       -13.3530
  40   2.0000      -0.481568       -13.1041
  41   2.0000      -0.473998       -12.8981
  42   2.0000      -0.466479       -12.6935
  43   2.0000      -0.452355       -12.3092
  44   2.0000      -0.438524       -11.9328
  45   2.0000      -0.436330       -11.8732
  46   2.0000      -0.423934       -11.5358
  47   2.0000      -0.413027       -11.2390
  48   2.0000      -0.404650       -11.0111
  49   2.0000      -0.393447       -10.7062
  50   2.0000      -0.388553       -10.5731
  51   2.0000      -0.378919       -10.3109
  52   2.0000      -0.373498       -10.1634
  53   2.0000      -0.368898       -10.0382
  54   2.0000      -0.359702        -9.7880
  55   2.0000      -0.349337        -9.5059
  56   2.0000      -0.340399        -9.2627
  57   2.0000      -0.307330        -8.3629
  58   2.0000      -0.298688        -8.1277
  59   2.0000      -0.288584        -7.8528
  60   2.0000      -0.271699        -7.3933
  61   0.0000      -0.135013        -3.6739
  62   0.0000      -0.112290        -3.0556
  63   0.0000      -0.047086        -1.2813
  64   0.0000      -0.027714        -0.7541
  65   0.0000      -0.014627        -0.3980

MULLIKEN ATOMIC CHARGES
-----------------------
   0 C :   -0.118270
   1 C :    0.147477
   2 O :   -0.142120
   3 C :   -0.032936
   4 C :    0.038589
   5 C :    0.259051
   6 C :   -0.283426
   7 C :   -0.137201
   8 N :    0.111839
   9 C :   -0.151314
  10 N :    0.115156
  11 C :   -0.027979
  12 C :    0.055481
  13 C :    0.071698
  14 C :    0.003414
  15 Cl:   -0.063400
  16 C :    0.019135
  17 H :    0.014557
  18 H :    0.006074
  19 H :    0.002547
  20 H :    0.054620
  21 H :    0.057006
Sum of atomic charges:   -0.0000000

LOEWDIN ATOMIC CHARGES
----------------------
   0 C :   -0.072511
   1 C :    0.082731
   2 O :   -0.125101
   3 C :   -0.037554
   4 C :   -0.014461
   5 C :    0.063906
   6 C :   -0.116004
   7 C :   -0.010967
   8 N :   -0.047381
   9 C :   -0.010296
  10 N :   -0.045607
  11 C :    0.009175
  12 C :   -0.012426
  13 C :   -0.097769
  14 C :   -0.002832
  15 Cl:    0.146492
  16 C :    0.072488
  17 H :    0.043990
  18 H :    0.042167
  19 H :    0.046065
  20 H :    0.045172
  21 H :    0.040722

  Mayer bond orders larger than 0.100000
B(  0-C ,  1-C ) :   0.9187 B(  0-C ,  5-C ) :   1.0051 B(  0-C , 16-C ) :   1.9130
B(  1-C ,  2-O ) :   2.2276 B(  1-C ,  3-C ) :   0.9322 B(  3-C ,  4-C ) :   1.3133
B(  3-C , 14-C ) :   1.3497 B(  4-C ,  5-C ) :   1.0381 B(  4-C , 11-C ) :   1.3229
B(  5-C ,  6-C ) :   1.6338 B(  6-C ,  7-C ) :   1.1255 B(  6-C ,  9-C ) :   1.1446
B(  7-C ,  8-N ) :   2.9368 B(  9-C , 10-N ) :   2.9403 B( 11-C , 12-C ) :   1.3865
B( 11-C , 17-H ) :   0.9786 B( 12-C , 13-C ) :   1.3497 B( 12-C , 18-H ) :   0.9816
B( 13-C , 14-C ) :   1.3307 B( 13-C , 15-Cl) :   0.9933 B( 14-C , 19-H ) :   1.0061
B( 16-C , 20-H ) :   0.9119 B( 16-C , 21-H ) :   0.9223

Dispersion correction           -0.057330705
FINAL SINGLE POINT ENERGY     -1142.683145379301

DIPOLE MOMENT
-------------
                                X             Y             Z
Electronic contribution:      8.18695      -0.32510      -0.00195
Nuclear contribution   :     -7.12683      -0.36074       0.00018
                        -----------------------------------------
Total Dipole Moment    :      1.06012      -0.68583      -0.00177
                        -----------------------------------------
Magnitude (a.u.)       :      1.26263
Magnitude (Debye)      :      3.20934

Rotational constants in cm-1:     0.025306     0.009195     0.006745
Rotational constants in MHz :   758.653824   275.668070   202.196861

                             ****ORCA TERMINATED NORMALLY****
TOTAL RUN TIME: 0 days 0 hours 18 minutes 35 seconds 169 msec
