                         Program Version 4.2.0 -  RELEASE  -
|  1> # ORCA input file
|  2> # SCF done        -78.244145238784          0.000151285781
|  3> ! B3LYP/G D3BJ Opt RIJCOSX def2-SVP def2/J
|  4> * xyz 0 1
|  5>    C        1.03849        -0.05746         0.06534
|  6>    C        0.37783        -1.32281         0.33826
|  7>    C        0.90814        -2.34501         1.13390
|  8>    C        0.21699        -3.52840         1.36766
|  9>    C       -1.03842        -3.72972         0.80077
| 10>    C       -1.59713        -2.72866         0.00997
| 11>    C       -0.89545        -1.54981        -0.20275
| 12>    F       -1.45085        -0.60679        -0.96795
| 13>    F       -2.79927        -2.90434        -0.53743
| 14>    F       -1.69878        -4.86418         1.01579
| 15>    F        0.75698        -4.47290         2.13763
| 16>    F        2.09719        -2.19395         1.72322
| 17>    C        2.36122         0.15308         0.12009
| 18>    C        3.02390         1.41389        -0.16840
| 19>    C        2.42018         2.67314        -0.07386
| 20>    C        3.11611         3.84462        -0.34971
| 21>    C        4.45159         3.79050        -0.73903
| 22>    C        5.08335         2.55309        -0.83581
| 23>    C        4.37400         1.39554        -0.54573
| 24>    F        5.00083         0.22099        -0.64957
| 25>    F        6.36205         2.48424        -1.20434
| 26>    F        5.11800         4.90901        -1.01142
| 27>    F        2.50381         5.02347        -0.24024
| 28>    F        1.14872         2.78428         0.31989
| 29>    H        0.36777         0.72963        -0.24652
| 30>    H        3.03896        -0.65695         0.34628
| 31> *
| 32>
| 33>                          ****END OF INPUT****
 Total Charge           Charge          ....    0
 Multiplicity           Mult            ....    1
 Number of Electrons    NEL             ....  176
Dispersion correction           -0.056379296
FINAL SINGLE POINT ENERGY     -1531.903537213068
Dispersion correction            ... done
Dispersion correction           -0.056172403
FINAL SINGLE POINT ENERGY     -1531.903425278789
Dispersion correction            ... done
Dispersion correction           -0.056080528
FINAL SINGLE POINT ENERGY     -1531.903727659811
Dispersion correction            ... done
FINAL SINGLE POINT ENERGY     -1531.903929873575
Dispersion correction            ... done
Dispersion correction           -0.056142865
FINAL SINGLE POINT ENERGY     -1531.903834070828
Dispersion correction            ... done
Dispersion correction           -0.056143647
FINAL SINGLE POINT ENERGY     -1531.903851081340
Dispersion correction            ... done
                    ***********************HURRAY********************

CARTESIAN COORDINATES (ANGSTROEM)
---------------------------------
  C      1.078725   -0.106579    0.000704
  C      0.395318   -1.363087    0.302011
  C      0.885286   -2.355628    1.170112
  C      0.158235   -3.512678    1.450994
  C     -1.093141   -3.706955    0.860165
  C     -1.617139   -2.737071    0.002266
  C     -0.875324   -1.587458   -0.260447
  F     -1.390672   -0.672544   -1.083198
  F     -2.808103   -2.924876   -0.555507
  F     -1.782688   -4.810470    1.112057
  F      0.639581   -4.429083    2.284227
  F      2.061581   -2.197182    1.779469
  C      2.410281    0.113086    0.044291
  C      3.059966    1.396256   -0.228418
  C      2.437135    2.646608   -0.057419
  C      3.109820    3.849601   -0.268064
  C      4.442525    3.833048   -0.688148
  C      5.096137    2.610789   -0.866258
  C      4.406629    1.420931   -0.636949
  F      5.058146    0.272155   -0.824175
  F      6.362188    2.590437   -1.267244
  F      5.085712    4.970574   -0.913336
  F      2.489736    5.007427   -0.065370
  F      1.171387    2.718869    0.355570
  H      0.415671    0.695196   -0.321550
  H      3.089216   -0.706866    0.280257

 Multiplicity           Mult            ....    1
 Number of Electrons    NEL             ....  176
 Basis Dimension        Dim             ....  346

ORBITAL ENERGIES
----------------

  NO   OCC          E(Eh)            E(eV)
   0   2.0000     -24.740417      -673.2210
   1   2.0000     -24.740310      -673.2180
   2   2.0000     -24.738865      -673.1787
   3   2.0000     -24.738678      -673.1737
   4   2.0000     -24.737616      -673.1448
   5   2.0000     -24.737065      -673.1298
   6   2.0000     -24.736534      -673.1153
   7   2.0000     -24.736389      -673.1114
   8   2.0000     -24.736240      -673.1073
   9   2.0000     -24.735803      -673.0954
  10   2.0000     -10.319268      -280.8015
  11   2.0000     -10.319163      -280.7987
  12   2.0000     -10.316655      -280.7305
  13   2.0000     -10.316216      -280.7185
  14   2.0000     -10.315356      -280.6951
  15   2.0000     -10.315314      -280.6940
  16   2.0000     -10.314151      -280.6623
  17   2.0000     -10.314014      -280.6586
  18   2.0000     -10.313996      -280.6581
  19   2.0000     -10.313827      -280.6535
  20   2.0000     -10.248627      -278.8793
  21   2.0000     -10.248170      -278.8669
  22   2.0000     -10.231497      -278.4132
  23   2.0000     -10.230253      -278.3793
  24   2.0000      -1.263217       -34.3739
  25   2.0000      -1.262869       -34.3644
  26   2.0000      -1.256231       -34.1838
  27   2.0000      -1.256027       -34.1782
  28   2.0000      -1.250900       -34.0387
  29   2.0000      -1.250756       -34.0348
  30   2.0000      -1.241702       -33.7884
  31   2.0000      -1.241316       -33.7779
  32   2.0000      -1.237841       -33.6834
  33   2.0000      -1.237515       -33.6745
  34   2.0000      -0.912183       -24.8218
  35   2.0000      -0.909450       -24.7474
  36   2.0000      -0.841649       -22.9024
  37   2.0000      -0.808176       -21.9916
  38   2.0000      -0.786223       -21.3942
  39   2.0000      -0.785546       -21.3758
  40   2.0000      -0.758078       -20.6283
  41   2.0000      -0.701469       -19.0879
  42   2.0000      -0.676227       -18.4011
  43   2.0000      -0.675234       -18.3740
  44   2.0000      -0.668507       -18.1910
  45   2.0000      -0.629985       -17.1428
  46   2.0000      -0.613730       -16.7004
  47   2.0000      -0.613570       -16.6961
  48   2.0000      -0.610136       -16.6026
  49   2.0000      -0.601738       -16.3741
  50   2.0000      -0.588607       -16.0168
  51   2.0000      -0.577176       -15.7058
  52   2.0000      -0.564480       -15.3603
  53   2.0000      -0.563908       -15.3447
  54   2.0000      -0.558790       -15.2054
  55   2.0000      -0.558574       -15.1996
  56   2.0000      -0.542590       -14.7646
  57   2.0000      -0.542127       -14.7520
  58   2.0000      -0.540962       -14.7203
  59   2.0000      -0.537337       -14.6217
  60   2.0000      -0.514668       -14.0048
  61   2.0000      -0.514411       -13.9978
  62   2.0000      -0.506178       -13.7738
  63   2.0000      -0.505220       -13.7477
  64   2.0000      -0.490509       -13.3474
  65   2.0000      -0.485606       -13.2140
  66   2.0000      -0.484728       -13.1901
  67   2.0000      -0.480199       -13.0669
  68   2.0000      -0.479140       -13.0381
  69   2.0000      -0.475121       -12.9287
  70   2.0000      -0.465154       -12.6575
  71   2.0000      -0.459845       -12.5130
  72   2.0000      -0.454687       -12.3727
  73   2.0000      -0.453770       -12.3477
  74   2.0000      -0.440444       -11.9851
  75   2.0000      -0.431610       -11.7447
  76   2.0000      -0.425098       -11.5675
  77   2.0000      -0.421689       -11.4747
  78   2.0000      -0.400543       -10.8993
  79   2.0000      -0.400055       -10.8860
  80   2.0000      -0.387706       -10.5500
  81   2.0000      -0.377820       -10.2810
  82   2.0000      -0.374916       -10.2020
  83   2.0000      -0.333842        -9.0843
  84   2.0000      -0.295176        -8.0321
  85   2.0000      -0.273684        -7.4473
  86   2.0000      -0.273161        -7.4331
  87   2.0000      -0.247332        -6.7302
  88   0.0000      -0.090918        -2.4740
  89   0.0000      -0.034910        -0.9500
  90   0.0000      -0.034459        -0.9377
  91   0.0000      -0.031379        -0.8539
  92   0.0000      -0.000577        -0.0157

MULLIKEN ATOMIC CHARGES
-----------------------
   0 C :    0.005771
   1 C :   -0.050571
   2 C :    0.171739
   3 C :    0.187299
   4 C :    0.127737
   5 C :    0.183386
   6 C :    0.168921
   7 F :   -0.168275
   8 F :   -0.158195
   9 F :   -0.153209
  10 F :   -0.160088
  11 F :   -0.168355
  12 C :    0.003525
  13 C :   -0.048153
  14 C :    0.172967
  15 C :    0.185433
  16 C :    0.125383
  17 C :    0.188606
  18 C :    0.161130
  19 F :   -0.166925
  20 F :   -0.158266
  21 F :   -0.153699
  22 F :   -0.159138
  23 F :   -0.168905
  24 H :    0.015993
  25 H :    0.015889
Sum of atomic charges:    0.0000000

LOEWDIN ATOMIC CHARGES
----------------------
   0 C :   -0.007189
   1 C :   -0.078145
   2 C :    0.063926
   3 C :    0.023915
   4 C :    0.037040
   5 C :    0.022685
   6 C :    0.064185
   7 F :   -0.036693
   8 F :   -0.031461
   9 F :   -0.024339
  10 F :   -0.032092
  11 F :   -0.034070
  12 C :   -0.008008
  13 C :   -0.077733
  14 C :    0.063663
  15 C :    0.023865
  16 C :    0.036628
  17 C :    0.023040
  18 C :    0.062988
  19 F :   -0.037275
  20 F :   -0.031473
  21 F :   -0.025076
  22 F :   -0.032000
  23 F :   -0.032439
  24 H :    0.032390
  25 H :    0.033670

  Mayer bond orders larger than 0.100000
B(  0-C ,  1-C ) :   1.0917 B(  0-C , 12-C ) :   1.7107 B(  0-C , 24-H ) :   0.9654
B(  1-C ,  2-C ) :   1.2823 B(  1-C ,  4-C ) :   0.1008 B(  1-C ,  6-C ) :   1.2926
B(  2-C ,  3-C ) :   1.2837 B(  2-C , 11-F ) :   1.1263 B(  3-C ,  4-C ) :   1.2638
B(  3-C , 10-F ) :   1.1561 B(  4-C ,  5-C ) :   1.2598 B(  4-C ,  9-F ) :   1.1601
B(  5-C ,  6-C ) :   1.2737 B(  5-C ,  8-F ) :   1.1627 B(  6-C ,  7-F ) :   1.1430
B( 12-C , 13-C ) :   1.0902 B( 12-C , 25-H ) :   0.9697 B( 13-C , 14-C ) :   1.2855
B( 13-C , 16-C ) :   0.1010 B( 13-C , 18-C ) :   1.2860 B( 14-C , 15-C ) :   1.2897
B( 14-C , 23-F ) :   1.1180 B( 15-C , 16-C ) :   1.2587 B( 15-C , 22-F ) :   1.1582
B( 16-C , 17-C ) :   1.2609 B( 16-C , 21-F ) :   1.1595 B( 17-C , 18-C ) :   1.2757
B( 17-C , 20-F ) :   1.1604 B( 18-C , 19-F ) :   1.1498

Dispersion correction           -0.056142074
FINAL SINGLE POINT ENERGY     -1531.903851354712

DIPOLE MOMENT
-------------
                                X             Y             Z
Electronic contribution:     -0.18120       0.14741       0.25146
Nuclear contribution   :      0.18457      -0.16973      -0.27782
                        -----------------------------------------
Total Dipole Moment    :      0.00338      -0.02232      -0.02635
                        -----------------------------------------
Magnitude (a.u.)       :      0.03470
Magnitude (Debye)      :      0.08820

Rotational constants in cm-1:     0.016949     0.003149     0.002826
Rotational constants in MHz :   508.105200    94.412441    84.722459

                             ****ORCA TERMINATED NORMALLY****
TOTAL RUN TIME: 0 days 0 hours 19 minutes 2 seconds 120 msec
