                         Program Version 4.2.0 -  RELEASE  -
|  1> # ORCA input file
|  2> # SCF done        -21.633674325813          0.000735783837
|  3> ! B3LYP/G D3BJ Opt RIJCOSX def2-SVP def2/J
|  4> * xyz 0 1
|  5>    C        1.13065         1.36344         0.00175
|  6>    C        2.16830         0.48676        -0.00121
|  7>    S        1.69168        -1.17928        -0.00456
|  8>    C        0.03706        -0.70732        -0.00121
|  9>    C       -0.10094         0.68067         0.00205
| 10>    S       -1.78068         1.07711         0.00544
| 11>    C       -2.11854        -0.64190         0.00170
| 12>    N       -1.10292        -1.42441        -0.00125
| 13>    H        1.23622         2.43228         0.00404
| 14>    H        3.21524         0.71721        -0.00164
| 15>    H       -3.13179        -0.98957         0.00189
| 16> *
| 17>
| 18>                          ****END OF INPUT****
 Total Charge           Charge          ....    0
 Multiplicity           Mult            ....    1
 Number of Electrons    NEL             ....   72
Dispersion correction           -0.026880221
FINAL SINGLE POINT ENERGY     -1043.076814198186
Dispersion correction            ... done
Dispersion correction           -0.026895999
FINAL SINGLE POINT ENERGY     -1043.079026083897
Dispersion correction            ... done
Dispersion correction           -0.026890323
FINAL SINGLE POINT ENERGY     -1043.079152698022
Dispersion correction            ... done
FINAL SINGLE POINT ENERGY     -1043.079178078490
Dispersion correction            ... done
Dispersion correction           -0.026874289
FINAL SINGLE POINT ENERGY     -1043.079178117578
Dispersion correction            ... done
Dispersion correction           -0.026871559
FINAL SINGLE POINT ENERGY     -1043.079175697576
Dispersion correction            ... done
                    ***********************HURRAY********************

CARTESIAN COORDINATES (ANGSTROEM)
---------------------------------
  C      1.142810    1.376435    0.002182
  C      2.189944    0.489256   -0.001188
  S      1.700230   -1.186128   -0.004513
  C      0.026158   -0.705518   -0.001541
  C     -0.103953    0.686024    0.001954
  S     -1.797364    1.073132    0.004463
  C     -2.144612   -0.657860    0.001954
  N     -1.111868   -1.447426   -0.001512
  H      1.271777    2.458634    0.004471
  H      3.252000    0.731586   -0.001846
  H     -3.180842   -1.003146    0.002575

 Multiplicity           Mult            ....    1
 Number of Electrons    NEL             ....   72
 Basis Dimension        Dim             ....  135

ORBITAL ENERGIES
----------------

  NO   OCC          E(Eh)            E(eV)
   0   2.0000     -88.887825     -2418.7607
   1   2.0000     -88.882016     -2418.6026
   2   2.0000     -14.342138      -390.2694
   3   2.0000     -10.256173      -279.0847
   4   2.0000     -10.243292      -278.7341
   5   2.0000     -10.225742      -278.2566
   6   2.0000     -10.225062      -278.2381
   7   2.0000     -10.212822      -277.9050
   8   2.0000      -7.982949      -217.2271
   9   2.0000      -7.977044      -217.0664
  10   2.0000      -5.951006      -161.9351
  11   2.0000      -5.947293      -161.8341
  12   2.0000      -5.945275      -161.7792
  13   2.0000      -5.943921      -161.7423
  14   2.0000      -5.941450      -161.6751
  15   2.0000      -5.937800      -161.5757
  16   2.0000      -0.975328       -26.5400
  17   2.0000      -0.873527       -23.7699
  18   2.0000      -0.808046       -21.9880
  19   2.0000      -0.730770       -19.8853
  20   2.0000      -0.718788       -19.5592
  21   2.0000      -0.614262       -16.7149
  22   2.0000      -0.571028       -15.5385
  23   2.0000      -0.551827       -15.0160
  24   2.0000      -0.482567       -13.1313
  25   2.0000      -0.471416       -12.8279
  26   2.0000      -0.444417       -12.0932
  27   2.0000      -0.438330       -11.9276
  28   2.0000      -0.403065       -10.9680
  29   2.0000      -0.381654       -10.3853
  30   2.0000      -0.358759        -9.7623
  31   2.0000      -0.350160        -9.5283
  32   2.0000      -0.311870        -8.4864
  33   2.0000      -0.288411        -7.8481
  34   2.0000      -0.247511        -6.7351
  35   2.0000      -0.236820        -6.4442
  36   0.0000      -0.047425        -1.2905
  37   0.0000       0.012030         0.3274
  38   0.0000       0.015016         0.4086
  39   0.0000       0.041440         1.1276
  40   0.0000       0.058418         1.5896

MULLIKEN ATOMIC CHARGES
-----------------------
   0 C :    0.008678
   1 C :   -0.094438
   2 S :    0.128687
   3 C :   -0.095509
   4 C :   -0.035025
   5 S :    0.099742
   6 C :   -0.001342
   7 N :   -0.092999
   8 H :   -0.000036
   9 H :    0.035315
  10 H :    0.046928
Sum of atomic charges:    0.0000000

LOEWDIN ATOMIC CHARGES
----------------------
   0 C :   -0.075488
   1 C :   -0.174573
   2 S :    0.419962
   3 C :   -0.197241
   4 C :   -0.224055
   5 S :    0.391389
   6 C :   -0.121899
   7 N :   -0.102627
   8 H :    0.035033
   9 H :    0.027407
  10 H :    0.022091

  Mayer bond orders larger than 0.100000
B(  0-C ,  1-C ) :   1.5761 B(  0-C ,  4-C ) :   1.2501 B(  0-C ,  8-H ) :   0.9990
B(  1-C ,  2-S ) :   1.1519 B(  1-C ,  9-H ) :   0.9660 B(  2-S ,  3-C ) :   1.1039
B(  3-C ,  4-C ) :   1.3814 B(  3-C ,  7-N ) :   1.3561 B(  4-C ,  5-S ) :   1.0876
B(  5-S ,  6-C ) :   1.1230 B(  5-S ,  7-N ) :   0.1146 B(  6-C ,  7-N ) :   1.6940
B(  6-C , 10-H ) :   0.9606

Dispersion correction           -0.026872636
FINAL SINGLE POINT ENERGY     -1043.079176597938

DIPOLE MOMENT
-------------
                                X             Y             Z
Electronic contribution:     -1.24869      -1.49243      -0.00294
Nuclear contribution   :      1.33480       2.19229       0.00443
                        -----------------------------------------
Total Dipole Moment    :      0.08611       0.69985       0.00149
                        -----------------------------------------
Magnitude (a.u.)       :      0.70513
Magnitude (Debye)      :      1.79231

Rotational constants in cm-1:     0.112058     0.044922     0.032067
Rotational constants in MHz :  3359.409545  1346.728397   961.342921

                             ****ORCA TERMINATED NORMALLY****
TOTAL RUN TIME: 0 days 0 hours 3 minutes 9 seconds 730 msec
