                         Program Version 4.2.0 -  RELEASE  -
|  1> # ORCA input file
|  2> # SCF done        -32.412057206862          0.000438938299
|  3> ! B3LYP/G D3BJ Opt RIJCOSX def2-SVP def2/J
|  4> * xyz 0 1
|  5>    C       -0.91960        -1.43916         0.00173
|  6>    C       -2.08441        -0.72680         0.00128
|  7>    F       -3.25972        -1.37170         0.00183
|  8>    C       -2.10111         0.69160         0.00025
|  9>    F       -3.29129         1.30864        -0.00013
| 10>    C       -0.95341         1.43120        -0.00037
| 11>    C        0.26392         0.73110         0.00007
| 12>    C        0.28090        -0.71058         0.00112
| 13>    N        1.52350        -1.19370         0.00138
| 14>    S        2.55259         0.03712         0.00044
| 15>    N        1.49479         1.24335        -0.00039
| 16>    H       -0.91887        -2.51597         0.00251
| 17>    H       -0.97805         2.50772        -0.00115
| 18> *
| 19>
| 20>                          ****END OF INPUT****
 Total Charge           Charge          ....    0
 Multiplicity           Mult            ....    1
 Number of Electrons    NEL             ....   86
Dispersion correction           -0.028530665
FINAL SINGLE POINT ENERGY      -936.694444499626
Dispersion correction            ... done
Dispersion correction           -0.028436991
FINAL SINGLE POINT ENERGY      -936.697378365986
Dispersion correction            ... done
Dispersion correction           -0.028430058
FINAL SINGLE POINT ENERGY      -936.697942104961
Dispersion correction            ... done
FINAL SINGLE POINT ENERGY      -936.698091471068
Dispersion correction            ... done
Dispersion correction           -0.028452501
FINAL SINGLE POINT ENERGY      -936.698120994871
Dispersion correction            ... done
Dispersion correction           -0.028454822
FINAL SINGLE POINT ENERGY      -936.698124519664
Dispersion correction            ... done
                    ***********************HURRAY********************

CARTESIAN COORDINATES (ANGSTROEM)
---------------------------------
  C     -0.924675   -1.449260    0.001588
  C     -2.090601   -0.738015    0.001474
  F     -3.266774   -1.362577    0.002432
  C     -2.106995    0.702333    0.000236
  F     -3.296812    1.299357   -0.000483
  C     -0.958361    1.441040   -0.000324
  C      0.282742    0.739085    0.000131
  C      0.299918   -0.718263    0.000975
  N      1.531164   -1.231784    0.000872
  S      2.574359    0.037738    0.001131
  N      1.501094    1.281968   -0.000517
  H     -0.938101   -2.539144    0.002286
  H     -0.997717    2.530343   -0.001232

 Multiplicity           Mult            ....    1
 Number of Electrons    NEL             ....   86
 Basis Dimension        Dim             ....  168

ORBITAL ENERGIES
----------------

  NO   OCC          E(Eh)            E(eV)
   0   2.0000     -88.944232     -2420.2956
   1   2.0000     -24.725986      -672.8283
   2   2.0000     -24.725855      -672.8247
   3   2.0000     -14.368358      -390.9829
   4   2.0000     -14.368273      -390.9806
   5   2.0000     -10.308018      -280.4954
   6   2.0000     -10.307797      -280.4894
   7   2.0000     -10.258800      -279.1561
   8   2.0000     -10.258603      -279.1508
   9   2.0000     -10.227090      -278.2933
  10   2.0000     -10.226940      -278.2892
  11   2.0000      -8.035494      -218.6569
  12   2.0000      -6.005522      -163.4186
  13   2.0000      -5.998303      -163.2221
  14   2.0000      -5.996522      -163.1737
  15   2.0000      -1.245874       -33.9020
  16   2.0000      -1.230755       -33.4906
  17   2.0000      -1.027956       -27.9721
  18   2.0000      -0.897150       -24.4127
  19   2.0000      -0.877881       -23.8883
  20   2.0000      -0.776408       -21.1271
  21   2.0000      -0.772754       -21.0277
  22   2.0000      -0.678036       -18.4503
  23   2.0000      -0.636752       -17.3269
  24   2.0000      -0.626007       -17.0345
  25   2.0000      -0.566388       -15.4122
  26   2.0000      -0.565546       -15.3893
  27   2.0000      -0.554126       -15.0785
  28   2.0000      -0.513498       -13.9730
  29   2.0000      -0.486606       -13.2412
  30   2.0000      -0.478216       -13.0129
  31   2.0000      -0.477830       -13.0024
  32   2.0000      -0.469382       -12.7725
  33   2.0000      -0.464404       -12.6371
  34   2.0000      -0.427798       -11.6410
  35   2.0000      -0.408070       -11.1041
  36   2.0000      -0.387190       -10.5360
  37   2.0000      -0.359044        -9.7701
  38   2.0000      -0.350641        -9.5414
  39   2.0000      -0.339662        -9.2427
  40   2.0000      -0.311195        -8.4680
  41   2.0000      -0.272926        -7.4267
  42   2.0000      -0.261692        -7.1210
  43   0.0000      -0.101244        -2.7550
  44   0.0000      -0.014747        -0.4013
  45   0.0000      -0.005230        -0.1423
  46   0.0000       0.008888         0.2419
  47   0.0000       0.054738         1.4895

MULLIKEN ATOMIC CHARGES
-----------------------
   0 C :   -0.096439
   1 C :    0.250967
   2 F :   -0.170334
   3 C :    0.250627
   4 F :   -0.170034
   5 C :   -0.096508
   6 C :    0.060101
   7 C :    0.059998
   8 N :   -0.281541
   9 S :    0.471983
  10 N :   -0.281317
  11 H :    0.001277
  12 H :    0.001222
Sum of atomic charges:    0.0000000

LOEWDIN ATOMIC CHARGES
----------------------
   0 C :   -0.048001
   1 C :    0.064682
   2 F :   -0.040794
   3 C :    0.064470
   4 F :   -0.040411
   5 C :   -0.048072
   6 C :   -0.053110
   7 C :   -0.053086
   8 N :   -0.279369
   9 S :    0.612169
  10 N :   -0.279318
  11 H :    0.050403
  12 H :    0.050436

  Mayer bond orders larger than 0.100000
B(  0-C ,  1-C ) :   1.4673 B(  0-C ,  5-C ) :   0.1393 B(  0-C ,  7-C ) :   1.1449
B(  0-C , 11-H ) :   1.0259 B(  1-C ,  2-F ) :   1.1130 B(  1-C ,  3-C ) :   1.1215
B(  3-C ,  4-F ) :   1.1131 B(  3-C ,  5-C ) :   1.4673 B(  5-C ,  6-C ) :   1.1452
B(  5-C , 12-H ) :   1.0259 B(  6-C ,  7-C ) :   1.1387 B(  6-C , 10-N ) :   1.5139
B(  7-C ,  8-N ) :   1.5137 B(  8-N ,  9-S ) :   1.2377 B(  8-N , 10-N ) :   0.1597
B(  9-S , 10-N ) :   1.2376

Dispersion correction           -0.028455784
FINAL SINGLE POINT ENERGY      -936.698126882571

DIPOLE MOMENT
-------------
                                X             Y             Z
Electronic contribution:     -3.98967      -0.04648       0.00150
Nuclear contribution   :      4.20952       0.04949      -0.00085
                        -----------------------------------------
Total Dipole Moment    :      0.21986       0.00301       0.00065
                        -----------------------------------------
Magnitude (a.u.)       :      0.21988
Magnitude (Debye)      :      0.55888

Rotational constants in cm-1:     0.084319     0.021322     0.017018
Rotational constants in MHz :  2527.831856   639.207930   510.195755

                             ****ORCA TERMINATED NORMALLY****
TOTAL RUN TIME: 0 days 0 hours 5 minutes 17 seconds 312 msec
