                         Program Version 4.2.0 -  RELEASE  -
|  1> # ORCA input file
|  2> # SCF done        -40.675694607491          0.000350221643
|  3> ! B3LYP/G D3BJ Opt RIJCOSX def2-SVP def2/J
|  4> * xyz 0 1
|  5>    C        0.49396         1.70375        -0.00012
|  6>    C        1.80538         1.25154         0.00112
|  7>    C        2.10590        -0.10464         0.00277
|  8>    C        1.09118        -1.04982         0.00316
|  9>    C       -0.21824        -0.60569         0.00195
| 10>    C       -0.53180         0.76762         0.00040
| 11>    C       -1.97990         0.93758         0.00073
| 12>    C       -2.65766         2.12071         0.00117
| 13>    C       -2.04416         3.39401        -0.00145
| 14>    N       -1.60808         4.45490        -0.00417
| 15>    C       -4.06633         2.23722         0.00364
| 16>    N       -5.20124         2.40220         0.00619
| 17>    C       -2.57528        -0.40055         0.00125
| 18>    C       -1.45791        -1.40111         0.00219
| 19>    O       -1.57528        -2.60244         0.00312
| 20>    C       -3.85426        -0.78085        -0.00008
| 21>    H        0.29001         2.76205        -0.00123
| 22>    H        2.60844         1.97310         0.00090
| 23>    H        3.13744        -0.42270         0.00374
| 24>    H        1.30117        -2.10829         0.00435
| 25>    H       -4.68635        -0.09948        -0.00190
| 26>    H       -4.07600        -1.83666        -0.00016
| 27> *
| 28>
| 29>                          ****END OF INPUT****
 Total Charge           Charge          ....    0
 Multiplicity           Mult            ....    1
 Number of Electrons    NEL             ....  106
Dispersion correction           -0.053815540
FINAL SINGLE POINT ENERGY      -683.210171506309
Dispersion correction            ... done
Dispersion correction           -0.053481280
FINAL SINGLE POINT ENERGY      -683.214309121124
Dispersion correction            ... done
Dispersion correction           -0.053458145
FINAL SINGLE POINT ENERGY      -683.214561635220
Dispersion correction            ... done
FINAL SINGLE POINT ENERGY      -683.214656755013
FINAL SINGLE POINT ENERGY      -683.214667228848
FINAL SINGLE POINT ENERGY      -683.214649783445
FINAL SINGLE POINT ENERGY      -683.214677874149
Dispersion correction            ... done
Dispersion correction           -0.053543869
FINAL SINGLE POINT ENERGY      -683.214685010550
Dispersion correction            ... done
Dispersion correction           -0.053543104
FINAL SINGLE POINT ENERGY      -683.214683980075
Dispersion correction            ... done
                    ***********************HURRAY********************

CARTESIAN COORDINATES (ANGSTROEM)
---------------------------------
  C      0.512731    1.727362    0.001138
  C      1.828845    1.257609    0.001471
  C      2.120773   -0.115773    0.001937
  C      1.086903   -1.053832    0.002106
  C     -0.224206   -0.587001    0.001794
  C     -0.534015    0.792304    0.001285
  C     -2.001595    0.970161    0.001010
  C     -2.680367    2.166741    0.000168
  C     -2.018488    3.435518   -0.000760
  N     -1.478932    4.463932   -0.001920
  C     -4.109568    2.230590    0.000031
  N     -5.270283    2.274488    0.000297
  C     -2.604475   -0.378941    0.001641
  C     -1.474768   -1.383177    0.001960
  O     -1.588166   -2.588467    0.002239
  C     -3.881668   -0.799244    0.002002
  H      0.324406    2.798820    0.000756
  H      2.647969    1.980105    0.001353
  H      3.161493   -0.448331    0.002182
  H      1.279859   -2.128574    0.002497
  H     -4.748515   -0.140751    0.001901
  H     -4.046945   -1.881087    0.002484

 Multiplicity           Mult            ....    1
 Number of Electrons    NEL             ....  106
 Basis Dimension        Dim             ....  254

ORBITAL ENERGIES
----------------

  NO   OCC          E(Eh)            E(eV)
   0   2.0000     -19.151934      -521.1506
   1   2.0000     -14.355965      -390.6457
   2   2.0000     -14.355897      -390.6438
   3   2.0000     -10.298803      -280.2447
   4   2.0000     -10.287690      -279.9423
   5   2.0000     -10.278232      -279.6849
   6   2.0000     -10.258300      -279.1425
   7   2.0000     -10.257871      -279.1309
   8   2.0000     -10.246928      -278.8331
   9   2.0000     -10.239917      -278.6423
  10   2.0000     -10.237807      -278.5849
  11   2.0000     -10.235120      -278.5118
  12   2.0000     -10.234574      -278.4969
  13   2.0000     -10.233850      -278.4772
  14   2.0000     -10.233640      -278.4715
  15   2.0000     -10.230549      -278.3874
  16   2.0000      -1.057110       -28.7654
  17   2.0000      -0.938352       -25.5339
  18   2.0000      -0.920729       -25.0543
  19   2.0000      -0.915266       -24.9056
  20   2.0000      -0.868399       -23.6303
  21   2.0000      -0.824237       -22.4286
  22   2.0000      -0.790011       -21.4973
  23   2.0000      -0.784313       -21.3422
  24   2.0000      -0.709398       -19.3037
  25   2.0000      -0.690063       -18.7776
  26   2.0000      -0.635766       -17.3001
  27   2.0000      -0.616590       -16.7783
  28   2.0000      -0.608050       -16.5459
  29   2.0000      -0.564688       -15.3659
  30   2.0000      -0.546045       -14.8586
  31   2.0000      -0.512839       -13.9550
  32   2.0000      -0.506179       -13.7738
  33   2.0000      -0.483566       -13.1585
  34   2.0000      -0.471166       -12.8211
  35   2.0000      -0.467294       -12.7157
  36   2.0000      -0.458475       -12.4757
  37   2.0000      -0.445328       -12.1180
  38   2.0000      -0.431014       -11.7285
  39   2.0000      -0.428393       -11.6572
  40   2.0000      -0.400034       -10.8855
  41   2.0000      -0.399928       -10.8826
  42   2.0000      -0.392406       -10.6779
  43   2.0000      -0.390451       -10.6247
  44   2.0000      -0.385506       -10.4901
  45   2.0000      -0.370550       -10.0832
  46   2.0000      -0.364089        -9.9074
  47   2.0000      -0.358780        -9.7629
  48   2.0000      -0.355911        -9.6848
  49   2.0000      -0.304019        -8.2728
  50   2.0000      -0.297230        -8.0880
  51   2.0000      -0.282860        -7.6970
  52   2.0000      -0.273189        -7.4338
  53   0.0000      -0.131074        -3.5667
  54   0.0000      -0.105743        -2.8774
  55   0.0000      -0.038987        -1.0609
  56   0.0000      -0.024672        -0.6713
  57   0.0000      -0.006691        -0.1821

MULLIKEN ATOMIC CHARGES
-----------------------
   0 C :   -0.025109
   1 C :    0.039730
   2 C :    0.047373
   3 C :   -0.010060
   4 C :   -0.021276
   5 C :    0.028505
   6 C :    0.258345
   7 C :   -0.282909
   8 C :   -0.136704
   9 N :    0.110909
  10 C :   -0.151275
  11 N :    0.113453
  12 C :   -0.119323
  13 C :    0.145440
  14 O :   -0.147193
  15 C :    0.017273
  16 H :    0.009461
  17 H :    0.009061
  18 H :    0.004043
  19 H :    0.001645
  20 H :    0.055526
  21 H :    0.053085
Sum of atomic charges:   -0.0000000

LOEWDIN ATOMIC CHARGES
----------------------
   0 C :    0.002102
   1 C :    0.004804
   2 C :    0.004644
   3 C :    0.015897
   4 C :   -0.042571
   5 C :   -0.009825
   6 C :    0.065444
   7 C :   -0.115976
   8 C :   -0.010825
   9 N :   -0.048283
  10 C :   -0.009853
  11 N :   -0.047025
  12 C :   -0.072439
  13 C :    0.081093
  14 O :   -0.129784
  15 C :    0.070020
  16 H :    0.040884
  17 H :    0.038980
  18 H :    0.036374
  19 H :    0.041986
  20 H :    0.039950
  21 H :    0.044402

  Mayer bond orders larger than 0.100000
B(  0-C ,  1-C ) :   1.3836 B(  0-C ,  5-C ) :   1.3448 B(  0-C , 16-H ) :   0.9796
B(  1-C ,  2-C ) :   1.3504 B(  1-C , 17-H ) :   0.9795 B(  2-C ,  3-C ) :   1.3423
B(  2-C , 18-H ) :   0.9872 B(  3-C ,  4-C ) :   1.3730 B(  3-C , 19-H ) :   0.9996
B(  4-C ,  5-C ) :   1.3120 B(  4-C , 13-C ) :   0.9423 B(  5-C ,  6-C ) :   1.0309
B(  6-C ,  7-C ) :   1.6362 B(  6-C , 12-C ) :   1.0059 B(  7-C ,  8-C ) :   1.1248
B(  7-C , 10-C ) :   1.1433 B(  8-C ,  9-N ) :   2.9377 B( 10-C , 11-N ) :   2.9412
B( 12-C , 13-C ) :   0.9150 B( 12-C , 15-C ) :   1.9141 B( 13-C , 14-O ) :   2.2218
B( 15-C , 20-H ) :   0.9227 B( 15-C , 21-H ) :   0.9114

Dispersion correction           -0.053543166
FINAL SINGLE POINT ENERGY      -683.214682644901

DIPOLE MOMENT
-------------
                                X             Y             Z
Electronic contribution:     -5.03008       3.20572      -0.00338
Nuclear contribution   :      6.57534      -4.01129       0.00464
                        -----------------------------------------
Total Dipole Moment    :      1.54526      -0.80557       0.00126
                        -----------------------------------------
Magnitude (a.u.)       :      1.74263
Magnitude (Debye)      :      4.42941

Rotational constants in cm-1:     0.026222     0.016726     0.010212
Rotational constants in MHz :   786.126383   501.434791   306.153324

                             ****ORCA TERMINATED NORMALLY****
TOTAL RUN TIME: 0 days 0 hours 18 minutes 19 seconds 328 msec
