                         Program Version 4.2.0 -  RELEASE  -
|  1> # ORCA input file
|  2> # SCF done        -30.344700007857          0.000582149380
|  3> ! B3LYP/G D3BJ Opt RIJCOSX def2-SVP def2/J
|  4> * xyz 0 1
|  5>    C       -0.77282         1.17730         0.11625
|  6>    C        0.59927         1.27405        -0.05506
|  7>    O        1.29973         2.44269        -0.16452
|  8>    C        0.59125         3.65397        -0.09518
|  9>    C        1.35380         0.10045        -0.12521
| 10>    C        0.74791        -1.12858        -0.02184
| 11>    C       -0.63421        -1.22790         0.15462
| 12>    C       -1.38527        -0.06473         0.22000
| 13>    O       -1.13496        -2.49626         0.25061
| 14>    C       -2.51800        -2.65490         0.44044
| 15>    H       -1.39186         2.05899         0.17268
| 16>    H        1.33836         4.43960        -0.19774
| 17>    H        0.07843         3.76759         0.86612
| 18>    H       -0.13823         3.74230        -0.90749
| 19>    H        2.42017         0.18344        -0.26112
| 20>    H        1.32518        -2.03780        -0.07399
| 21>    H       -2.45541        -0.09770         0.35242
| 22>    H       -2.68556        -3.72883         0.50661
| 23>    H       -3.08929        -2.25198        -0.40238
| 24>    H       -2.85542        -2.17978         1.36747
| 25> *
| 26>
| 27>                          ****END OF INPUT****
 Total Charge           Charge          ....    0
 Multiplicity           Mult            ....    1
 Number of Electrons    NEL             ....   74
Dispersion correction           -0.032503174
FINAL SINGLE POINT ENERGY      -460.988986846196
Dispersion correction            ... done
Dispersion correction           -0.032420830
FINAL SINGLE POINT ENERGY      -460.990656324496
Dispersion correction            ... done
Dispersion correction           -0.032404676
FINAL SINGLE POINT ENERGY      -460.990694636427
Dispersion correction            ... done
FINAL SINGLE POINT ENERGY      -460.990679693713
FINAL SINGLE POINT ENERGY      -460.990663359463
Dispersion correction            ... done
Dispersion correction           -0.032399431
FINAL SINGLE POINT ENERGY      -460.990652194084
Dispersion correction            ... done
Dispersion correction           -0.032399445
FINAL SINGLE POINT ENERGY      -460.990648702547
Dispersion correction            ... done
                    ***********************HURRAY********************

CARTESIAN COORDINATES (ANGSTROEM)
---------------------------------
  C     -0.770769    1.182749    0.107969
  C      0.610297    1.277580   -0.080879
  O      1.294138    2.446265   -0.234532
  C      0.588795    3.655454   -0.099963
  C      1.374632    0.097246   -0.123640
  C      0.767120   -1.142852   -0.000158
  C     -0.624943   -1.242344    0.176044
  C     -1.386207   -0.072396    0.232240
  O     -1.131967   -2.501498    0.280020
  C     -2.521001   -2.653034    0.430631
  H     -1.393404    2.075018    0.160576
  H      1.322612    4.464172   -0.215748
  H      0.107514    3.741764    0.892484
  H     -0.192438    3.770702   -0.873852
  H      2.453538    0.187010   -0.264883
  H      1.350205   -2.064832   -0.038979
  H     -2.464772   -0.113552    0.381683
  H     -2.723422   -3.732040    0.463373
  H     -3.078519   -2.211530   -0.416399
  H     -2.888339   -2.191962    1.366701

 Multiplicity           Mult            ....    1
 Number of Electrons    NEL             ....   74
 Basis Dimension        Dim             ....  190

ORBITAL ENERGIES
----------------

  NO   OCC          E(Eh)            E(eV)
   0   2.0000     -19.158039      -521.3167
   1   2.0000     -19.157952      -521.3144
   2   2.0000     -10.243161      -278.7306
   3   2.0000     -10.242838      -278.7218
   4   2.0000     -10.238946      -278.6159
   5   2.0000     -10.238845      -278.6131
   6   2.0000     -10.187492      -277.2157
   7   2.0000     -10.187160      -277.2067
   8   2.0000     -10.184556      -277.1359
   9   2.0000     -10.184143      -277.1246
  10   2.0000      -1.053923       -28.6787
  11   2.0000      -1.052805       -28.6483
  12   2.0000      -0.840894       -22.8819
  13   2.0000      -0.752706       -20.4822
  14   2.0000      -0.743519       -20.2322
  15   2.0000      -0.704425       -19.1684
  16   2.0000      -0.669406       -18.2155
  17   2.0000      -0.607457       -16.5297
  18   2.0000      -0.578404       -15.7392
  19   2.0000      -0.540323       -14.7029
  20   2.0000      -0.517118       -14.0715
  21   2.0000      -0.499037       -13.5795
  22   2.0000      -0.469216       -12.7680
  23   2.0000      -0.465811       -12.6754
  24   2.0000      -0.449311       -12.2264
  25   2.0000      -0.438817       -11.9408
  26   2.0000      -0.427697       -11.6382
  27   2.0000      -0.408899       -11.1267
  28   2.0000      -0.400287       -10.8924
  29   2.0000      -0.382221       -10.4008
  30   2.0000      -0.367365        -9.9965
  31   2.0000      -0.345846        -9.4110
  32   2.0000      -0.335983        -9.1426
  33   2.0000      -0.320062        -8.7093
  34   2.0000      -0.291195        -7.9238
  35   2.0000      -0.254571        -6.9272
  36   2.0000      -0.202308        -5.5051
  37   0.0000      -0.008497        -0.2312
  38   0.0000       0.020266         0.5515
  39   0.0000       0.059631         1.6226
  40   0.0000       0.068537         1.8650
  41   0.0000       0.087129         2.3709

MULLIKEN ATOMIC CHARGES
-----------------------
   0 C :   -0.084234
   1 C :    0.231302
   2 O :   -0.318269
   3 C :    0.188477
   4 C :   -0.022463
   5 C :   -0.016054
   6 C :    0.231723
   7 C :   -0.092289
   8 O :   -0.316753
   9 C :    0.184011
  10 H :   -0.034447
  11 H :    0.029186
  12 H :    0.012174
  13 H :    0.015496
  14 H :   -0.017822
  15 H :   -0.020091
  16 H :   -0.029581
  17 H :    0.029679
  18 H :    0.016478
  19 H :    0.013477
Sum of atomic charges:    0.0000000

LOEWDIN ATOMIC CHARGES
----------------------
   0 C :   -0.070172
   1 C :    0.034567
   2 O :   -0.108216
   3 C :    0.077178
   4 C :   -0.036870
   5 C :   -0.035988
   6 C :    0.034533
   7 C :   -0.071756
   8 O :   -0.107026
   9 C :    0.076304
  10 H :    0.024849
  11 H :    0.025255
  12 H :    0.010534
  13 H :    0.010199
  14 H :    0.032402
  15 H :    0.031997
  16 H :    0.025712
  17 H :    0.025386
  18 H :    0.010950
  19 H :    0.010162

  Mayer bond orders larger than 0.100000
B(  0-C ,  1-C ) :   1.3373 B(  0-C ,  7-C ) :   1.3011 B(  0-C , 10-H ) :   0.9899
B(  1-C ,  2-O ) :   1.1137 B(  1-C ,  4-C ) :   1.3322 B(  2-O ,  3-C ) :   0.9806
B(  3-C , 11-H ) :   0.9765 B(  3-C , 12-H ) :   0.9630 B(  3-C , 13-H ) :   0.9634
B(  4-C ,  5-C ) :   1.3983 B(  4-C , 14-H ) :   0.9911 B(  5-C ,  6-C ) :   1.3309
B(  5-C , 15-H ) :   0.9923 B(  6-C ,  7-C ) :   1.3394 B(  6-C ,  8-O ) :   1.1138
B(  7-C , 16-H ) :   0.9877 B(  8-O ,  9-C ) :   0.9798 B(  9-C , 17-H ) :   0.9765
B(  9-C , 18-H ) :   0.9633 B(  9-C , 19-H ) :   0.9636

Dispersion correction           -0.032399283
FINAL SINGLE POINT ENERGY      -460.990650444695

DIPOLE MOMENT
-------------
                                X             Y             Z
Electronic contribution:      4.30556      -2.17738      -0.57731
Nuclear contribution   :     -5.09655       2.57008       0.69076
                        -----------------------------------------
Total Dipole Moment    :     -0.79099       0.39270       0.11345
                        -----------------------------------------
Magnitude (a.u.)       :      0.89036
Magnitude (Debye)      :      2.26312

Rotational constants in cm-1:     0.133437     0.023697     0.020283
Rotational constants in MHz :  4000.345888   710.410404   608.075669

                             ****ORCA TERMINATED NORMALLY****
TOTAL RUN TIME: 0 days 0 hours 7 minutes 0 seconds 706 msec
