                         Program Version 4.2.0 -  RELEASE  -
|  1> # ORCA input file
|  2> # SCF done        -24.244732921620          0.000171033748
|  3> ! B3LYP/G D3BJ Opt RIJCOSX def2-SVP def2/J
|  4> * xyz 0 1
|  5>    C        2.09350        -0.69939         0.00022
|  6>    C        2.11497         0.69695        -0.00006
|  7>    C        0.95117         1.43411        -0.00000
|  8>    C       -0.26148         0.74844         0.00036
|  9>    C       -0.26554        -0.66159         0.00065
| 10>    C        0.90595        -1.40284         0.00059
| 11>    O       -1.53775        -1.12423         0.00098
| 12>    C       -2.33971        -0.03364         0.00090
| 13>    C       -1.64068         1.12446         0.00054
| 14>    H        3.02834        -1.23938         0.00016
| 15>    H        3.06829         1.20448        -0.00034
| 16>    H        0.97112         2.51334        -0.00022
| 17>    H        0.88065        -2.48087         0.00081
| 18>    H       -3.39628        -0.22160         0.00113
| 19>    H       -2.03915         2.11822         0.00042
| 20> *
| 21>
| 22>                          ****END OF INPUT****
 Total Charge           Charge          ....    0
 Multiplicity           Mult            ....    1
 Number of Electrons    NEL             ....   62
Dispersion correction           -0.027325770
FINAL SINGLE POINT ENERGY      -383.424614339859
Dispersion correction            ... done
Dispersion correction           -0.027304329
FINAL SINGLE POINT ENERGY      -383.426797180549
Dispersion correction            ... done
Dispersion correction           -0.027299598
FINAL SINGLE POINT ENERGY      -383.426890883044
Dispersion correction            ... done
Dispersion correction           -0.027296702
FINAL SINGLE POINT ENERGY      -383.426909723803
Dispersion correction            ... done
Dispersion correction           -0.027296187
FINAL SINGLE POINT ENERGY      -383.426908817808
Dispersion correction            ... done
                    ***********************HURRAY********************

CARTESIAN COORDINATES (ANGSTROEM)
---------------------------------
  C      2.111445   -0.710211    0.000226
  C      2.137658    0.699522   -0.000055
  C      0.961234    1.446309    0.000002
  C     -0.266106    0.762332    0.000360
  C     -0.258480   -0.649128    0.000646
  C      0.905064   -1.411607    0.000578
  O     -1.534922   -1.125499    0.000986
  C     -2.359574   -0.035057    0.000910
  C     -1.663019    1.133966    0.000540
  H      3.051764   -1.265530    0.000163
  H      3.101010    1.214478   -0.000341
  H      0.991632    2.538606   -0.000241
  H      0.861774   -2.502093    0.000802
  H     -3.424393   -0.257250    0.001156
  H     -2.081687    2.137623    0.000407

 Multiplicity           Mult            ....    1
 Number of Electrons    NEL             ....   62
 Basis Dimension        Dim             ....  156

ORBITAL ENERGIES
----------------

  NO   OCC          E(Eh)            E(eV)
   0   2.0000     -19.199347      -522.4408
   1   2.0000     -10.249193      -278.8947
   2   2.0000     -10.242566      -278.7144
   3   2.0000     -10.196713      -277.4667
   4   2.0000     -10.196208      -277.4529
   5   2.0000     -10.195740      -277.4402
   6   2.0000     -10.194477      -277.4058
   7   2.0000     -10.193872      -277.3894
   8   2.0000     -10.190422      -277.2955
   9   2.0000      -1.104023       -30.0420
  10   2.0000      -0.850423       -23.1412
  11   2.0000      -0.794087       -21.6082
  12   2.0000      -0.744339       -20.2545
  13   2.0000      -0.724389       -19.7116
  14   2.0000      -0.632723       -17.2173
  15   2.0000      -0.600241       -16.3334
  16   2.0000      -0.581941       -15.8354
  17   2.0000      -0.522366       -14.2143
  18   2.0000      -0.496423       -13.5083
  19   2.0000      -0.481873       -13.1124
  20   2.0000      -0.462406       -12.5827
  21   2.0000      -0.442593       -12.0436
  22   2.0000      -0.429439       -11.6856
  23   2.0000      -0.411765       -11.2047
  24   2.0000      -0.391211       -10.6454
  25   2.0000      -0.370420       -10.0796
  26   2.0000      -0.356390        -9.6979
  27   2.0000      -0.344045        -9.3619
  28   2.0000      -0.299924        -8.1614
  29   2.0000      -0.245007        -6.6670
  30   2.0000      -0.228565        -6.2196
  31   0.0000      -0.028178        -0.7668
  32   0.0000       0.004856         0.1321
  33   0.0000       0.045025         1.2252
  34   0.0000       0.066926         1.8211
  35   0.0000       0.086704         2.3593

MULLIKEN ATOMIC CHARGES
-----------------------
   0 C :    0.009045
   1 C :    0.030851
   2 C :   -0.048617
   3 C :    0.070831
   4 C :    0.165545
   5 C :   -0.050210
   6 O :   -0.224272
   7 C :    0.151104
   8 C :   -0.028441
   9 H :   -0.014830
  10 H :   -0.020964
  11 H :   -0.023498
  12 H :   -0.015815
  13 H :    0.014384
  14 H :   -0.015114
Sum of atomic charges:   -0.0000000

LOEWDIN ATOMIC CHARGES
----------------------
   0 C :   -0.026783
   1 C :   -0.035938
   2 C :   -0.025250
   3 C :   -0.048872
   4 C :    0.043707
   5 C :   -0.044007
   6 O :   -0.018552
   7 C :    0.056582
   8 C :   -0.073756
   9 H :    0.027293
  10 H :    0.026157
  11 H :    0.027738
  12 H :    0.034670
  13 H :    0.025322
  14 H :    0.031689

  Mayer bond orders larger than 0.100000
B(  0-C ,  1-C ) :   1.3426 B(  0-C ,  5-C ) :   1.3859 B(  0-C ,  9-H ) :   0.9835
B(  1-C ,  2-C ) :   1.4206 B(  1-C , 10-H ) :   0.9845 B(  2-C ,  3-C ) :   1.2906
B(  2-C ,  5-C ) :   0.1035 B(  2-C , 11-H ) :   0.9973 B(  3-C ,  4-C ) :   1.2960
B(  3-C ,  8-C ) :   1.1421 B(  4-C ,  5-C ) :   1.3485 B(  4-C ,  6-O ) :   1.1086
B(  5-C , 12-H ) :   1.0019 B(  6-O ,  7-C ) :   1.0990 B(  7-C ,  8-C ) :   1.5818
B(  7-C , 13-H ) :   0.9985 B(  8-C , 14-H ) :   1.0021

Dispersion correction           -0.027296328
FINAL SINGLE POINT ENERGY      -383.426907734907

DIPOLE MOMENT
-------------
                                X             Y             Z
Electronic contribution:     -2.60365      -1.54710       0.00081
Nuclear contribution   :      2.47577       1.79494      -0.00085
                        -----------------------------------------
Total Dipole Moment    :     -0.12788       0.24784      -0.00004
                        -----------------------------------------
Magnitude (a.u.)       :      0.27889
Magnitude (Debye)      :      0.70887

Rotational constants in cm-1:     0.130418     0.055127     0.038748
Rotational constants in MHz :  3909.832242  1652.659540  1161.641547

                             ****ORCA TERMINATED NORMALLY****
TOTAL RUN TIME: 0 days 0 hours 3 minutes 44 seconds 30 msec
