                         Program Version 4.2.0 -  RELEASE  -
|  1> # ORCA input file
|  2> # SCF done        -44.253176401025          0.000191400486
|  3> ! B3LYP/G D3BJ Opt RIJCOSX def2-SVP def2/J
|  4> * xyz 0 1
|  5>    C       -1.47296        -1.40907        -0.00110
|  6>    O       -1.58946        -2.60871        -0.00137
|  7>    C       -0.22753        -0.61538        -0.00192
|  8>    C       -0.53684         0.75867        -0.00203
|  9>    C        0.49507         1.69075        -0.00238
| 10>    C        1.80415         1.23988        -0.00231
| 11>    C        2.08662        -0.12229        -0.00201
| 12>    C        1.07517        -1.07274        -0.00192
| 13>   Br        3.89710        -0.68982        -0.00114
| 14>    C       -1.98345         0.93291        -0.00050
| 15>    C       -2.65605         2.11918         0.00086
| 16>    C       -2.03398         3.38840        -0.00203
| 17>    N       -1.58463         4.44353        -0.00514
| 18>    C       -4.06440         2.24139         0.00485
| 19>    N       -5.19877         2.40920         0.00856
| 20>    C       -2.58366        -0.40352        -0.00021
| 21>    C       -3.86452        -0.77889        -0.00061
| 22>    H        0.29920         2.75040        -0.00264
| 23>    H        2.61607         1.95083        -0.00239
| 24>    H        1.28729        -2.13068        -0.00167
| 25>    H       -4.69315        -0.09337        -0.00064
| 26>    H       -4.09111        -1.83361        -0.00112
| 27> *
| 28>
| 29>                          ****END OF INPUT****
 Total Charge           Charge          ....    0
 Multiplicity           Mult            ....    1
 Number of Electrons    NEL             ....  140
Dispersion correction           -0.058545677
FINAL SINGLE POINT ENERGY     -3256.480317710329
Dispersion correction            ... done
Dispersion correction           -0.058208707
FINAL SINGLE POINT ENERGY     -3256.484269616800
Dispersion correction            ... done
Dispersion correction           -0.058182819
FINAL SINGLE POINT ENERGY     -3256.484519426015
Dispersion correction            ... done
FINAL SINGLE POINT ENERGY     -3256.484611883416
FINAL SINGLE POINT ENERGY     -3256.484625198579
FINAL SINGLE POINT ENERGY     -3256.484627715183
Dispersion correction            ... done
Dispersion correction           -0.058273892
FINAL SINGLE POINT ENERGY     -3256.484625266620
Dispersion correction            ... done
Dispersion correction           -0.058268940
FINAL SINGLE POINT ENERGY     -3256.484635984934
Dispersion correction            ... done
                    ***********************HURRAY********************

CARTESIAN COORDINATES (ANGSTROEM)
---------------------------------
  C     -1.486128   -1.387920   -0.000875
  O     -1.598448   -2.592468   -0.000553
  C     -0.231943   -0.592852   -0.001477
  C     -0.539037    0.785974   -0.001169
  C      0.516183    1.713185   -0.001635
  C      1.830351    1.243663   -0.002422
  C      2.105597   -0.135311   -0.002776
  C      1.071762   -1.074443   -0.002283
  Br     3.907910   -0.724814   -0.003973
  C     -2.004393    0.967512   -0.000357
  C     -2.680476    2.166064    0.000051
  C     -2.012478    3.431124   -0.000259
  N     -1.464150    4.454913   -0.001060
  C     -4.109204    2.232953    0.000995
  N     -5.269825    2.279196    0.002105
  C     -2.611260   -0.380257    0.000011
  C     -3.889681   -0.797462    0.000944
  H      0.338522    2.786836   -0.001419
  H      2.657488    1.955087   -0.002805
  H      1.262238   -2.148562   -0.002543
  H     -4.754734   -0.136600    0.001604
  H     -4.058134   -1.878758    0.001035

 Multiplicity           Mult            ....    1
 Number of Electrons    NEL             ....  140
 Basis Dimension        Dim             ....  281

ORBITAL ENERGIES
----------------

  NO   OCC          E(Eh)            E(eV)
   0   2.0000    -482.817465    -13138.1312
   1   2.0000     -62.501807     -1700.7606
   2   2.0000     -56.333620     -1532.9157
   3   2.0000     -56.331190     -1532.8496
   4   2.0000     -56.331126     -1532.8479
   5   2.0000     -19.158086      -521.3180
   6   2.0000     -14.359445      -390.7404
   7   2.0000     -14.359099      -390.7310
   8   2.0000     -10.305056      -280.4148
   9   2.0000     -10.291425      -280.0439
  10   2.0000     -10.284208      -279.8475
  11   2.0000     -10.282563      -279.8028
  12   2.0000     -10.261684      -279.2346
  13   2.0000     -10.260932      -279.2141
  14   2.0000     -10.253387      -279.0088
  15   2.0000     -10.245548      -278.7955
  16   2.0000     -10.244547      -278.7683
  17   2.0000     -10.244253      -278.7603
  18   2.0000     -10.243538      -278.7408
  19   2.0000     -10.242545      -278.7138
  20   2.0000     -10.239829      -278.6399
  21   2.0000      -8.720115      -237.2864
  22   2.0000      -6.554011      -178.3437
  23   2.0000      -6.540692      -177.9813
  24   2.0000      -6.539974      -177.9617
  25   2.0000      -2.668031       -72.6008
  26   2.0000      -2.664595       -72.5073
  27   2.0000      -2.664016       -72.4916
  28   2.0000      -2.653342       -72.2011
  29   2.0000      -2.653327       -72.2007
  30   2.0000      -1.063503       -28.9394
  31   2.0000      -0.942625       -25.6501
  32   2.0000      -0.924471       -25.1561
  33   2.0000      -0.923786       -25.1375
  34   2.0000      -0.886813       -24.1314
  35   2.0000      -0.839173       -22.8350
  36   2.0000      -0.823039       -22.3960
  37   2.0000      -0.794986       -21.6327
  38   2.0000      -0.775548       -21.1037
  39   2.0000      -0.705933       -19.2094
  40   2.0000      -0.697956       -18.9923
  41   2.0000      -0.637031       -17.3345
  42   2.0000      -0.624217       -16.9858
  43   2.0000      -0.615578       -16.7507
  44   2.0000      -0.560497       -15.2519
  45   2.0000      -0.552459       -15.0332
  46   2.0000      -0.519088       -14.1251
  47   2.0000      -0.514493       -14.0001
  48   2.0000      -0.486325       -13.2336
  49   2.0000      -0.479464       -13.0469
  50   2.0000      -0.473771       -12.8920
  51   2.0000      -0.466113       -12.6836
  52   2.0000      -0.450749       -12.2655
  53   2.0000      -0.435897       -11.8614
  54   2.0000      -0.429582       -11.6895
  55   2.0000      -0.417109       -11.3501
  56   2.0000      -0.410891       -11.1809
  57   2.0000      -0.399441       -10.8693
  58   2.0000      -0.393714       -10.7135
  59   2.0000      -0.388859       -10.5814
  60   2.0000      -0.373845       -10.1728
  61   2.0000      -0.371850       -10.1186
  62   2.0000      -0.368615       -10.0305
  63   2.0000      -0.359774        -9.7899
  64   2.0000      -0.338722        -9.2171
  65   2.0000      -0.316471        -8.6116
  66   2.0000      -0.307128        -8.3574
  67   2.0000      -0.295666        -8.0455
  68   2.0000      -0.288568        -7.8523
  69   2.0000      -0.270479        -7.3601
  70   0.0000      -0.135680        -3.6920
  71   0.0000      -0.112458        -3.0601
  72   0.0000      -0.047775        -1.3000
  73   0.0000      -0.028055        -0.7634
  74   0.0000      -0.021161        -0.5758

MULLIKEN ATOMIC CHARGES
-----------------------
   0 C :    0.147769
   1 O :   -0.142017
   2 C :   -0.027973
   3 C :    0.037077
   4 C :   -0.024316
   5 C :    0.052516
   6 C :   -0.004840
   7 C :    0.001497
   8 Br:   -0.001021
   9 C :    0.259030
  10 C :   -0.282928
  11 C :   -0.137320
  12 N :    0.112549
  13 C :   -0.151015
  14 N :    0.115397
  15 C :   -0.118943
  16 C :    0.019507
  17 H :    0.014821
  18 H :    0.010840
  19 H :    0.007524
  20 H :    0.057092
  21 H :    0.054752
Sum of atomic charges:    0.0000000

LOEWDIN ATOMIC CHARGES
----------------------
   0 C :    0.082786
   1 O :   -0.124915
   2 C :   -0.037974
   3 C :   -0.012522
   4 C :    0.008715
   5 C :   -0.007881
   6 C :   -0.097983
   7 C :    0.002180
   8 Br:    0.133422
   9 C :    0.063745
  10 C :   -0.115259
  11 C :   -0.011078
  12 N :   -0.046809
  13 C :   -0.010144
  14 N :   -0.045149
  15 C :   -0.072563
  16 C :    0.072741
  17 H :    0.044038
  18 H :    0.042489
  19 H :    0.046196
  20 H :    0.040727
  21 H :    0.045237

  Mayer bond orders larger than 0.100000
B(  0-C ,  1-O ) :   2.2272 B(  0-C ,  2-C ) :   0.9344 B(  0-C , 15-C ) :   0.9186
B(  2-C ,  3-C ) :   1.3130 B(  2-C ,  7-C ) :   1.3651 B(  3-C ,  4-C ) :   1.3260
B(  3-C ,  9-C ) :   1.0362 B(  4-C ,  5-C ) :   1.3971 B(  4-C , 17-H ) :   0.9794
B(  5-C ,  6-C ) :   1.3523 B(  5-C , 18-H ) :   0.9794 B(  6-C ,  7-C ) :   1.3310
B(  6-C ,  8-Br) :   1.0086 B(  7-C , 19-H ) :   1.0019 B(  9-C , 10-C ) :   1.6344
B(  9-C , 15-C ) :   1.0058 B( 10-C , 11-C ) :   1.1254 B( 10-C , 13-C ) :   1.1444
B( 11-C , 12-N ) :   2.9371 B( 13-C , 14-N ) :   2.9402 B( 15-C , 16-C ) :   1.9125
B( 16-C , 20-H ) :   0.9224 B( 16-C , 21-H ) :   0.9119

Dispersion correction           -0.058265671
FINAL SINGLE POINT ENERGY     -3256.484637330213

DIPOLE MOMENT
-------------
                                X             Y             Z
Electronic contribution:     41.38067      -9.46030      -0.02645
Nuclear contribution   :    -40.31248       8.77193       0.02579
                        -----------------------------------------
Total Dipole Moment    :      1.06819      -0.68837      -0.00066
                        -----------------------------------------
Magnitude (a.u.)       :      1.27078
Magnitude (Debye)      :      3.23006

Rotational constants in cm-1:     0.025174     0.006201     0.004975
Rotational constants in MHz :   754.708067   185.900807   149.159596

                             ****ORCA TERMINATED NORMALLY****
TOTAL RUN TIME: 0 days 0 hours 20 minutes 33 seconds 264 msec
