                         Program Version 4.2.0 -  RELEASE  -
|  1> # ORCA input file
|  2> # SCF done        -37.334234944541          0.000817449267
|  3> ! B3LYP/G D3BJ Opt RIJCOSX def2-SVP def2/J
|  4> * xyz 0 1
|  5>    C        3.16371        -0.41930         0.00290
|  6>    C        2.63423         0.83294         0.00293
|  7>    F        3.37672         1.94530         0.00368
|  8>    C        1.22275         0.83458         0.00210
|  9>    C        0.70517        -0.45836         0.00143
| 10>    S        1.95293        -1.65116         0.00185
| 11>    C       -0.70021        -0.45993         0.00059
| 12>    C       -1.22059         0.83190         0.00063
| 13>    S       -0.00028         2.06933         0.00170
| 14>    C       -2.63205         0.82724        -0.00023
| 15>    F       -3.37695         1.93798        -0.00038
| 16>    C       -3.15882        -0.42615        -0.00090
| 17>    S       -1.94538        -1.65539        -0.00049
| 18>    H        4.20116        -0.68468         0.00343
| 19>    H       -4.19570        -0.69375        -0.00161
| 20> *
| 21>
| 22>                          ****END OF INPUT****
 Total Charge           Charge          ....    0
 Multiplicity           Mult            ....    1
 Number of Electrons    NEL             ....  116
Dispersion correction           -0.044120886
FINAL SINGLE POINT ENERGY     -1699.606575875826
Dispersion correction            ... done
Dispersion correction           -0.044172566
FINAL SINGLE POINT ENERGY     -1699.608556366706
Dispersion correction            ... done
Dispersion correction           -0.044182598
FINAL SINGLE POINT ENERGY     -1699.608728475986
Dispersion correction            ... done
Dispersion correction           -0.044180748
FINAL SINGLE POINT ENERGY     -1699.608758639313
Dispersion correction            ... done
Dispersion correction           -0.044177484
FINAL SINGLE POINT ENERGY     -1699.608764062168
Dispersion correction            ... done
                    ***********************HURRAY********************

CARTESIAN COORDINATES (ANGSTROEM)
---------------------------------
  C      3.199876   -0.420545    0.003005
  C      2.658500    0.837963    0.003131
  F      3.374241    1.962050    0.004472
  C      1.233564    0.830719    0.001892
  C      0.714302   -0.466932    0.001085
  S      1.973577   -1.663726    0.001258
  C     -0.709341   -0.468519    0.000261
  C     -1.231435    0.827955    0.000262
  S     -0.000332    2.075471    0.001189
  C     -2.656363    0.832153   -0.000336
  F     -3.374181    1.954905   -0.000623
  C     -3.195073   -0.427523   -0.000448
  S     -1.966037   -1.668047   -0.000647
  H      4.255575   -0.683006    0.003850
  H     -4.250183   -0.692368   -0.000720

 Multiplicity           Mult            ....    1
 Number of Electrons    NEL             ....  116
 Basis Dimension        Dim             ....  204

ORBITAL ENERGIES
----------------

  NO   OCC          E(Eh)            E(eV)
   0   2.0000     -88.895684     -2418.9745
   1   2.0000     -88.895625     -2418.9729
   2   2.0000     -88.895219     -2418.9619
   3   2.0000     -24.716420      -672.5680
   4   2.0000     -24.716414      -672.5678
   5   2.0000     -10.293963      -280.1130
   6   2.0000     -10.293951      -280.1127
   7   2.0000     -10.242040      -278.7001
   8   2.0000     -10.241832      -278.6944
   9   2.0000     -10.235805      -278.5304
  10   2.0000     -10.235780      -278.5297
  11   2.0000     -10.228290      -278.3259
  12   2.0000     -10.228281      -278.3257
  13   2.0000      -7.989744      -217.4120
  14   2.0000      -7.989691      -217.4105
  15   2.0000      -7.988684      -217.3831
  16   2.0000      -5.958263      -162.1326
  17   2.0000      -5.958243      -162.1320
  18   2.0000      -5.957442      -162.1102
  19   2.0000      -5.954314      -162.0251
  20   2.0000      -5.954302      -162.0248
  21   2.0000      -5.953606      -162.0059
  22   2.0000      -5.950208      -161.9134
  23   2.0000      -5.950205      -161.9133
  24   2.0000      -5.948638      -161.8707
  25   2.0000      -1.226704       -33.3803
  26   2.0000      -1.226694       -33.3800
  27   2.0000      -0.932446       -25.3732
  28   2.0000      -0.891436       -24.2572
  29   2.0000      -0.839609       -22.8469
  30   2.0000      -0.772690       -21.0260
  31   2.0000      -0.751025       -20.4364
  32   2.0000      -0.712434       -19.3863
  33   2.0000      -0.711789       -19.3688
  34   2.0000      -0.633437       -17.2367
  35   2.0000      -0.594225       -16.1697
  36   2.0000      -0.589789       -16.0490
  37   2.0000      -0.563743       -15.3402
  38   2.0000      -0.529792       -14.4164
  39   2.0000      -0.520813       -14.1720
  40   2.0000      -0.495623       -13.4866
  41   2.0000      -0.490059       -13.3352
  42   2.0000      -0.486231       -13.2310
  43   2.0000      -0.465721       -12.6729
  44   2.0000      -0.432771       -11.7763
  45   2.0000      -0.431087       -11.7305
  46   2.0000      -0.429034       -11.6746
  47   2.0000      -0.421104       -11.4588
  48   2.0000      -0.396022       -10.7763
  49   2.0000      -0.390277       -10.6200
  50   2.0000      -0.377324       -10.2675
  51   2.0000      -0.360123        -9.7994
  52   2.0000      -0.356093        -9.6898
  53   2.0000      -0.337675        -9.1886
  54   2.0000      -0.287345        -7.8191
  55   2.0000      -0.271598        -7.3906
  56   2.0000      -0.234418        -6.3788
  57   2.0000      -0.224317        -6.1040
  58   0.0000      -0.059202        -1.6110
  59   0.0000       0.006921         0.1883
  60   0.0000       0.008334         0.2268
  61   0.0000       0.008851         0.2409
  62   0.0000       0.029556         0.8043

MULLIKEN ATOMIC CHARGES
-----------------------
   0 C :   -0.170648
   1 C :    0.273867
   2 F :   -0.177419
   3 C :   -0.114662
   4 C :   -0.091640
   5 S :    0.151725
   6 C :   -0.091585
   7 C :   -0.114695
   8 S :    0.184777
   9 C :    0.273863
  10 F :   -0.177444
  11 C :   -0.170575
  12 S :    0.151730
  13 H :    0.036365
  14 H :    0.036341
Sum of atomic charges:    0.0000000

LOEWDIN ATOMIC CHARGES
----------------------
   0 C :   -0.221368
   1 C :    0.031521
   2 F :   -0.052525
   3 C :   -0.220828
   4 C :   -0.212715
   5 S :    0.429836
   6 C :   -0.212722
   7 C :   -0.220831
   8 S :    0.424417
   9 C :    0.031525
  10 F :   -0.052524
  11 C :   -0.221345
  12 S :    0.429818
  13 H :    0.033875
  14 H :    0.033867

  Mayer bond orders larger than 0.100000
B(  0-C ,  1-C ) :   1.5487 B(  0-C ,  5-S ) :   1.1015 B(  0-C , 13-H ) :   0.9594
B(  1-C ,  2-F ) :   1.1442 B(  1-C ,  3-C ) :   1.2359 B(  3-C ,  4-C ) :   1.4648
B(  3-C ,  8-S ) :   1.0429 B(  4-C ,  5-S ) :   1.0889 B(  4-C ,  6-C ) :   1.3217
B(  6-C ,  7-C ) :   1.4648 B(  6-C , 12-S ) :   1.0889 B(  7-C ,  8-S ) :   1.0429
B(  7-C ,  9-C ) :   1.2360 B(  9-C , 10-F ) :   1.1442 B(  9-C , 11-C ) :   1.5487
B( 11-C , 12-S ) :   1.1014 B( 11-C , 14-H ) :   0.9594

Dispersion correction           -0.044176316
FINAL SINGLE POINT ENERGY     -1699.608763360275

DIPOLE MOMENT
-------------
                                X             Y             Z
Electronic contribution:     -0.00435       4.20728       0.00039
Nuclear contribution   :      0.00490      -4.86913      -0.00062
                        -----------------------------------------
Total Dipole Moment    :      0.00056      -0.66185      -0.00022
                        -----------------------------------------
Magnitude (a.u.)       :      0.66185
Magnitude (Debye)      :      1.68229

Rotational constants in cm-1:     0.034107     0.014265     0.010058
Rotational constants in MHz :  1022.515125   427.650856   301.537543

                             ****ORCA TERMINATED NORMALLY****
TOTAL RUN TIME: 0 days 0 hours 5 minutes 50 seconds 918 msec
