                         Program Version 4.2.0 -  RELEASE  -
|  1> # ORCA input file
|  2> # SCF done        -21.070287036127          0.000271138113
|  3> ! B3LYP/G D3BJ Opt RIJCOSX def2-SVP def2/J
|  4> * xyz 0 1
|  5>    C       -1.11473         0.03311         0.00142
|  6>    N       -0.28806         1.04551        -0.00278
|  7>    O        0.95801         0.55761        -0.00615
|  8>    C        0.91218        -0.78874        -0.00405
|  9>    C        2.16093        -1.54438        -0.00698
| 10>    O        2.22933        -2.74431        -0.00581
| 11>    C       -0.40800        -1.18496         0.00080
| 12>    H       -2.17277         0.19897         0.00467
| 13>    H        3.05553        -0.89632        -0.01158
| 14>    H       -0.78822        -2.18407         0.00349
| 15> *
| 16>
| 17>                          ****END OF INPUT****
 Total Charge           Charge          ....    0
 Multiplicity           Mult            ....    1
 Number of Electrons    NEL             ....   50
Dispersion correction           -0.014260466
FINAL SINGLE POINT ENERGY      -359.100308513325
Dispersion correction            ... done
Dispersion correction           -0.014248908
FINAL SINGLE POINT ENERGY      -359.101983512259
Dispersion correction            ... done
Dispersion correction           -0.014249588
FINAL SINGLE POINT ENERGY      -359.102173098995
Dispersion correction            ... done
Dispersion correction           -0.014251407
FINAL SINGLE POINT ENERGY      -359.102014578606
Dispersion correction            ... done
Dispersion correction           -0.014250514
FINAL SINGLE POINT ENERGY      -359.102237334881
Dispersion correction            ... done
                    ***********************HURRAY********************

CARTESIAN COORDINATES (ANGSTROEM)
---------------------------------
  C     -1.117338    0.038369    0.001471
  N     -0.304787    1.073713   -0.002996
  O      0.963352    0.558141   -0.006460
  C      0.905825   -0.790478   -0.004077
  C      2.172241   -1.542356   -0.007185
  O      2.214399   -2.749746   -0.006139
  C     -0.404905   -1.191024    0.000794
  H     -2.194056    0.209429    0.004934
  H      3.088907   -0.903157   -0.011001
  H     -0.779439   -2.210472    0.003688

 Multiplicity           Mult            ....    1
 Number of Electrons    NEL             ....   50
 Basis Dimension        Dim             ....  113

ORBITAL ENERGIES
----------------

  NO   OCC          E(Eh)            E(eV)
   0   2.0000     -19.249334      -523.8010
   1   2.0000     -19.157025      -521.2892
   2   2.0000     -14.399530      -391.8311
   3   2.0000     -10.303790      -280.3804
   4   2.0000     -10.275936      -279.6224
   5   2.0000     -10.248973      -278.8887
   6   2.0000     -10.229579      -278.3610
   7   2.0000      -1.171562       -31.8798
   8   2.0000      -1.060237       -28.8505
   9   2.0000      -0.886680       -24.1278
  10   2.0000      -0.823357       -22.4047
  11   2.0000      -0.688170       -18.7260
  12   2.0000      -0.640672       -17.4336
  13   2.0000      -0.594667       -16.1817
  14   2.0000      -0.545463       -14.8428
  15   2.0000      -0.506361       -13.7788
  16   2.0000      -0.489407       -13.3175
  17   2.0000      -0.457813       -12.4577
  18   2.0000      -0.447979       -12.1901
  19   2.0000      -0.421169       -11.4606
  20   2.0000      -0.419418       -11.4129
  21   2.0000      -0.329971        -8.9790
  22   2.0000      -0.329955        -8.9785
  23   2.0000      -0.294522        -8.0144
  24   2.0000      -0.285742        -7.7754
  25   0.0000      -0.094801        -2.5797
  26   0.0000      -0.003835        -0.1044
  27   0.0000       0.063484         1.7275
  28   0.0000       0.068375         1.8606
  29   0.0000       0.083390         2.2692

MULLIKEN ATOMIC CHARGES
-----------------------
   0 C :    0.044555
   1 N :    0.001153
   2 O :   -0.183857
   3 C :    0.131862
   4 C :    0.182023
   5 O :   -0.174028
   6 C :   -0.066908
   7 H :    0.033346
   8 H :    0.002886
   9 H :    0.028968
Sum of atomic charges:    0.0000000

LOEWDIN ATOMIC CHARGES
----------------------
   0 C :   -0.019015
   1 N :   -0.016127
   2 O :    0.023070
   3 C :   -0.016795
   4 C :    0.103110
   5 O :   -0.118260
   6 C :   -0.047406
   7 H :    0.037763
   8 H :    0.006263
   9 H :    0.047396

  Mayer bond orders larger than 0.100000
B(  0-C ,  1-N ) :   1.6597 B(  0-C ,  6-C ) :   1.2237 B(  0-C ,  7-H ) :   0.9824
B(  1-N ,  2-O ) :   1.0266 B(  1-N ,  3-C ) :   0.1134 B(  2-O ,  3-C ) :   1.1340
B(  3-C ,  4-C ) :   0.9789 B(  3-C ,  6-C ) :   1.5150 B(  4-C ,  5-O ) :   2.1622
B(  4-C ,  8-H ) :   0.9394 B(  6-C ,  9-H ) :   0.9953

Dispersion correction           -0.014250268
FINAL SINGLE POINT ENERGY      -359.102238733703

DIPOLE MOMENT
-------------
                                X             Y             Z
Electronic contribution:      1.18033       0.74012      -0.00521
Nuclear contribution   :     -1.76551      -0.84846       0.00796
                        -----------------------------------------
Total Dipole Moment    :     -0.58518      -0.10835       0.00275
                        -----------------------------------------
Magnitude (a.u.)       :      0.59513
Magnitude (Debye)      :      1.51271

Rotational constants in cm-1:     0.288155     0.067865     0.054928
Rotational constants in MHz :  8638.662852  2034.539209  1646.712820

                             ****ORCA TERMINATED NORMALLY****
TOTAL RUN TIME: 0 days 0 hours 2 minutes 5 seconds 732 msec
