                         Program Version 4.2.0 -  RELEASE  -
|  1> # ORCA input file
|  2> # SCF done        -47.826161504838          0.000563139218
|  3> ! B3LYP/G D3BJ Opt RIJCOSX def2-SVP def2/J
|  4> * xyz 0 1
|  5>    C        1.61321         0.07630        -0.35871
|  6>    O        0.69760        -0.70604        -0.39815
|  7>    C        3.05208        -0.19855        -0.54300
|  8>    C        3.78674         0.99643        -0.41775
|  9>    C        5.16701         0.96843        -0.55746
| 10>    C        5.78775        -0.24627        -0.81839
| 11>    C        5.04879        -1.42798        -0.94070
| 12>    C        3.66772        -1.40687        -0.80208
| 13>   Br        5.92021        -3.06475        -1.29604
| 14>   Br        7.66730        -0.28234        -1.00915
| 15>    C        2.87712         2.10348        -0.14775
| 16>    C        3.22396         3.40881         0.03572
| 17>    C        4.55194         3.89273        -0.00700
| 18>    N        5.60883         4.33691        -0.02984
| 19>    C        2.30557         4.45265         0.29409
| 20>    N        1.61515         5.34327         0.50505
| 21>    C        1.52110         1.55057        -0.10926
| 22>    C        0.34673         2.15043         0.09894
| 23>    H        5.76960         1.85808        -0.47017
| 24>    H        3.08577        -2.31093        -0.89433
| 25>    H       -0.54749         1.54705         0.08553
| 26>    H        0.23188         3.20396         0.28057
| 27> *
| 28>
| 29>                          ****END OF INPUT****
 Total Charge           Charge          ....    0
 Multiplicity           Mult            ....    1
 Number of Electrons    NEL             ....  174
Dispersion correction           -0.064765193
FINAL SINGLE POINT ENERGY     -5829.746251290437
Dispersion correction            ... done
Dispersion correction           -0.064323347
FINAL SINGLE POINT ENERGY     -5829.750425266136
Dispersion correction            ... done
Dispersion correction           -0.064295320
FINAL SINGLE POINT ENERGY     -5829.750609536406
Dispersion correction            ... done
FINAL SINGLE POINT ENERGY     -5829.750627712844
FINAL SINGLE POINT ENERGY     -5829.750635270339
FINAL SINGLE POINT ENERGY     -5829.750643838415
Dispersion correction            ... done
Dispersion correction           -0.064385059
FINAL SINGLE POINT ENERGY     -5829.750653202032
Dispersion correction            ... done
Dispersion correction           -0.064377892
FINAL SINGLE POINT ENERGY     -5829.750663014211
Dispersion correction            ... done
                    ***********************HURRAY********************

CARTESIAN COORDINATES (ANGSTROEM)
---------------------------------
  C      1.617053    0.092891   -0.352079
  O      0.700493   -0.696911   -0.373096
  C      3.061933   -0.185140   -0.540685
  C      3.798804    1.015999   -0.455114
  C      5.187899    0.976637   -0.624528
  C      5.810945   -0.255854   -0.855587
  C      5.060140   -1.453576   -0.915079
  C      3.670697   -1.412688   -0.761015
  Br     5.883239   -3.130192   -1.192880
  Br     7.687887   -0.260482   -1.082290
  C      2.884174    2.139435   -0.165478
  C      3.245354    3.446480    0.066071
  C      4.599554    3.907498    0.006633
  N      5.691358    4.301656   -0.036940
  C      2.288874    4.454733    0.408205
  N      1.516609    5.275438    0.689197
  C      1.514752    1.584148   -0.132064
  C      0.311140    2.162041    0.026696
  H      5.803374    1.871792   -0.577919
  H      3.071851   -2.323102   -0.810409
  H     -0.563891    1.505583   -0.002262
  H      0.156331    3.228985    0.180745

 Multiplicity           Mult            ....    1
 Number of Electrons    NEL             ....  174
 Basis Dimension        Dim             ....  308

ORBITAL ENERGIES
----------------

  NO   OCC          E(Eh)            E(eV)
   0   2.0000    -482.822123    -13138.2579
   1   2.0000    -482.820244    -13138.2068
   2   2.0000     -62.506318     -1700.8834
   3   2.0000     -62.504434     -1700.8321
   4   2.0000     -56.338231     -1533.0412
   5   2.0000     -56.336370     -1532.9906
   6   2.0000     -56.335695     -1532.9722
   7   2.0000     -56.335546     -1532.9681
   8   2.0000     -56.333804     -1532.9207
   9   2.0000     -56.333648     -1532.9165
  10   2.0000     -19.159864      -521.3664
  11   2.0000     -14.361839      -390.8055
  12   2.0000     -14.361315      -390.7913
  13   2.0000     -10.307333      -280.4768
  14   2.0000     -10.295249      -280.1480
  15   2.0000     -10.292654      -280.0774
  16   2.0000     -10.292323      -280.0683
  17   2.0000     -10.285743      -279.8893
  18   2.0000     -10.263465      -279.2831
  19   2.0000     -10.262955      -279.2692
  20   2.0000     -10.258754      -279.1549
  21   2.0000     -10.250533      -278.9312
  22   2.0000     -10.250421      -278.9281
  23   2.0000     -10.246512      -278.8218
  24   2.0000     -10.244928      -278.7787
  25   2.0000     -10.242284      -278.7067
  26   2.0000      -8.724614      -237.4088
  27   2.0000      -8.722726      -237.3574
  28   2.0000      -6.558727      -178.4720
  29   2.0000      -6.556906      -178.4225
  30   2.0000      -6.545228      -178.1047
  31   2.0000      -6.544191      -178.0765
  32   2.0000      -6.543255      -178.0510
  33   2.0000      -6.542314      -178.0254
  34   2.0000      -2.672767       -72.7297
  35   2.0000      -2.670941       -72.6800
  36   2.0000      -2.669292       -72.6351
  37   2.0000      -2.668435       -72.6118
  38   2.0000      -2.667328       -72.5817
  39   2.0000      -2.666665       -72.5636
  40   2.0000      -2.657642       -72.3181
  41   2.0000      -2.657610       -72.3172
  42   2.0000      -2.655694       -72.2651
  43   2.0000      -2.655661       -72.2642
  44   2.0000      -1.065249       -28.9869
  45   2.0000      -0.946074       -25.7440
  46   2.0000      -0.931769       -25.3547
  47   2.0000      -0.925796       -25.1922
  48   2.0000      -0.898401       -24.4467
  49   2.0000      -0.847504       -23.0617
  50   2.0000      -0.841460       -22.8973
  51   2.0000      -0.821597       -22.3568
  52   2.0000      -0.781783       -21.2734
  53   2.0000      -0.776015       -21.1165
  54   2.0000      -0.708105       -19.2685
  55   2.0000      -0.692730       -18.8501
  56   2.0000      -0.644945       -17.5499
  57   2.0000      -0.627733       -17.0815
  58   2.0000      -0.611884       -16.6502
  59   2.0000      -0.564241       -15.3538
  60   2.0000      -0.553597       -15.0642
  61   2.0000      -0.525065       -14.2877
  62   2.0000      -0.513136       -13.9631
  63   2.0000      -0.489757       -13.3270
  64   2.0000      -0.482789       -13.1374
  65   2.0000      -0.477923       -13.0049
  66   2.0000      -0.466464       -12.6931
  67   2.0000      -0.452086       -12.3019
  68   2.0000      -0.439366       -11.9558
  69   2.0000      -0.433671       -11.8008
  70   2.0000      -0.429970       -11.7001
  71   2.0000      -0.412514       -11.2251
  72   2.0000      -0.406206       -11.0534
  73   2.0000      -0.395383       -10.7589
  74   2.0000      -0.390444       -10.6245
  75   2.0000      -0.376499       -10.2451
  76   2.0000      -0.375458       -10.2167
  77   2.0000      -0.372061       -10.1243
  78   2.0000      -0.361987        -9.8502
  79   2.0000      -0.350266        -9.5312
  80   2.0000      -0.342460        -9.3188
  81   2.0000      -0.333908        -9.0861
  82   2.0000      -0.302855        -8.2411
  83   2.0000      -0.300921        -8.1885
  84   2.0000      -0.290691        -7.9101
  85   2.0000      -0.287193        -7.8149
  86   2.0000      -0.272612        -7.4181
  87   0.0000      -0.139137        -3.7861
  88   0.0000      -0.115824        -3.1517
  89   0.0000      -0.053079        -1.4444
  90   0.0000      -0.045823        -1.2469
  91   0.0000      -0.030540        -0.8310

MULLIKEN ATOMIC CHARGES
-----------------------
   0 C :    0.151691
   1 O :   -0.139078
   2 C :   -0.017105
   3 C :    0.038729
   4 C :   -0.000377
   5 C :   -0.028098
   6 C :   -0.018738
   7 C :   -0.006049
   8 Br:    0.029277
   9 Br:    0.035411
  10 C :    0.262146
  11 C :   -0.289203
  12 C :   -0.132090
  13 N :    0.115293
  14 C :   -0.146760
  15 N :    0.115414
  16 C :   -0.119205
  17 C :    0.018723
  18 H :    0.007502
  19 H :    0.008298
  20 H :    0.055783
  21 H :    0.058435
Sum of atomic charges:   -0.0000000

LOEWDIN ATOMIC CHARGES
----------------------
   0 C :    0.082090
   1 O :   -0.125078
   2 C :   -0.043753
   3 C :   -0.009526
   4 C :   -0.006577
   5 C :   -0.117275
   6 C :   -0.121340
   7 C :    0.008653
   8 Br:    0.153357
   9 Br:    0.155045
  10 C :    0.062662
  11 C :   -0.111613
  12 C :   -0.012573
  13 N :   -0.041409
  14 C :   -0.010116
  15 N :   -0.042367
  16 C :   -0.071895
  17 C :    0.073285
  18 H :    0.043836
  19 H :    0.047576
  20 H :    0.045677
  21 H :    0.041340

  Mayer bond orders larger than 0.100000
B(  0-C ,  1-O ) :   2.2321 B(  0-C ,  2-C ) :   0.9384 B(  0-C , 16-C ) :   0.9183
B(  2-C ,  3-C ) :   1.3036 B(  2-C ,  7-C ) :   1.3522 B(  3-C ,  4-C ) :   1.3370
B(  3-C , 10-C ) :   1.0259 B(  4-C ,  5-C ) :   1.3677 B(  4-C , 18-H ) :   0.9759
B(  5-C ,  6-C ) :   1.3818 B(  5-C ,  9-Br) :   1.0707 B(  6-C ,  7-C ) :   1.3454
B(  6-C ,  8-Br) :   1.0504 B(  7-C , 19-H ) :   1.0019 B( 10-C , 11-C ) :   1.6427
B( 10-C , 16-C ) :   1.0052 B( 11-C , 12-C ) :   1.1274 B( 11-C , 14-C ) :   1.1434
B( 12-C , 13-N ) :   2.9320 B( 14-C , 15-N ) :   2.9407 B( 16-C , 17-C ) :   1.9102
B( 17-C , 20-H ) :   0.9129 B( 17-C , 21-H ) :   0.9227

Dispersion correction           -0.064374697
FINAL SINGLE POINT ENERGY     -5829.750667066352

DIPOLE MOMENT
-------------
                                X             Y             Z
Electronic contribution:     48.03634     -38.97818     -10.89512
Nuclear contribution   :    -48.03111      37.74794      10.58394
                        -----------------------------------------
Total Dipole Moment    :      0.00523      -1.23023      -0.31119
                        -----------------------------------------
Magnitude (a.u.)       :      1.26899
Magnitude (Debye)      :      3.22552

Rotational constants in cm-1:     0.014356     0.005364     0.003909
Rotational constants in MHz :   430.392140   160.812892   117.173976

                             ****ORCA TERMINATED NORMALLY****
TOTAL RUN TIME: 0 days 0 hours 24 minutes 38 seconds 313 msec
