                         Program Version 4.2.0 -  RELEASE  -
|  1> # ORCA input file
|  2> # SCF done        -16.658516551077          0.000709519717
|  3> ! B3LYP/G D3BJ Opt RIJCOSX def2-SVP def2/J
|  4> * xyz 0 1
|  5>    C       -0.68961         1.07829         0.07792
|  6>    N        0.62840         1.24501         0.02600
|  7>    C        1.33893         0.13310         0.02128
|  8>    C        0.69677        -1.10624         0.06900
|  9>    N       -0.62119        -1.17696         0.11906
| 10>    N       -1.31947        -0.07815         0.12358
| 11>    H       -1.30213         1.96957         0.08330
| 12>    H        2.41522         0.23613        -0.02048
| 13>    H        1.22895        -2.04564         0.06753
| 14> *
| 15>
| 16>                          ****END OF INPUT****
 Total Charge           Charge          ....    0
 Multiplicity           Mult            ....    1
 Number of Electrons    NEL             ....   42
Dispersion correction           -0.013813330
FINAL SINGLE POINT ENERGY      -280.123370739249
Dispersion correction            ... done
Dispersion correction           -0.013778830
FINAL SINGLE POINT ENERGY      -280.124945872823
Dispersion correction            ... done
Dispersion correction           -0.013774948
FINAL SINGLE POINT ENERGY      -280.125045600463
Dispersion correction            ... done
Dispersion correction           -0.013774713
FINAL SINGLE POINT ENERGY      -280.125069286590
Dispersion correction            ... done
Dispersion correction           -0.013775162
FINAL SINGLE POINT ENERGY      -280.125073425737
Dispersion correction            ... done
                    ***********************HURRAY********************

CARTESIAN COORDINATES (ANGSTROEM)
---------------------------------
  C     -0.691585    1.088025    0.077931
  N      0.635280    1.258843    0.026461
  C      1.341933    0.136852    0.021961
  C      0.696963   -1.106882    0.068649
  N     -0.630130   -1.195434    0.120429
  N     -1.340998   -0.075602    0.125960
  H     -1.321441    1.984034    0.081429
  H      2.435170    0.216052   -0.020698
  H      1.250678   -2.050778    0.065068

 Multiplicity           Mult            ....    1
 Number of Electrons    NEL             ....   42
 Basis Dimension        Dim             ....   99

ORBITAL ENERGIES
----------------

  NO   OCC          E(Eh)            E(eV)
   0   2.0000     -14.384898      -391.4330
   1   2.0000     -14.375199      -391.1691
   2   2.0000     -14.365012      -390.8918
   3   2.0000     -10.274720      -279.5893
   4   2.0000     -10.268096      -279.4091
   5   2.0000     -10.254292      -279.0335
   6   2.0000      -1.051743       -28.6194
   7   2.0000      -0.945546       -25.7296
   8   2.0000      -0.845508       -23.0074
   9   2.0000      -0.703033       -19.1305
  10   2.0000      -0.691492       -18.8165
  11   2.0000      -0.564893       -15.3715
  12   2.0000      -0.545248       -14.8370
  13   2.0000      -0.495422       -13.4811
  14   2.0000      -0.467678       -12.7262
  15   2.0000      -0.446769       -12.1572
  16   2.0000      -0.363776        -9.8989
  17   2.0000      -0.342566        -9.3217
  18   2.0000      -0.325306        -8.8520
  19   2.0000      -0.322492        -8.7754
  20   2.0000      -0.244325        -6.6484
  21   0.0000      -0.084315        -2.2943
  22   0.0000      -0.057003        -1.5511
  23   0.0000       0.065712         1.7881
  24   0.0000       0.095471         2.5979
  25   0.0000       0.096445         2.6244

MULLIKEN ATOMIC CHARGES
-----------------------
   0 C :    0.075425
   1 N :   -0.087288
   2 C :    0.039545
   3 C :    0.037766
   4 N :   -0.064718
   5 N :   -0.096398
   6 H :    0.036436
   7 H :    0.032357
   8 H :    0.026874
Sum of atomic charges:    0.0000000

LOEWDIN ATOMIC CHARGES
----------------------
   0 C :    0.031475
   1 N :   -0.062821
   2 C :    0.032234
   3 C :   -0.016174
   4 N :   -0.020362
   5 N :   -0.058174
   6 H :    0.027523
   7 H :    0.032537
   8 H :    0.033762

  Mayer bond orders larger than 0.100000
B(  0-C ,  1-N ) :   1.4591 B(  0-C ,  5-N ) :   1.5374 B(  0-C ,  6-H ) :   0.9711
B(  1-N ,  2-C ) :   1.5652 B(  2-C ,  3-C ) :   1.3144 B(  2-C ,  5-N ) :   0.1113
B(  2-C ,  7-H ) :   0.9695 B(  3-C ,  4-N ) :   1.5630 B(  3-C ,  8-H ) :   0.9738
B(  4-N ,  5-N ) :   1.2969

Dispersion correction           -0.013775419
FINAL SINGLE POINT ENERGY      -280.125074402566

DIPOLE MOMENT
-------------
                                X             Y             Z
Electronic contribution:     -1.21651      -0.02358       0.04801
Nuclear contribution   :      2.21595       0.09123      -0.08904
                        -----------------------------------------
Total Dipole Moment    :      0.99944       0.06765      -0.04102
                        -----------------------------------------
Magnitude (a.u.)       :      1.00256
Magnitude (Debye)      :      2.54831

Rotational constants in cm-1:     0.219177     0.205990     0.106190
Rotational constants in MHz :  6570.748650  6175.436676  3183.482902

                             ****ORCA TERMINATED NORMALLY****
TOTAL RUN TIME: 0 days 0 hours 1 minutes 34 seconds 997 msec
