                         Program Version 4.2.0 -  RELEASE  -
|  1> # ORCA input file
|  2> # SCF done        -29.570472977480          0.000617386391
|  3> ! B3LYP/G D3BJ Opt RIJCOSX def2-SVP def2/J
|  4> * xyz 0 1
|  5>    C       -0.33260         1.15513         0.00004
|  6>    F       -0.66620         2.43572        -0.00456
|  7>    C        0.96013         0.64955         0.00355
|  8>    C        2.19027         1.32888         0.00329
|  9>    N        3.18275         1.90068         0.00283
| 10>    O        0.90434        -0.69334         0.00786
| 11>    C       -0.39262        -1.05479         0.00713
| 12>    C       -0.72625        -2.47500         0.01149
| 13>    O       -1.84657        -2.91000         0.01066
| 14>    C       -1.20751         0.06098         0.00225
| 15>    H        0.16712        -3.12445         0.01374
| 16>    H       -2.27766         0.07674         0.00068
| 17> *
| 18>
| 19>                          ****END OF INPUT****
 Total Charge           Charge          ....    0
 Multiplicity           Mult            ....    1
 Number of Electrons    NEL             ....   70
Dispersion correction           -0.019926115
FINAL SINGLE POINT ENERGY      -534.432491260087
Dispersion correction            ... done
Dispersion correction           -0.019904955
FINAL SINGLE POINT ENERGY      -534.434117730218
Dispersion correction            ... done
Dispersion correction           -0.019905887
FINAL SINGLE POINT ENERGY      -534.434216977425
Dispersion correction            ... done
FINAL SINGLE POINT ENERGY      -534.434101403489
FINAL SINGLE POINT ENERGY      -534.434289183809
Dispersion correction            ... done
Dispersion correction           -0.019908695
FINAL SINGLE POINT ENERGY      -534.434288545375
Dispersion correction            ... done
Dispersion correction           -0.019908399
FINAL SINGLE POINT ENERGY      -534.434286105643
Dispersion correction            ... done
                    ***********************HURRAY********************

CARTESIAN COORDINATES (ANGSTROEM)
---------------------------------
  C     -0.342649    1.167098    0.000022
  F     -0.679905    2.440249   -0.003717
  C      0.953086    0.674954    0.003350
  C      2.206651    1.325868    0.003270
  N      3.227251    1.880130    0.002993
  O      0.901977   -0.683385    0.007120
  C     -0.405087   -1.047750    0.006343
  C     -0.713826   -2.482331    0.011013
  O     -1.844672   -2.908874    0.010737
  C     -1.223309    0.061667    0.002109
  H      0.186156   -3.144546    0.015242
  H     -2.310473    0.067019    0.000478

 Multiplicity           Mult            ....    1
 Number of Electrons    NEL             ....   70
 Basis Dimension        Dim             ....  150

ORBITAL ENERGIES
----------------

  NO   OCC          E(Eh)            E(eV)
   0   2.0000     -24.753481      -673.5765
   1   2.0000     -19.263699      -524.1919
   2   2.0000     -19.163318      -521.4604
   3   2.0000     -14.361134      -390.7863
   4   2.0000     -10.330351      -281.1031
   5   2.0000     -10.317204      -280.7454
   6   2.0000     -10.310332      -280.5584
   7   2.0000     -10.295457      -280.1536
   8   2.0000     -10.260458      -279.2013
   9   2.0000     -10.248877      -278.8861
  10   2.0000      -1.267207       -34.4825
  11   2.0000      -1.170646       -31.8549
  12   2.0000      -1.066555       -29.0224
  13   2.0000      -0.927004       -25.2251
  14   2.0000      -0.858330       -23.3563
  15   2.0000      -0.830110       -22.5884
  16   2.0000      -0.715209       -19.4618
  17   2.0000      -0.672946       -18.3118
  18   2.0000      -0.631777       -17.1915
  19   2.0000      -0.602808       -16.4032
  20   2.0000      -0.567791       -15.4504
  21   2.0000      -0.541089       -14.7238
  22   2.0000      -0.519639       -14.1401
  23   2.0000      -0.508329       -13.8323
  24   2.0000      -0.500621       -13.6226
  25   2.0000      -0.464638       -12.6434
  26   2.0000      -0.457265       -12.4428
  27   2.0000      -0.428746       -11.6668
  28   2.0000      -0.419859       -11.4249
  29   2.0000      -0.389053       -10.5867
  30   2.0000      -0.388484       -10.5712
  31   2.0000      -0.372195       -10.1279
  32   2.0000      -0.330871        -9.0035
  33   2.0000      -0.294538        -8.0148
  34   2.0000      -0.281585        -7.6623
  35   0.0000      -0.112114        -3.0508
  36   0.0000      -0.036751        -1.0000
  37   0.0000      -0.023898        -0.6503
  38   0.0000       0.046255         1.2586
  39   0.0000       0.068354         1.8600

MULLIKEN ATOMIC CHARGES
-----------------------
   0 C :    0.274093
   1 F :   -0.140090
   2 C :   -0.056616
   3 C :   -0.096369
   4 N :    0.132556
   5 O :   -0.187324
   6 C :    0.151929
   7 C :    0.163485
   8 O :   -0.171516
   9 C :   -0.108158
  10 H :    0.003251
  11 H :    0.034758
Sum of atomic charges:   -0.0000000

LOEWDIN ATOMIC CHARGES
----------------------
   0 C :    0.071016
   1 F :   -0.017999
   2 C :   -0.031874
   3 C :   -0.039635
   4 N :   -0.020770
   5 O :    0.034810
   6 C :    0.000302
   7 C :    0.097331
   8 O :   -0.119184
   9 C :   -0.037335
  10 H :    0.007052
  11 H :    0.056286

  Mayer bond orders larger than 0.100000
B(  0-C ,  1-F ) :   1.2018 B(  0-C ,  2-C ) :   1.4289 B(  0-C ,  9-C ) :   1.2024
B(  2-C ,  3-C ) :   1.0938 B(  2-C ,  5-O ) :   1.1549 B(  2-C ,  6-C ) :   0.1378
B(  3-C ,  4-N ) :   2.9966 B(  5-O ,  6-C ) :   1.1214 B(  6-C ,  7-C ) :   0.9899
B(  6-C ,  9-C ) :   1.4192 B(  7-C ,  8-O ) :   2.1665 B(  7-C , 10-H ) :   0.9384
B(  9-C , 11-H ) :   1.0126

Dispersion correction           -0.019908235
FINAL SINGLE POINT ENERGY      -534.434285811626

DIPOLE MOMENT
-------------
                                X             Y             Z
Electronic contribution:      0.86638       5.01082      -0.01453
Nuclear contribution   :     -1.50626      -5.25128       0.01432
                        -----------------------------------------
Total Dipole Moment    :     -0.63988      -0.24046      -0.00021
                        -----------------------------------------
Magnitude (a.u.)       :      0.68357
Magnitude (Debye)      :      1.73749

Rotational constants in cm-1:     0.092391     0.028867     0.021995
Rotational constants in MHz :  2769.812645   865.397087   659.380902

                             ****ORCA TERMINATED NORMALLY****
TOTAL RUN TIME: 0 days 0 hours 4 minutes 23 seconds 149 msec
