                         Program Version 4.2.0 -  RELEASE  -
|  1> # ORCA input file
|  2> # SCF done        -48.218193661007          0.000857638672
|  3> ! B3LYP/G D3BJ Opt RIJCOSX def2-SVP def2/J
|  4> * xyz 0 1
|  5>    C       -2.59528        -1.19814         0.00243
|  6>    C       -3.03046        -2.49220         0.00222
|  7>    C       -2.18005        -3.62006         0.00096
|  8>    N       -1.54093        -4.57272         0.00019
|  9>    C       -4.38823        -2.88185         0.00286
| 10>    N       -5.46891        -3.26650         0.00275
| 11>    C       -1.21176        -0.75100         0.00170
| 12>    C       -1.17393         0.66887         0.00177
| 13>    C        0.00545         1.37605         0.00127
| 14>    C        1.20216         0.65480         0.00080
| 15>    C        1.15542        -0.76188         0.00078
| 16>    C       -0.03368        -1.47830         0.00119
| 17>    S        2.75141        -1.44298         0.00013
| 18>    C        3.45202         0.13790        -0.00007
| 19>    C        2.54126         1.13603         0.00032
| 20>    C       -2.54592         1.19828         0.00277
| 21>    O       -2.90031         2.35308         0.00267
| 22>    C       -3.44234        -0.00330         0.00243
| 23>    C       -4.77137         0.11648         0.00314
| 24>    H        0.00129         2.45498         0.00142
| 25>    H       -0.01774        -2.55546         0.00117
| 26>    H        4.52134         0.22361        -0.00050
| 27>    H        2.79293         2.18101         0.00023
| 28>    H       -5.19782         1.10727         0.00613
| 29>    H       -5.45167        -0.71637         0.00568
| 30> *
| 31>
| 32>                          ****END OF INPUT****
 Total Charge           Charge          ....    0
 Multiplicity           Mult            ....    1
 Number of Electrons    NEL             ....  134
Dispersion correction           -0.068193572
FINAL SINGLE POINT ENERGY     -1157.468800529114
Dispersion correction            ... done
Dispersion correction           -0.067801514
FINAL SINGLE POINT ENERGY     -1157.473563381675
Dispersion correction            ... done
Dispersion correction           -0.067765712
FINAL SINGLE POINT ENERGY     -1157.473815513841
Dispersion correction            ... done
FINAL SINGLE POINT ENERGY     -1157.473935299212
FINAL SINGLE POINT ENERGY     -1157.473987300111
FINAL SINGLE POINT ENERGY     -1157.474022781952
Dispersion correction            ... done
Dispersion correction           -0.067822360
FINAL SINGLE POINT ENERGY     -1157.474030546715
Dispersion correction            ... done
Dispersion correction           -0.067826662
FINAL SINGLE POINT ENERGY     -1157.474038460451
Dispersion correction            ... done
                    ***********************HURRAY********************

CARTESIAN COORDINATES (ANGSTROEM)
---------------------------------
  C     -2.613407   -1.231907    0.002478
  C     -3.053450   -2.537984    0.002253
  C     -2.168207   -3.662290    0.001498
  N     -1.465296   -4.587523    0.001020
  C     -4.441021   -2.887814    0.002914
  N     -5.562892   -3.190549    0.003128
  C     -1.212093   -0.774888    0.001885
  C     -1.177151    0.650801    0.002075
  C      0.001973    1.373372    0.001477
  C      1.215765    0.661242    0.000576
  C      1.177388   -0.769663    0.000425
  C     -0.016168   -1.499291    0.001103
  S      2.790909   -1.442596   -0.001589
  C      3.489519    0.154038   -0.000105
  C      2.564124    1.155651    0.000169
  C     -2.558347    1.183695    0.003058
  O     -2.908972    2.343809    0.003468
  C     -3.466205   -0.024136    0.003221
  C     -4.800904    0.131252    0.003945
  H     -0.025339    2.465572    0.001783
  H      0.005078   -2.587474    0.000729
  H      4.574030    0.263085   -0.000134
  H      2.819910    2.215604    0.000553
  H     -5.182346    1.157112    0.004390
  H     -5.514018   -0.691519    0.004119

 Multiplicity           Mult            ....    1
 Number of Electrons    NEL             ....  134
 Basis Dimension        Dim             ....  300

ORBITAL ENERGIES
----------------

  NO   OCC          E(Eh)            E(eV)
   0   2.0000     -88.904281     -2419.2085
   1   2.0000     -19.147227      -521.0225
   2   2.0000     -14.352687      -390.5565
   3   2.0000     -14.351325      -390.5194
   4   2.0000     -10.294655      -280.1318
   5   2.0000     -10.282808      -279.8094
   6   2.0000     -10.274552      -279.5848
   7   2.0000     -10.257798      -279.1289
   8   2.0000     -10.255079      -279.0549
   9   2.0000     -10.253782      -279.0196
  10   2.0000     -10.251770      -278.9648
  11   2.0000     -10.244132      -278.7570
  12   2.0000     -10.240257      -278.6516
  13   2.0000     -10.240021      -278.6451
  14   2.0000     -10.235917      -278.5335
  15   2.0000     -10.235080      -278.5107
  16   2.0000     -10.233889      -278.4783
  17   2.0000     -10.227789      -278.3123
  18   2.0000     -10.225983      -278.2632
  19   2.0000      -7.999468      -217.6766
  20   2.0000      -5.967820      -162.3926
  21   2.0000      -5.963742      -162.2817
  22   2.0000      -5.960157      -162.1841
  23   2.0000      -1.052115       -28.6295
  24   2.0000      -0.935657       -25.4605
  25   2.0000      -0.925473       -25.1834
  26   2.0000      -0.916541       -24.9403
  27   2.0000      -0.899980       -24.4897
  28   2.0000      -0.848856       -23.0986
  29   2.0000      -0.816610       -22.2211
  30   2.0000      -0.803210       -21.8565
  31   2.0000      -0.775355       -21.0985
  32   2.0000      -0.747948       -20.3527
  33   2.0000      -0.703786       -19.1510
  34   2.0000      -0.680098       -18.5064
  35   2.0000      -0.634077       -17.2541
  36   2.0000      -0.617104       -16.7922
  37   2.0000      -0.602223       -16.3873
  38   2.0000      -0.594383       -16.1740
  39   2.0000      -0.551540       -15.0082
  40   2.0000      -0.536693       -14.6042
  41   2.0000      -0.528137       -14.3713
  42   2.0000      -0.508347       -13.8328
  43   2.0000      -0.481985       -13.1155
  44   2.0000      -0.469474       -12.7750
  45   2.0000      -0.465627       -12.6704
  46   2.0000      -0.463583       -12.6147
  47   2.0000      -0.450027       -12.2459
  48   2.0000      -0.436388       -11.8747
  49   2.0000      -0.432760       -11.7760
  50   2.0000      -0.428129       -11.6500
  51   2.0000      -0.424355       -11.5473
  52   2.0000      -0.408116       -11.1054
  53   2.0000      -0.394659       -10.7392
  54   2.0000      -0.387153       -10.5350
  55   2.0000      -0.382060       -10.3964
  56   2.0000      -0.377209       -10.2644
  57   2.0000      -0.373548       -10.1648
  58   2.0000      -0.366556        -9.9745
  59   2.0000      -0.361109        -9.8263
  60   2.0000      -0.352228        -9.5846
  61   2.0000      -0.346364        -9.4251
  62   2.0000      -0.323281        -8.7969
  63   2.0000      -0.288769        -7.8578
  64   2.0000      -0.279163        -7.5964
  65   2.0000      -0.271158        -7.3786
  66   2.0000      -0.253236        -6.8909
  67   0.0000      -0.129261        -3.5174
  68   0.0000      -0.100643        -2.7386
  69   0.0000      -0.054146        -1.4734
  70   0.0000      -0.022489        -0.6120
  71   0.0000      -0.021784        -0.5928

MULLIKEN ATOMIC CHARGES
-----------------------
   0 C :    0.266039
   1 C :   -0.294435
   2 C :   -0.142420
   3 N :    0.110287
   4 C :   -0.151380
   5 N :    0.111925
   6 C :    0.024302
   7 C :   -0.010952
   8 C :   -0.066072
   9 C :    0.116736
  10 C :   -0.086214
  11 C :   -0.027486
  12 S :    0.144686
  13 C :   -0.054118
  14 C :    0.026857
  15 C :    0.145862
  16 O :   -0.151073
  17 C :   -0.128157
  18 C :    0.016591
  19 H :   -0.005545
  20 H :   -0.002039
  21 H :    0.048225
  22 H :    0.000107
  23 H :    0.051360
  24 H :    0.056915
Sum of atomic charges:   -0.0000000

LOEWDIN ATOMIC CHARGES
----------------------
   0 C :    0.064267
   1 C :   -0.121514
   2 C :   -0.011860
   3 N :   -0.052799
   4 C :   -0.011219
   5 N :   -0.050475
   6 C :   -0.017777
   7 C :   -0.052417
   8 C :    0.021981
   9 C :   -0.029903
  10 C :   -0.140853
  11 C :   -0.009445
  12 S :    0.432757
  13 C :   -0.147627
  14 C :   -0.054507
  15 C :    0.080710
  16 O :   -0.135720
  17 C :   -0.071731
  18 C :    0.067402
  19 H :    0.042607
  20 H :    0.041343
  21 H :    0.034415
  22 H :    0.038470
  23 H :    0.043883
  24 H :    0.040012

  Mayer bond orders larger than 0.100000
B(  0-C ,  1-C ) :   1.6243 B(  0-C ,  6-C ) :   1.0424 B(  0-C , 17-C ) :   1.0009
B(  1-C ,  2-C ) :   1.1313 B(  1-C ,  4-C ) :   1.1468 B(  2-C ,  3-N ) :   2.9362
B(  4-C ,  5-N ) :   2.9400 B(  6-C ,  7-C ) :   1.2501 B(  6-C , 11-C ) :   1.3721
B(  7-C ,  8-C ) :   1.4005 B(  7-C , 15-C ) :   0.9416 B(  8-C ,  9-C ) :   1.2458
B(  8-C , 19-H ) :   1.0113 B(  9-C , 10-C ) :   1.2650 B(  9-C , 14-C ) :   1.1847
B( 10-C , 11-C ) :   1.3412 B( 10-C , 12-S ) :   1.1010 B( 11-C , 20-H ) :   0.9813
B( 12-S , 13-C ) :   1.1246 B( 13-C , 14-C ) :   1.5937 B( 13-C , 21-H ) :   0.9642
B( 14-C , 22-H ) :   0.9935 B( 15-C , 16-O ) :   2.2214 B( 15-C , 17-C ) :   0.9161
B( 17-C , 18-C ) :   1.9212 B( 18-C , 23-H ) :   0.9103 B( 18-C , 24-H ) :   0.9201

Dispersion correction           -0.067828046
FINAL SINGLE POINT ENERGY     -1157.474042001158

DIPOLE MOMENT
-------------
                                X             Y             Z
Electronic contribution:     -0.44621      -5.86872      -0.00293
Nuclear contribution   :      2.37738       7.22616       0.00231
                        -----------------------------------------
Total Dipole Moment    :      1.93117       1.35744      -0.00062
                        -----------------------------------------
Magnitude (a.u.)       :      2.36052
Magnitude (Debye)      :      5.99996

Rotational constants in cm-1:     0.020172     0.008342     0.005902
Rotational constants in MHz :   604.736722   250.101614   176.928932

                             ****ORCA TERMINATED NORMALLY****
TOTAL RUN TIME: 0 days 0 hours 22 minutes 57 seconds 305 msec
