                         Program Version 4.2.0 -  RELEASE  -
|  1> # ORCA input file
|  2> # SCF done        -21.704921302859          0.000348407864
|  3> ! B3LYP/G D3BJ Opt RIJCOSX def2-SVP def2/J
|  4> * xyz 0 1
|  5>    C       -0.72583         1.02905         0.05507
|  6>    N        0.58452         1.19943         0.10233
|  7>    C        1.31971         0.09750         0.06215
|  8>    C        0.75569        -1.16315        -0.02431
|  9>    C       -0.64102        -1.23085        -0.06844
| 10>    N       -1.37200        -0.11323        -0.02730
| 11>    C       -1.33499        -2.50888        -0.16010
| 12>    C       -2.65788        -2.61062        -0.20330
| 13>    H       -1.33160         1.92641         0.08740
| 14>    H        2.39231         0.24161         0.10104
| 15>    H        1.36185        -2.05473        -0.05653
| 16>    H       -0.70003        -3.38446        -0.19050
| 17>    H       -3.27096        -1.72633        -0.16928
| 18>    H       -3.15594        -3.56256        -0.26890
| 19> *
| 20>
| 21>                          ****END OF INPUT****
 Total Charge           Charge          ....    0
 Multiplicity           Mult            ....    1
 Number of Electrons    NEL             ....   56
Dispersion correction           -0.023768036
FINAL SINGLE POINT ENERGY      -341.500104918093
Dispersion correction            ... done
Dispersion correction           -0.023633168
FINAL SINGLE POINT ENERGY      -341.502145159811
Dispersion correction            ... done
Dispersion correction           -0.023622048
FINAL SINGLE POINT ENERGY      -341.502186698107
Dispersion correction            ... done
Dispersion correction           -0.023620053
FINAL SINGLE POINT ENERGY      -341.502200035173
Dispersion correction            ... done
Dispersion correction           -0.023621275
FINAL SINGLE POINT ENERGY      -341.502203336768
Dispersion correction            ... done
                    ***********************HURRAY********************

CARTESIAN COORDINATES (ANGSTROEM)
---------------------------------
  C     -0.720554    1.057501    0.054757
  N      0.605536    1.225755    0.104970
  C      1.334531    0.108662    0.064186
  C      0.756123   -1.157115   -0.023488
  C     -0.645886   -1.222400   -0.070003
  N     -1.377511   -0.093626   -0.030467
  C     -1.343081   -2.515661   -0.161502
  C     -2.675907   -2.636423   -0.201841
  H     -1.330957    1.968339    0.089313
  H      2.424303    0.227331    0.104270
  H      1.364544   -2.062872   -0.055549
  H     -0.702947   -3.402888   -0.197178
  H     -3.305175   -1.743723   -0.167043
  H     -3.159189   -3.613690   -0.271095

 Multiplicity           Mult            ....    1
 Number of Electrons    NEL             ....   56
 Basis Dimension        Dim             ....  142

ORBITAL ENERGIES
----------------

  NO   OCC          E(Eh)            E(eV)
   0   2.0000     -14.331556      -389.9815
   1   2.0000     -14.330285      -389.9469
   2   2.0000     -10.257032      -279.1080
   3   2.0000     -10.250198      -278.9221
   4   2.0000     -10.244078      -278.7555
   5   2.0000     -10.211120      -277.8587
   6   2.0000     -10.204783      -277.6863
   7   2.0000     -10.202263      -277.6177
   8   2.0000      -0.983512       -26.7627
   9   2.0000      -0.888663       -24.1818
  10   2.0000      -0.805861       -21.9286
  11   2.0000      -0.762503       -20.7488
  12   2.0000      -0.663805       -18.0631
  13   2.0000      -0.654369       -17.8063
  14   2.0000      -0.583231       -15.8705
  15   2.0000      -0.534251       -14.5377
  16   2.0000      -0.507628       -13.8132
  17   2.0000      -0.471153       -12.8207
  18   2.0000      -0.461879       -12.5684
  19   2.0000      -0.435809       -11.8590
  20   2.0000      -0.425076       -11.5669
  21   2.0000      -0.412085       -11.2134
  22   2.0000      -0.373636       -10.1672
  23   2.0000      -0.345014        -9.3883
  24   2.0000      -0.303400        -8.2559
  25   2.0000      -0.299728        -8.1560
  26   2.0000      -0.263289        -7.1644
  27   2.0000      -0.256318        -6.9748
  28   0.0000      -0.069168        -1.8822
  29   0.0000      -0.036046        -0.9809
  30   0.0000       0.030732         0.8363
  31   0.0000       0.061883         1.6839
  32   0.0000       0.088781         2.4159

MULLIKEN ATOMIC CHARGES
-----------------------
   0 C :    0.087390
   1 N :   -0.125344
   2 C :    0.067355
   3 C :   -0.021231
   4 C :    0.021256
   5 N :   -0.117506
   6 C :   -0.014308
   7 C :    0.030403
   8 H :    0.015677
   9 H :    0.012951
  10 H :   -0.010202
  11 H :   -0.015436
  12 H :    0.043164
  13 H :    0.025831
Sum of atomic charges:   -0.0000000

LOEWDIN ATOMIC CHARGES
----------------------
   0 C :    0.050978
   1 N :   -0.100896
   2 C :    0.045547
   3 C :   -0.058884
   4 C :    0.031349
   5 N :   -0.093772
   6 C :   -0.044265
   7 C :    0.004202
   8 H :    0.018610
   9 H :    0.026079
  10 H :    0.031919
  11 H :    0.027654
  12 H :    0.033080
  13 H :    0.028400

  Mayer bond orders larger than 0.100000
B(  0-C ,  1-N ) :   1.4819 B(  0-C ,  5-N ) :   1.5218 B(  0-C ,  8-H ) :   0.9684
B(  1-N ,  2-C ) :   1.5308 B(  2-C ,  3-C ) :   1.3792 B(  2-C ,  9-H ) :   0.9740
B(  3-C ,  4-C ) :   1.3424 B(  3-C , 10-H ) :   0.9682 B(  4-C ,  5-N ) :   1.4958
B(  4-C ,  6-C ) :   1.0777 B(  6-C ,  7-C ) :   1.9343 B(  6-C , 11-H ) :   0.9621
B(  7-C , 12-H ) :   0.9352 B(  7-C , 13-H ) :   0.9419

Dispersion correction           -0.023622238
FINAL SINGLE POINT ENERGY      -341.502204312476

DIPOLE MOMENT
-------------
                                X             Y             Z
Electronic contribution:      1.72201       3.53095       0.23793
Nuclear contribution   :     -1.49249      -4.40532      -0.27927
                        -----------------------------------------
Total Dipole Moment    :      0.22952      -0.87437      -0.04134
                        -----------------------------------------
Magnitude (a.u.)       :      0.90493
Magnitude (Debye)      :      2.30016

Rotational constants in cm-1:     0.185713     0.054209     0.041961
Rotational constants in MHz :  5567.532442  1625.156765  1257.963096

                             ****ORCA TERMINATED NORMALLY****
TOTAL RUN TIME: 0 days 0 hours 3 minutes 5 seconds 578 msec
