                         Program Version 4.2.0 -  RELEASE  -
|  1> # ORCA input file
|  2> # SCF done        -39.676437329706          0.000656111839
|  3> ! B3LYP/G D3BJ Opt RIJCOSX def2-SVP def2/J
|  4> * xyz 0 1
|  5>    S       -2.68761         1.49753        -0.00473
|  6>    C       -3.40760        -0.09394        -0.00109
|  7>    F       -4.73208        -0.19256        -0.00241
|  8>    C       -2.54053        -1.12592         0.00288
|  9>    C       -1.19084        -0.66647         0.00316
| 10>    C       -1.11411         0.75224        -0.00078
| 11>    N        0.00075         1.44955        -0.00152
| 12>    C        1.11516         0.75154         0.00164
| 13>    C        1.19100        -0.66722         0.00575
| 14>    C        2.54039        -1.12751         0.00840
| 15>    C        3.40812        -0.09608         0.00631
| 16>    S        2.68913         1.49585         0.00112
| 17>    F        4.73254        -0.19553         0.00787
| 18>    C       -0.00015        -1.38296         0.00651
| 19>    H       -2.83173        -2.15957         0.00546
| 20>    H        2.83094        -2.16134         0.01161
| 21>    H       -0.00050        -2.46230         0.00958
| 22> *
| 23>
| 24>                          ****END OF INPUT****
 Total Charge           Charge          ....    0
 Multiplicity           Mult            ....    1
 Number of Electrons    NEL             ....  114
Dispersion correction           -0.045223643
FINAL SINGLE POINT ENERGY     -1394.937320940071
Dispersion correction            ... done
Dispersion correction           -0.045173357
FINAL SINGLE POINT ENERGY     -1394.939601223738
Dispersion correction            ... done
Dispersion correction           -0.045153249
FINAL SINGLE POINT ENERGY     -1394.939775905950
Dispersion correction            ... done
Dispersion correction           -0.045143848
FINAL SINGLE POINT ENERGY     -1394.939809752377
Dispersion correction            ... done
Dispersion correction           -0.045140972
FINAL SINGLE POINT ENERGY     -1394.939815130034
Dispersion correction            ... done
                    ***********************HURRAY********************

CARTESIAN COORDINATES (ANGSTROEM)
---------------------------------
  S     -2.714346    1.510994   -0.004230
  C     -3.437163   -0.089919   -0.000663
  F     -4.757830   -0.171053   -0.001576
  C     -2.568906   -1.133004    0.002714
  C     -1.202508   -0.673466    0.002693
  C     -1.117145    0.754957   -0.001203
  N      0.000744    1.459217   -0.002178
  C      1.118198    0.754275    0.001057
  C      1.202655   -0.674201    0.005372
  C      2.568756   -1.134598    0.008559
  C      3.437678   -0.092068    0.006783
  S      2.715893    1.509306    0.000959
  F      4.758292   -0.174080    0.008655
  C     -0.000147   -1.391877    0.006016
  H     -2.883125   -2.176159    0.005234
  H      2.882318   -2.177948    0.012183
  H     -0.000484   -2.485065    0.009386

 Multiplicity           Mult            ....    1
 Number of Electrons    NEL             ....  114
 Basis Dimension        Dim             ....  219

ORBITAL ENERGIES
----------------

  NO   OCC          E(Eh)            E(eV)
   0   2.0000     -88.887573     -2418.7538
   1   2.0000     -88.887565     -2418.7536
   2   2.0000     -24.731332      -672.9738
   3   2.0000     -24.731330      -672.9737
   4   2.0000     -14.349704      -390.4753
   5   2.0000     -10.310668      -280.5675
   6   2.0000     -10.310666      -280.5675
   7   2.0000     -10.264873      -279.3214
   8   2.0000     -10.264831      -279.3203
   9   2.0000     -10.225390      -278.2470
  10   2.0000     -10.224663      -278.2272
  11   2.0000     -10.224598      -278.2255
  12   2.0000     -10.211312      -277.8639
  13   2.0000     -10.211298      -277.8635
  14   2.0000      -7.983825      -217.2509
  15   2.0000      -7.983819      -217.2508
  16   2.0000      -5.952064      -161.9639
  17   2.0000      -5.952060      -161.9638
  18   2.0000      -5.948585      -161.8692
  19   2.0000      -5.948583      -161.8692
  20   2.0000      -5.943831      -161.7399
  21   2.0000      -5.943829      -161.7398
  22   2.0000      -1.244030       -33.8518
  23   2.0000      -1.244027       -33.8517
  24   2.0000      -0.977983       -26.6123
  25   2.0000      -0.892641       -24.2900
  26   2.0000      -0.871201       -23.7066
  27   2.0000      -0.814485       -22.1633
  28   2.0000      -0.765592       -20.8328
  29   2.0000      -0.731604       -19.9079
  30   2.0000      -0.730181       -19.8692
  31   2.0000      -0.650799       -17.7091
  32   2.0000      -0.627344       -17.0709
  33   2.0000      -0.608906       -16.5692
  34   2.0000      -0.597246       -16.2519
  35   2.0000      -0.556123       -15.1329
  36   2.0000      -0.533078       -14.5058
  37   2.0000      -0.521555       -14.1922
  38   2.0000      -0.500747       -13.6260
  39   2.0000      -0.499680       -13.5970
  40   2.0000      -0.497848       -13.5471
  41   2.0000      -0.495652       -13.4874
  42   2.0000      -0.466173       -12.6852
  43   2.0000      -0.447239       -12.1700
  44   2.0000      -0.436407       -11.8752
  45   2.0000      -0.429287       -11.6815
  46   2.0000      -0.418789       -11.3958
  47   2.0000      -0.384759       -10.4698
  48   2.0000      -0.383009       -10.4222
  49   2.0000      -0.371120       -10.0987
  50   2.0000      -0.370767       -10.0891
  51   2.0000      -0.343863        -9.3570
  52   2.0000      -0.317339        -8.6352
  53   2.0000      -0.286619        -7.7993
  54   2.0000      -0.277958        -7.5636
  55   2.0000      -0.240775        -6.5518
  56   2.0000      -0.232184        -6.3181
  57   0.0000      -0.057787        -1.5725
  58   0.0000      -0.039546        -1.0761
  59   0.0000       0.002646         0.0720
  60   0.0000       0.008057         0.2193
  61   0.0000       0.015984         0.4350

MULLIKEN ATOMIC CHARGES
-----------------------
   0 S :    0.102711
   1 C :    0.166264
   2 F :   -0.158172
   3 C :   -0.025471
   4 C :    0.100778
   5 C :   -0.143528
   6 N :   -0.044414
   7 C :   -0.143520
   8 C :    0.100775
   9 C :   -0.025507
  10 C :    0.166280
  11 S :    0.102712
  12 F :   -0.158172
  13 C :   -0.016614
  14 H :   -0.003342
  15 H :   -0.003334
  16 H :   -0.017445
Sum of atomic charges:   -0.0000000

LOEWDIN ATOMIC CHARGES
----------------------
   0 S :    0.385997
   1 C :   -0.059252
   2 F :   -0.041755
   3 C :   -0.104282
   4 C :   -0.055956
   5 C :   -0.132474
   6 N :   -0.094238
   7 C :   -0.132470
   8 C :   -0.055955
   9 C :   -0.104287
  10 C :   -0.059251
  11 S :    0.385992
  12 F :   -0.041757
  13 C :   -0.002129
  14 H :    0.038682
  15 H :    0.038684
  16 H :    0.034451

  Mayer bond orders larger than 0.100000
B(  0-S ,  1-C ) :   1.0912 B(  0-S ,  5-C ) :   1.0574 B(  1-C ,  2-F ) :   1.1116
B(  1-C ,  3-C ) :   1.5395 B(  3-C ,  4-C ) :   1.1144 B(  3-C , 14-H ) :   0.9997
B(  4-C ,  5-C ) :   1.1861 B(  4-C , 13-C ) :   1.3653 B(  5-C ,  6-N ) :   1.5473
B(  6-N ,  7-C ) :   1.5473 B(  7-C ,  8-C ) :   1.1861 B(  7-C , 11-S ) :   1.0574
B(  8-C ,  9-C ) :   1.1144 B(  8-C , 13-C ) :   1.3653 B(  9-C , 10-C ) :   1.5395
B(  9-C , 15-H ) :   0.9997 B( 10-C , 11-S ) :   1.0912 B( 10-C , 12-F ) :   1.1116
B( 13-C , 16-H ) :   0.9863

Dispersion correction           -0.045140413
FINAL SINGLE POINT ENERGY     -1394.939816027223

DIPOLE MOMENT
-------------
                                X             Y             Z
Electronic contribution:      0.00170       5.46522      -0.01396
Nuclear contribution   :     -0.00202      -6.41448       0.01706
                        -----------------------------------------
Total Dipole Moment    :     -0.00032      -0.94926       0.00310
                        -----------------------------------------
Magnitude (a.u.)       :      0.94926
Magnitude (Debye)      :      2.41284

Rotational constants in cm-1:     0.065783     0.009079     0.007978
Rotational constants in MHz :  1972.128011   272.185743   239.175626

                             ****ORCA TERMINATED NORMALLY****
TOTAL RUN TIME: 0 days 0 hours 6 minutes 53 seconds 389 msec
