                         Program Version 4.2.0 -  RELEASE  -
|  1> # ORCA input file
|  2> # SCF done        -51.790572561473          0.000601749695
|  3> ! B3LYP/G D3BJ Opt RIJCOSX def2-SVP def2/J
|  4> * xyz 0 1
|  5>    C       -2.60070        -1.17382         0.00084
|  6>    C       -3.04336        -2.46492         0.00015
|  7>    C       -2.19825        -3.59711        -0.00076
|  8>    N       -1.55927        -4.54990        -0.00136
|  9>    C       -4.40412        -2.84560         0.00012
| 10>    N       -5.48808        -3.22054         0.00005
| 11>    C       -1.21328        -0.73588         0.00059
| 12>    C       -1.16518         0.68245         0.00150
| 13>    C        0.01800         1.38269         0.00148
| 14>    C        1.21036         0.65315         0.00046
| 15>    C        1.15380        -0.76309        -0.00052
| 16>    C       -0.03955        -1.47138        -0.00046
| 17>    S        2.74232        -1.46574        -0.00172
| 18>    C        3.45180         0.12765        -0.00087
| 19>    C        2.54685         1.13604         0.00023
| 20>   Br        5.31709         0.30855        -0.00147
| 21>    C       -2.53558         1.22220         0.00232
| 22>    O       -2.87929         2.37920         0.00319
| 23>    C       -3.43934         0.02692         0.00218
| 24>    C       -4.76771         0.15656         0.00308
| 25>    H        0.02152         2.46136         0.00220
| 26>    H       -0.03076        -2.54853        -0.00122
| 27>    H        2.80989         2.17800         0.00088
| 28>    H       -5.18647         1.15072         0.00327
| 29>    H       -5.45442        -0.67107         0.00241
| 30> *
| 31>
| 32>                          ****END OF INPUT****
 Total Charge           Charge          ....    0
 Multiplicity           Mult            ....    1
 Number of Electrons    NEL             ....  168
Dispersion correction           -0.072956382
FINAL SINGLE POINT ENERGY     -3730.735886224229
Dispersion correction            ... done
Dispersion correction           -0.072572707
FINAL SINGLE POINT ENERGY     -3730.740281975855
Dispersion correction            ... done
Dispersion correction           -0.072539998
FINAL SINGLE POINT ENERGY     -3730.740517271005
Dispersion correction            ... done
FINAL SINGLE POINT ENERGY     -3730.740635690236
FINAL SINGLE POINT ENERGY     -3730.740695432246
FINAL SINGLE POINT ENERGY     -3730.740721611289
FINAL SINGLE POINT ENERGY     -3730.740731251904
Dispersion correction            ... done
Dispersion correction           -0.072600168
FINAL SINGLE POINT ENERGY     -3730.740732520244
Dispersion correction            ... done
Dispersion correction           -0.072600716
FINAL SINGLE POINT ENERGY     -3730.740734934874
Dispersion correction            ... done
                    ***********************HURRAY********************

CARTESIAN COORDINATES (ANGSTROEM)
---------------------------------
  C     -2.617475   -1.206545    0.000813
  C     -3.065024   -2.509948   -0.000091
  C     -2.185417   -3.638861   -0.001629
  N     -1.484864   -4.565867   -0.002812
  C     -4.454838   -2.851009    0.000366
  N     -5.579099   -3.144593    0.000733
  C     -1.213335   -0.758422    0.000592
  C     -1.168414    0.665948    0.001324
  C      0.015298    1.381341    0.001218
  C      1.224500    0.660976    0.000470
  C      1.175430   -0.769720   -0.000076
  C     -0.021419   -1.491222   -0.000080
  S      2.784015   -1.460460   -0.000642
  C      3.488819    0.144022   -0.000639
  C      2.571444    1.155577    0.000098
  Br     5.352401    0.332081   -0.001432
  C     -2.547117    1.208363    0.002232
  O     -2.889007    2.370790    0.003060
  C     -3.462407    0.006672    0.002039
  C     -4.796121    0.170739    0.002918
  H     -0.004196    2.473611    0.001742
  H     -0.007427   -2.579455   -0.000581
  H      2.836372    2.212363    0.000289
  H     -5.171218    1.198887    0.003758
  H     -5.514629   -0.647357    0.002902

 Multiplicity           Mult            ....    1
 Number of Electrons    NEL             ....  168
 Basis Dimension        Dim             ....  327

ORBITAL ENERGIES
----------------

  NO   OCC          E(Eh)            E(eV)
   0   2.0000    -482.828822    -13138.4402
   1   2.0000     -88.913279     -2419.4533
   2   2.0000     -62.513105     -1701.0681
   3   2.0000     -56.345024     -1533.2260
   4   2.0000     -56.342378     -1533.1540
   5   2.0000     -56.342376     -1533.1540
   6   2.0000     -19.150234      -521.1044
   7   2.0000     -14.354989      -390.6191
   8   2.0000     -14.353384      -390.5754
   9   2.0000     -10.297634      -280.2129
  10   2.0000     -10.294255      -280.1209
  11   2.0000     -10.285283      -279.8768
  12   2.0000     -10.276980      -279.6508
  13   2.0000     -10.264060      -279.2993
  14   2.0000     -10.257331      -279.1162
  15   2.0000     -10.255764      -279.0735
  16   2.0000     -10.247765      -278.8559
  17   2.0000     -10.247499      -278.8486
  18   2.0000     -10.243896      -278.7506
  19   2.0000     -10.238888      -278.6143
  20   2.0000     -10.238188      -278.5953
  21   2.0000     -10.236303      -278.5440
  22   2.0000     -10.235813      -278.5306
  23   2.0000     -10.229932      -278.3706
  24   2.0000      -8.731519      -237.5967
  25   2.0000      -8.008438      -217.9207
  26   2.0000      -6.565832      -178.6654
  27   2.0000      -6.551713      -178.2812
  28   2.0000      -6.551292      -178.2697
  29   2.0000      -5.976948      -162.6410
  30   2.0000      -5.972891      -162.5306
  31   2.0000      -5.968669      -162.4157
  32   2.0000      -2.679844       -72.9223
  33   2.0000      -2.675996       -72.8176
  34   2.0000      -2.675637       -72.8078
  35   2.0000      -2.664373       -72.5013
  36   2.0000      -2.664323       -72.4999
  37   2.0000      -1.055156       -28.7122
  38   2.0000      -0.940269       -25.5860
  39   2.0000      -0.932844       -25.3840
  40   2.0000      -0.918707       -24.9993
  41   2.0000      -0.907349       -24.6902
  42   2.0000      -0.863924       -23.5086
  43   2.0000      -0.833249       -22.6739
  44   2.0000      -0.814133       -22.1537
  45   2.0000      -0.809278       -22.0216
  46   2.0000      -0.770913       -20.9776
  47   2.0000      -0.755017       -20.5450
  48   2.0000      -0.698682       -19.0121
  49   2.0000      -0.682640       -18.5756
  50   2.0000      -0.635403       -17.2902
  51   2.0000      -0.620362       -16.8809
  52   2.0000      -0.603560       -16.4237
  53   2.0000      -0.589089       -16.0299
  54   2.0000      -0.557638       -15.1741
  55   2.0000      -0.534128       -14.5344
  56   2.0000      -0.528805       -14.3895
  57   2.0000      -0.514483       -13.9998
  58   2.0000      -0.485751       -13.2180
  59   2.0000      -0.474511       -12.9121
  60   2.0000      -0.469311       -12.7706
  61   2.0000      -0.461608       -12.5610
  62   2.0000      -0.455370       -12.3912
  63   2.0000      -0.443791       -12.0762
  64   2.0000      -0.442197       -12.0328
  65   2.0000      -0.430533       -11.7154
  66   2.0000      -0.428261       -11.6536
  67   2.0000      -0.414669       -11.2837
  68   2.0000      -0.400674       -10.9029
  69   2.0000      -0.389272       -10.5926
  70   2.0000      -0.387988       -10.5577
  71   2.0000      -0.385990       -10.5033
  72   2.0000      -0.383188       -10.4271
  73   2.0000      -0.368707       -10.0330
  74   2.0000      -0.363904        -9.9023
  75   2.0000      -0.358852        -9.7649
  76   2.0000      -0.354502        -9.6465
  77   2.0000      -0.335877        -9.1397
  78   2.0000      -0.323576        -8.8049
  79   2.0000      -0.322696        -8.7810
  80   2.0000      -0.285578        -7.7710
  81   2.0000      -0.282017        -7.6741
  82   2.0000      -0.274181        -7.4608
  83   2.0000      -0.254280        -6.9193
  84   0.0000      -0.132046        -3.5932
  85   0.0000      -0.103994        -2.8298
  86   0.0000      -0.059985        -1.6323
  87   0.0000      -0.027810        -0.7567
  88   0.0000      -0.026824        -0.7299

MULLIKEN ATOMIC CHARGES
-----------------------
   0 C :    0.265611
   1 C :   -0.293297
   2 C :   -0.141749
   3 N :    0.110574
   4 C :   -0.151100
   5 N :    0.113065
   6 C :    0.023125
   7 C :   -0.009331
   8 C :   -0.069506
   9 C :    0.118589
  10 C :   -0.081748
  11 C :   -0.025588
  12 S :    0.187853
  13 C :   -0.120919
  14 C :    0.039857
  15 Br:    0.038948
  16 C :    0.146315
  17 O :   -0.149155
  18 C :   -0.127845
  19 C :    0.017427
  20 H :   -0.003325
  21 H :   -0.001424
  22 H :    0.004072
  23 H :    0.051975
  24 H :    0.057576
Sum of atomic charges:   -0.0000000

LOEWDIN ATOMIC CHARGES
----------------------
   0 C :    0.063580
   1 C :   -0.120634
   2 C :   -0.011789
   3 N :   -0.052010
   4 C :   -0.011268
   5 N :   -0.049132
   6 C :   -0.016621
   7 C :   -0.050137
   8 C :    0.020672
   9 C :   -0.026931
  10 C :   -0.139068
  11 C :   -0.010595
  12 S :    0.435547
  13 C :   -0.270767
  14 C :   -0.068520
  15 Br:    0.151864
  16 C :    0.081180
  17 O :   -0.133786
  18 C :   -0.071967
  19 C :    0.068559
  20 H :    0.043496
  21 H :    0.041809
  22 H :    0.041985
  23 H :    0.044209
  24 H :    0.040323

  Mayer bond orders larger than 0.100000
B(  0-C ,  1-C ) :   1.6244 B(  0-C ,  6-C ) :   1.0436 B(  0-C , 18-C ) :   1.0012
B(  1-C ,  2-C ) :   1.1309 B(  1-C ,  4-C ) :   1.1467 B(  2-C ,  3-N ) :   2.9352
B(  4-C ,  5-N ) :   2.9400 B(  6-C ,  7-C ) :   1.2551 B(  6-C , 11-C ) :   1.3681
B(  7-C ,  8-C ) :   1.3987 B(  7-C , 16-C ) :   0.9390 B(  8-C ,  9-C ) :   1.2445
B(  8-C , 20-H ) :   1.0114 B(  9-C , 10-C ) :   1.2661 B(  9-C , 14-C ) :   1.1768
B( 10-C , 11-C ) :   1.3502 B( 10-C , 12-S ) :   1.0881 B( 11-C , 21-H ) :   0.9791
B( 12-S , 13-C ) :   1.0846 B( 13-C , 14-C ) :   1.5711 B( 13-C , 15-Br) :   1.0338
B( 14-C , 22-H ) :   0.9962 B( 16-C , 17-O ) :   2.2232 B( 16-C , 18-C ) :   0.9169
B( 18-C , 19-C ) :   1.9201 B( 19-C , 23-H ) :   0.9105 B( 19-C , 24-H ) :   0.9202

Dispersion correction           -0.072601241
FINAL SINGLE POINT ENERGY     -3730.740735874802

DIPOLE MOMENT
-------------
                                X             Y             Z
Electronic contribution:     56.64908       4.29783      -0.02031
Nuclear contribution   :    -55.09242      -3.00381       0.02106
                        -----------------------------------------
Total Dipole Moment    :      1.55666       1.29402       0.00075
                        -----------------------------------------
Magnitude (a.u.)       :      2.02427
Magnitude (Debye)      :      5.14529

Rotational constants in cm-1:     0.020081     0.003703     0.003127
Rotational constants in MHz :   602.020527   111.019979    93.734236

                             ****ORCA TERMINATED NORMALLY****
TOTAL RUN TIME: 0 days 0 hours 29 minutes 16 seconds 635 msec
