                         Program Version 4.2.0 -  RELEASE  -
|  1> # ORCA input file
|  2> # SCF done        -16.697646872571          0.000190514936
|  3> ! B3LYP/G D3BJ Opt RIJCOSX def2-SVP def2/J
|  4> * xyz 0 1
|  5>    C       -0.64041         1.11495         0.00131
|  6>    N        0.68051         1.17408        -0.00018
|  7>    C        1.28774        -0.00050        -0.00087
|  8>    N        0.67848        -1.17402        -0.00019
|  9>    C       -0.64234        -1.11260         0.00129
| 10>    N       -1.35401         0.00179         0.00210
| 11>    H       -1.18112         2.05336         0.00191
| 12>    H        2.37078        -0.00143        -0.00208
| 13>    H       -1.18467        -2.05008         0.00190
| 14> *
| 15>
| 16>                          ****END OF INPUT****
 Total Charge           Charge          ....    0
 Multiplicity           Mult            ....    1
 Number of Electrons    NEL             ....   42
Dispersion correction           -0.013616994
FINAL SINGLE POINT ENERGY      -280.167057228038
Dispersion correction            ... done
Dispersion correction           -0.013628339
FINAL SINGLE POINT ENERGY      -280.168400529881
Dispersion correction            ... done
Dispersion correction           -0.013626708
FINAL SINGLE POINT ENERGY      -280.168428709651
Dispersion correction            ... done
Dispersion correction           -0.013624776
FINAL SINGLE POINT ENERGY      -280.168434160670
Dispersion correction            ... done
                    ***********************HURRAY********************

CARTESIAN COORDINATES (ANGSTROEM)
---------------------------------
  C     -0.645363    1.124088    0.001318
  N      0.687837    1.184924   -0.000129
  C      1.298444   -0.000504   -0.000852
  N      0.685778   -1.184875   -0.000138
  C     -0.647309   -1.121735    0.001305
  N     -1.366669    0.001794    0.002081
  H     -1.194967    2.073671    0.001907
  H      2.395761   -0.001452   -0.002195
  H     -1.198552   -2.070360    0.001892

 Multiplicity           Mult            ....    1
 Number of Electrons    NEL             ....   42
 Basis Dimension        Dim             ....   99

ORBITAL ENERGIES
----------------

  NO   OCC          E(Eh)            E(eV)
   0   2.0000     -14.352934      -390.5632
   1   2.0000     -14.352404      -390.5488
   2   2.0000     -14.352375      -390.5480
   3   2.0000     -10.285067      -279.8709
   4   2.0000     -10.284924      -279.8670
   5   2.0000     -10.284915      -279.8668
   6   2.0000      -1.034887       -28.1607
   7   2.0000      -0.909535       -24.7497
   8   2.0000      -0.909259       -24.7422
   9   2.0000      -0.693833       -18.8801
  10   2.0000      -0.693447       -18.8696
  11   2.0000      -0.565825       -15.3969
  12   2.0000      -0.559685       -15.2298
  13   2.0000      -0.467764       -12.7285
  14   2.0000      -0.446870       -12.1599
  15   2.0000      -0.446646       -12.1538
  16   2.0000      -0.376099       -10.2342
  17   2.0000      -0.345186        -9.3930
  18   2.0000      -0.344912        -9.3855
  19   2.0000      -0.280806        -7.6411
  20   2.0000      -0.280739        -7.6393
  21   0.0000      -0.064191        -1.7467
  22   0.0000      -0.064127        -1.7450
  23   0.0000       0.083023         2.2592
  24   0.0000       0.098864         2.6902
  25   0.0000       0.102326         2.7844

MULLIKEN ATOMIC CHARGES
-----------------------
   0 C :    0.100303
   1 N :   -0.128755
   2 C :    0.088790
   3 N :   -0.128778
   4 C :    0.100283
   5 N :   -0.137123
   6 H :    0.033591
   7 H :    0.038090
   8 H :    0.033599
Sum of atomic charges:    0.0000000

LOEWDIN ATOMIC CHARGES
----------------------
   0 C :    0.077243
   1 N :   -0.101319
   2 C :    0.074369
   3 N :   -0.101320
   4 C :    0.077231
   5 N :   -0.102626
   6 H :    0.025238
   7 H :    0.025945
   8 H :    0.025239

  Mayer bond orders larger than 0.100000
B(  0-C ,  1-N ) :   1.4971 B(  0-C ,  5-N ) :   1.4995 B(  0-C ,  6-H ) :   0.9716
B(  1-N ,  2-C ) :   1.5006 B(  2-C ,  3-N ) :   1.5006 B(  2-C ,  7-H ) :   0.9718
B(  3-N ,  4-C ) :   1.4971 B(  4-C ,  5-N ) :   1.4995 B(  4-C ,  8-H ) :   0.9716

Dispersion correction           -0.013624432
FINAL SINGLE POINT ENERGY      -280.168434159521

DIPOLE MOMENT
-------------
                                X             Y             Z
Electronic contribution:      0.00039       0.00001       0.00012
Nuclear contribution   :     -0.00376       0.00001      -0.00017
                        -----------------------------------------
Total Dipole Moment    :     -0.00336       0.00002      -0.00006
                        -----------------------------------------
Magnitude (a.u.)       :      0.00336
Magnitude (Debye)      :      0.00855

Rotational constants in cm-1:     0.215360     0.215201     0.107640
Rotational constants in MHz :  6456.330733  6451.566345  3226.973832

                             ****ORCA TERMINATED NORMALLY****
TOTAL RUN TIME: 0 days 0 hours 1 minutes 19 seconds 111 msec
