                         Program Version 4.2.0 -  RELEASE  -
|  1> # ORCA input file
|  2> # SCF done        -34.177405996271          0.000852170210
|  3> ! B3LYP/G D3BJ Opt RIJCOSX def2-SVP def2/J
|  4> * xyz 0 1
|  5>    O       -0.22676        -0.97245         0.01046
|  6>    N       -1.02225         0.09513         0.00598
|  7>    C       -0.26711         1.16735        -0.00007
|  8>    C       -0.80599         2.47488        -0.00627
|  9>    N       -1.25629         3.52471        -0.01140
| 10>    C        1.11710         0.80209        -0.00072
| 11>    C        1.05711        -0.58206         0.00701
| 12>    C        2.10073        -1.52622         0.01110
| 13>    N        2.99524        -2.24186         0.01214
| 14>    C        2.25383         1.76178        -0.00801
| 15>    O        2.06362         2.94253        -0.01221
| 16>    O        3.48561         1.24401        -0.00623
| 17>    H        3.54497         0.27839        -0.00161
| 18> *
| 19>
| 20>                          ****END OF INPUT****
 Total Charge           Charge          ....    0
 Multiplicity           Mult            ....    1
 Number of Electrons    NEL             ....   82
Dispersion correction           -0.026607794
FINAL SINGLE POINT ENERGY      -618.616804323182
Dispersion correction            ... done
Dispersion correction           -0.026498538
FINAL SINGLE POINT ENERGY      -618.619318182248
Dispersion correction            ... done
Dispersion correction           -0.026463679
FINAL SINGLE POINT ENERGY      -618.619589081781
Dispersion correction            ... done
FINAL SINGLE POINT ENERGY      -618.619616903663
FINAL SINGLE POINT ENERGY      -618.619695335380
FINAL SINGLE POINT ENERGY      -618.619697634894
Dispersion correction            ... done
Dispersion correction           -0.026444127
FINAL SINGLE POINT ENERGY      -618.619698438803
Dispersion correction            ... done
Dispersion correction           -0.026443277
FINAL SINGLE POINT ENERGY      -618.619699100052
Dispersion correction            ... done
                    ***********************HURRAY********************

CARTESIAN COORDINATES (ANGSTROEM)
---------------------------------
  O     -0.218847   -0.972389    0.011033
  N     -1.043171    0.112975    0.005271
  C     -0.260260    1.175639   -0.000896
  C     -0.832139    2.486186   -0.008274
  N     -1.335514    3.528872   -0.014339
  C      1.128307    0.806152    0.000333
  C      1.064349   -0.567830    0.008123
  C      2.099135   -1.540374    0.012892
  N      3.007471   -2.263411    0.014752
  C      2.280631    1.757822   -0.004300
  O      2.095971    2.943136   -0.003493
  O      3.513555    1.235227   -0.009846
  H      3.540321    0.266274   -0.011085

 Multiplicity           Mult            ....    1
 Number of Electrons    NEL             ....   82
 Basis Dimension        Dim             ....  173

ORBITAL ENERGIES
----------------

  NO   OCC          E(Eh)            E(eV)
   0   2.0000     -19.311296      -525.4871
   1   2.0000     -19.223498      -523.0980
   2   2.0000     -19.165210      -521.5119
   3   2.0000     -14.458332      -393.4312
   4   2.0000     -14.413421      -392.2091
   5   2.0000     -14.371866      -391.0784
   6   2.0000     -10.374458      -282.3034
   7   2.0000     -10.364951      -282.0447
   8   2.0000     -10.326055      -280.9863
   9   2.0000     -10.309013      -280.5225
  10   2.0000     -10.295035      -280.1421
  11   2.0000     -10.270038      -279.4619
  12   2.0000      -1.236034       -33.6342
  13   2.0000      -1.138856       -30.9898
  14   2.0000      -1.057518       -28.7765
  15   2.0000      -0.981005       -26.6945
  16   2.0000      -0.959800       -26.1175
  17   2.0000      -0.927624       -25.2419
  18   2.0000      -0.896478       -24.3944
  19   2.0000      -0.757236       -20.6054
  20   2.0000      -0.736787       -20.0490
  21   2.0000      -0.694472       -18.8975
  22   2.0000      -0.669482       -18.2175
  23   2.0000      -0.607506       -16.5311
  24   2.0000      -0.569824       -15.5057
  25   2.0000      -0.561206       -15.2712
  26   2.0000      -0.497970       -13.5505
  27   2.0000      -0.497915       -13.5490
  28   2.0000      -0.483651       -13.1608
  29   2.0000      -0.446319       -12.1450
  30   2.0000      -0.444021       -12.0824
  31   2.0000      -0.435799       -11.8587
  32   2.0000      -0.423019       -11.5109
  33   2.0000      -0.418269       -11.3817
  34   2.0000      -0.396955       -10.8017
  35   2.0000      -0.386578       -10.5193
  36   2.0000      -0.373349       -10.1593
  37   2.0000      -0.368121       -10.0171
  38   2.0000      -0.350885        -9.5481
  39   2.0000      -0.342557        -9.3215
  40   2.0000      -0.326941        -8.8965
  41   0.0000      -0.138716        -3.7746
  42   0.0000      -0.099913        -2.7188
  43   0.0000      -0.068446        -1.8625
  44   0.0000      -0.019152        -0.5211
  45   0.0000      -0.006207        -0.1689

MULLIKEN ATOMIC CHARGES
-----------------------
   0 O :   -0.150820
   1 N :    0.061951
   2 C :   -0.173999
   3 C :   -0.107837
   4 N :    0.208844
   5 C :   -0.043925
   6 C :    0.085457
   7 C :   -0.169923
   8 N :    0.183893
   9 C :    0.205963
  10 O :   -0.144123
  11 O :   -0.131351
  12 H :    0.175871
Sum of atomic charges:    0.0000000

LOEWDIN ATOMIC CHARGES
----------------------
   0 O :    0.062522
   1 N :    0.033761
   2 C :   -0.035117
   3 C :   -0.024225
   4 N :    0.009738
   5 C :   -0.080899
   6 C :    0.013051
   7 C :   -0.041662
   8 N :    0.012784
   9 C :    0.081144
  10 O :   -0.115354
  11 O :   -0.006433
  12 H :    0.090690

  Mayer bond orders larger than 0.100000
B(  0-O ,  1-N ) :   1.0061 B(  0-O ,  6-C ) :   1.1650 B(  1-N ,  2-C ) :   1.6626
B(  1-N ,  6-C ) :   0.1053 B(  2-C ,  3-C ) :   1.1457 B(  2-C ,  5-C ) :   1.2405
B(  3-C ,  4-N ) :   3.0304 B(  5-C ,  6-C ) :   1.4997 B(  5-C ,  9-C ) :   0.8732
B(  6-C ,  7-C ) :   1.0850 B(  7-C ,  8-N ) :   2.9658 B(  9-C , 10-O ) :   2.1572
B(  9-C , 11-O ) :   1.2732 B( 11-O , 12-H ) :   0.9439

Dispersion correction           -0.026443707
FINAL SINGLE POINT ENERGY      -618.619698635405

DIPOLE MOMENT
-------------
                                X             Y             Z
Electronic contribution:     -2.05992      -0.96921       0.01217
Nuclear contribution   :      2.39730      -0.43227      -0.01118
                        -----------------------------------------
Total Dipole Moment    :      0.33738      -1.40148       0.00099
                        -----------------------------------------
Magnitude (a.u.)       :      1.44152
Magnitude (Debye)      :      3.66404

Rotational constants in cm-1:     0.049881     0.028016     0.017940
Rotational constants in MHz :  1495.389396   839.904116   537.829106

                             ****ORCA TERMINATED NORMALLY****
TOTAL RUN TIME: 0 days 0 hours 6 minutes 47 seconds 673 msec
