                         Program Version 4.2.0 -  RELEASE  -
|  1> # ORCA input file
|  2> # SCF done        -42.655872666701          0.000711655645
|  3> ! B3LYP/G D3BJ Opt RIJCOSX def2-SVP def2/J
|  4> * xyz 0 1
|  5>    C       -0.06943         0.59742         0.00039
|  6>    C       -1.32413         1.12801         0.00193
|  7>    S       -2.52494        -0.10755         0.00102
|  8>    C       -1.31832        -1.37310        -0.00119
|  9>   Cl       -1.75659        -3.00829        -0.00300
| 10>    C       -0.06454        -0.83730        -0.00152
| 11>    C        1.31509        -1.33242        -0.00388
| 12>    O        1.71706        -2.46850        -0.00471
| 13>    C        2.16632        -0.08986        -0.00444
| 14>    C        1.29137         1.08743        -0.00025
| 15>    C        1.66245         2.40011         0.00440
| 16>    C        0.70495         3.43880         0.01113
| 17>    N       -0.06260         4.29051         0.01681
| 18>    C        2.99471         2.86498         0.00528
| 19>    N        4.05767         3.29624         0.00587
| 20>    C        3.49898        -0.15889        -0.01001
| 21>    H       -1.62544         2.15685         0.00325
| 22>    H        3.96657        -1.13079        -0.01435
| 23>    H        4.14211         0.70342        -0.01307
| 24> *
| 25>
| 26>                          ****END OF INPUT****
 Total Charge           Charge          ....    0
 Multiplicity           Mult            ....    1
 Number of Electrons    NEL             ....  124
Dispersion correction           -0.053688049
FINAL SINGLE POINT ENERGY     -1463.366058556449
Dispersion correction            ... done
Dispersion correction           -0.053414153
FINAL SINGLE POINT ENERGY     -1463.369677083032
Dispersion correction            ... done
Dispersion correction           -0.053398009
FINAL SINGLE POINT ENERGY     -1463.369904964581
Dispersion correction            ... done
FINAL SINGLE POINT ENERGY     -1463.370018839226
FINAL SINGLE POINT ENERGY     -1463.370065640398
FINAL SINGLE POINT ENERGY     -1463.370097453994
Dispersion correction            ... done
Dispersion correction           -0.053481375
FINAL SINGLE POINT ENERGY     -1463.370104956156
Dispersion correction            ... done
Dispersion correction           -0.053487326
FINAL SINGLE POINT ENERGY     -1463.370111138078
Dispersion correction            ... done
                    ***********************HURRAY********************

CARTESIAN COORDINATES (ANGSTROEM)
---------------------------------
  C     -0.072809    0.608064    0.001719
  C     -1.342284    1.142797    0.006562
  S     -2.535304   -0.113103    0.005333
  C     -1.323733   -1.373722   -0.001728
  Cl    -1.764398   -3.023207   -0.006686
  C     -0.066033   -0.830353   -0.003195
  C      1.323923   -1.329418   -0.008328
  O      1.727081   -2.468758   -0.014105
  C      2.187258   -0.075072   -0.004606
  C      1.302653    1.111871    0.000453
  C      1.665992    2.439062    0.003370
  C      0.666414    3.462135    0.008043
  N     -0.178454    4.259567    0.011986
  C      3.025119    2.880787    0.001559
  N      4.127317    3.248200   -0.000192
  C      3.527052   -0.173050   -0.005486
  H     -1.654597    2.184857    0.010795
  H      3.958336   -1.179070   -0.009194
  H      4.197758    0.685483   -0.002639

 Multiplicity           Mult            ....    1
 Number of Electrons    NEL             ....  124
 Basis Dimension        Dim             ....  247

ORBITAL ENERGIES
----------------

  NO   OCC          E(Eh)            E(eV)
   0   2.0000    -101.552975     -2763.3969
   1   2.0000     -88.930404     -2419.9193
   2   2.0000     -19.153856      -521.2029
   3   2.0000     -14.358979      -390.7277
   4   2.0000     -14.357696      -390.6928
   5   2.0000     -10.308437      -280.5068
   6   2.0000     -10.307144      -280.4717
   7   2.0000     -10.289549      -279.9929
   8   2.0000     -10.282980      -279.8141
   9   2.0000     -10.265165      -279.3293
  10   2.0000     -10.260811      -279.2109
  11   2.0000     -10.259622      -279.1785
  12   2.0000     -10.251093      -278.9464
  13   2.0000     -10.243479      -278.7392
  14   2.0000     -10.242750      -278.7194
  15   2.0000     -10.236713      -278.5551
  16   2.0000      -9.506830      -258.6940
  17   2.0000      -8.025191      -218.3766
  18   2.0000      -7.276367      -198.0000
  19   2.0000      -7.265928      -197.7159
  20   2.0000      -7.265323      -197.6995
  21   2.0000      -5.993279      -163.0854
  22   2.0000      -5.988889      -162.9660
  23   2.0000      -5.986774      -162.9084
  24   2.0000      -1.060745       -28.8643
  25   2.0000      -0.955861       -26.0103
  26   2.0000      -0.937161       -25.5014
  27   2.0000      -0.922667       -25.1070
  28   2.0000      -0.906078       -24.6556
  29   2.0000      -0.874503       -23.7964
  30   2.0000      -0.828784       -22.5524
  31   2.0000      -0.794527       -21.6202
  32   2.0000      -0.757924       -20.6242
  33   2.0000      -0.708780       -19.2869
  34   2.0000      -0.678396       -18.4601
  35   2.0000      -0.625838       -17.0299
  36   2.0000      -0.607029       -16.5181
  37   2.0000      -0.584600       -15.9078
  38   2.0000      -0.553430       -15.0596
  39   2.0000      -0.541732       -14.7413
  40   2.0000      -0.502494       -13.6736
  41   2.0000      -0.478526       -13.0214
  42   2.0000      -0.472086       -12.8461
  43   2.0000      -0.469265       -12.7694
  44   2.0000      -0.466678       -12.6989
  45   2.0000      -0.441218       -12.0061
  46   2.0000      -0.438900       -11.9431
  47   2.0000      -0.423895       -11.5348
  48   2.0000      -0.423875       -11.5342
  49   2.0000      -0.399056       -10.8589
  50   2.0000      -0.392980       -10.6935
  51   2.0000      -0.387552       -10.5458
  52   2.0000      -0.384027       -10.4499
  53   2.0000      -0.372677       -10.1411
  54   2.0000      -0.371964       -10.1217
  55   2.0000      -0.360750        -9.8165
  56   2.0000      -0.355388        -9.6706
  57   2.0000      -0.348155        -9.4738
  58   2.0000      -0.308483        -8.3943
  59   2.0000      -0.287838        -7.8325
  60   2.0000      -0.285981        -7.7820
  61   2.0000      -0.267880        -7.2894
  62   0.0000      -0.135510        -3.6874
  63   0.0000      -0.100225        -2.7273
  64   0.0000      -0.048913        -1.3310
  65   0.0000      -0.027743        -0.7549
  66   0.0000      -0.009764        -0.2657

MULLIKEN ATOMIC CHARGES
-----------------------
   0 C :    0.023471
   1 C :   -0.123951
   2 S :    0.190864
   3 C :   -0.158302
   4 Cl:    0.002442
   5 C :    0.081711
   6 C :    0.151616
   7 O :   -0.133464
   8 C :   -0.146511
   9 C :    0.260115
  10 C :   -0.276141
  11 C :   -0.146461
  12 N :    0.111103
  13 C :   -0.149229
  14 N :    0.116865
  15 C :    0.019346
  16 H :    0.060124
  17 H :    0.056824
  18 H :    0.059579
Sum of atomic charges:    0.0000000

LOEWDIN ATOMIC CHARGES
----------------------
   0 C :   -0.053439
   1 C :   -0.153153
   2 S :    0.488914
   3 C :   -0.272359
   4 Cl:    0.192359
   5 C :   -0.114202
   6 C :    0.079703
   7 O :   -0.124288
   8 C :   -0.070075
   9 C :    0.063833
  10 C :   -0.118249
  11 C :   -0.007644
  12 N :   -0.052021
  13 C :   -0.013788
  14 N :   -0.044997
  15 C :    0.070393
  16 H :    0.041050
  17 H :    0.046146
  18 H :    0.041817

  Mayer bond orders larger than 0.100000
B(  0-C ,  1-C ) :   1.4963 B(  0-C ,  5-C ) :   1.2256 B(  0-C ,  9-C ) :   1.0333
B(  1-C ,  2-S ) :   1.1663 B(  1-C , 16-H ) :   0.9520 B(  2-S ,  3-C ) :   1.1472
B(  3-C ,  4-Cl) :   1.1258 B(  3-C ,  5-C ) :   1.4467 B(  5-C ,  6-C ) :   0.9405
B(  6-C ,  7-O ) :   2.2396 B(  6-C ,  8-C ) :   0.9105 B(  8-C ,  9-C ) :   1.0067
B(  8-C , 15-C ) :   1.9236 B(  9-C , 10-C ) :   1.6448 B( 10-C , 11-C ) :   1.1319
B( 10-C , 13-C ) :   1.1390 B( 11-C , 12-N ) :   2.9550 B( 13-C , 14-N ) :   2.9439
B( 15-C , 17-H ) :   0.9104 B( 15-C , 18-H ) :   0.9221

Dispersion correction           -0.053488885
FINAL SINGLE POINT ENERGY     -1463.370112968234

DIPOLE MOMENT
-------------
                                X             Y             Z
Electronic contribution:     -9.13348      -6.24708      -0.00616
Nuclear contribution   :      8.13276       5.34880       0.00858
                        -----------------------------------------
Total Dipole Moment    :     -1.00072      -0.89827       0.00242
                        -----------------------------------------
Magnitude (a.u.)       :      1.34475
Magnitude (Debye)      :      3.41807

Rotational constants in cm-1:     0.025015     0.010508     0.007399
Rotational constants in MHz :   749.936893   315.010836   221.830902

                             ****ORCA TERMINATED NORMALLY****
TOTAL RUN TIME: 0 days 0 hours 14 minutes 54 seconds 269 msec
