                         Program Version 4.2.0 -  RELEASE  -
|  1> # ORCA input file
|  2> # SCF done        -33.148122070033          0.000659871256
|  3> ! B3LYP/G D3BJ Opt RIJCOSX def2-SVP def2/J
|  4> * xyz 0 1
|  5>    C        0.90218        -0.33206         0.10336
|  6>    C        0.04805        -1.37016         0.02859
|  7>    C       -1.37882        -1.01054        -0.05787
|  8>    O       -2.34507        -1.97321        -0.06483
|  9>    C       -1.88484        -3.25018         0.32557
| 10>    C       -0.56724        -3.57904        -0.36760
| 11>    O        0.44224        -2.67618         0.03278
| 12>    C       -1.63865         0.30849        -0.13013
| 13>   Si       -0.04711         1.26368        -0.00863
| 14>    C        0.04450         2.33441         1.53030
| 15>    C        0.38206         2.26843        -1.53491
| 16>    H        1.96074        -0.51529         0.16743
| 17>    H       -1.74160        -3.27839         1.41568
| 18>    H       -2.66609        -3.95840         0.04345
| 19>    H       -0.70594        -3.52500        -1.45750
| 20>    H       -0.21528        -4.57573        -0.09471
| 21>    H       -2.65735         0.64970        -0.19441
| 22>    H       -0.16301         1.76646         2.43467
| 23>    H       -0.67303         3.15192         1.49465
| 24>    H        1.02822         2.78233         1.65223
| 25>    H        0.31463         1.67706        -2.44542
| 26>    H        1.39491         2.66243        -1.48390
| 27>    H       -0.28286         3.12073        -1.65678
| 28> *
| 29>
| 30>                          ****END OF INPUT****
 Total Charge           Charge          ....    0
 Multiplicity           Mult            ....    1
 Number of Electrons    NEL             ....   90
Dispersion correction           -0.042270905
FINAL SINGLE POINT ENERGY      -751.624418101901
Dispersion correction            ... done
Dispersion correction           -0.042138364
FINAL SINGLE POINT ENERGY      -751.627859447081
Dispersion correction            ... done
Dispersion correction           -0.042091197
FINAL SINGLE POINT ENERGY      -751.628321324513
Dispersion correction            ... done
FINAL SINGLE POINT ENERGY      -751.628370324666
Dispersion correction            ... done
Dispersion correction           -0.042064886
FINAL SINGLE POINT ENERGY      -751.628351179840
Dispersion correction            ... done
Dispersion correction           -0.042062095
FINAL SINGLE POINT ENERGY      -751.628327941858
Dispersion correction            ... done
                    ***********************HURRAY********************

CARTESIAN COORDINATES (ANGSTROEM)
---------------------------------
  C      0.947232   -0.321372    0.115529
  C      0.069573   -1.346127    0.057547
  C     -1.388049   -0.980711   -0.045414
  O     -2.327598   -1.962740   -0.099342
  C     -1.902404   -3.268100    0.268033
  C     -0.550081   -3.584717   -0.334179
  O      0.430188   -2.655877    0.109748
  C     -1.671970    0.338733   -0.103047
  Si    -0.045532    1.266092    0.001999
  C      0.090885    2.347851    1.539917
  C      0.333781    2.266182   -1.551612
  H      2.019437   -0.512862    0.186264
  H     -1.858602   -3.354981    1.370370
  H     -2.667351   -3.964644   -0.105029
  H     -0.611853   -3.567640   -1.438953
  H     -0.206313   -4.579605   -0.016331
  H     -2.703539    0.686253   -0.175989
  H     -0.155656    1.763049    2.439866
  H     -0.596377    3.207145    1.485265
  H      1.112836    2.745741    1.654461
  H      0.221487    1.633977   -2.446305
  H      1.362537    2.662630   -1.534416
  H     -0.351989    3.123184   -1.646360

 Multiplicity           Mult            ....    1
 Number of Electrons    NEL             ....   90
 Basis Dimension        Dim             ....  218

ORBITAL ENERGIES
----------------

  NO   OCC          E(Eh)            E(eV)
   0   2.0000     -66.094943     -1798.5348
   1   2.0000     -19.168536      -521.6024
   2   2.0000     -19.168416      -521.5991
   3   2.0000     -10.257201      -279.1126
   4   2.0000     -10.257057      -279.1087
   5   2.0000     -10.249927      -278.9147
   6   2.0000     -10.249590      -278.9055
   7   2.0000     -10.162857      -276.5454
   8   2.0000     -10.162721      -276.5417
   9   2.0000     -10.152424      -276.2615
  10   2.0000     -10.151845      -276.2457
  11   2.0000      -5.261015      -143.1595
  12   2.0000      -3.623605       -98.6033
  13   2.0000      -3.622523       -98.5739
  14   2.0000      -3.621984       -98.5592
  15   2.0000      -1.082684       -29.4613
  16   2.0000      -1.047133       -28.4939
  17   2.0000      -0.818389       -22.2695
  18   2.0000      -0.746409       -20.3108
  19   2.0000      -0.721904       -19.6440
  20   2.0000      -0.689916       -18.7736
  21   2.0000      -0.665915       -18.1205
  22   2.0000      -0.632678       -17.2160
  23   2.0000      -0.607516       -16.5313
  24   2.0000      -0.551222       -14.9995
  25   2.0000      -0.539139       -14.6707
  26   2.0000      -0.496788       -13.5183
  27   2.0000      -0.466664       -12.6986
  28   2.0000      -0.456510       -12.4223
  29   2.0000      -0.446841       -12.1592
  30   2.0000      -0.427192       -11.6245
  31   2.0000      -0.407921       -11.1001
  32   2.0000      -0.403430       -10.9779
  33   2.0000      -0.402865       -10.9625
  34   2.0000      -0.397655       -10.8207
  35   2.0000      -0.395376       -10.7587
  36   2.0000      -0.386471       -10.5164
  37   2.0000      -0.382479       -10.4078
  38   2.0000      -0.339651        -9.2424
  39   2.0000      -0.310843        -8.4585
  40   2.0000      -0.309543        -8.4231
  41   2.0000      -0.303024        -8.2457
  42   2.0000      -0.301504        -8.2043
  43   2.0000      -0.254530        -6.9261
  44   2.0000      -0.204247        -5.5578
  45   0.0000      -0.033782        -0.9192
  46   0.0000       0.053008         1.4424
  47   0.0000       0.058113         1.5813
  48   0.0000       0.083510         2.2724
  49   0.0000       0.088186         2.3997

MULLIKEN ATOMIC CHARGES
-----------------------
   0 C :   -0.247102
   1 C :    0.148346
   2 C :    0.150569
   3 O :   -0.300903
   4 C :    0.188008
   5 C :    0.195492
   6 O :   -0.302063
   7 C :   -0.238238
   8 Si:    0.494473
   9 C :   -0.188943
  10 C :   -0.193597
  11 H :   -0.007054
  12 H :    0.023086
  13 H :    0.023736
  14 H :    0.024029
  15 H :    0.019102
  16 H :   -0.011691
  17 H :    0.042736
  18 H :    0.035507
  19 H :    0.032698
  20 H :    0.042981
  21 H :    0.032746
  22 H :    0.036081
Sum of atomic charges:   -0.0000000

LOEWDIN ATOMIC CHARGES
----------------------
   0 C :   -0.245767
   1 C :    0.021373
   2 C :    0.022281
   3 O :   -0.102894
   4 C :    0.071928
   5 C :    0.073035
   6 O :   -0.103531
   7 C :   -0.244523
   8 Si:    0.652274
   9 C :   -0.242816
  10 C :   -0.243548
  11 H :    0.024006
  12 H :    0.018598
  13 H :    0.030493
  14 H :    0.018798
  15 H :    0.029817
  16 H :    0.022727
  17 H :    0.035369
  18 H :    0.031783
  19 H :    0.031764
  20 H :    0.035343
  21 H :    0.031442
  22 H :    0.032048

  Mayer bond orders larger than 0.100000
B(  0-C ,  1-C ) :   1.7838 B(  0-C ,  8-Si) :   0.9178 B(  0-C , 11-H ) :   0.9345
B(  1-C ,  2-C ) :   0.9614 B(  1-C ,  6-O ) :   1.1111 B(  2-C ,  3-O ) :   1.1127
B(  2-C ,  7-C ) :   1.7793 B(  3-O ,  4-C ) :   0.9565 B(  4-C ,  5-C ) :   1.0865
B(  4-C , 12-H ) :   0.9363 B(  4-C , 13-H ) :   0.9451 B(  5-C ,  6-O ) :   0.9533
B(  5-C , 14-H ) :   0.9354 B(  5-C , 15-H ) :   0.9457 B(  7-C ,  8-Si) :   0.9205
B(  7-C , 16-H ) :   0.9340 B(  8-Si,  9-C ) :   1.0205 B(  8-Si, 10-C ) :   1.0193
B(  9-C , 17-H ) :   0.9546 B(  9-C , 18-H ) :   0.9537 B(  9-C , 19-H ) :   0.9545
B( 10-C , 20-H ) :   0.9544 B( 10-C , 21-H ) :   0.9547 B( 10-C , 22-H ) :   0.9546

Dispersion correction           -0.042062236
FINAL SINGLE POINT ENERGY      -751.628314670470

DIPOLE MOMENT
-------------
                                X             Y             Z
Electronic contribution:     -1.64335      -6.55782       0.13855
Nuclear contribution   :      1.48676       5.92684      -0.16998
                        -----------------------------------------
Total Dipole Moment    :     -0.15659      -0.63098      -0.03143
                        -----------------------------------------
Magnitude (a.u.)       :      0.65088
Magnitude (Debye)      :      1.65441

Rotational constants in cm-1:     0.070289     0.020088     0.018600
Rotational constants in MHz :  2107.196612   602.234323   557.622831

                             ****ORCA TERMINATED NORMALLY****
TOTAL RUN TIME: 0 days 0 hours 8 minutes 47 seconds 229 msec
