                         Program Version 4.2.0 -  RELEASE  -
|  1> # ORCA input file
|  2> # SCF done        -21.115255858902          0.000585963061
|  3> ! B3LYP/G D3BJ Opt RIJCOSX def2-SVP def2/J
|  4> * xyz 0 1
|  5>    O       -0.37356        -1.07752        -0.00593
|  6>    C       -1.04739         0.08517        -0.00465
|  7>    N       -0.29618         1.12866        -0.00116
|  8>    C        0.98947         0.64286        -0.00004
|  9>    C        0.91728        -0.72968        -0.00296
| 10>    C        2.15796         1.51461         0.00363
| 11>    O        3.29869         1.13160         0.00534
| 12>    H       -2.11859         0.06935        -0.00652
| 13>    H        1.66735        -1.49356        -0.00329
| 14>    H        1.89104         2.58563         0.00650
| 15> *
| 16>
| 17>                          ****END OF INPUT****
 Total Charge           Charge          ....    0
 Multiplicity           Mult            ....    1
 Number of Electrons    NEL             ....   50
Dispersion correction           -0.013901736
FINAL SINGLE POINT ENERGY      -359.141985066069
Dispersion correction            ... done
Dispersion correction           -0.013965199
FINAL SINGLE POINT ENERGY      -359.143504495507
Dispersion correction            ... done
Dispersion correction           -0.013971909
FINAL SINGLE POINT ENERGY      -359.143652916907
Dispersion correction            ... done
FINAL SINGLE POINT ENERGY      -359.143482712486
FINAL SINGLE POINT ENERGY      -359.143764682826
Dispersion correction            ... done
Dispersion correction           -0.013972943
FINAL SINGLE POINT ENERGY      -359.143771226138
Dispersion correction            ... done
Dispersion correction           -0.013972929
FINAL SINGLE POINT ENERGY      -359.143774390314
Dispersion correction            ... done
                    ***********************HURRAY********************

CARTESIAN COORDINATES (ANGSTROEM)
---------------------------------
  O     -0.375715   -1.077997   -0.006110
  C     -1.064606    0.096729   -0.004570
  N     -0.314291    1.145280   -0.000879
  C      0.985048    0.648641    0.000208
  C      0.929052   -0.721537   -0.002984
  C      2.170942    1.520869    0.004147
  O      3.311269    1.117026    0.005525
  H     -2.151503    0.028445   -0.006710
  H      1.674819   -1.511063   -0.003550
  H      1.921054    2.610726    0.005844

 Multiplicity           Mult            ....    1
 Number of Electrons    NEL             ....   50
 Basis Dimension        Dim             ....  113

ORBITAL ENERGIES
----------------

  NO   OCC          E(Eh)            E(eV)
   0   2.0000     -19.243033      -523.6296
   1   2.0000     -19.139900      -520.8232
   2   2.0000     -14.350530      -390.4978
   3   2.0000     -10.297455      -280.2080
   4   2.0000     -10.285308      -279.8775
   5   2.0000     -10.278975      -279.7051
   6   2.0000     -10.237178      -278.5678
   7   2.0000      -1.157066       -31.4854
   8   2.0000      -1.042820       -28.3766
   9   2.0000      -0.942467       -25.6458
  10   2.0000      -0.793814       -21.6008
  11   2.0000      -0.689334       -18.7577
  12   2.0000      -0.630137       -17.1469
  13   2.0000      -0.603834       -16.4312
  14   2.0000      -0.534262       -14.5380
  15   2.0000      -0.505618       -13.7586
  16   2.0000      -0.493112       -13.4183
  17   2.0000      -0.478073       -13.0090
  18   2.0000      -0.440515       -11.9870
  19   2.0000      -0.420389       -11.4394
  20   2.0000      -0.410637       -11.1740
  21   2.0000      -0.348286        -9.4773
  22   2.0000      -0.317735        -8.6460
  23   2.0000      -0.278646        -7.5823
  24   2.0000      -0.269411        -7.3310
  25   0.0000      -0.070553        -1.9198
  26   0.0000      -0.018163        -0.4942
  27   0.0000       0.077300         2.1034
  28   0.0000       0.080091         2.1794
  29   0.0000       0.088262         2.4017

MULLIKEN ATOMIC CHARGES
-----------------------
   0 O :   -0.188655
   1 C :    0.162151
   2 N :   -0.115457
   3 C :   -0.061145
   4 C :    0.124468
   5 C :    0.185379
   6 O :   -0.187949
   7 H :    0.045911
   8 H :    0.045400
   9 H :   -0.010103
Sum of atomic charges:   -0.0000000

LOEWDIN ATOMIC CHARGES
----------------------
   0 O :    0.013837
   1 C :    0.067814
   2 N :   -0.092680
   3 C :   -0.102828
   4 C :    0.073912
   5 C :    0.106549
   6 O :   -0.137169
   7 H :    0.029963
   8 H :    0.039759
   9 H :    0.000842

  Mayer bond orders larger than 0.100000
B(  0-O ,  1-C ) :   1.1367 B(  0-O ,  4-C ) :   1.1636 B(  1-C ,  2-N ) :   1.7516
B(  1-C ,  7-H ) :   0.9781 B(  2-N ,  3-C ) :   1.2913 B(  3-C ,  4-C ) :   1.5210
B(  3-C ,  5-C ) :   0.9817 B(  4-C ,  8-H ) :   0.9897 B(  5-C ,  6-O ) :   2.1712
B(  5-C ,  9-H ) :   0.9413

Dispersion correction           -0.013973093
FINAL SINGLE POINT ENERGY      -359.143774507808

DIPOLE MOMENT
-------------
                                X             Y             Z
Electronic contribution:      0.05158      -0.59973      -0.00098
Nuclear contribution   :     -0.96042      -0.00202      -0.00226
                        -----------------------------------------
Total Dipole Moment    :     -0.90884      -0.60175      -0.00324
                        -----------------------------------------
Magnitude (a.u.)       :      1.09000
Magnitude (Debye)      :      2.77056

Rotational constants in cm-1:     0.283442     0.067890     0.054771
Rotational constants in MHz :  8497.376666  2035.291030  1641.999454

                             ****ORCA TERMINATED NORMALLY****
TOTAL RUN TIME: 0 days 0 hours 2 minutes 32 seconds 883 msec
