                         Program Version 4.2.0 -  RELEASE  -
|  1> # ORCA input file
|  2> # SCF done        -38.610492618844          0.000775595348
|  3> ! B3LYP/G D3BJ Opt RIJCOSX def2-SVP def2/J
|  4> * xyz 0 1
|  5>    C       -1.38014         1.10920         0.00253
|  6>    C       -2.24995         0.05845         0.00474
|  7>    S       -1.48298        -1.48771         0.00604
|  8>    C        0.05423        -0.72693         0.00330
|  9>    C       -0.04881         0.66135         0.00163
| 10>    C        1.29660         1.24451        -0.00090
| 11>    O        1.62324         2.40567        -0.00199
| 12>    C        2.23003         0.05995        -0.00206
| 13>    C        1.41713        -1.16544         0.00235
| 14>    C        1.84376        -2.46342         0.00597
| 15>    C        0.91882        -3.53114         0.01000
| 16>    N        0.17330        -4.40252         0.01379
| 17>    C        3.19406        -2.86849         0.00623
| 18>    N        4.27652        -3.24846         0.00791
| 19>    C        3.55500         0.19830        -0.00773
| 20>    H       -1.67529         2.14203         0.00165
| 21>    H       -3.32198         0.09825         0.00588
| 22>    H        3.97200         1.19288        -0.01085
| 23>    H        4.24136        -0.63031        -0.00972
| 24> *
| 25>
| 26>                          ****END OF INPUT****
 Total Charge           Charge          ....    0
 Multiplicity           Mult            ....    1
 Number of Electrons    NEL             ....  108
Dispersion correction           -0.050094223
FINAL SINGLE POINT ENERGY     -1003.905301107119
Dispersion correction            ... done
Dispersion correction           -0.049798166
FINAL SINGLE POINT ENERGY     -1003.909070641424
Dispersion correction            ... done
Dispersion correction           -0.049776372
FINAL SINGLE POINT ENERGY     -1003.909257836665
Dispersion correction            ... done
FINAL SINGLE POINT ENERGY     -1003.909351007169
FINAL SINGLE POINT ENERGY     -1003.909392822654
FINAL SINGLE POINT ENERGY     -1003.909418371524
FINAL SINGLE POINT ENERGY     -1003.909422806102
Dispersion correction            ... done
Dispersion correction           -0.049834205
FINAL SINGLE POINT ENERGY     -1003.909426574999
Dispersion correction            ... done
Dispersion correction           -0.049839155
FINAL SINGLE POINT ENERGY     -1003.909429959316
Dispersion correction            ... done
                    ***********************HURRAY********************

CARTESIAN COORDINATES (ANGSTROEM)
---------------------------------
  C     -1.389017    1.123881    0.002353
  C     -2.278041    0.071975    0.005297
  S     -1.511850   -1.489184    0.007944
  C      0.045226   -0.739626    0.003470
  C     -0.054628    0.651398    0.000941
  C      1.306740    1.233829   -0.003015
  O      1.632954    2.398988   -0.005483
  C      2.248326    0.039427   -0.002100
  C      1.424011   -1.193240    0.002207
  C      1.847314   -2.503413    0.005410
  C      0.897872   -3.572797    0.010417
  N      0.109177   -4.426121    0.014862
  C      3.226675   -2.877632    0.004083
  N      4.346515   -3.187604    0.003731
  C      3.579221    0.204679   -0.005283
  H     -1.679827    2.173908    0.000788
  H     -3.366883    0.125740    0.006744
  H      3.960051    1.230574   -0.008445
  H      4.293064   -0.618611   -0.005151

 Multiplicity           Mult            ....    1
 Number of Electrons    NEL             ....  108
 Basis Dimension        Dim             ....  234

ORBITAL ENERGIES
----------------

  NO   OCC          E(Eh)            E(eV)
   0   2.0000     -88.925427     -2419.7839
   1   2.0000     -19.154092      -521.2093
   2   2.0000     -14.356292      -390.6546
   3   2.0000     -14.355446      -390.6316
   4   2.0000     -10.305392      -280.4240
   5   2.0000     -10.288267      -279.9580
   6   2.0000     -10.284504      -279.8556
   7   2.0000     -10.267179      -279.3841
   8   2.0000     -10.261400      -279.2269
   9   2.0000     -10.257749      -279.1275
  10   2.0000     -10.257102      -279.1099
  11   2.0000     -10.241129      -278.6753
  12   2.0000     -10.239953      -278.6433
  13   2.0000     -10.239035      -278.6183
  14   2.0000     -10.238146      -278.5941
  15   2.0000      -8.019230      -218.2143
  16   2.0000      -5.987426      -162.9261
  17   2.0000      -5.983016      -162.8061
  18   2.0000      -5.980692      -162.7429
  19   2.0000      -1.059410       -28.8280
  20   2.0000      -0.946937       -25.7675
  21   2.0000      -0.929441       -25.2914
  22   2.0000      -0.919695       -25.0262
  23   2.0000      -0.881510       -23.9871
  24   2.0000      -0.827939       -22.5294
  25   2.0000      -0.787342       -21.4247
  26   2.0000      -0.779201       -21.2031
  27   2.0000      -0.700270       -19.0553
  28   2.0000      -0.675688       -18.3864
  29   2.0000      -0.625267       -17.0144
  30   2.0000      -0.601728       -16.3739
  31   2.0000      -0.584966       -15.9177
  32   2.0000      -0.556156       -15.1338
  33   2.0000      -0.534910       -14.5556
  34   2.0000      -0.491204       -13.3663
  35   2.0000      -0.485898       -13.2220
  36   2.0000      -0.474370       -12.9083
  37   2.0000      -0.464266       -12.6333
  38   2.0000      -0.446099       -12.1390
  39   2.0000      -0.431966       -11.7544
  40   2.0000      -0.425616       -11.5816
  41   2.0000      -0.417978       -11.3738
  42   2.0000      -0.411253       -11.1908
  43   2.0000      -0.399934       -10.8827
  44   2.0000      -0.389621       -10.6021
  45   2.0000      -0.384395       -10.4599
  46   2.0000      -0.369839       -10.0638
  47   2.0000      -0.366931        -9.9847
  48   2.0000      -0.360765        -9.8169
  49   2.0000      -0.357534        -9.7290
  50   2.0000      -0.301688        -8.2094
  51   2.0000      -0.299824        -8.1586
  52   2.0000      -0.285812        -7.7773
  53   2.0000      -0.267865        -7.2890
  54   0.0000      -0.132568        -3.6074
  55   0.0000      -0.097830        -2.6621
  56   0.0000      -0.035136        -0.9561
  57   0.0000      -0.024803        -0.6749
  58   0.0000       0.004287         0.1167

MULLIKEN ATOMIC CHARGES
-----------------------
   0 C :    0.025568
   1 C :   -0.058334
   2 S :    0.218062
   3 C :   -0.147221
   4 C :    0.019473
   5 C :    0.158747
   6 O :   -0.139751
   7 C :   -0.132386
   8 C :    0.221567
   9 C :   -0.284025
  10 C :   -0.160137
  11 N :    0.123310
  12 C :   -0.151886
  13 N :    0.117154
  14 C :    0.009810
  15 H :    0.012873
  16 H :    0.055349
  17 H :    0.053207
  18 H :    0.058620
Sum of atomic charges:   -0.0000000

LOEWDIN ATOMIC CHARGES
----------------------
   0 C :   -0.031988
   1 C :   -0.147036
   2 S :    0.504379
   3 C :   -0.168085
   4 C :   -0.066113
   5 C :    0.080002
   6 O :   -0.126954
   7 C :   -0.067429
   8 C :    0.048704
   9 C :   -0.122834
  10 C :   -0.028158
  11 N :   -0.043866
  12 C :   -0.013669
  13 N :   -0.046244
  14 C :    0.060481
  15 H :    0.045914
  16 H :    0.036127
  17 H :    0.045224
  18 H :    0.041548

  Mayer bond orders larger than 0.100000
B(  0-C ,  1-C ) :   1.5171 B(  0-C ,  4-C ) :   1.2711 B(  0-C , 15-H ) :   1.0025
B(  1-C ,  2-S ) :   1.1615 B(  1-C , 16-H ) :   0.9639 B(  2-S ,  3-C ) :   1.1423
B(  3-C ,  4-C ) :   1.3956 B(  3-C ,  8-C ) :   1.1352 B(  4-C ,  5-C ) :   0.9518
B(  5-C ,  6-O ) :   2.2275 B(  5-C ,  7-C ) :   0.9069 B(  7-C ,  8-C ) :   1.0047
B(  7-C , 14-C ) :   1.9402 B(  8-C ,  9-C ) :   1.6271 B(  9-C , 10-C ) :   1.1324
B(  9-C , 12-C ) :   1.1470 B( 10-C , 11-N ) :   2.9680 B( 12-C , 13-N ) :   2.9449
B( 14-C , 17-H ) :   0.9115 B( 14-C , 18-H ) :   0.9234

Dispersion correction           -0.049842117
FINAL SINGLE POINT ENERGY     -1003.909432072609

DIPOLE MOMENT
-------------
                                X             Y             Z
Electronic contribution:     -1.34489      -5.17823       0.01551
Nuclear contribution   :      0.03240       6.37062      -0.01839
                        -----------------------------------------
Total Dipole Moment    :     -1.31249       1.19239      -0.00287
                        -----------------------------------------
Magnitude (a.u.)       :      1.77325
Magnitude (Debye)      :      4.50725

Rotational constants in cm-1:     0.024984     0.018426     0.010605
Rotational constants in MHz :   749.007116   552.410671   317.929866

                             ****ORCA TERMINATED NORMALLY****
TOTAL RUN TIME: 0 days 0 hours 13 minutes 42 seconds 433 msec
