                         Program Version 4.2.0 -  RELEASE  -
|  1> # ORCA input file
|  2> # SCF done        -26.449323643250          0.000750014391
|  3> ! B3LYP/G D3BJ Opt RIJCOSX def2-SVP def2/J
|  4> * xyz 0 1
|  5>    C        1.64908        -1.15461         0.22661
|  6>    C        0.35645        -0.73262         0.18072
|  7>    C        0.24571         0.65462        -0.13827
|  8>    O       -0.91160         1.36302        -0.26647
|  9>    C       -2.05962         0.75588         0.28469
| 10>    C       -2.28465        -0.65490        -0.23584
| 11>    S       -1.02831        -1.78103         0.46301
| 12>    C        1.46507         1.23030        -0.33322
| 13>    S        2.75287         0.11195        -0.12611
| 14>    H        2.00366        -2.14033         0.44650
| 15>    H       -2.88787         1.40608        -0.00913
| 16>    H       -1.99117         0.73776         1.38192
| 17>    H       -2.21114        -0.68238        -1.32335
| 18>    H       -3.25079        -1.03951         0.08240
| 19>    H        1.66291         2.24902        -0.59448
| 20> *
| 21>
| 22>                          ****END OF INPUT****
 Total Charge           Charge          ....    0
 Multiplicity           Mult            ....    1
 Number of Electrons    NEL             ....   82
Dispersion correction           -0.033785016
FINAL SINGLE POINT ENERGY     -1103.414771497417
Dispersion correction            ... done
Dispersion correction           -0.033638995
FINAL SINGLE POINT ENERGY     -1103.416794233282
Dispersion correction            ... done
Dispersion correction           -0.033569628
FINAL SINGLE POINT ENERGY     -1103.416916892916
Dispersion correction            ... done
FINAL SINGLE POINT ENERGY     -1103.416936244266
FINAL SINGLE POINT ENERGY     -1103.416969668413
FINAL SINGLE POINT ENERGY     -1103.416946359818
Dispersion correction            ... done
Dispersion correction           -0.033537028
FINAL SINGLE POINT ENERGY     -1103.416934075884
Dispersion correction            ... done
Dispersion correction           -0.033536069
FINAL SINGLE POINT ENERGY     -1103.416928020548
Dispersion correction            ... done
                    ***********************HURRAY********************

CARTESIAN COORDINATES (ANGSTROEM)
---------------------------------
  C      1.685238   -1.169042    0.208604
  C      0.375575   -0.759711    0.121376
  C      0.270724    0.650876   -0.164027
  O     -0.897747    1.317363   -0.361894
  C     -2.059969    0.763825    0.238318
  C     -2.324413   -0.669815   -0.202160
  S     -1.020059   -1.817225    0.374044
  C      1.496750    1.263340   -0.266978
  S      2.790260    0.139520   -0.039173
  H      2.053808   -2.172458    0.414035
  H     -2.887609    1.411770   -0.085771
  H     -1.983516    0.814494    1.340411
  H     -2.417557   -0.722740   -1.297671
  H     -3.257213   -1.037535    0.249650
  H      1.686329    2.310588   -0.489784

 Multiplicity           Mult            ....    1
 Number of Electrons    NEL             ....   82
 Basis Dimension        Dim             ....  164

ORBITAL ENERGIES
----------------

  NO   OCC          E(Eh)            E(eV)
   0   2.0000     -88.872416     -2418.3414
   1   2.0000     -88.852333     -2417.7949
   2   2.0000     -19.167078      -521.5627
   3   2.0000     -10.259509      -279.1754
   4   2.0000     -10.250991      -278.9437
   5   2.0000     -10.230190      -278.3776
   6   2.0000     -10.218498      -278.0595
   7   2.0000     -10.210780      -277.8495
   8   2.0000     -10.203568      -277.6532
   9   2.0000      -7.967257      -216.8001
  10   2.0000      -7.947395      -216.2596
  11   2.0000      -5.935477      -161.5125
  12   2.0000      -5.931517      -161.4048
  13   2.0000      -5.928303      -161.3173
  14   2.0000      -5.916694      -161.0014
  15   2.0000      -5.912992      -160.9007
  16   2.0000      -5.905782      -160.7045
  17   2.0000      -1.064497       -28.9664
  18   2.0000      -0.879327       -23.9277
  19   2.0000      -0.820094       -22.3159
  20   2.0000      -0.760882       -20.7047
  21   2.0000      -0.719592       -19.5811
  22   2.0000      -0.674375       -18.3507
  23   2.0000      -0.629490       -17.1293
  24   2.0000      -0.578546       -15.7430
  25   2.0000      -0.544788       -14.8244
  26   2.0000      -0.508715       -13.8428
  27   2.0000      -0.483682       -13.1617
  28   2.0000      -0.480213       -13.0673
  29   2.0000      -0.438133       -11.9222
  30   2.0000      -0.426278       -11.5996
  31   2.0000      -0.411012       -11.1842
  32   2.0000      -0.401427       -10.9234
  33   2.0000      -0.383928       -10.4472
  34   2.0000      -0.368929       -10.0391
  35   2.0000      -0.349344        -9.5061
  36   2.0000      -0.332178        -9.0390
  37   2.0000      -0.312131        -8.4935
  38   2.0000      -0.288918        -7.8619
  39   2.0000      -0.221733        -6.0337
  40   2.0000      -0.209202        -5.6927
  41   0.0000      -0.015284        -0.4159
  42   0.0000       0.024769         0.6740
  43   0.0000       0.045412         1.2357
  44   0.0000       0.054295         1.4774
  45   0.0000       0.069963         1.9038

MULLIKEN ATOMIC CHARGES
-----------------------
   0 C :   -0.137754
   1 C :   -0.047385
   2 C :    0.213767
   3 O :   -0.315813
   4 C :    0.232322
   5 C :   -0.093056
   6 S :    0.003254
   7 C :   -0.156758
   8 S :    0.099448
   9 H :    0.022379
  10 H :    0.023404
  11 H :    0.022814
  12 H :    0.067086
  13 H :    0.048461
  14 H :    0.017830
Sum of atomic charges:   -0.0000000

LOEWDIN ATOMIC CHARGES
----------------------
   0 C :   -0.220458
   1 C :   -0.226071
   2 C :   -0.011265
   3 O :   -0.110947
   4 C :    0.076466
   5 C :   -0.143576
   6 S :    0.278094
   7 C :   -0.229056
   8 S :    0.428451
   9 H :    0.024387
  10 H :    0.028844
  11 H :    0.016184
  12 H :    0.027736
  13 H :    0.033596
  14 H :    0.027614

  Mayer bond orders larger than 0.100000
B(  0-C ,  1-C ) :   1.5432 B(  0-C ,  8-S ) :   1.1698 B(  0-C ,  9-H ) :   0.9672
B(  1-C ,  2-C ) :   1.2138 B(  1-C ,  6-S ) :   0.9939 B(  2-C ,  3-O ) :   1.1089
B(  2-C ,  7-C ) :   1.5575 B(  3-O ,  4-C ) :   0.9687 B(  4-C ,  5-C ) :   1.0531
B(  4-C , 10-H ) :   0.9462 B(  4-C , 11-H ) :   0.9431 B(  5-C ,  6-S ) :   1.0095
B(  5-C , 12-H ) :   0.9382 B(  5-C , 13-H ) :   0.9416 B(  7-C ,  8-S ) :   1.1387
B(  7-C , 14-H ) :   0.9623

Dispersion correction           -0.033536432
FINAL SINGLE POINT ENERGY     -1103.416928213217

DIPOLE MOMENT
-------------
                                X             Y             Z
Electronic contribution:      6.78963      -1.67248       0.11544
Nuclear contribution   :     -7.46799       1.73438      -0.04402
                        -----------------------------------------
Total Dipole Moment    :     -0.67836       0.06190       0.07142
                        -----------------------------------------
Magnitude (a.u.)       :      0.68492
Magnitude (Debye)      :      1.74092

Rotational constants in cm-1:     0.081917     0.032181     0.023582
Rotational constants in MHz :  2455.820795   964.758528   706.955630

                             ****ORCA TERMINATED NORMALLY****
TOTAL RUN TIME: 0 days 0 hours 5 minutes 39 seconds 746 msec
