                         Program Version 4.2.0 -  RELEASE  -
|  1> # ORCA input file
|  2> # SCF done        -41.483026254856          0.000354661982
|  3> ! B3LYP/G D3BJ Opt RIJCOSX def2-SVP def2/J
|  4> * xyz 0 1
|  5>    C       -2.25637        -0.02974        -0.00089
|  6>    C       -1.42960        -1.10755         0.01016
|  7>    C       -0.07905        -0.70761         0.00753
|  8>    C        0.09484         0.67675        -0.00569
|  9>    S       -1.42982         1.49016        -0.01449
| 10>    C        1.43459         1.08287        -0.00977
| 11>    C        2.27789        -0.00029         0.00065
| 12>    S        1.43602        -1.53226         0.01608
| 13>    C        3.70349         0.03826        -0.00265
| 14>    N        4.44462         1.10717        -0.02252
| 15>    C        5.73654         0.65155        -0.01944
| 16>    C        5.70403        -0.72241         0.00351
| 17>    O        4.42526        -1.11228         0.01413
| 18>    C        6.88109         1.55166        -0.04003
| 19>    O        8.03259         1.19983        -0.03869
| 20>    H       -3.32838        -0.02871        -0.00201
| 21>    H       -1.76286        -2.12834         0.01941
| 22>    H        1.78775         2.09609        -0.01974
| 23>    H        6.47501        -1.46477         0.01327
| 24>    H        6.58734         2.61565        -0.05583
| 25> *
| 26>
| 27>                          ****END OF INPUT****
 Total Charge           Charge          ....    0
 Multiplicity           Mult            ....    1
 Number of Electrons    NEL             ....  120
Dispersion correction           -0.048372526
FINAL SINGLE POINT ENERGY     -1385.016128547968
Dispersion correction            ... done
Dispersion correction           -0.048351158
FINAL SINGLE POINT ENERGY     -1385.019420850583
Dispersion correction            ... done
Dispersion correction           -0.048342626
FINAL SINGLE POINT ENERGY     -1385.019633996397
Dispersion correction            ... done
FINAL SINGLE POINT ENERGY     -1385.019415315959
FINAL SINGLE POINT ENERGY     -1385.019738574344
Dispersion correction            ... done
Dispersion correction           -0.048343868
FINAL SINGLE POINT ENERGY     -1385.019740829215
Dispersion correction            ... done
Dispersion correction           -0.048343980
FINAL SINGLE POINT ENERGY     -1385.019748580447
Dispersion correction            ... done
                    ***********************HURRAY********************

CARTESIAN COORDINATES (ANGSTROEM)
---------------------------------
  C     -2.309816   -0.048900    0.011275
  C     -1.465042   -1.130422    0.013885
  C     -0.101674   -0.713058    0.001339
  C      0.062855    0.678981   -0.011090
  S     -1.482025    1.484805   -0.005734
  C      1.417599    1.097669   -0.021122
  C      2.275703    0.014438   -0.015071
  S      1.433624   -1.529280   -0.000047
  C      3.716795    0.083816   -0.016262
  N      4.474129    1.141289   -0.035869
  C      5.771341    0.657396   -0.021065
  C      5.733596   -0.713883    0.006459
  O      4.431423   -1.086552    0.010214
  C      6.945925    1.544787   -0.031488
  O      8.093030    1.160099   -0.015483
  H     -3.399184   -0.063326    0.018730
  H     -1.808847   -2.164258    0.024524
  H      1.778619    2.125023   -0.030103
  H      6.489514   -1.492964    0.025247
  H      6.677417    2.630370   -0.055349

 Multiplicity           Mult            ....    1
 Number of Electrons    NEL             ....  120
 Basis Dimension        Dim             ....  243

ORBITAL ENERGIES
----------------

  NO   OCC          E(Eh)            E(eV)
   0   2.0000     -88.893859     -2418.9249
   1   2.0000     -88.889814     -2418.8148
   2   2.0000     -19.237956      -523.4914
   3   2.0000     -19.137274      -520.7517
   4   2.0000     -14.342060      -390.2673
   5   2.0000     -10.302448      -280.3439
   6   2.0000     -10.282346      -279.7969
   7   2.0000     -10.274912      -279.5946
   8   2.0000     -10.243043      -278.7274
   9   2.0000     -10.234100      -278.4840
  10   2.0000     -10.233500      -278.4677
  11   2.0000     -10.232806      -278.4488
  12   2.0000     -10.231637      -278.4170
  13   2.0000     -10.222086      -278.1571
  14   2.0000     -10.217878      -278.0426
  15   2.0000      -7.988120      -217.3678
  16   2.0000      -7.984480      -217.2687
  17   2.0000      -5.956468      -162.0837
  18   2.0000      -5.952932      -161.9875
  19   2.0000      -5.952750      -161.9826
  20   2.0000      -5.948897      -161.8777
  21   2.0000      -5.948621      -161.8702
  22   2.0000      -5.945101      -161.7744
  23   2.0000      -1.151559       -31.3355
  24   2.0000      -1.039926       -28.2978
  25   2.0000      -0.938629       -25.5414
  26   2.0000      -0.919268       -25.0145
  27   2.0000      -0.861899       -23.4535
  28   2.0000      -0.800929       -21.7944
  29   2.0000      -0.774586       -21.0776
  30   2.0000      -0.725495       -19.7417
  31   2.0000      -0.719608       -19.5815
  32   2.0000      -0.685339       -18.6490
  33   2.0000      -0.642734       -17.4897
  34   2.0000      -0.614144       -16.7117
  35   2.0000      -0.578319       -15.7369
  36   2.0000      -0.555193       -15.1076
  37   2.0000      -0.548432       -14.9236
  38   2.0000      -0.526360       -14.3230
  39   2.0000      -0.505601       -13.7581
  40   2.0000      -0.502884       -13.6842
  41   2.0000      -0.490274       -13.3410
  42   2.0000      -0.481409       -13.0998
  43   2.0000      -0.439688       -11.9645
  44   2.0000      -0.430618       -11.7177
  45   2.0000      -0.428360       -11.6563
  46   2.0000      -0.420807       -11.4507
  47   2.0000      -0.412865       -11.2346
  48   2.0000      -0.407871       -11.0987
  49   2.0000      -0.402211       -10.9447
  50   2.0000      -0.381211       -10.3733
  51   2.0000      -0.365884        -9.9562
  52   2.0000      -0.354084        -9.6351
  53   2.0000      -0.341037        -9.2801
  54   2.0000      -0.313514        -8.5311
  55   2.0000      -0.303662        -8.2631
  56   2.0000      -0.283656        -7.7187
  57   2.0000      -0.266659        -7.2562
  58   2.0000      -0.247555        -6.7363
  59   2.0000      -0.224700        -6.1144
  60   0.0000      -0.075132        -2.0445
  61   0.0000      -0.065427        -1.7804
  62   0.0000      -0.007862        -0.2139
  63   0.0000       0.012601         0.3429
  64   0.0000       0.026807         0.7294

MULLIKEN ATOMIC CHARGES
-----------------------
   0 C :   -0.091484
   1 C :    0.032572
   2 C :   -0.043499
   3 C :   -0.043755
   4 S :    0.130855
   5 C :   -0.013278
   6 C :   -0.122744
   7 S :    0.163944
   8 C :    0.130576
   9 N :   -0.101826
  10 C :   -0.029213
  11 C :    0.133838
  12 O :   -0.200968
  13 C :    0.173902
  14 O :   -0.188338
  15 H :    0.041502
  16 H :   -0.004712
  17 H :    0.005124
  18 H :    0.039953
  19 H :   -0.012450
Sum of atomic charges:    0.0000000

LOEWDIN ATOMIC CHARGES
----------------------
   0 C :   -0.171066
   1 C :   -0.071890
   2 C :   -0.198027
   3 C :   -0.204980
   4 S :    0.419105
   5 C :   -0.032646
   6 C :   -0.196803
   7 S :    0.432276
   8 C :    0.037677
   9 N :   -0.107943
  10 C :   -0.096584
  11 C :    0.074477
  12 O :    0.002400
  13 C :    0.105616
  14 O :   -0.138181
  15 H :    0.029624
  16 H :    0.035565
  17 H :    0.042839
  18 H :    0.038853
  19 H :   -0.000313

  Mayer bond orders larger than 0.100000
B(  0-C ,  1-C ) :   1.5690 B(  0-C ,  4-S ) :   1.1478 B(  0-C , 15-H ) :   0.9640
B(  1-C ,  2-C ) :   1.2504 B(  1-C , 16-H ) :   0.9984 B(  2-C ,  3-C ) :   1.4152
B(  2-C ,  7-S ) :   1.0767 B(  3-C ,  4-S ) :   1.0771 B(  3-C ,  5-C ) :   1.2368
B(  5-C ,  6-C ) :   1.5191 B(  5-C , 17-H ) :   1.0086 B(  6-C ,  7-S ) :   1.0946
B(  6-C ,  8-C ) :   1.0796 B(  8-C ,  9-N ) :   1.7436 B(  8-C , 12-O ) :   1.1722
B(  9-N , 10-C ) :   1.2775 B( 10-C , 11-C ) :   1.5001 B( 10-C , 13-C ) :   0.9745
B( 11-C , 12-O ) :   1.1370 B( 11-C , 18-H ) :   0.9872 B( 13-C , 14-O ) :   2.1719
B( 13-C , 19-H ) :   0.9412

Dispersion correction           -0.048344037
FINAL SINGLE POINT ENERGY     -1385.019747392191

DIPOLE MOMENT
-------------
                                X             Y             Z
Electronic contribution:     -0.22031      -0.86883      -0.00796
Nuclear contribution   :     -1.29036       0.29609       0.01946
                        -----------------------------------------
Total Dipole Moment    :     -1.51067      -0.57274       0.01149
                        -----------------------------------------
Magnitude (a.u.)       :      1.61564
Magnitude (Debye)      :      4.10662

Rotational constants in cm-1:     0.057465     0.007067     0.006293
Rotational constants in MHz :  1722.745765   211.865270   188.665779

                             ****ORCA TERMINATED NORMALLY****
TOTAL RUN TIME: 0 days 0 hours 10 minutes 56 seconds 989 msec
