                         Program Version 4.2.0 -  RELEASE  -
|  1> # ORCA input file
|  2> # SCF done        -26.418400624076          0.000614127909
|  3> ! B3LYP/G D3BJ Opt RIJCOSX def2-SVP def2/J
|  4> * xyz 0 1
|  5>    C       -0.79974        -0.98252        -0.20149
|  6>    C       -1.34571        -2.01981         0.79120
|  7>    C       -1.31471         0.38901         0.10447
|  8>    S       -2.88489         0.79662         0.11728
|  9>    S       -0.03516         1.52236         0.46499
| 10>    C        1.25146         0.35103         0.20498
| 11>    C        0.71351        -0.98099        -0.17163
| 12>    O        1.40985        -1.93353        -0.40509
| 13>    C        2.55301         0.60769         0.32389
| 14>    H       -1.12902        -1.27228        -1.20706
| 15>    H       -1.05047        -1.76336         1.80662
| 16>    H       -0.94477        -2.99921         0.54420
| 17>    H       -2.43055        -2.04559         0.73658
| 18>    H        2.93003         1.57638         0.59896
| 19>    H        3.26349        -0.18153         0.14164
| 20> *
| 21>
| 22>                          ****END OF INPUT****
 Total Charge           Charge          ....    0
 Multiplicity           Mult            ....    1
 Number of Electrons    NEL             ....   82
Dispersion correction           -0.034465225
FINAL SINGLE POINT ENERGY     -1103.417172346242
Dispersion correction            ... done
Dispersion correction           -0.034195308
FINAL SINGLE POINT ENERGY     -1103.418955906246
Dispersion correction            ... done
Dispersion correction           -0.034086749
FINAL SINGLE POINT ENERGY     -1103.419085911338
Dispersion correction            ... done
FINAL SINGLE POINT ENERGY     -1103.419156372479
FINAL SINGLE POINT ENERGY     -1103.419177950913
FINAL SINGLE POINT ENERGY     -1103.419187276525
FINAL SINGLE POINT ENERGY     -1103.419216088310
FINAL SINGLE POINT ENERGY     -1103.419254589685
FINAL SINGLE POINT ENERGY     -1103.419351619233
FINAL SINGLE POINT ENERGY     -1103.419407529688
FINAL SINGLE POINT ENERGY     -1103.419432164172
FINAL SINGLE POINT ENERGY     -1103.419432634128
FINAL SINGLE POINT ENERGY     -1103.419532050237
FINAL SINGLE POINT ENERGY     -1103.419552763225
Dispersion correction            ... done
Dispersion correction           -0.033969015
FINAL SINGLE POINT ENERGY     -1103.419574492108
Dispersion correction            ... done
Dispersion correction           -0.033968161
FINAL SINGLE POINT ENERGY     -1103.419572556415
Dispersion correction            ... done
                    ***********************HURRAY********************

CARTESIAN COORDINATES (ANGSTROEM)
---------------------------------
  C     -0.764629   -0.973867   -0.056154
  C     -1.472901   -2.126426    0.646980
  C     -1.304121    0.408443    0.257700
  S     -2.870740    0.808417    0.457307
  S     -0.004900    1.599786    0.354704
  C      1.304755    0.418072    0.193294
  C      0.749380   -0.977760    0.143410
  O      1.426072   -1.973418    0.227919
  C      2.616801    0.678719    0.124544
  H     -0.894947   -1.095017   -1.152120
  H     -1.424513   -1.999793    1.739122
  H     -0.975835   -3.069084    0.378971
  H     -2.528429   -2.161183    0.347989
  H      3.022806    1.692113    0.141794
  H      3.307530   -0.164733    0.044080

 Multiplicity           Mult            ....    1
 Number of Electrons    NEL             ....   82
 Basis Dimension        Dim             ....  164

ORBITAL ENERGIES
----------------

  NO   OCC          E(Eh)            E(eV)
   0   2.0000     -88.892566     -2418.8897
   1   2.0000     -88.829158     -2417.1643
   2   2.0000     -19.153098      -521.1823
   3   2.0000     -10.301522      -280.3187
   4   2.0000     -10.283936      -279.8401
   5   2.0000     -10.245228      -278.7868
   6   2.0000     -10.231634      -278.4169
   7   2.0000     -10.226228      -278.2698
   8   2.0000     -10.198356      -277.5114
   9   2.0000      -7.988265      -217.3717
  10   2.0000      -7.925167      -215.6548
  11   2.0000      -5.956448      -162.0832
  12   2.0000      -5.952674      -161.9805
  13   2.0000      -5.948729      -161.8731
  14   2.0000      -5.893058      -160.3583
  15   2.0000      -5.891938      -160.3278
  16   2.0000      -5.883876      -160.1084
  17   2.0000      -1.061076       -28.8733
  18   2.0000      -0.892961       -24.2987
  19   2.0000      -0.814775       -22.1712
  20   2.0000      -0.774722       -21.0813
  21   2.0000      -0.734245       -19.9798
  22   2.0000      -0.682354       -18.5678
  23   2.0000      -0.623844       -16.9757
  24   2.0000      -0.557036       -15.1577
  25   2.0000      -0.540221       -14.7002
  26   2.0000      -0.503773       -13.7084
  27   2.0000      -0.476234       -12.9590
  28   2.0000      -0.462743       -12.5919
  29   2.0000      -0.454064       -12.3557
  30   2.0000      -0.424169       -11.5422
  31   2.0000      -0.403932       -10.9916
  32   2.0000      -0.398202       -10.8356
  33   2.0000      -0.391648       -10.6573
  34   2.0000      -0.381830       -10.3901
  35   2.0000      -0.365404        -9.9432
  36   2.0000      -0.360587        -9.8121
  37   2.0000      -0.312502        -8.5036
  38   2.0000      -0.281663        -7.6644
  39   2.0000      -0.248457        -6.7609
  40   2.0000      -0.232987        -6.3399
  41   0.0000      -0.088419        -2.4060
  42   0.0000      -0.080335        -2.1860
  43   0.0000       0.009846         0.2679
  44   0.0000       0.035564         0.9677
  45   0.0000       0.067556         1.8383

MULLIKEN ATOMIC CHARGES
-----------------------
   0 C :   -0.000266
   1 C :    0.066316
   2 C :   -0.190053
   3 S :   -0.092829
   4 S :    0.161350
   5 C :   -0.153876
   6 C :    0.106167
   7 O :   -0.156788
   8 C :    0.007304
   9 H :    0.076561
  10 H :    0.025189
  11 H :    0.032142
  12 H :    0.028716
  13 H :    0.035503
  14 H :    0.054565
Sum of atomic charges:   -0.0000000

LOEWDIN ATOMIC CHARGES
----------------------
   0 C :   -0.093878
   1 C :   -0.033010
   2 C :   -0.284202
   3 S :    0.035452
   4 S :    0.394564
   5 C :   -0.206653
   6 C :    0.075977
   7 O :   -0.121709
   8 C :   -0.010448
   9 H :    0.072758
  10 H :    0.031292
  11 H :    0.032895
  12 H :    0.028796
  13 H :    0.034589
  14 H :    0.043577

  Mayer bond orders larger than 0.100000
B(  0-C ,  1-C ) :   1.0934 B(  0-C ,  2-C ) :   0.9233 B(  0-C ,  6-C ) :   0.9167
B(  0-C ,  9-H ) :   0.8646 B(  1-C , 10-H ) :   0.9720 B(  1-C , 11-H ) :   0.9540
B(  1-C , 12-H ) :   0.9528 B(  2-C ,  3-S ) :   1.7914 B(  2-C ,  4-S ) :   1.1076
B(  3-S ,  4-S ) :   0.1561 B(  4-S ,  5-C ) :   0.9954 B(  5-C ,  6-C ) :   0.9306
B(  5-C ,  8-C ) :   1.9327 B(  6-C ,  7-O ) :   2.2060 B(  8-C , 13-H ) :   0.9385
B(  8-C , 14-H ) :   0.9312

Dispersion correction           -0.033969613
FINAL SINGLE POINT ENERGY     -1103.419574903188

DIPOLE MOMENT
-------------
                                X             Y             Z
Electronic contribution:     -1.96583       6.94232      -0.00948
Nuclear contribution   :      2.53193      -6.75452      -0.26951
                        -----------------------------------------
Total Dipole Moment    :      0.56610       0.18780      -0.27899
                        -----------------------------------------
Magnitude (a.u.)       :      0.65846
Magnitude (Debye)      :      1.67367

Rotational constants in cm-1:     0.061689     0.034546     0.022573
Rotational constants in MHz :  1849.379612  1035.676638   676.706936

                             ****ORCA TERMINATED NORMALLY****
TOTAL RUN TIME: 0 days 0 hours 11 minutes 23 seconds 489 msec
