                         Program Version 4.2.0 -  RELEASE  -
|  1> # ORCA input file
|  2> # SCF done        -25.624218190424          0.000408197825
|  3> ! B3LYP/G D3BJ Opt RIJCOSX def2-SVP def2/J
|  4> * xyz 0 1
|  5>    C        1.67527        -1.20151         0.27947
|  6>    C        0.41236        -0.70549         0.15856
|  7>    C        0.41361         0.68246        -0.16457
|  8>    S       -0.98654         1.71505        -0.43863
|  9>    C       -2.29792         0.69081         0.30902
| 10>    C       -2.31051        -0.70327        -0.27735
| 11>    S       -0.98714        -1.73882         0.43302
| 12>    C        1.67726         1.17712        -0.28382
| 13>    S        2.88077        -0.01274        -0.00049
| 14>    H        1.95080        -2.20694         0.52335
| 15>    H       -3.22337         1.21900         0.08003
| 16>    H       -2.15214         0.66535         1.38964
| 17>    H       -2.19422        -0.67825        -1.36125
| 18>    H       -3.23298        -1.22565        -0.02266
| 19>    H        1.95423         2.18222        -0.52752
| 20> *
| 21>
| 22>                          ****END OF INPUT****
 Total Charge           Charge          ....    0
 Multiplicity           Mult            ....    1
 Number of Electrons    NEL             ....   90
Dispersion correction           -0.039962179
FINAL SINGLE POINT ENERGY     -1426.345592239240
Dispersion correction            ... done
Dispersion correction           -0.039743304
FINAL SINGLE POINT ENERGY     -1426.348040595033
Dispersion correction            ... done
Dispersion correction           -0.039634867
FINAL SINGLE POINT ENERGY     -1426.348309854707
Dispersion correction            ... done
FINAL SINGLE POINT ENERGY     -1426.348288094619
FINAL SINGLE POINT ENERGY     -1426.348216732427
Dispersion correction            ... done
Dispersion correction           -0.039558906
FINAL SINGLE POINT ENERGY     -1426.348289658692
Dispersion correction            ... done
Dispersion correction           -0.039560654
FINAL SINGLE POINT ENERGY     -1426.348292191826
Dispersion correction            ... done
                    ***********************HURRAY********************

CARTESIAN COORDINATES (ANGSTROEM)
---------------------------------
  C      1.718193   -1.233376    0.202395
  C      0.442053   -0.722590    0.126700
  C      0.443424    0.699284   -0.128941
  S     -0.969006    1.714464   -0.453996
  C     -2.322998    0.716484    0.257569
  C     -2.332847   -0.728241   -0.225911
  S     -0.970725   -1.736459    0.456109
  C      1.720317    1.207540   -0.208315
  S      2.924080   -0.014296   -0.005452
  H      2.004461   -2.265729    0.395804
  H     -3.229915    1.236830   -0.087903
  H     -2.292973    0.762130    1.356795
  H     -2.327078   -0.773224   -1.325468
  H     -3.235152   -1.243057    0.139305
  H      2.007645    2.239579   -0.401892

 Multiplicity           Mult            ....    1
 Number of Electrons    NEL             ....   90
 Basis Dimension        Dim             ....  168

ORBITAL ENERGIES
----------------

  NO   OCC          E(Eh)            E(eV)
   0   2.0000     -88.876337     -2418.4481
   1   2.0000     -88.850881     -2417.7554
   2   2.0000     -88.850848     -2417.7545
   3   2.0000     -10.232466      -278.4396
   4   2.0000     -10.232374      -278.4370
   5   2.0000     -10.223660      -278.1999
   6   2.0000     -10.223460      -278.1945
   7   2.0000     -10.213210      -277.9156
   8   2.0000     -10.213118      -277.9131
   9   2.0000      -7.971369      -216.9120
  10   2.0000      -7.945910      -216.2192
  11   2.0000      -7.945882      -216.2184
  12   2.0000      -5.939519      -161.6225
  13   2.0000      -5.935520      -161.5137
  14   2.0000      -5.932566      -161.4333
  15   2.0000      -5.915255      -160.9623
  16   2.0000      -5.915227      -160.9615
  17   2.0000      -5.911389      -160.8571
  18   2.0000      -5.911372      -160.8566
  19   2.0000      -5.904370      -160.6661
  20   2.0000      -5.904350      -160.6655
  21   2.0000      -0.891838       -24.2681
  22   2.0000      -0.834220       -22.7003
  23   2.0000      -0.784666       -21.3518
  24   2.0000      -0.751769       -20.4567
  25   2.0000      -0.708011       -19.2660
  26   2.0000      -0.654081       -17.7984
  27   2.0000      -0.608881       -16.5685
  28   2.0000      -0.573240       -15.5987
  29   2.0000      -0.521469       -14.1899
  30   2.0000      -0.489112       -13.3094
  31   2.0000      -0.470287       -12.7972
  32   2.0000      -0.453704       -12.3459
  33   2.0000      -0.428291       -11.6544
  34   2.0000      -0.410022       -11.1573
  35   2.0000      -0.406097       -11.0505
  36   2.0000      -0.400538       -10.8992
  37   2.0000      -0.363313        -9.8863
  38   2.0000      -0.352482        -9.5915
  39   2.0000      -0.342970        -9.3327
  40   2.0000      -0.319869        -8.7041
  41   2.0000      -0.294343        -8.0095
  42   2.0000      -0.283345        -7.7102
  43   2.0000      -0.215391        -5.8611
  44   2.0000      -0.208283        -5.6677
  45   0.0000      -0.021271        -0.5788
  46   0.0000       0.017358         0.4723
  47   0.0000       0.029189         0.7943
  48   0.0000       0.047408         1.2900
  49   0.0000       0.054769         1.4903

MULLIKEN ATOMIC CHARGES
-----------------------
   0 C :   -0.125100
   1 C :   -0.012336
   2 C :   -0.013984
   3 S :   -0.004680
   4 C :   -0.051240
   5 C :   -0.048631
   6 S :   -0.005349
   7 C :   -0.124686
   8 S :    0.108038
   9 H :    0.023665
  10 H :    0.049707
  11 H :    0.065911
  12 H :    0.065583
  13 H :    0.049459
  14 H :    0.023643
Sum of atomic charges:   -0.0000000

LOEWDIN ATOMIC CHARGES
----------------------
   0 C :   -0.219767
   1 C :   -0.215943
   2 C :   -0.216348
   3 S :    0.281007
   4 C :   -0.144210
   5 C :   -0.144068
   6 S :    0.280842
   7 C :   -0.219552
   8 S :    0.433882
   9 H :    0.024985
  10 H :    0.031696
  11 H :    0.025508
  12 H :    0.025317
  13 H :    0.031617
  14 H :    0.025035

  Mayer bond orders larger than 0.100000
B(  0-C ,  1-C ) :   1.5687 B(  0-C ,  8-S ) :   1.1652 B(  0-C ,  9-H ) :   0.9638
B(  1-C ,  2-C ) :   1.2458 B(  1-C ,  6-S ) :   0.9995 B(  2-C ,  3-S ) :   0.9994
B(  2-C ,  7-C ) :   1.5686 B(  3-S ,  4-C ) :   1.0192 B(  4-C ,  5-C ) :   1.0231
B(  4-C , 10-H ) :   0.9410 B(  4-C , 11-H ) :   0.9437 B(  5-C ,  6-S ) :   1.0189
B(  5-C , 12-H ) :   0.9436 B(  5-C , 13-H ) :   0.9407 B(  7-C ,  8-S ) :   1.1655
B(  7-C , 14-H ) :   0.9638

Dispersion correction           -0.039559973
FINAL SINGLE POINT ENERGY     -1426.348291416040

DIPOLE MOMENT
-------------
                                X             Y             Z
Electronic contribution:      6.76699      -0.01797      -0.05588
Nuclear contribution   :     -7.31427       0.02192       0.06397
                        -----------------------------------------
Total Dipole Moment    :     -0.54728       0.00395       0.00809
                        -----------------------------------------
Magnitude (a.u.)       :      0.54735
Magnitude (Debye)      :      1.39126

Rotational constants in cm-1:     0.058956     0.028745     0.019711
Rotational constants in MHz :  1767.446751   861.763321   590.921003

                             ****ORCA TERMINATED NORMALLY****
TOTAL RUN TIME: 0 days 0 hours 7 minutes 52 seconds 804 msec
