                         Program Version 4.2.0 -  RELEASE  -
|  1> # ORCA input file
|  2> # SCF done        -33.819111879590          0.000989472868
|  3> ! B3LYP/G D3BJ Opt RIJCOSX def2-SVP def2/J
|  4> * xyz 0 1
|  5>    C       -0.97554        -0.17273        -0.63430
|  6>    N       -0.29074         0.91794        -0.58716
|  7>    C        0.78722         0.66373         0.21599
|  8>    C        0.75767        -0.62340         0.64233
|  9>    N       -0.39638        -1.17599         0.11680
| 10>    C       -0.74668        -2.52023         0.23069
| 11>    O        0.05605        -3.38629         0.43920
| 12>    N       -2.10907        -2.77167         0.08451
| 13>    C       -2.64232        -4.00580        -0.24268
| 14>    C       -3.98880        -3.86763        -0.16477
| 15>    N       -4.30895        -2.59866         0.23723
| 16>    C       -3.19372        -1.96859         0.37730
| 17>    H       -1.86256        -0.31601        -1.21788
| 18>    H        1.50761         1.42851         0.42240
| 19>    H        1.40912        -1.19828         1.26620
| 20>    H       -2.00946        -4.82663        -0.50702
| 21>    H       -4.75618        -4.58900        -0.36173
| 22>    H       -3.09897        -0.95902         0.72229
| 23> *
| 24>
| 25>                          ****END OF INPUT****
 Total Charge           Charge          ....    0
 Multiplicity           Mult            ....    1
 Number of Electrons    NEL             ....   84
Dispersion correction           -0.034323046
FINAL SINGLE POINT ENERGY      -564.189107933450
Dispersion correction            ... done
Dispersion correction           -0.034382616
FINAL SINGLE POINT ENERGY      -564.192718183771
Dispersion correction            ... done
Dispersion correction           -0.034403878
FINAL SINGLE POINT ENERGY      -564.192798649995
Dispersion correction            ... done
FINAL SINGLE POINT ENERGY      -564.192739219291
Dispersion correction            ... done
Dispersion correction           -0.034363901
FINAL SINGLE POINT ENERGY      -564.192729871746
Dispersion correction            ... done
Dispersion correction           -0.034366601
FINAL SINGLE POINT ENERGY      -564.192719784929
Dispersion correction            ... done
                    ***********************HURRAY********************

CARTESIAN COORDINATES (ANGSTROEM)
---------------------------------
  C     -0.977650   -0.092150   -0.622499
  N     -0.265692    0.992448   -0.530226
  C      0.827973    0.671687    0.255824
  C      0.783523   -0.642313    0.631310
  N     -0.397629   -1.145328    0.087039
  C     -0.762453   -2.501589    0.179933
  O      0.046198   -3.370135    0.373746
  N     -2.137353   -2.766734    0.044409
  C     -2.641728   -4.045207   -0.197226
  C     -4.000477   -3.923546   -0.114397
  N     -4.357481   -2.621820    0.198140
  C     -3.246394   -1.953843    0.293334
  H     -1.889303   -0.218637   -1.202326
  H      1.586070    1.411341    0.507622
  H      1.440589   -1.277927    1.216753
  H     -1.974611   -4.877133   -0.399769
  H     -4.749868   -4.699576   -0.261500
  H     -3.145416   -0.909288    0.579235

 Multiplicity           Mult            ....    1
 Number of Electrons    NEL             ....   84
 Basis Dimension        Dim             ....  198

ORBITAL ENERGIES
----------------

  NO   OCC          E(Eh)            E(eV)
   0   2.0000     -19.164443      -521.4910
   1   2.0000     -14.426588      -392.5674
   2   2.0000     -14.425465      -392.5369
   3   2.0000     -14.335515      -390.0892
   4   2.0000     -14.334775      -390.0691
   5   2.0000     -10.377604      -282.3889
   6   2.0000     -10.272492      -279.5287
   7   2.0000     -10.271917      -279.5131
   8   2.0000     -10.242300      -278.7071
   9   2.0000     -10.242117      -278.7022
  10   2.0000     -10.227341      -278.3001
  11   2.0000     -10.226615      -278.2803
  12   2.0000      -1.110599       -30.2209
  13   2.0000      -1.035388       -28.1743
  14   2.0000      -1.034993       -28.1636
  15   2.0000      -0.920431       -25.0462
  16   2.0000      -0.896053       -24.3828
  17   2.0000      -0.781209       -21.2578
  18   2.0000      -0.758968       -20.6526
  19   2.0000      -0.708561       -19.2809
  20   2.0000      -0.659513       -17.9463
  21   2.0000      -0.625409       -17.0182
  22   2.0000      -0.612435       -16.6652
  23   2.0000      -0.594119       -16.1668
  24   2.0000      -0.579883       -15.7794
  25   2.0000      -0.511952       -13.9309
  26   2.0000      -0.499661       -13.5965
  27   2.0000      -0.490615       -13.3503
  28   2.0000      -0.469731       -12.7820
  29   2.0000      -0.463777       -12.6200
  30   2.0000      -0.457621       -12.4525
  31   2.0000      -0.453627       -12.3438
  32   2.0000      -0.441379       -12.0105
  33   2.0000      -0.431246       -11.7348
  34   2.0000      -0.415185       -11.2978
  35   2.0000      -0.345413        -9.3992
  36   2.0000      -0.319157        -8.6847
  37   2.0000      -0.314650        -8.5621
  38   2.0000      -0.296261        -8.0617
  39   2.0000      -0.289205        -7.8697
  40   2.0000      -0.265567        -7.2265
  41   2.0000      -0.264803        -7.2057
  42   0.0000      -0.075155        -2.0451
  43   0.0000      -0.016976        -0.4619
  44   0.0000       0.032196         0.8761
  45   0.0000       0.034022         0.9258
  46   0.0000       0.039800         1.0830

MULLIKEN ATOMIC CHARGES
-----------------------
   0 C :    0.097237
   1 N :   -0.133743
   2 C :    0.022883
   3 C :    0.081029
   4 N :   -0.210086
   5 C :    0.258957
   6 O :   -0.172388
   7 N :   -0.210936
   8 C :    0.083237
   9 C :    0.024838
  10 N :   -0.133568
  11 C :    0.097812
  12 H :    0.046526
  13 H :    0.016830
  14 H :    0.033385
  15 H :    0.032760
  16 H :    0.017433
  17 H :    0.047796
Sum of atomic charges:   -0.0000000

LOEWDIN ATOMIC CHARGES
----------------------
   0 C :    0.025860
   1 N :   -0.098947
   2 C :   -0.021893
   3 C :   -0.003109
   4 N :    0.017342
   5 C :    0.119666
   6 O :   -0.142039
   7 N :    0.016981
   8 C :   -0.002596
   9 C :   -0.020192
  10 N :   -0.098453
  11 C :    0.027968
  12 H :    0.025709
  13 H :    0.027399
  14 H :    0.036284
  15 H :    0.036348
  16 H :    0.027649
  17 H :    0.026024

  Mayer bond orders larger than 0.100000
B(  0-C ,  1-N ) :   1.7286 B(  0-C ,  4-N ) :   1.0887 B(  0-C , 12-H ) :   0.9669
B(  1-N ,  2-C ) :   1.3141 B(  2-C ,  3-C ) :   1.5656 B(  2-C , 13-H ) :   0.9923
B(  3-C ,  4-N ) :   1.1028 B(  3-C , 14-H ) :   0.9884 B(  4-N ,  5-C ) :   0.9903
B(  5-C ,  6-O ) :   2.1425 B(  5-C ,  7-N ) :   0.9988 B(  7-N ,  8-C ) :   1.0995
B(  7-N , 11-C ) :   1.0843 B(  8-C ,  9-C ) :   1.5696 B(  8-C , 15-H ) :   0.9884
B(  9-C , 10-N ) :   1.3096 B(  9-C , 16-H ) :   0.9922 B( 10-N , 11-C ) :   1.7345
B( 11-C , 17-H ) :   0.9659

Dispersion correction           -0.034361213
FINAL SINGLE POINT ENERGY      -564.192721255649

DIPOLE MOMENT
-------------
                                X             Y             Z
Electronic contribution:      0.57727      -0.62538      -0.00701
Nuclear contribution   :     -0.24217       0.21106       0.11209
                        -----------------------------------------
Total Dipole Moment    :      0.33510      -0.41432       0.10509
                        -----------------------------------------
Magnitude (a.u.)       :      0.54314
Magnitude (Debye)      :      1.38056

Rotational constants in cm-1:     0.080028     0.021707     0.017715
Rotational constants in MHz :  2399.187780   650.756350   531.073731

                             ****ORCA TERMINATED NORMALLY****
TOTAL RUN TIME: 0 days 0 hours 9 minutes 40 seconds 522 msec
