                         Program Version 4.2.0 -  RELEASE  -
|  1> # ORCA input file
|  2> # SCF done        -25.904960697428          0.000715205769
|  3> ! B3LYP/G D3BJ Opt RIJCOSX def2-SVP def2/J
|  4> * xyz 0 1
|  5>    C       -0.71872        -1.16883        -0.17354
|  6>    S       -1.46782        -2.61585        -0.11650
|  7>    S       -1.51811         0.36853        -0.46567
|  8>    C        0.01764         1.23360        -0.35246
|  9>    C        1.08819         0.28599        -0.08486
| 10>    S        2.66201         0.71159         0.08925
| 11>    N        0.62299        -0.98948        -0.00110
| 12>    C        1.47450        -2.12484         0.24801
| 13>    C        0.15251         2.55268        -0.49493
| 14>    H        2.48343        -1.76239         0.43665
| 15>    H        1.47139        -2.78820        -0.61783
| 16>    H        1.10367        -2.67890         1.11053
| 17>    H       -0.69007         3.19010        -0.68949
| 18>    H        1.12539         3.00641        -0.41154
| 19> *
| 20>
| 21>                          ****END OF INPUT****
 Total Charge           Charge          ....    0
 Multiplicity           Mult            ....    1
 Number of Electrons    NEL             ....   90
Dispersion correction           -0.037184370
FINAL SINGLE POINT ENERGY     -1442.381138813132
Dispersion correction            ... done
Dispersion correction           -0.036848488
FINAL SINGLE POINT ENERGY     -1442.384151257124
Dispersion correction            ... done
Dispersion correction           -0.036798533
FINAL SINGLE POINT ENERGY     -1442.384298143924
Dispersion correction            ... done
FINAL SINGLE POINT ENERGY     -1442.384318409861
Dispersion correction            ... done
Dispersion correction           -0.036811101
FINAL SINGLE POINT ENERGY     -1442.384326766763
Dispersion correction            ... done
Dispersion correction           -0.036819239
FINAL SINGLE POINT ENERGY     -1442.384331005454
Dispersion correction            ... done
                    ***********************HURRAY********************

CARTESIAN COORDINATES (ANGSTROEM)
---------------------------------
  C     -0.728549   -1.182430   -0.184722
  S     -1.509329   -2.622546   -0.154227
  S     -1.524607    0.367075   -0.450850
  C      0.009653    1.245948   -0.344874
  C      1.123168    0.300271   -0.078522
  S      2.702001    0.734916    0.098056
  N      0.634098   -0.993486   -0.004670
  C      1.487018   -2.145916    0.254515
  C      0.137532    2.573439   -0.495373
  H      2.505766   -1.776276    0.413838
  H      1.449229   -2.835540   -0.600310
  H      1.115061   -2.679256    1.140258
  H     -0.724090    3.211721   -0.699022
  H      1.130050    3.022489   -0.417576

 Multiplicity           Mult            ....    1
 Number of Electrons    NEL             ....   90
 Basis Dimension        Dim             ....  163

ORBITAL ENERGIES
----------------

  NO   OCC          E(Eh)            E(eV)
   0   2.0000     -88.892881     -2418.8983
   1   2.0000     -88.826526     -2417.0927
   2   2.0000     -88.824672     -2417.0422
   3   2.0000     -14.422906      -392.4672
   4   2.0000     -10.310354      -280.5590
   5   2.0000     -10.302869      -280.3553
   6   2.0000     -10.256007      -279.0801
   7   2.0000     -10.238999      -278.6173
   8   2.0000     -10.227225      -278.2969
   9   2.0000      -7.989150      -217.3958
  10   2.0000      -7.922469      -215.5813
  11   2.0000      -7.920990      -215.5411
  12   2.0000      -5.957705      -162.1174
  13   2.0000      -5.953998      -162.0165
  14   2.0000      -5.948657      -161.8712
  15   2.0000      -5.890947      -160.3008
  16   2.0000      -5.889598      -160.2641
  17   2.0000      -5.888111      -160.2237
  18   2.0000      -5.886561      -160.1815
  19   2.0000      -5.881691      -160.0490
  20   2.0000      -5.880068      -160.0048
  21   2.0000      -1.023340       -27.8465
  22   2.0000      -0.860860       -23.4252
  23   2.0000      -0.834867       -22.7179
  24   2.0000      -0.757240       -20.6055
  25   2.0000      -0.747890       -20.3511
  26   2.0000      -0.715278       -19.4637
  27   2.0000      -0.640405       -17.4263
  28   2.0000      -0.607096       -16.5199
  29   2.0000      -0.553794       -15.0695
  30   2.0000      -0.502360       -13.6699
  31   2.0000      -0.498145       -13.5552
  32   2.0000      -0.474189       -12.9033
  33   2.0000      -0.441431       -12.0119
  34   2.0000      -0.431731       -11.7480
  35   2.0000      -0.415598       -11.3090
  36   2.0000      -0.404909       -11.0181
  37   2.0000      -0.393148       -10.6981
  38   2.0000      -0.370688       -10.0869
  39   2.0000      -0.351567        -9.5666
  40   2.0000      -0.334316        -9.0972
  41   2.0000      -0.253960        -6.9106
  42   2.0000      -0.248515        -6.7624
  43   2.0000      -0.246712        -6.7134
  44   2.0000      -0.233933        -6.3657
  45   0.0000      -0.112078        -3.0498
  46   0.0000      -0.040251        -1.0953
  47   0.0000      -0.000454        -0.0124
  48   0.0000       0.025465         0.6929
  49   0.0000       0.066788         1.8174

MULLIKEN ATOMIC CHARGES
-----------------------
   0 C :   -0.022658
   1 S :   -0.140946
   2 S :    0.143722
   3 C :   -0.112367
   4 C :    0.101972
   5 S :   -0.149484
   6 N :   -0.193978
   7 C :    0.141999
   8 C :   -0.003107
   9 H :    0.047378
  10 H :    0.050110
  11 H :    0.045429
  12 H :    0.040035
  13 H :    0.051894
Sum of atomic charges:    0.0000000

LOEWDIN ATOMIC CHARGES
----------------------
   0 C :   -0.260923
   1 S :   -0.009464
   2 S :    0.380309
   3 C :   -0.187029
   4 C :   -0.117428
   5 S :    0.012905
   6 N :   -0.004298
   7 C :    0.034249
   8 C :   -0.009429
   9 H :    0.021201
  10 H :    0.034232
  11 H :    0.032852
  12 H :    0.035334
  13 H :    0.037490

  Mayer bond orders larger than 0.100000
B(  0-C ,  1-S ) :   1.6826 B(  0-C ,  2-S ) :   1.0612 B(  0-C ,  6-N ) :   1.1159
B(  1-S ,  2-S ) :   0.1153 B(  2-S ,  3-C ) :   1.0218 B(  3-C ,  4-C ) :   0.9849
B(  3-C ,  8-C ) :   1.9155 B(  4-C ,  5-S ) :   1.6855 B(  4-C ,  6-N ) :   1.1393
B(  6-N ,  7-C ) :   0.9390 B(  7-C ,  9-H ) :   0.9410 B(  7-C , 10-H ) :   0.9668
B(  7-C , 11-H ) :   0.9642 B(  8-C , 12-H ) :   0.9390 B(  8-C , 13-H ) :   0.9228

Dispersion correction           -0.036821976
FINAL SINGLE POINT ENERGY     -1442.384334226035

DIPOLE MOMENT
-------------
                                X             Y             Z
Electronic contribution:     -4.32269       0.00734      -0.59982
Nuclear contribution   :      4.41086       0.47304       0.56358
                        -----------------------------------------
Total Dipole Moment    :      0.08818       0.48039      -0.03624
                        -----------------------------------------
Magnitude (a.u.)       :      0.48975
Magnitude (Debye)      :      1.24486

Rotational constants in cm-1:     0.053594     0.028571     0.018703
Rotational constants in MHz :  1606.706221   856.550475   560.716383

                             ****ORCA TERMINATED NORMALLY****
TOTAL RUN TIME: 0 days 0 hours 6 minutes 31 seconds 739 msec
