                         Program Version 4.2.0 -  RELEASE  -
|  1> # ORCA input file
|  2> # SCF done        -30.287007727655          0.000670146817
|  3> ! B3LYP/G D3BJ Opt RIJCOSX def2-SVP def2/J
|  4> * xyz 0 1
|  5>    C       -1.41214         1.24189         0.15190
|  6>    C       -0.14651         0.71815         0.05520
|  7>    C       -0.15022        -0.72553         0.05758
|  8>    N        1.00920        -1.41971        -0.03074
|  9>    C        2.11133        -0.73032        -0.11669
| 10>    C        2.11567         0.71408        -0.11915
| 11>    N        1.01499         1.40699        -0.03531
| 12>    C        3.38196         1.50672        -0.21813
| 13>    C        3.37768        -1.51954        -0.21319
| 14>    C       -1.41807        -1.24283         0.15598
| 15>    S       -2.58401         0.00252         0.24392
| 16>    H       -1.70433         2.27167         0.17288
| 17>    H        4.26133         0.87619        -0.28295
| 18>    H        3.46749         2.15522         0.65200
| 19>    H        3.33457         2.14926        -1.09558
| 20>    H        3.13057        -2.57735        -0.19148
| 21>    H        4.03801        -1.29047         0.62194
| 22>    H        3.90074        -1.29466        -1.14155
| 23>    H       -1.71540        -2.27107         0.18036
| 24> *
| 25>
| 26>                          ****END OF INPUT****
 Total Charge           Charge          ....    0
 Multiplicity           Mult            ....    1
 Number of Electrons    NEL             ....   86
Dispersion correction           -0.039297964
FINAL SINGLE POINT ENERGY      -816.971896000803
Dispersion correction            ... done
Dispersion correction           -0.039162188
FINAL SINGLE POINT ENERGY      -816.974520430859
Dispersion correction            ... done
Dispersion correction           -0.039143523
FINAL SINGLE POINT ENERGY      -816.974630381977
Dispersion correction            ... done
FINAL SINGLE POINT ENERGY      -816.974608157241
Dispersion correction            ... done
Dispersion correction           -0.039139585
FINAL SINGLE POINT ENERGY      -816.974660788937
Dispersion correction            ... done
Dispersion correction           -0.039140199
FINAL SINGLE POINT ENERGY      -816.974665766933
Dispersion correction            ... done
                    ***********************HURRAY********************

CARTESIAN COORDINATES (ANGSTROEM)
---------------------------------
  C     -1.442114    1.255120    0.159939
  C     -0.165180    0.720472    0.046642
  C     -0.169972   -0.729055    0.048040
  N      0.994282   -1.432932   -0.045878
  C      2.105412   -0.744770   -0.127080
  C      2.109599    0.721845   -0.127936
  N      1.002955    1.416143   -0.048544
  C      3.396175    1.505614   -0.216639
  C      3.392823   -1.520295   -0.215262
  C     -1.450184   -1.255392    0.161982
  S     -2.611214    0.003761    0.268155
  H     -1.727675    2.304359    0.183015
  H      4.289712    0.872662   -0.260406
  H      3.483651    2.174107    0.654320
  H      3.380579    2.150712   -1.109458
  H      3.157164   -2.592243   -0.192941
  H      4.065771   -1.283689    0.625490
  H      3.944236   -1.292586   -1.142950
  H     -1.743160   -2.302622    0.186498

 Multiplicity           Mult            ....    1
 Number of Electrons    NEL             ....   86
 Basis Dimension        Dim             ....  198

ORBITAL ENERGIES
----------------

  NO   OCC          E(Eh)            E(eV)
   0   2.0000     -88.892591     -2418.8904
   1   2.0000     -14.330834      -389.9618
   2   2.0000     -14.329987      -389.9388
   3   2.0000     -10.238769      -278.6111
   4   2.0000     -10.238522      -278.6043
   5   2.0000     -10.224197      -278.2145
   6   2.0000     -10.223789      -278.2035
   7   2.0000     -10.215245      -277.9709
   8   2.0000     -10.215031      -277.9651
   9   2.0000     -10.192817      -277.3607
  10   2.0000     -10.192718      -277.3580
  11   2.0000      -7.987010      -217.3376
  12   2.0000      -5.954621      -162.0335
  13   2.0000      -5.950597      -161.9240
  14   2.0000      -5.949500      -161.8941
  15   2.0000      -0.971605       -26.4387
  16   2.0000      -0.902207       -24.5503
  17   2.0000      -0.879763       -23.9396
  18   2.0000      -0.782639       -21.2967
  19   2.0000      -0.741050       -20.1650
  20   2.0000      -0.703941       -19.1552
  21   2.0000      -0.700263       -19.0551
  22   2.0000      -0.622102       -16.9283
  23   2.0000      -0.592897       -16.1336
  24   2.0000      -0.573545       -15.6070
  25   2.0000      -0.547649       -14.9023
  26   2.0000      -0.475957       -12.9515
  27   2.0000      -0.466936       -12.7060
  28   2.0000      -0.456947       -12.4342
  29   2.0000      -0.427173       -11.6240
  30   2.0000      -0.418122       -11.3777
  31   2.0000      -0.416951       -11.3458
  32   2.0000      -0.411768       -11.2048
  33   2.0000      -0.401419       -10.9232
  34   2.0000      -0.398783       -10.8514
  35   2.0000      -0.385142       -10.4802
  36   2.0000      -0.359778        -9.7901
  37   2.0000      -0.349709        -9.5161
  38   2.0000      -0.334234        -9.0950
  39   2.0000      -0.301759        -8.2113
  40   2.0000      -0.253237        -6.8909
  41   2.0000      -0.241020        -6.5585
  42   2.0000      -0.226192        -6.1550
  43   0.0000      -0.078155        -2.1267
  44   0.0000       0.004018         0.1093
  45   0.0000       0.008514         0.2317
  46   0.0000       0.048805         1.3281
  47   0.0000       0.059089         1.6079

MULLIKEN ATOMIC CHARGES
-----------------------
   0 C :   -0.147616
   1 C :    0.062043
   2 C :    0.064720
   3 N :   -0.031552
   4 C :   -0.135540
   5 C :   -0.139994
   6 N :   -0.046011
   7 C :    0.114328
   8 C :    0.076702
   9 C :   -0.147187
  10 S :    0.142449
  11 H :    0.016723
  12 H :   -0.004540
  13 H :    0.033971
  14 H :    0.033869
  15 H :    0.025318
  16 H :    0.033874
  17 H :    0.031470
  18 H :    0.016973
Sum of atomic charges:   -0.0000000

LOEWDIN ATOMIC CHARGES
----------------------
   0 C :   -0.209689
   1 C :   -0.053336
   2 C :   -0.053896
   3 N :   -0.061671
   4 C :   -0.005820
   5 C :   -0.003388
   6 N :   -0.061976
   7 C :   -0.054155
   8 C :   -0.057659
   9 C :   -0.208649
  10 S :    0.493288
  11 H :    0.028746
  12 H :    0.024548
  13 H :    0.043101
  14 H :    0.043210
  15 H :    0.036718
  16 H :    0.036040
  17 H :    0.035723
  18 H :    0.028865

  Mayer bond orders larger than 0.100000
B(  0-C ,  1-C ) :   1.3812 B(  0-C ,  9-C ) :   0.1276 B(  0-C , 10-S ) :   1.2045
B(  0-C , 11-H ) :   0.9694 B(  1-C ,  2-C ) :   1.1923 B(  1-C ,  6-N ) :   1.3433
B(  2-C ,  3-N ) :   1.3334 B(  2-C ,  9-C ) :   1.3826 B(  3-N ,  4-C ) :   1.7532
B(  4-C ,  5-C ) :   1.1036 B(  4-C ,  8-C ) :   1.0835 B(  5-C ,  6-N ) :   1.6985
B(  5-C ,  7-C ) :   1.0856 B(  7-C , 12-H ) :   0.9428 B(  7-C , 13-H ) :   0.9465
B(  7-C , 14-H ) :   0.9459 B(  8-C , 15-H ) :   0.9439 B(  8-C , 16-H ) :   0.9452
B(  8-C , 17-H ) :   0.9443 B(  9-C , 10-S ) :   1.2052 B(  9-C , 18-H ) :   0.9695

Dispersion correction           -0.039140192
FINAL SINGLE POINT ENERGY      -816.974670053704

DIPOLE MOMENT
-------------
                                X             Y             Z
Electronic contribution:    -14.89609      -0.01789       1.12466
Nuclear contribution   :     15.18797       0.05785      -1.13449
                        -----------------------------------------
Total Dipole Moment    :      0.29188       0.03997      -0.00982
                        -----------------------------------------
Magnitude (a.u.)       :      0.29477
Magnitude (Debye)      :      0.74924

Rotational constants in cm-1:     0.080500     0.022175     0.017500
Rotational constants in MHz :  2413.340046   664.784122   524.645510

                             ****ORCA TERMINATED NORMALLY****
TOTAL RUN TIME: 0 days 0 hours 9 minutes 54 seconds 113 msec
