                         Program Version 4.2.0 -  RELEASE  -
|  1> # ORCA input file
|  2> # SCF done        -33.818628879543          0.000729744567
|  3> ! B3LYP/G D3BJ Opt RIJCOSX def2-SVP def2/J
|  4> * xyz 0 1
|  5>    C        1.03005        -0.07144         0.21736
|  6>    O        0.43442        -1.08963         0.43448
|  7>    N        0.38891         1.16066         0.10872
|  8>    C       -0.83272         1.45127         0.67903
|  9>    N       -1.22693         2.64488         0.39638
| 10>    C       -0.26762         3.18095        -0.41822
| 11>    C        0.74123         2.29263        -0.60534
| 12>    N        2.41302        -0.03449         0.05662
| 13>    C        3.31505         0.98704         0.29855
| 14>    C        4.54345         0.46690         0.04865
| 15>    N        4.43514        -0.83741        -0.34874
| 16>    C        3.17833        -1.11876        -0.32023
| 17>    H       -1.34671         0.74508         1.29869
| 18>    H       -0.37307         4.17211        -0.81026
| 19>    H        1.62446         2.34127        -1.20700
| 20>    H        3.01391         1.94577         0.66682
| 21>    H        5.50219         0.93813         0.12713
| 22>    H        2.73460        -2.05978        -0.57277
| 23> *
| 24>
| 25>                          ****END OF INPUT****
 Total Charge           Charge          ....    0
 Multiplicity           Mult            ....    1
 Number of Electrons    NEL             ....   84
Dispersion correction           -0.034370810
FINAL SINGLE POINT ENERGY      -564.188355233444
Dispersion correction            ... done
Dispersion correction           -0.034399433
FINAL SINGLE POINT ENERGY      -564.192068817887
Dispersion correction            ... done
Dispersion correction           -0.034464724
FINAL SINGLE POINT ENERGY      -564.192212249374
Dispersion correction            ... done
FINAL SINGLE POINT ENERGY      -564.192271462657
Dispersion correction            ... done
Dispersion correction           -0.034419183
FINAL SINGLE POINT ENERGY      -564.192278534545
Dispersion correction            ... done
Dispersion correction           -0.034420082
FINAL SINGLE POINT ENERGY      -564.192279978197
Dispersion correction            ... done
                    ***********************HURRAY********************

CARTESIAN COORDINATES (ANGSTROEM)
---------------------------------
  C      1.036918   -0.059883    0.204898
  O      0.438231   -1.081085    0.416951
  N      0.391410    1.187025    0.114197
  C     -0.851681    1.438075    0.685880
  N     -1.279129    2.634080    0.402078
  C     -0.313313    3.201949   -0.409363
  C      0.729771    2.338898   -0.604720
  N      2.431675   -0.027770    0.035293
  C      3.353434    0.997852    0.273537
  C      4.580141    0.436175    0.048890
  N      4.454002   -0.890791   -0.320930
  C      3.179460   -1.150016   -0.305332
  H     -1.345565    0.681972    1.294423
  H     -0.429924    4.203532   -0.820450
  H      1.634584    2.410152   -1.197917
  H      3.051055    1.979628    0.620242
  H      5.555145    0.911499    0.145770
  H      2.691496   -2.096113   -0.533576

 Multiplicity           Mult            ....    1
 Number of Electrons    NEL             ....   84
 Basis Dimension        Dim             ....  198

ORBITAL ENERGIES
----------------

  NO   OCC          E(Eh)            E(eV)
   0   2.0000     -19.165189      -521.5113
   1   2.0000     -14.425657      -392.5421
   2   2.0000     -14.425456      -392.5366
   3   2.0000     -14.333388      -390.0313
   4   2.0000     -14.333260      -390.0278
   5   2.0000     -10.378266      -282.4070
   6   2.0000     -10.268383      -279.4169
   7   2.0000     -10.268128      -279.4100
   8   2.0000     -10.246879      -278.8318
   9   2.0000     -10.246393      -278.8185
  10   2.0000     -10.229064      -278.3470
  11   2.0000     -10.228853      -278.3412
  12   2.0000      -1.111426       -30.2434
  13   2.0000      -1.035917       -28.1887
  14   2.0000      -1.034563       -28.1519
  15   2.0000      -0.922992       -25.1159
  16   2.0000      -0.892440       -24.2845
  17   2.0000      -0.772639       -21.0246
  18   2.0000      -0.771081       -20.9822
  19   2.0000      -0.717355       -19.5202
  20   2.0000      -0.648685       -17.6516
  21   2.0000      -0.627152       -17.0657
  22   2.0000      -0.607833       -16.5400
  23   2.0000      -0.591842       -16.1048
  24   2.0000      -0.582101       -15.8398
  25   2.0000      -0.508732       -13.8433
  26   2.0000      -0.507327       -13.8051
  27   2.0000      -0.484429       -13.1820
  28   2.0000      -0.483814       -13.1653
  29   2.0000      -0.465174       -12.6580
  30   2.0000      -0.457851       -12.4588
  31   2.0000      -0.454586       -12.3699
  32   2.0000      -0.439348       -11.9553
  33   2.0000      -0.436244       -11.8708
  34   2.0000      -0.414570       -11.2810
  35   2.0000      -0.336252        -9.1499
  36   2.0000      -0.318756        -8.6738
  37   2.0000      -0.316263        -8.6060
  38   2.0000      -0.296831        -8.0772
  39   2.0000      -0.289366        -7.8741
  40   2.0000      -0.268432        -7.3044
  41   2.0000      -0.263621        -7.1735
  42   0.0000      -0.075738        -2.0609
  43   0.0000      -0.016315        -0.4439
  44   0.0000       0.032676         0.8892
  45   0.0000       0.034601         0.9416
  46   0.0000       0.039706         1.0805

MULLIKEN ATOMIC CHARGES
-----------------------
   0 C :    0.253691
   1 O :   -0.173652
   2 N :   -0.208910
   3 C :    0.125624
   4 N :   -0.132235
   5 C :    0.025957
   6 C :    0.054307
   7 N :   -0.204095
   8 C :    0.059101
   9 C :    0.022487
  10 N :   -0.132835
  11 C :    0.128378
  12 H :    0.043160
  13 H :    0.012668
  14 H :    0.037329
  15 H :    0.034851
  16 H :    0.013364
  17 H :    0.040811
Sum of atomic charges:   -0.0000000

LOEWDIN ATOMIC CHARGES
----------------------
   0 C :    0.119447
   1 O :   -0.141182
   2 N :    0.016683
   3 C :    0.051157
   4 N :   -0.100704
   5 C :   -0.018873
   6 C :   -0.027655
   7 N :    0.017722
   8 C :   -0.025618
   9 C :   -0.019448
  10 N :   -0.100363
  11 C :    0.051922
  12 H :    0.030378
  13 H :    0.026878
  14 H :    0.031557
  15 H :    0.031113
  16 H :    0.026828
  17 H :    0.030159

  Mayer bond orders larger than 0.100000
B(  0-C ,  1-O ) :   2.1403 B(  0-C ,  2-N ) :   0.9991 B(  0-C ,  7-N ) :   1.0031
B(  2-N ,  3-C ) :   1.1109 B(  2-N ,  6-C ) :   1.0792 B(  3-C ,  4-N ) :   1.7157
B(  3-C , 12-H ) :   0.9752 B(  4-N ,  5-C ) :   1.3199 B(  5-C ,  6-C ) :   1.5746
B(  5-C , 13-H ) :   0.9921 B(  6-C , 14-H ) :   0.9780 B(  7-N ,  8-C ) :   1.0805
B(  7-N , 11-C ) :   1.1091 B(  8-C ,  9-C ) :   1.5726 B(  8-C , 15-H ) :   0.9778
B(  9-C , 10-N ) :   1.3164 B(  9-C , 16-H ) :   0.9949 B( 10-N , 11-C ) :   1.7167
B( 11-C , 17-H ) :   0.9757

Dispersion correction           -0.034418360
FINAL SINGLE POINT ENERGY      -564.192280754586

DIPOLE MOMENT
-------------
                                X             Y             Z
Electronic contribution:     -1.60033      -2.76266       0.57463
Nuclear contribution   :      2.01653       3.46627      -0.73777
                        -----------------------------------------
Total Dipole Moment    :      0.41620       0.70361      -0.16314
                        -----------------------------------------
Magnitude (a.u.)       :      0.83360
Magnitude (Debye)      :      2.11885

Rotational constants in cm-1:     0.082451     0.021272     0.017565
Rotational constants in MHz :  2471.830819   637.713293   526.583791

                             ****ORCA TERMINATED NORMALLY****
TOTAL RUN TIME: 0 days 0 hours 9 minutes 3 seconds 706 msec
