                         Program Version 4.2.0 -  RELEASE  -
|  1> # ORCA input file
|  2> # SCF done        -39.952010338237          0.000336197949
|  3> ! B3LYP/G D3BJ Opt RIJCOSX def2-SVP def2/J
|  4> * xyz 0 1
|  5>    C       -0.96399         0.71726        -0.39766
|  6>    C        0.30021         1.16286        -0.15954
|  7>    C        1.22389         0.09931        -0.14968
|  8>    C        0.61806        -1.13608        -0.38448
|  9>    S       -1.06637        -0.99865        -0.61525
| 10>    C        1.62755        -2.14945        -0.35536
| 11>    C        2.85825        -1.54140        -0.10232
| 12>    C        2.65189        -0.10790         0.03679
| 13>    C        3.59796         0.84190         0.29062
| 14>    C        4.96131         0.52095         0.45685
| 15>    N        6.07142         0.26750         0.59264
| 16>    C        3.27854         2.21089         0.40588
| 17>    N        3.02658         3.32554         0.50216
| 18>    C        3.91790        -2.46848        -0.05644
| 19>    C        3.47408        -3.73733        -0.27206
| 20>    S        1.76469        -3.84004        -0.53575
| 21>    H       -1.86409         1.29507        -0.46146
| 22>    H        0.54929         2.19611        -0.00111
| 23>    H        4.94721        -2.21850         0.12456
| 24>    H        4.04978        -4.64078        -0.29443
| 25> *
| 26>
| 27>                          ****END OF INPUT****
 Total Charge           Charge          ....    0
 Multiplicity           Mult            ....    1
 Number of Electrons    NEL             ....  122
Dispersion correction           -0.057045490
FINAL SINGLE POINT ENERGY     -1364.905882556810
Dispersion correction            ... done
Dispersion correction           -0.056926753
FINAL SINGLE POINT ENERGY     -1364.910653407802
Dispersion correction            ... done
Dispersion correction           -0.056933903
FINAL SINGLE POINT ENERGY     -1364.910809311192
Dispersion correction            ... done
FINAL SINGLE POINT ENERGY     -1364.910821396330
FINAL SINGLE POINT ENERGY     -1364.910845258110
Dispersion correction            ... done
Dispersion correction           -0.056968647
FINAL SINGLE POINT ENERGY     -1364.910857578571
Dispersion correction            ... done
Dispersion correction           -0.056974667
FINAL SINGLE POINT ENERGY     -1364.910864815280
Dispersion correction            ... done
                    ***********************HURRAY********************

CARTESIAN COORDINATES (ANGSTROEM)
---------------------------------
  C     -1.001555    0.740500   -0.392239
  C      0.280374    1.191035   -0.172586
  C      1.214819    0.116305   -0.168409
  C      0.611782   -1.126159   -0.391381
  S     -1.082125   -0.991718   -0.601756
  C      1.637761   -2.156120   -0.362568
  C      2.876094   -1.551716   -0.120783
  C      2.661148   -0.099767    0.018034
  C      3.610556    0.854343    0.286994
  C      4.987519    0.509479    0.465872
  N      6.101441    0.214286    0.609424
  C      3.264711    2.236752    0.416136
  N      2.968121    3.354721    0.520196
  C      3.946161   -2.490064   -0.067934
  C      3.496311   -3.775933   -0.265156
  S      1.770254   -3.855774   -0.520968
  H     -1.918132    1.324464   -0.447218
  H      0.530841    2.239638   -0.016933
  H      4.990880   -2.239462    0.111784
  H      4.077200   -4.696031   -0.276548

 Multiplicity           Mult            ....    1
 Number of Electrons    NEL             ....  122
 Basis Dimension        Dim             ....  252

ORBITAL ENERGIES
----------------

  NO   OCC          E(Eh)            E(eV)
   0   2.0000     -88.911164     -2419.3958
   1   2.0000     -88.911088     -2419.3937
   2   2.0000     -14.352117      -390.5410
   3   2.0000     -14.352059      -390.5394
   4   2.0000     -10.285830      -279.8917
   5   2.0000     -10.271936      -279.5136
   6   2.0000     -10.253425      -279.0099
   7   2.0000     -10.253390      -279.0089
   8   2.0000     -10.251691      -278.9627
   9   2.0000     -10.251589      -278.9599
  10   2.0000     -10.237572      -278.5785
  11   2.0000     -10.237527      -278.5773
  12   2.0000     -10.224523      -278.2234
  13   2.0000     -10.224482      -278.2223
  14   2.0000     -10.224184      -278.2142
  15   2.0000     -10.224159      -278.2135
  16   2.0000      -8.005257      -217.8341
  17   2.0000      -8.005201      -217.8326
  18   2.0000      -5.973297      -162.5417
  19   2.0000      -5.973279      -162.5412
  20   2.0000      -5.969155      -162.4290
  21   2.0000      -5.969143      -162.4286
  22   2.0000      -5.966866      -162.3667
  23   2.0000      -5.966858      -162.3665
  24   2.0000      -0.944044       -25.6887
  25   2.0000      -0.926474       -25.2106
  26   2.0000      -0.915849       -24.9215
  27   2.0000      -0.898138       -24.4396
  28   2.0000      -0.860906       -23.4264
  29   2.0000      -0.811677       -22.0869
  30   2.0000      -0.771412       -20.9912
  31   2.0000      -0.760860       -20.7040
  32   2.0000      -0.710421       -19.3315
  33   2.0000      -0.686295       -18.6750
  34   2.0000      -0.622824       -16.9479
  35   2.0000      -0.618493       -16.8301
  36   2.0000      -0.591048       -16.0832
  37   2.0000      -0.563350       -15.3295
  38   2.0000      -0.540497       -14.7077
  39   2.0000      -0.533113       -14.5067
  40   2.0000      -0.495643       -13.4871
  41   2.0000      -0.467592       -12.7238
  42   2.0000      -0.459604       -12.5064
  43   2.0000      -0.438869       -11.9422
  44   2.0000      -0.422060       -11.4848
  45   2.0000      -0.421542       -11.4707
  46   2.0000      -0.420312       -11.4373
  47   2.0000      -0.400031       -10.8854
  48   2.0000      -0.398850       -10.8533
  49   2.0000      -0.386668       -10.5218
  50   2.0000      -0.384050       -10.4505
  51   2.0000      -0.381666       -10.3857
  52   2.0000      -0.372635       -10.1399
  53   2.0000      -0.365837        -9.9549
  54   2.0000      -0.364636        -9.9223
  55   2.0000      -0.354145        -9.6368
  56   2.0000      -0.341661        -9.2971
  57   2.0000      -0.302805        -8.2397
  58   2.0000      -0.284403        -7.7390
  59   2.0000      -0.266160        -7.2426
  60   2.0000      -0.228603        -6.2206
  61   0.0000      -0.131281        -3.5723
  62   0.0000      -0.045915        -1.2494
  63   0.0000      -0.018595        -0.5060
  64   0.0000      -0.010470        -0.2849
  65   0.0000       0.008936         0.2432

MULLIKEN ATOMIC CHARGES
-----------------------
   0 C :   -0.091074
   1 C :    0.036460
   2 C :   -0.017424
   3 C :   -0.112839
   4 S :    0.168745
   5 C :   -0.112048
   6 C :   -0.018009
   7 C :    0.245659
   8 C :   -0.279429
   9 C :   -0.142974
  10 N :    0.117779
  11 C :   -0.143436
  12 N :    0.117161
  13 C :    0.037321
  14 C :   -0.091613
  15 S :    0.168746
  16 H :    0.041168
  17 H :    0.017512
  18 H :    0.017263
  19 H :    0.041031
Sum of atomic charges:   -0.0000000

LOEWDIN ATOMIC CHARGES
----------------------
   0 C :   -0.181212
   1 C :   -0.034637
   2 C :   -0.073831
   3 C :   -0.185396
   4 S :    0.471057
   5 C :   -0.185258
   6 C :   -0.073861
   7 C :    0.076540
   8 C :   -0.104195
   9 C :   -0.010805
  10 N :   -0.046098
  11 C :   -0.010701
  12 N :   -0.046154
  13 C :   -0.034535
  14 C :   -0.181270
  15 S :    0.471092
  16 H :    0.030797
  17 H :    0.043860
  18 H :    0.043834
  19 H :    0.030772

  Mayer bond orders larger than 0.100000
B(  0-C ,  1-C ) :   1.5249 B(  0-C ,  4-S ) :   1.1424 B(  0-C , 16-H ) :   0.9618
B(  1-C ,  2-C ) :   1.2683 B(  1-C , 17-H ) :   0.9924 B(  2-C ,  3-C ) :   1.4384
B(  2-C ,  7-C ) :   1.0349 B(  3-C ,  4-S ) :   1.1377 B(  3-C ,  5-C ) :   1.1808
B(  5-C ,  6-C ) :   1.4381 B(  5-C , 15-S ) :   1.1377 B(  6-C ,  7-C ) :   1.0350
B(  6-C , 13-C ) :   1.2692 B(  7-C ,  8-C ) :   1.6523 B(  8-C ,  9-C ) :   1.1309
B(  8-C , 11-C ) :   1.1308 B(  9-C , 10-N ) :   2.9594 B( 11-C , 12-N ) :   2.9588
B( 13-C , 14-C ) :   1.5244 B( 13-C , 18-H ) :   0.9918 B( 14-C , 15-S ) :   1.1427
B( 14-C , 19-H ) :   0.9620

Dispersion correction           -0.056978759
FINAL SINGLE POINT ENERGY     -1364.910868870704

DIPOLE MOMENT
-------------
                                X             Y             Z
Electronic contribution:     -1.17179      -1.17505      -0.30794
Nuclear contribution   :     -0.29253      -0.29653      -0.09078
                        -----------------------------------------
Total Dipole Moment    :     -1.46432      -1.47158      -0.39872
                        -----------------------------------------
Magnitude (a.u.)       :      2.11394
Magnitude (Debye)      :      5.37321

Rotational constants in cm-1:     0.017848     0.015130     0.008189
Rotational constants in MHz :   535.080058   453.578701   245.498681

                             ****ORCA TERMINATED NORMALLY****
TOTAL RUN TIME: 0 days 0 hours 16 minutes 17 seconds 472 msec
