                         Program Version 4.2.0 -  RELEASE  -
|  1> # ORCA input file
|  2> # SCF done        -18.615808626866          0.000437812262
|  3> ! B3LYP/G D3BJ Opt RIJCOSX def2-SVP def2/J
|  4> * xyz 0 1
|  5>    C       -1.18793         0.10083        -0.00063
|  6>    N       -0.34188         1.06700         0.00067
|  7>    C        0.92547         0.62385        -0.00150
|  8>    C        1.06168        -0.74493        -0.00464
|  9>    S       -0.50577        -1.49153        -0.00460
| 10>    C        2.24621        -1.48539        -0.00779
| 11>    N        3.22403        -2.08492        -0.00892
| 12>    H       -2.25068         0.24011         0.00064
| 13>    H        1.73897         1.32606        -0.00084
| 14> *
| 15>
| 16>                          ****END OF INPUT****
 Total Charge           Charge          ....    0
 Multiplicity           Mult            ....    1
 Number of Electrons    NEL             ....   56
Dispersion correction           -0.018025163
FINAL SINGLE POINT ENERGY      -661.000144911334
Dispersion correction            ... done
Dispersion correction           -0.017980748
FINAL SINGLE POINT ENERGY      -661.002394496679
Dispersion correction            ... done
Dispersion correction           -0.017973159
FINAL SINGLE POINT ENERGY      -661.002454203558
Dispersion correction            ... done
FINAL SINGLE POINT ENERGY      -661.002458937796
Dispersion correction            ... done
Dispersion correction           -0.017969549
FINAL SINGLE POINT ENERGY      -661.002453419628
Dispersion correction            ... done
Dispersion correction           -0.017970394
FINAL SINGLE POINT ENERGY      -661.002458923577
Dispersion correction            ... done
                    ***********************HURRAY********************

CARTESIAN COORDINATES (ANGSTROEM)
---------------------------------
  C     -1.206942    0.105300   -0.000466
  N     -0.355048    1.090634    0.000808
  C      0.926071    0.630073   -0.001669
  C      1.062930   -0.746257   -0.004907
  S     -0.514617   -1.489892   -0.004945
  C      2.265111   -1.496396   -0.007682
  N      3.257615   -2.100677   -0.008749
  H     -2.292205    0.233832    0.000914
  H      1.767185    1.324464   -0.000914

 Multiplicity           Mult            ....    1
 Number of Electrons    NEL             ....   56
 Basis Dimension        Dim             ....  112

ORBITAL ENERGIES
----------------

  NO   OCC          E(Eh)            E(eV)
   0   2.0000     -88.918672     -2419.6001
   1   2.0000     -14.360427      -390.7671
   2   2.0000     -14.345419      -390.3587
   3   2.0000     -10.281111      -279.7632
   4   2.0000     -10.272788      -279.5368
   5   2.0000     -10.260853      -279.2120
   6   2.0000     -10.248949      -278.8881
   7   2.0000      -8.014201      -218.0775
   8   2.0000      -5.982186      -162.7835
   9   2.0000      -5.978035      -162.6706
  10   2.0000      -5.975577      -162.6037
  11   2.0000      -0.995358       -27.0851
  12   2.0000      -0.913895       -24.8684
  13   2.0000      -0.839393       -22.8411
  14   2.0000      -0.782447       -21.2915
  15   2.0000      -0.669160       -18.2088
  16   2.0000      -0.608683       -16.5631
  17   2.0000      -0.565633       -15.3917
  18   2.0000      -0.482556       -13.1310
  19   2.0000      -0.465142       -12.6572
  20   2.0000      -0.453854       -12.3500
  21   2.0000      -0.413065       -11.2401
  22   2.0000      -0.381700       -10.3866
  23   2.0000      -0.376123       -10.2348
  24   2.0000      -0.354885        -9.6569
  25   2.0000      -0.316654        -8.6166
  26   2.0000      -0.304412        -8.2835
  27   2.0000      -0.281070        -7.6483
  28   0.0000      -0.083134        -2.2622
  29   0.0000      -0.018666        -0.5079
  30   0.0000      -0.004313        -0.1174
  31   0.0000       0.010583         0.2880
  32   0.0000       0.078795         2.1441

MULLIKEN ATOMIC CHARGES
-----------------------
   0 C :    0.008247
   1 N :   -0.101987
   2 C :    0.127166
   3 C :   -0.278983
   4 S :    0.172470
   5 C :   -0.096618
   6 N :    0.081962
   7 H :    0.064344
   8 H :    0.023399
Sum of atomic charges:   -0.0000000

LOEWDIN ATOMIC CHARGES
----------------------
   0 C :   -0.114059
   1 N :   -0.091343
   2 C :    0.014268
   3 C :   -0.237372
   4 S :    0.456393
   5 C :   -0.048575
   6 N :   -0.048181
   7 H :    0.029927
   8 H :    0.038943

  Mayer bond orders larger than 0.100000
B(  0-C ,  1-N ) :   1.6709 B(  0-C ,  3-C ) :   0.1097 B(  0-C ,  4-S ) :   1.1632
B(  0-C ,  7-H ) :   0.9585 B(  1-N ,  2-C ) :   1.3711 B(  1-N ,  4-S ) :   0.1064
B(  2-C ,  3-C ) :   1.5085 B(  2-C ,  8-H ) :   0.9908 B(  3-C ,  4-S ) :   1.1379
B(  3-C ,  5-C ) :   1.1878 B(  5-C ,  6-N ) :   2.9752

Dispersion correction           -0.017970489
FINAL SINGLE POINT ENERGY      -661.002458771153

DIPOLE MOMENT
-------------
                                X             Y             Z
Electronic contribution:      0.23611      -2.55514      -0.00650
Nuclear contribution   :     -1.47798       2.82325       0.00764
                        -----------------------------------------
Total Dipole Moment    :     -1.24186       0.26811       0.00113
                        -----------------------------------------
Magnitude (a.u.)       :      1.27047
Magnitude (Debye)      :      3.22929

Rotational constants in cm-1:     0.180819     0.060586     0.045381
Rotational constants in MHz :  5420.813485  1816.332776  1360.481259

                             ****ORCA TERMINATED NORMALLY****
TOTAL RUN TIME: 0 days 0 hours 2 minutes 56 seconds 945 msec
