                         Program Version 4.2.0 -  RELEASE  -
|  1> # ORCA input file
|  2> # SCF done        -31.479314950238          0.000510594675
|  3> ! B3LYP/G D3BJ Opt RIJCOSX def2-SVP def2/J
|  4> * xyz 0 1
|  5>    C        1.02402        -1.40740        -0.02402
|  6>    C        2.18038        -0.65998        -0.10718
|  7>    C        2.14787         0.79901        -0.10397
|  8>    N        3.38879         1.31832        -0.19310
|  9>    S        4.43897         0.12055        -0.27049
| 10>    N        3.44318        -1.12312        -0.19855
| 11>    C        0.95938         1.49381        -0.01758
| 12>    C       -0.22096         0.74289         0.06734
| 13>    C       -1.51771         1.21966         0.16155
| 14>    S       -2.65709        -0.03869         0.24306
| 15>    C       -1.46280        -1.24465         0.15606
| 16>    C       -0.18859        -0.71018         0.06411
| 17>    H        1.05406        -2.48442        -0.02675
| 18>    H        0.94143         2.57111        -0.01548
| 19>    H       -1.83905         2.24104         0.18553
| 20>    H       -1.73832        -2.27942         0.17546
| 21> *
| 22>
| 23>                          ****END OF INPUT****
 Total Charge           Charge          ....    0
 Multiplicity           Mult            ....    1
 Number of Electrons    NEL             ....   98
Dispersion correction           -0.041612439
FINAL SINGLE POINT ENERGY     -1212.605563976306
Dispersion correction            ... done
Dispersion correction           -0.041487484
FINAL SINGLE POINT ENERGY     -1212.609755906514
Dispersion correction            ... done
Dispersion correction           -0.041479662
FINAL SINGLE POINT ENERGY     -1212.610111152988
Dispersion correction            ... done
FINAL SINGLE POINT ENERGY     -1212.610127244073
FINAL SINGLE POINT ENERGY     -1212.610222504511
Dispersion correction            ... done
Dispersion correction           -0.041496132
FINAL SINGLE POINT ENERGY     -1212.610232171930
Dispersion correction            ... done
Dispersion correction           -0.041497241
FINAL SINGLE POINT ENERGY     -1212.610231770893
Dispersion correction            ... done
                    ***********************HURRAY********************

CARTESIAN COORDINATES (ANGSTROEM)
---------------------------------
  C      1.026923   -1.416671   -0.021557
  C      2.204541   -0.667149   -0.106145
  C      2.171446    0.806991   -0.104874
  N      3.407792    1.355932   -0.199952
  S      4.461304    0.121127   -0.276033
  N      3.464699   -1.160010   -0.199163
  C      0.962003    1.503419   -0.015259
  C     -0.226378    0.753920    0.069302
  C     -1.543719    1.235882    0.164353
  S     -2.664857   -0.039330    0.244875
  C     -1.487658   -1.262148    0.157867
  C     -0.193410   -0.720927    0.065444
  H      1.065601   -2.506677   -0.024813
  H      0.952899    2.594134   -0.013217
  H     -1.874846    2.271767    0.184298
  H     -1.772780   -2.311730    0.170864

 Multiplicity           Mult            ....    1
 Number of Electrons    NEL             ....   98
 Basis Dimension        Dim             ....  196

ORBITAL ENERGIES
----------------

  NO   OCC          E(Eh)            E(eV)
   0   2.0000     -88.940792     -2420.2020
   1   2.0000     -88.904816     -2419.2230
   2   2.0000     -14.352499      -390.5514
   3   2.0000     -14.352426      -390.5494
   4   2.0000     -10.238466      -278.6028
   5   2.0000     -10.238294      -278.5981
   6   2.0000     -10.221518      -278.1416
   7   2.0000     -10.221434      -278.1393
   8   2.0000     -10.217469      -278.0315
   9   2.0000     -10.217339      -278.0279
  10   2.0000     -10.206295      -277.7274
  11   2.0000     -10.206175      -277.7241
  12   2.0000      -8.031465      -218.5473
  13   2.0000      -7.999079      -217.6660
  14   2.0000      -6.001011      -163.2958
  15   2.0000      -5.993835      -163.1005
  16   2.0000      -5.993616      -163.0946
  17   2.0000      -5.966367      -162.3531
  18   2.0000      -5.962360      -162.2441
  19   2.0000      -5.962271      -162.2416
  20   2.0000      -1.013721       -27.5848
  21   2.0000      -0.903339       -24.5811
  22   2.0000      -0.879296       -23.9269
  23   2.0000      -0.834616       -22.7111
  24   2.0000      -0.769383       -20.9360
  25   2.0000      -0.752982       -20.4897
  26   2.0000      -0.700849       -19.0711
  27   2.0000      -0.662104       -18.0168
  28   2.0000      -0.599142       -16.3035
  29   2.0000      -0.593526       -16.1507
  30   2.0000      -0.564923       -15.3723
  31   2.0000      -0.518955       -14.1215
  32   2.0000      -0.513113       -13.9625
  33   2.0000      -0.477347       -12.9893
  34   2.0000      -0.454674       -12.3723
  35   2.0000      -0.453889       -12.3510
  36   2.0000      -0.427775       -11.6403
  37   2.0000      -0.411664       -11.2020
  38   2.0000      -0.409237       -11.1359
  39   2.0000      -0.392121       -10.6702
  40   2.0000      -0.384289       -10.4570
  41   2.0000      -0.361976        -9.8499
  42   2.0000      -0.337168        -9.1748
  43   2.0000      -0.335979        -9.1424
  44   2.0000      -0.322842        -8.7850
  45   2.0000      -0.297261        -8.0889
  46   2.0000      -0.280809        -7.6412
  47   2.0000      -0.265551        -7.2260
  48   2.0000      -0.196967        -5.3598
  49   0.0000      -0.112455        -3.0600
  50   0.0000      -0.036019        -0.9801
  51   0.0000       0.019084         0.5193
  52   0.0000       0.025490         0.6936
  53   0.0000       0.029048         0.7904

MULLIKEN ATOMIC CHARGES
-----------------------
   0 C :   -0.064196
   1 C :    0.069938
   2 C :    0.070689
   3 N :   -0.305635
   4 S :    0.494465
   5 N :   -0.305880
   6 C :   -0.063860
   7 C :    0.110076
   8 C :   -0.144549
   9 S :    0.179205
  10 C :   -0.145452
  11 C :    0.111662
  12 H :   -0.027630
  13 H :   -0.027905
  14 H :    0.024376
  15 H :    0.024697
Sum of atomic charges:   -0.0000000

LOEWDIN ATOMIC CHARGES
----------------------
   0 C :   -0.025922
   1 C :   -0.054087
   2 C :   -0.053997
   3 N :   -0.304143
   4 S :    0.645863
   5 N :   -0.304283
   6 C :   -0.025953
   7 C :   -0.041570
   8 C :   -0.227571
   9 S :    0.535440
  10 C :   -0.227869
  11 C :   -0.041441
  12 H :    0.035773
  13 H :    0.035718
  14 H :    0.026967
  15 H :    0.027074

  Mayer bond orders larger than 0.100000
B(  0-C ,  1-C ) :   1.3258 B(  0-C ,  6-C ) :   0.1710 B(  0-C , 11-C ) :   1.2597
B(  0-C , 12-H ) :   1.0188 B(  1-C ,  2-C ) :   1.0926 B(  1-C ,  5-N ) :   1.3850
B(  2-C ,  3-N ) :   1.3853 B(  2-C ,  6-C ) :   1.3263 B(  3-N ,  4-S ) :   1.2896
B(  3-N ,  5-N ) :   0.1993 B(  4-S ,  5-N ) :   1.2894 B(  6-C ,  7-C ) :   1.2584
B(  6-C , 13-H ) :   1.0190 B(  7-C ,  8-C ) :   1.3126 B(  7-C , 11-C ) :   1.1426
B(  8-C ,  9-S ) :   1.2460 B(  8-C , 10-C ) :   0.1562 B(  8-C , 14-H ) :   0.9671
B(  9-S , 10-C ) :   1.2464 B( 10-C , 11-C ) :   1.3126 B( 10-C , 15-H ) :   0.9668

Dispersion correction           -0.041497008
FINAL SINGLE POINT ENERGY     -1212.610234168074

DIPOLE MOMENT
-------------
                                X             Y             Z
Electronic contribution:      4.33964       0.09695      -0.31197
Nuclear contribution   :     -5.15120      -0.11512       0.36866
                        -----------------------------------------
Total Dipole Moment    :     -0.81156      -0.01817       0.05670
                        -----------------------------------------
Magnitude (a.u.)       :      0.81374
Magnitude (Debye)      :      2.06836

Rotational constants in cm-1:     0.092157     0.013760     0.011973
Rotational constants in MHz :  2762.790178   412.518171   358.926600

                             ****ORCA TERMINATED NORMALLY****
TOTAL RUN TIME: 0 days 0 hours 11 minutes 41 seconds 374 msec
