                         Program Version 4.2.0 -  RELEASE  -
|  1> # ORCA input file
|  2> # SCF done        -34.356281860280          0.000517325052
|  3> ! B3LYP/G D3BJ Opt RIJCOSX def2-SVP def2/J
|  4> * xyz 0 1
|  5>    C       -2.37696        -0.74333        -0.01057
|  6>    C       -2.41996         0.65129        -0.02123
|  7>    C       -1.25311         1.37653        -0.02211
|  8>    C       -0.01195         0.72497        -0.01294
|  9>    C        0.02241        -0.68530        -0.00251
| 10>    C       -1.17236        -1.40915        -0.00105
| 11>    N        1.23392        -1.31571         0.00612
| 12>    C        2.47804        -0.71093         0.00247
| 13>    O        3.48569        -1.38274         0.00798
| 14>    C        2.41479         0.75653        -0.00763
| 15>    C        1.22847         1.42159        -0.01454
| 16>    C        3.63449         1.46862        -0.01147
| 17>    N        4.60472         2.07821        -0.01500
| 18>    H       -3.29810        -1.30572        -0.00978
| 19>    H       -3.37307         1.15652        -0.02870
| 20>    H       -1.27414         2.45585        -0.02998
| 21>    H       -1.13885        -2.48860         0.00744
| 22>    H        1.25015        -2.32947         0.01352
| 23>    H        1.21623         2.50308        -0.02171
| 24> *
| 25>
| 26>                          ****END OF INPUT****
 Total Charge           Charge          ....    0
 Multiplicity           Mult            ....    1
 Number of Electrons    NEL             ....   88
Dispersion correction           -0.041709525
FINAL SINGLE POINT ENERGY      -569.041652984773
Dispersion correction            ... done
Dispersion correction           -0.041435120
FINAL SINGLE POINT ENERGY      -569.044328015117
Dispersion correction            ... done
Dispersion correction           -0.041402142
FINAL SINGLE POINT ENERGY      -569.044387632865
Dispersion correction            ... done
FINAL SINGLE POINT ENERGY      -569.044391619157
Dispersion correction            ... done
Dispersion correction           -0.041402851
FINAL SINGLE POINT ENERGY      -569.044388530569
Dispersion correction            ... done
Dispersion correction           -0.041405641
FINAL SINGLE POINT ENERGY      -569.044386978346
Dispersion correction            ... done
                    ***********************HURRAY********************

CARTESIAN COORDINATES (ANGSTROEM)
---------------------------------
  C     -2.402018   -0.749638   -0.010642
  C     -2.450265    0.656568   -0.018850
  C     -1.268086    1.380439   -0.020985
  C     -0.018767    0.725059   -0.014318
  C      0.015957   -0.694907   -0.004819
  C     -1.186965   -1.423176   -0.003855
  N      1.240705   -1.322500    0.003642
  C      2.492622   -0.709606    0.005731
  O      3.517935   -1.360714    0.018951
  C      2.426919    0.769400   -0.008408
  C      1.228730    1.429497   -0.016827
  C      3.671664    1.470886   -0.012562
  N      4.671230    2.060453   -0.016405
  H     -3.330835   -1.324413   -0.009404
  H     -3.411721    1.173053   -0.023790
  H     -1.284830    2.473349   -0.027997
  H     -1.154827   -2.515627    0.002828
  H      1.278268   -2.338385    0.012262
  H      1.214693    2.522504   -0.026241

 Multiplicity           Mult            ....    1
 Number of Electrons    NEL             ....   88
 Basis Dimension        Dim             ....  212

ORBITAL ENERGIES
----------------

  NO   OCC          E(Eh)            E(eV)
   0   2.0000     -19.117775      -520.2211
   1   2.0000     -14.401732      -391.8910
   2   2.0000     -14.328292      -389.8927
   3   2.0000     -10.314805      -280.6801
   4   2.0000     -10.275609      -279.6135
   5   2.0000     -10.249804      -278.9113
   6   2.0000     -10.248656      -278.8801
   7   2.0000     -10.233006      -278.4542
   8   2.0000     -10.228970      -278.3444
   9   2.0000     -10.228960      -278.3442
  10   2.0000     -10.228471      -278.3308
  11   2.0000     -10.225806      -278.2583
  12   2.0000     -10.218410      -278.0571
  13   2.0000      -1.052452       -28.6387
  14   2.0000      -0.973877       -26.5006
  15   2.0000      -0.898678       -24.4543
  16   2.0000      -0.877907       -23.8891
  17   2.0000      -0.844068       -22.9683
  18   2.0000      -0.776931       -21.1414
  19   2.0000      -0.771397       -20.9908
  20   2.0000      -0.686428       -18.6787
  21   2.0000      -0.669683       -18.2230
  22   2.0000      -0.651483       -17.7278
  23   2.0000      -0.594682       -16.1821
  24   2.0000      -0.577590       -15.7170
  25   2.0000      -0.532724       -14.4962
  26   2.0000      -0.513778       -13.9806
  27   2.0000      -0.509768       -13.8715
  28   2.0000      -0.477231       -12.9861
  29   2.0000      -0.474443       -12.9103
  30   2.0000      -0.464348       -12.6355
  31   2.0000      -0.447546       -12.1784
  32   2.0000      -0.426661       -11.6100
  33   2.0000      -0.408619       -11.1191
  34   2.0000      -0.399119       -10.8606
  35   2.0000      -0.383918       -10.4469
  36   2.0000      -0.382761       -10.4155
  37   2.0000      -0.359494        -9.7823
  38   2.0000      -0.340456        -9.2643
  39   2.0000      -0.337806        -9.1922
  40   2.0000      -0.329323        -8.9613
  41   2.0000      -0.281079        -7.6486
  42   2.0000      -0.272023        -7.4021
  43   2.0000      -0.247679        -6.7397
  44   0.0000      -0.096289        -2.6202
  45   0.0000      -0.038767        -1.0549
  46   0.0000      -0.018225        -0.4959
  47   0.0000       0.027482         0.7478
  48   0.0000       0.029226         0.7953

MULLIKEN ATOMIC CHARGES
-----------------------
   0 C :    0.037104
   1 C :    0.034750
   2 C :   -0.033635
   3 C :    0.030917
   4 C :    0.109992
   5 C :   -0.029091
   6 N :   -0.052361
   7 C :    0.150227
   8 O :   -0.183213
   9 C :   -0.212633
  10 C :    0.082936
  11 C :   -0.110796
  12 N :    0.081421
  13 H :   -0.000669
  14 H :   -0.007734
  15 H :   -0.008093
  16 H :   -0.024050
  17 H :    0.129031
  18 H :    0.005897
Sum of atomic charges:    0.0000000

LOEWDIN ATOMIC CHARGES
----------------------
   0 C :    0.006532
   1 C :   -0.035890
   2 C :    0.003550
   3 C :   -0.056170
   4 C :    0.051591
   5 C :   -0.050684
   6 N :    0.045623
   7 C :    0.069797
   8 O :   -0.191591
   9 C :   -0.106354
  10 C :    0.056141
  11 C :   -0.018619
  12 N :   -0.051304
  13 H :    0.035342
  14 H :    0.032795
  15 H :    0.034867
  16 H :    0.032027
  17 H :    0.096623
  18 H :    0.045724

  Mayer bond orders larger than 0.100000
B(  0-C ,  1-C ) :   1.3152 B(  0-C ,  5-C ) :   1.4053 B(  0-C , 13-H ) :   0.9822
B(  1-C ,  2-C ) :   1.4146 B(  1-C , 14-H ) :   0.9883 B(  2-C ,  3-C ) :   1.2841
B(  2-C , 15-H ) :   0.9948 B(  3-C ,  4-C ) :   1.2798 B(  3-C , 10-C ) :   1.1509
B(  4-C ,  5-C ) :   1.3091 B(  4-C ,  6-N ) :   1.1841 B(  5-C , 16-H ) :   0.9890
B(  6-N ,  7-C ) :   1.0808 B(  6-N , 17-H ) :   0.9016 B(  7-C ,  8-O ) :   2.1903
B(  7-C ,  9-C ) :   0.9599 B(  9-C , 10-C ) :   1.5972 B(  9-C , 11-C ) :   1.1196
B( 10-C , 18-H ) :   0.9817 B( 11-C , 12-N ) :   2.9987

Dispersion correction           -0.041406627
FINAL SINGLE POINT ENERGY      -569.044386722031

DIPOLE MOMENT
-------------
                                X             Y             Z
Electronic contribution:      8.51283       0.33746       0.02011
Nuclear contribution   :    -11.59088      -0.78406      -0.02725
                        -----------------------------------------
Total Dipole Moment    :     -3.07804      -0.44660      -0.00714
                        -----------------------------------------
Magnitude (a.u.)       :      3.11028
Magnitude (Debye)      :      7.90571

Rotational constants in cm-1:     0.065602     0.018357     0.014343
Rotational constants in MHz :  1966.692576   550.326734   430.003131

                             ****ORCA TERMINATED NORMALLY****
TOTAL RUN TIME: 0 days 0 hours 11 minutes 45 seconds 479 msec
