                         Program Version 4.2.0 -  RELEASE  -
|  1> # ORCA input file
|  2> # SCF done        -23.963491231079          0.000515996337
|  3> ! B3LYP/G D3BJ Opt RIJCOSX def2-SVP def2/J
|  4> * xyz 0 1
|  5>    C       -0.92862        -1.43542         0.00041
|  6>    C       -2.09919        -0.73000        -0.00015
|  7>    C       -2.11854         0.68110        -0.00061
|  8>    C       -0.96777         1.41837        -0.00051
|  9>    C        0.25582         0.72810         0.00007
| 10>    C        0.27557        -0.71184         0.00053
| 11>    N        1.51980        -1.19490         0.00104
| 12>    S        2.54725         0.03943         0.00094
| 13>    N        1.48632         1.24510         0.00027
| 14>    H       -0.90418        -2.51323         0.00076
| 15>    H       -3.04132        -1.25799        -0.00025
| 16>    H       -3.07481         1.18305        -0.00103
| 17>    H       -0.97291         2.49644        -0.00084
| 18> *
| 19>
| 20>                          ****END OF INPUT****
 Total Charge           Charge          ....    0
 Multiplicity           Mult            ....    1
 Number of Electrons    NEL             ....   70
Dispersion correction           -0.027850548
FINAL SINGLE POINT ENERGY      -738.383401785768
Dispersion correction            ... done
Dispersion correction           -0.027722853
FINAL SINGLE POINT ENERGY      -738.386605337960
Dispersion correction            ... done
Dispersion correction           -0.027713119
FINAL SINGLE POINT ENERGY      -738.387001128622
Dispersion correction            ... done
FINAL SINGLE POINT ENERGY      -738.387121359930
Dispersion correction            ... done
Dispersion correction           -0.027733579
FINAL SINGLE POINT ENERGY      -738.387142237800
Dispersion correction            ... done
Dispersion correction           -0.027736139
FINAL SINGLE POINT ENERGY      -738.387144364328
Dispersion correction            ... done
                    ***********************HURRAY********************

CARTESIAN COORDINATES (ANGSTROEM)
---------------------------------
  C     -0.932177   -1.448457    0.000371
  C     -2.109074   -0.741420   -0.000258
  C     -2.128720    0.692312   -0.000717
  C     -0.971606    1.431131   -0.000535
  C      0.273904    0.736159    0.000051
  C      0.294096   -0.719871    0.000501
  N      1.529351   -1.232201    0.001615
  S      2.567570    0.039958    0.000027
  N      1.494195    1.282633    0.000863
  H     -0.907530   -2.539346    0.000868
  H     -3.060820   -1.277985   -0.000281
  H     -3.094676    1.203030   -0.001100
  H     -0.977094    2.522267   -0.000776

 Multiplicity           Mult            ....    1
 Number of Electrons    NEL             ....   70
 Basis Dimension        Dim             ....  150

ORBITAL ENERGIES
----------------

  NO   OCC          E(Eh)            E(eV)
   0   2.0000     -88.935033     -2420.0453
   1   2.0000     -14.358179      -390.7059
   2   2.0000     -14.358101      -390.7038
   3   2.0000     -10.242245      -278.7056
   4   2.0000     -10.242046      -278.7002
   5   2.0000     -10.212573      -277.8982
   6   2.0000     -10.212358      -277.8924
   7   2.0000     -10.210576      -277.8439
   8   2.0000     -10.210475      -277.8411
   9   2.0000      -8.026346      -218.4080
  10   2.0000      -5.996288      -163.1673
  11   2.0000      -5.989101      -162.9717
  12   2.0000      -5.987534      -162.9291
  13   2.0000      -1.016272       -27.6542
  14   2.0000      -0.884671       -24.0731
  15   2.0000      -0.855893       -23.2900
  16   2.0000      -0.760239       -20.6872
  17   2.0000      -0.752116       -20.4661
  18   2.0000      -0.648943       -17.6586
  19   2.0000      -0.612213       -16.6592
  20   2.0000      -0.599892       -16.3239
  21   2.0000      -0.513016       -13.9599
  22   2.0000      -0.502301       -13.6683
  23   2.0000      -0.486804       -13.2466
  24   2.0000      -0.455921       -12.4062
  25   2.0000      -0.453319       -12.3354
  26   2.0000      -0.395937       -10.7740
  27   2.0000      -0.391356       -10.6493
  28   2.0000      -0.386063       -10.5053
  29   2.0000      -0.363329        -9.8867
  30   2.0000      -0.338177        -9.2023
  31   2.0000      -0.323049        -8.7906
  32   2.0000      -0.300741        -8.1836
  33   2.0000      -0.271186        -7.3793
  34   2.0000      -0.249366        -6.7856
  35   0.0000      -0.091902        -2.5008
  36   0.0000      -0.000489        -0.0133
  37   0.0000      -0.000434        -0.0118
  38   0.0000       0.019458         0.5295
  39   0.0000       0.058095         1.5808

MULLIKEN ATOMIC CHARGES
-----------------------
   0 C :   -0.009020
   1 C :    0.030557
   2 C :    0.029941
   3 C :   -0.008862
   4 C :    0.047126
   5 C :    0.046662
   6 N :   -0.282988
   7 S :    0.464443
   8 N :   -0.282809
   9 H :   -0.011791
  10 H :   -0.005372
  11 H :   -0.005780
  12 H :   -0.012107
Sum of atomic charges:    0.0000000

LOEWDIN ATOMIC CHARGES
----------------------
   0 C :   -0.021377
   1 C :   -0.016627
   2 C :   -0.016680
   3 C :   -0.021238
   4 C :   -0.052933
   5 C :   -0.052930
   6 N :   -0.282401
   7 S :    0.607475
   8 N :   -0.282289
   9 H :    0.037589
  10 H :    0.031973
  11 H :    0.031891
  12 H :    0.037547

  Mayer bond orders larger than 0.100000
B(  0-C ,  1-C ) :   1.5167 B(  0-C ,  3-C ) :   0.1139 B(  0-C ,  5-C ) :   1.2014
B(  0-C ,  9-H ) :   1.0072 B(  1-C ,  2-C ) :   1.1950 B(  1-C , 10-H ) :   0.9832
B(  2-C ,  3-C ) :   1.5170 B(  2-C , 11-H ) :   0.9832 B(  3-C ,  4-C ) :   1.2013
B(  3-C , 12-H ) :   1.0073 B(  4-C ,  5-C ) :   1.1428 B(  4-C ,  8-N ) :   1.4988
B(  5-C ,  6-N ) :   1.4986 B(  6-N ,  7-S ) :   1.2436 B(  6-N ,  8-N ) :   0.1647
B(  7-S ,  8-N ) :   1.2437

Dispersion correction           -0.027737384
FINAL SINGLE POINT ENERGY      -738.387144909531

DIPOLE MOMENT
-------------
                                X             Y             Z
Electronic contribution:      8.31069       0.11425       0.00062
Nuclear contribution   :     -8.96161      -0.12267      -0.00194
                        -----------------------------------------
Total Dipole Moment    :     -0.65091      -0.00842      -0.00132
                        -----------------------------------------
Magnitude (a.u.)       :      0.65097
Magnitude (Debye)      :      1.65463

Rotational constants in cm-1:     0.124679     0.041134     0.030930
Rotational constants in MHz :  3737.796242  1233.180421   927.257959

                             ****ORCA TERMINATED NORMALLY****
TOTAL RUN TIME: 0 days 0 hours 4 minutes 20 seconds 911 msec
