                         Program Version 4.2.0 -  RELEASE  -
|  1> # ORCA input file
|  2> # SCF done        -48.771961585825          0.000681677916
|  3> ! B3LYP/G D3BJ Opt RIJCOSX def2-SVP def2/J
|  4> * xyz 0 1
|  5>    C        1.42066        -0.01080        -0.35357
|  6>    C        0.40156         0.38669         0.46034
|  7>    C        0.56714         0.79856         1.80266
|  8>    N        0.63584         1.14105         2.89490
|  9>    C       -0.95724         0.44344         0.07387
| 10>    N       -2.07467         0.51269        -0.17455
| 11>    C        2.83360        -0.07615        -0.00335
| 12>    C        3.57463        -0.53012        -1.11147
| 13>    C        4.94609        -0.68431        -1.05471
| 14>    C        5.59782        -0.37938         0.13291
| 15>    C        4.86835         0.07430         1.24153
| 16>    C        3.48912         0.22808         1.18155
| 17>   Cl        5.68654         0.44868         2.70215
| 18>   Cl        7.29950        -0.55801         0.24332
| 19>    C        2.66931        -0.78553        -2.24828
| 20>    O        2.95233        -1.17842        -3.35231
| 21>    C        1.29766        -0.44988        -1.74593
| 22>    C        0.21970        -0.57394        -2.52332
| 23>    H        5.49413        -1.03374        -1.91554
| 24>    H        2.96166         0.57912         2.05340
| 25>    H       -0.78281        -0.35076        -2.20432
| 26>    H        0.35386        -0.92559        -3.53430
| 27> *
| 28>
| 29>                          ****END OF INPUT****
 Total Charge           Charge          ....    0
 Multiplicity           Mult            ....    1
 Number of Electrons    NEL             ....  138
Dispersion correction           -0.062407379
FINAL SINGLE POINT ENERGY     -1602.143291777226
Dispersion correction            ... done
Dispersion correction           -0.062024990
FINAL SINGLE POINT ENERGY     -1602.147221366331
Dispersion correction            ... done
Dispersion correction           -0.061971963
FINAL SINGLE POINT ENERGY     -1602.147486150988
Dispersion correction            ... done
FINAL SINGLE POINT ENERGY     -1602.147585093053
FINAL SINGLE POINT ENERGY     -1602.147622335895
FINAL SINGLE POINT ENERGY     -1602.147636865887
FINAL SINGLE POINT ENERGY     -1602.147643858903
Dispersion correction            ... done
Dispersion correction           -0.062046923
FINAL SINGLE POINT ENERGY     -1602.147649350229
Dispersion correction            ... done
Dispersion correction           -0.062046672
FINAL SINGLE POINT ENERGY     -1602.147653098412
Dispersion correction            ... done
                    ***********************HURRAY********************

CARTESIAN COORDINATES (ANGSTROEM)
---------------------------------
  C      1.392611    0.001618   -0.340468
  C      0.367231    0.381753    0.493656
  C      0.573345    0.760231    1.858533
  N      0.728975    1.066981    2.967866
  C     -0.998703    0.421711    0.068821
  N     -2.111332    0.460663   -0.262091
  C      2.825341   -0.065839    0.009581
  C      3.563252   -0.546501   -1.094176
  C      4.941225   -0.710455   -1.049188
  C      5.612376   -0.383256    0.131771
  C      4.887116    0.108987    1.243615
  C      3.498951    0.261877    1.191482
  Cl     5.706210    0.533140    2.705189
  Cl     7.326855   -0.578878    0.218096
  C      2.651044   -0.814001   -2.231765
  O      2.938589   -1.238226   -3.327887
  C      1.270842   -0.437828   -1.745664
  C      0.211396   -0.532554   -2.566848
  H      5.486188   -1.088193   -1.915493
  H      2.990382    0.641542    2.073941
  H     -0.805656   -0.263210   -2.284641
  H      0.398541   -0.903582   -3.579350

 Multiplicity           Mult            ....    1
 Number of Electrons    NEL             ....  138
 Basis Dimension        Dim             ....  280

ORBITAL ENERGIES
----------------

  NO   OCC          E(Eh)            E(eV)
   0   2.0000    -101.541403     -2763.0821
   1   2.0000    -101.539636     -2763.0340
   2   2.0000     -19.159684      -521.3615
   3   2.0000     -14.361868      -390.8063
   4   2.0000     -14.361129      -390.7862
   5   2.0000     -10.307363      -280.4776
   6   2.0000     -10.297195      -280.2009
   7   2.0000     -10.296639      -280.1858
   8   2.0000     -10.294944      -280.1397
   9   2.0000     -10.285529      -279.8835
  10   2.0000     -10.263569      -279.2859
  11   2.0000     -10.262745      -279.2635
  12   2.0000     -10.258742      -279.1545
  13   2.0000     -10.250076      -278.9187
  14   2.0000     -10.249143      -278.8934
  15   2.0000     -10.246046      -278.8091
  16   2.0000     -10.244736      -278.7734
  17   2.0000     -10.242481      -278.7121
  18   2.0000      -9.495508      -258.3859
  19   2.0000      -9.493756      -258.3382
  20   2.0000      -7.264790      -197.6850
  21   2.0000      -7.263041      -197.6374
  22   2.0000      -7.254881      -197.4153
  23   2.0000      -7.253989      -197.3911
  24   2.0000      -7.253118      -197.3674
  25   2.0000      -7.252232      -197.3433
  26   2.0000      -1.065254       -28.9870
  27   2.0000      -0.952893       -25.9295
  28   2.0000      -0.941248       -25.6127
  29   2.0000      -0.925871       -25.1942
  30   2.0000      -0.914241       -24.8778
  31   2.0000      -0.890087       -24.2205
  32   2.0000      -0.860101       -23.4045
  33   2.0000      -0.826799       -22.4984
  34   2.0000      -0.790309       -21.5054
  35   2.0000      -0.783851       -21.3297
  36   2.0000      -0.710209       -19.3258
  37   2.0000      -0.694840       -18.9076
  38   2.0000      -0.647145       -17.6097
  39   2.0000      -0.628644       -17.1063
  40   2.0000      -0.613634       -16.6978
  41   2.0000      -0.566857       -15.4250
  42   2.0000      -0.555919       -15.1273
  43   2.0000      -0.529567       -14.4102
  44   2.0000      -0.518339       -14.1047
  45   2.0000      -0.496352       -13.5064
  46   2.0000      -0.488221       -13.2852
  47   2.0000      -0.479716       -13.0537
  48   2.0000      -0.470246       -12.7961
  49   2.0000      -0.456775       -12.4295
  50   2.0000      -0.446934       -12.1617
  51   2.0000      -0.445753       -12.1296
  52   2.0000      -0.435540       -11.8516
  53   2.0000      -0.424877       -11.5615
  54   2.0000      -0.411932       -11.2092
  55   2.0000      -0.395465       -10.7611
  56   2.0000      -0.390584       -10.6283
  57   2.0000      -0.383875       -10.4458
  58   2.0000      -0.375570       -10.2198
  59   2.0000      -0.375439       -10.2162
  60   2.0000      -0.372928       -10.1479
  61   2.0000      -0.362260        -9.8576
  62   2.0000      -0.354263        -9.6400
  63   2.0000      -0.351232        -9.5575
  64   2.0000      -0.332453        -9.0465
  65   2.0000      -0.305542        -8.3142
  66   2.0000      -0.291808        -7.9405
  67   2.0000      -0.290912        -7.9161
  68   2.0000      -0.274477        -7.4689
  69   0.0000      -0.138750        -3.7756
  70   0.0000      -0.115296        -3.1374
  71   0.0000      -0.052332        -1.4240
  72   0.0000      -0.030765        -0.8372
  73   0.0000      -0.020812        -0.5663

MULLIKEN ATOMIC CHARGES
-----------------------
   0 C :    0.265403
   1 C :   -0.289060
   2 C :   -0.138302
   3 N :    0.118058
   4 C :   -0.144487
   5 N :    0.113756
   6 C :    0.039720
   7 C :   -0.013400
   8 C :   -0.017919
   9 C :    0.061681
  10 C :    0.044386
  11 C :   -0.002407
  12 Cl:   -0.027819
  13 Cl:   -0.035421
  14 C :    0.150649
  15 O :   -0.138668
  16 C :   -0.128146
  17 C :    0.021230
  18 H :    0.003272
  19 H :    0.001977
  20 H :    0.059133
  21 H :    0.056363
Sum of atomic charges:   -0.0000000

LOEWDIN ATOMIC CHARGES
----------------------
   0 C :    0.062865
   1 C :   -0.112220
   2 C :   -0.012535
   3 N :   -0.042292
   4 C :   -0.010439
   5 N :   -0.042174
   6 C :   -0.010556
   7 C :   -0.044409
   8 C :    0.003658
   9 C :   -0.126356
  10 C :   -0.123183
  11 C :   -0.010773
  12 Cl:    0.167279
  13 Cl:    0.164813
  14 C :    0.081559
  15 O :   -0.125535
  16 C :   -0.072550
  17 C :    0.071924
  18 H :    0.048279
  19 H :    0.044621
  20 H :    0.041643
  21 H :    0.046383

  Mayer bond orders larger than 0.100000
B(  0-C ,  1-C ) :   1.6428 B(  0-C ,  6-C ) :   1.0264 B(  0-C , 16-C ) :   1.0036
B(  1-C ,  2-C ) :   1.1273 B(  1-C ,  4-C ) :   1.1426 B(  2-C ,  3-N ) :   2.9355
B(  4-C ,  5-N ) :   2.9387 B(  6-C ,  7-C ) :   1.3050 B(  6-C , 11-C ) :   1.3132
B(  7-C ,  8-C ) :   1.3288 B(  7-C , 14-C ) :   0.9369 B(  8-C ,  9-C ) :   1.3440
B(  8-C , 18-H ) :   1.0046 B(  9-C , 10-C ) :   1.3701 B(  9-C , 13-Cl) :   1.0534
B( 10-C , 11-C ) :   1.3683 B( 10-C , 12-Cl) :   1.0788 B( 11-C , 19-H ) :   0.9760
B( 14-C , 15-O ) :   2.2351 B( 14-C , 16-C ) :   0.9163 B( 16-C , 17-C ) :   1.9198
B( 17-C , 20-H ) :   0.9207 B( 17-C , 21-H ) :   0.9073

Dispersion correction           -0.062046547
FINAL SINGLE POINT ENERGY     -1602.147654579342

DIPOLE MOMENT
-------------
                                X             Y             Z
Electronic contribution:     14.41521       1.13521       8.88814
Nuclear contribution   :    -13.33779      -1.38135      -9.44653
                        -----------------------------------------
Total Dipole Moment    :      1.07742      -0.24614      -0.55839
                        -----------------------------------------
Magnitude (a.u.)       :      1.23823
Magnitude (Debye)      :      3.14733

Rotational constants in cm-1:     0.018787     0.007864     0.005545
Rotational constants in MHz :   563.228843   235.746852   166.236876

                             ****ORCA TERMINATED NORMALLY****
TOTAL RUN TIME: 0 days 0 hours 21 minutes 58 seconds 178 msec
