                         Program Version 4.2.0 -  RELEASE  -
|  1> # ORCA input file
|  2> # SCF done        -32.251744073362          0.000829776744
|  3> ! B3LYP/G D3BJ Opt RIJCOSX def2-SVP def2/J
|  4> * xyz 0 1
|  5>    C        3.13703        -0.21182         0.01040
|  6>    C        2.50289         0.98985         0.00762
|  7>    C        1.10289         0.82047         0.00633
|  8>    C        0.70694        -0.52651         0.00815
|  9>    S        2.07164        -1.58291         0.01148
| 10>    C       -0.69390        -0.53078         0.00634
| 11>    C       -1.10093         0.81381         0.00347
| 12>    N       -0.00171         1.63101         0.00356
| 13>    C        0.01237         3.06621         0.00085
| 14>    C       -2.50315         0.96776         0.00114
| 15>    C       -3.12566        -0.23989         0.00231
| 16>    S       -2.04819        -1.60055         0.00620
| 17>    H        4.19346        -0.39287         0.01187
| 18>    H        3.01175         1.93678         0.00654
| 19>    H       -1.01131         3.43404         0.00002
| 20>    H        0.52575         3.44369        -0.88755
| 21>    H        0.52549         3.44696         0.88798
| 22>    H       -3.02702         1.90675        -0.00122
| 23>    H       -4.18055        -0.42974         0.00110
| 24> *
| 25>
| 26>                          ****END OF INPUT****
 Total Charge           Charge          ....    0
 Multiplicity           Mult            ....    1
 Number of Electrons    NEL             ....  100
Dispersion correction           -0.045468659
FINAL SINGLE POINT ENERGY     -1197.811545145923
Dispersion correction            ... done
Dispersion correction           -0.045402235
FINAL SINGLE POINT ENERGY     -1197.814577401849
Dispersion correction            ... done
Dispersion correction           -0.045393151
FINAL SINGLE POINT ENERGY     -1197.814703836982
Dispersion correction            ... done
Dispersion correction           -0.045388097
FINAL SINGLE POINT ENERGY     -1197.814724976753
Dispersion correction            ... done
Dispersion correction           -0.045384436
FINAL SINGLE POINT ENERGY     -1197.814729650463
Dispersion correction            ... done
                    ***********************HURRAY********************

CARTESIAN COORDINATES (ANGSTROEM)
---------------------------------
  C      3.175661   -0.217669    0.010313
  C      2.527759    0.994607    0.007831
  C      1.115745    0.808816    0.006336
  C      0.715253   -0.541280    0.008126
  S      2.095211   -1.593429    0.012160
  C     -0.703203   -0.545447    0.005988
  C     -1.114171    0.802302    0.003310
  N     -0.000177    1.626449    0.003544
  C      0.016079    3.069009    0.000790
  C     -2.528805    0.972125    0.001195
  C     -3.164734   -0.246277    0.002446
  S     -2.072587   -1.611995    0.005769
  H      4.249746   -0.396744    0.011661
  H      3.041448    1.955905    0.006773
  H     -1.014535    3.445714   -0.000140
  H      0.527137    3.462931   -0.893704
  H      0.526693    3.466255    0.894041
  H     -3.057437    1.925319   -0.001110
  H     -4.237293   -0.434329    0.001261

 Multiplicity           Mult            ....    1
 Number of Electrons    NEL             ....  100
 Basis Dimension        Dim             ....  211

ORBITAL ENERGIES
----------------

  NO   OCC          E(Eh)            E(eV)
   0   2.0000     -88.868266     -2418.2285
   1   2.0000     -88.867723     -2418.2137
   2   2.0000     -14.378298      -391.2534
   3   2.0000     -10.241719      -278.6913
   4   2.0000     -10.219228      -278.0793
   5   2.0000     -10.217021      -278.0193
   6   2.0000     -10.209837      -277.8238
   7   2.0000     -10.209805      -277.8229
   8   2.0000     -10.204364      -277.6749
   9   2.0000     -10.203821      -277.6601
  10   2.0000     -10.197551      -277.4895
  11   2.0000     -10.197296      -277.4825
  12   2.0000      -7.962261      -216.6641
  13   2.0000      -7.961735      -216.6498
  14   2.0000      -5.930814      -161.3857
  15   2.0000      -5.930305      -161.3718
  16   2.0000      -5.926747      -161.2750
  17   2.0000      -5.926227      -161.2608
  18   2.0000      -5.922920      -161.1709
  19   2.0000      -5.922378      -161.1561
  20   2.0000      -0.985596       -26.8194
  21   2.0000      -0.866075       -23.5671
  22   2.0000      -0.862286       -23.4640
  23   2.0000      -0.779676       -21.2161
  24   2.0000      -0.735006       -20.0005
  25   2.0000      -0.733920       -19.9710
  26   2.0000      -0.683268       -18.5927
  27   2.0000      -0.674086       -18.3428
  28   2.0000      -0.594182       -16.1685
  29   2.0000      -0.572709       -15.5842
  30   2.0000      -0.548271       -14.9192
  31   2.0000      -0.534127       -14.5343
  32   2.0000      -0.501685       -13.6516
  33   2.0000      -0.474685       -12.9168
  34   2.0000      -0.469802       -12.7840
  35   2.0000      -0.448727       -12.2105
  36   2.0000      -0.438026       -11.9193
  37   2.0000      -0.410486       -11.1699
  38   2.0000      -0.405890       -11.0448
  39   2.0000      -0.404432       -11.0051
  40   2.0000      -0.390409       -10.6236
  41   2.0000      -0.370118       -10.0714
  42   2.0000      -0.364973        -9.9314
  43   2.0000      -0.349382        -9.5072
  44   2.0000      -0.336483        -9.1562
  45   2.0000      -0.324225        -8.8226
  46   2.0000      -0.273560        -7.4439
  47   2.0000      -0.253847        -6.9075
  48   2.0000      -0.207114        -5.6358
  49   2.0000      -0.193655        -5.2696
  50   0.0000      -0.027860        -0.7581
  51   0.0000       0.021375         0.5816
  52   0.0000       0.037806         1.0288
  53   0.0000       0.051189         1.3929
  54   0.0000       0.057513         1.5650

MULLIKEN ATOMIC CHARGES
-----------------------
   0 C :   -0.110231
   1 C :    0.006348
   2 C :    0.099152
   3 C :   -0.123580
   4 S :    0.115626
   5 C :   -0.132275
   6 C :    0.102519
   7 N :   -0.203218
   8 C :    0.134485
   9 C :    0.004056
  10 C :   -0.111059
  11 S :    0.115751
  12 H :    0.028432
  13 H :   -0.026682
  14 H :    0.029733
  15 H :    0.033867
  16 H :    0.033889
  17 H :   -0.024676
  18 H :    0.027861
Sum of atomic charges:   -0.0000000

LOEWDIN ATOMIC CHARGES
----------------------
   0 C :   -0.187435
   1 C :   -0.085316
   2 C :   -0.026895
   3 C :   -0.226399
   4 S :    0.402399
   5 C :   -0.229390
   6 C :   -0.023640
   7 N :    0.017034
   8 C :    0.040824
   9 C :   -0.086168
  10 C :   -0.187055
  11 S :    0.401073
  12 H :    0.023444
  13 H :    0.028999
  14 H :    0.033085
  15 H :    0.026935
  16 H :    0.026954
  17 H :    0.028106
  18 H :    0.023445

  Mayer bond orders larger than 0.100000
B(  0-C ,  1-C ) :   1.5338 B(  0-C ,  4-S ) :   1.1447 B(  0-C , 12-H ) :   0.9619
B(  1-C ,  2-C ) :   1.2274 B(  1-C , 13-H ) :   1.0045 B(  2-C ,  3-C ) :   1.3975
B(  2-C ,  7-N ) :   1.1390 B(  3-C ,  4-S ) :   1.0455 B(  3-C ,  5-C ) :   1.3932
B(  5-C ,  6-C ) :   1.3977 B(  5-C , 11-S ) :   1.0436 B(  6-C ,  7-N ) :   1.1334
B(  6-C ,  9-C ) :   1.2248 B(  7-N ,  8-C ) :   0.9824 B(  8-C , 14-H ) :   0.9729
B(  8-C , 15-H ) :   0.9690 B(  8-C , 16-H ) :   0.9691 B(  9-C , 10-C ) :   1.5402
B(  9-C , 17-H ) :   1.0012 B( 10-C , 11-S ) :   1.1446 B( 10-C , 18-H ) :   0.9616

Dispersion correction           -0.045383058
FINAL SINGLE POINT ENERGY     -1197.814729727688

DIPOLE MOMENT
-------------
                                X             Y             Z
Electronic contribution:     -0.00324     -11.66452       0.02112
Nuclear contribution   :     -0.00871      12.87349      -0.02333
                        -----------------------------------------
Total Dipole Moment    :     -0.01195       1.20897      -0.00220
                        -----------------------------------------
Magnitude (a.u.)       :      1.20903
Magnitude (Debye)      :      3.07312

Rotational constants in cm-1:     0.041352     0.021789     0.014309
Rotational constants in MHz :  1239.710436   653.231110   428.978888

                             ****ORCA TERMINATED NORMALLY****
TOTAL RUN TIME: 0 days 0 hours 7 minutes 11 seconds 2 msec
