                         Program Version 4.2.0 -  RELEASE  -
|  1> # ORCA input file
|  2> # SCF done        -33.549986561381          0.000559319802
|  3> ! B3LYP/G D3BJ Opt RIJCOSX def2-SVP def2/J
|  4> * xyz 0 1
|  5>    C        1.04826        -0.70191        -0.06650
|  6>    C        0.97828         0.63643         0.09736
|  7>    C       -0.37343         1.13521         0.30954
|  8>    C       -0.72912         2.43815         0.50151
|  9>    C        0.17779         3.52133         0.52436
| 10>    N        0.85537         4.44450         0.55612
| 11>    C       -2.08132         2.80771         0.69944
| 12>    N       -3.17229         3.11609         0.86017
| 13>    S       -1.53255        -0.16719         0.29108
| 14>    C       -0.23020        -1.40234        -0.00174
| 15>    O       -0.46047        -2.56650        -0.11159
| 16>    C        2.11582         1.47402         0.06541
| 17>    N        3.07560         2.09684         0.02977
| 18>    H        1.95186        -1.26268        -0.23507
| 19> *
| 20>
| 21>                          ****END OF INPUT****
 Total Charge           Charge          ....    0
 Multiplicity           Mult            ....    1
 Number of Electrons    NEL             ....   94
Dispersion correction           -0.037414945
FINAL SINGLE POINT ENERGY      -942.541728201670
Dispersion correction            ... done
Dispersion correction           -0.036907878
FINAL SINGLE POINT ENERGY      -942.545404520845
Dispersion correction            ... done
Dispersion correction           -0.036922055
FINAL SINGLE POINT ENERGY      -942.545559276195
Dispersion correction            ... done
FINAL SINGLE POINT ENERGY      -942.545585924599
FINAL SINGLE POINT ENERGY      -942.545590278122
FINAL SINGLE POINT ENERGY      -942.545598149171
Dispersion correction            ... done
Dispersion correction           -0.036937508
FINAL SINGLE POINT ENERGY      -942.545598805375
Dispersion correction            ... done
Dispersion correction           -0.036940532
FINAL SINGLE POINT ENERGY      -942.545599253687
Dispersion correction            ... done
                    ***********************HURRAY********************

CARTESIAN COORDINATES (ANGSTROEM)
---------------------------------
  C      1.053521   -0.713400   -0.065858
  C      0.996261    0.632211    0.095649
  C     -0.367512    1.153456    0.309345
  C     -0.732247    2.463154    0.503642
  C      0.172179    3.571736    0.514932
  N      0.836163    4.523587    0.537768
  C     -2.111988    2.790421    0.711310
  N     -3.231432    3.046900    0.879907
  S     -1.554539   -0.134780    0.295191
  C     -0.253551   -1.399396   -0.004860
  O     -0.481978   -2.566970   -0.124545
  C      2.171114    1.444955    0.066874
  N      3.163070    2.045199    0.034662
  H      1.964540   -1.287415   -0.234156

 Multiplicity           Mult            ....    1
 Number of Electrons    NEL             ....   94
 Basis Dimension        Dim             ....  191

ORBITAL ENERGIES
----------------

  NO   OCC          E(Eh)            E(eV)
   0   2.0000     -88.924067     -2419.7469
   1   2.0000     -19.199109      -522.4343
   2   2.0000     -14.380541      -391.3144
   3   2.0000     -14.377171      -391.2227
   4   2.0000     -14.374189      -391.1416
   5   2.0000     -10.357198      -281.8337
   6   2.0000     -10.324739      -280.9504
   7   2.0000     -10.323719      -280.9227
   8   2.0000     -10.318242      -280.7736
   9   2.0000     -10.287204      -279.9291
  10   2.0000     -10.277707      -279.6706
  11   2.0000     -10.275719      -279.6165
  12   2.0000     -10.273425      -279.5541
  13   2.0000      -8.020202      -218.2408
  14   2.0000      -5.988399      -162.9526
  15   2.0000      -5.984852      -162.8561
  16   2.0000      -5.980164      -162.7285
  17   2.0000      -1.110016       -30.2051
  18   2.0000      -0.968033       -26.3415
  19   2.0000      -0.948073       -25.7984
  20   2.0000      -0.936670       -25.4881
  21   2.0000      -0.933089       -25.3906
  22   2.0000      -0.867160       -23.5966
  23   2.0000      -0.822588       -22.3838
  24   2.0000      -0.758158       -20.6305
  25   2.0000      -0.679646       -18.4941
  26   2.0000      -0.653961       -17.7952
  27   2.0000      -0.611722       -16.6458
  28   2.0000      -0.592668       -16.1273
  29   2.0000      -0.539185       -14.6720
  30   2.0000      -0.500208       -13.6113
  31   2.0000      -0.499956       -13.6045
  32   2.0000      -0.487828       -13.2745
  33   2.0000      -0.463239       -12.6054
  34   2.0000      -0.436133       -11.8678
  35   2.0000      -0.429838       -11.6965
  36   2.0000      -0.408890       -11.1265
  37   2.0000      -0.403808       -10.9882
  38   2.0000      -0.401335       -10.9209
  39   2.0000      -0.397490       -10.8163
  40   2.0000      -0.387130       -10.5343
  41   2.0000      -0.382892       -10.4190
  42   2.0000      -0.381211       -10.3733
  43   2.0000      -0.368989       -10.0407
  44   2.0000      -0.331929        -9.0323
  45   2.0000      -0.325278        -8.8513
  46   2.0000      -0.297475        -8.0947
  47   0.0000      -0.174852        -4.7580
  48   0.0000      -0.087315        -2.3760
  49   0.0000      -0.061393        -1.6706
  50   0.0000      -0.023879        -0.6498
  51   0.0000      -0.022787        -0.6201

MULLIKEN ATOMIC CHARGES
-----------------------
   0 C :    0.040704
   1 C :   -0.045988
   2 C :    0.063682
   3 C :   -0.238712
   4 C :   -0.142020
   5 N :    0.182706
   6 C :   -0.159182
   7 N :    0.142877
   8 S :    0.114077
   9 C :    0.089799
  10 O :   -0.115305
  11 C :   -0.135787
  12 N :    0.162713
  13 H :    0.040436
Sum of atomic charges:   -0.0000000

LOEWDIN ATOMIC CHARGES
----------------------
   0 C :    0.010400
   1 C :   -0.040818
   2 C :   -0.088710
   3 C :   -0.099622
   4 C :   -0.027273
   5 N :    0.000919
   6 C :   -0.027089
   7 N :   -0.007975
   8 S :    0.379963
   9 C :   -0.045310
  10 O :   -0.089750
  11 C :   -0.030932
  12 N :    0.005653
  13 H :    0.060544

  Mayer bond orders larger than 0.100000
B(  0-C ,  1-C ) :   1.6685 B(  0-C ,  9-C ) :   0.9239 B(  0-C , 13-H ) :   0.9965
B(  1-C ,  2-C ) :   1.0525 B(  1-C , 11-C ) :   1.1232 B(  2-C ,  3-C ) :   1.6416
B(  2-C ,  8-S ) :   1.1020 B(  3-C ,  4-C ) :   1.1677 B(  3-C ,  6-C ) :   1.1326
B(  4-C ,  5-N ) :   2.9789 B(  6-C ,  7-N ) :   2.9902 B(  8-S ,  9-C ) :   0.9509
B(  8-S , 10-O ) :   0.1168 B(  9-C , 10-O ) :   2.1377 B( 11-C , 12-N ) :   2.9907

Dispersion correction           -0.036941411
FINAL SINGLE POINT ENERGY      -942.545599237232

DIPOLE MOMENT
-------------
                                X             Y             Z
Electronic contribution:     -1.86805       0.80246       0.29984
Nuclear contribution   :      2.05438      -2.23123      -0.48926
                        -----------------------------------------
Total Dipole Moment    :      0.18633      -1.42876      -0.18942
                        -----------------------------------------
Magnitude (a.u.)       :      1.45326
Magnitude (Debye)      :      3.69389

Rotational constants in cm-1:     0.032043     0.022224     0.013123
Rotational constants in MHz :   960.618732   666.250412   393.422480

                             ****ORCA TERMINATED NORMALLY****
TOTAL RUN TIME: 0 days 0 hours 8 minutes 21 seconds 509 msec
