                         Program Version 4.2.0 -  RELEASE  -
|  1> # ORCA input file
|  2> # SCF done        -28.964449138112          0.000851107990
|  3> ! B3LYP/G D3BJ Opt RIJCOSX def2-SVP def2/J
|  4> * xyz 0 1
|  5>    C       -0.53290         1.27253        -0.19241
|  6>    C        0.77225         1.10086         0.07426
|  7>    C        1.30764        -0.22707         0.22975
|  8>    C        2.63411        -0.46585         0.50423
|  9>    C        3.13926        -1.77002         0.65390
| 10>    N        3.54631        -2.83698         0.77409
| 11>    C        3.56225         0.58042         0.65279
| 12>    N        4.31572         1.43820         0.77235
| 13>    C        0.34246        -1.28472         0.07487
| 14>    C       -0.94054        -0.99016        -0.19188
| 15>    O       -1.41170         0.26276        -0.33114
| 16>    H       -0.99961         2.23744        -0.32071
| 17>    H        1.42743         1.95080         0.17421
| 18>    H        0.65979        -2.30985         0.17521
| 19>    H       -1.71467        -1.73157        -0.31990
| 20> *
| 21>
| 22>                          ****END OF INPUT****
 Total Charge           Charge          ....    0
 Multiplicity           Mult            ....    1
 Number of Electrons    NEL             ....   74
Dispersion correction           -0.030461325
FINAL SINGLE POINT ENERGY      -491.577032133403
Dispersion correction            ... done
Dispersion correction           -0.030229935
FINAL SINGLE POINT ENERGY      -491.579799645193
Dispersion correction            ... done
Dispersion correction           -0.030208312
FINAL SINGLE POINT ENERGY      -491.579938539392
Dispersion correction            ... done
FINAL SINGLE POINT ENERGY      -491.579992992467
FINAL SINGLE POINT ENERGY      -491.580014370080
FINAL SINGLE POINT ENERGY      -491.580025421868
Dispersion correction            ... done
Dispersion correction           -0.030260038
FINAL SINGLE POINT ENERGY      -491.580032484626
Dispersion correction            ... done
Dispersion correction           -0.030261514
FINAL SINGLE POINT ENERGY      -491.580034301047
Dispersion correction            ... done
                    ***********************HURRAY********************

CARTESIAN COORDINATES (ANGSTROEM)
---------------------------------
  C     -0.534145    1.281635   -0.187956
  C      0.780986    1.107066    0.069810
  C      1.323563   -0.223576    0.224459
  C      2.663337   -0.465482    0.504822
  C      3.137027   -1.802066    0.661244
  N      3.469780   -2.909984    0.779540
  C      3.587876    0.610238    0.654105
  N      4.313152    1.511795    0.769759
  C      0.358357   -1.287962    0.070061
  C     -0.936566   -1.003931   -0.188949
  O     -1.405250    0.256680   -0.320059
  H     -1.022800    2.247699   -0.315104
  H      1.425817    1.981247    0.166892
  H      0.669349   -2.329387    0.162323
  H     -1.722683   -1.747182   -0.321328

 Multiplicity           Mult            ....    1
 Number of Electrons    NEL             ....   74
 Basis Dimension        Dim             ....  174

ORBITAL ENERGIES
----------------

  NO   OCC          E(Eh)            E(eV)
   0   2.0000     -19.257558      -524.0248
   1   2.0000     -14.332553      -390.0086
   2   2.0000     -14.332438      -390.0055
   3   2.0000     -10.309027      -280.5229
   4   2.0000     -10.308713      -280.5143
   5   2.0000     -10.270314      -279.4694
   6   2.0000     -10.258610      -279.1510
   7   2.0000     -10.244050      -278.7548
   8   2.0000     -10.243523      -278.7404
   9   2.0000     -10.236137      -278.5394
  10   2.0000     -10.236131      -278.5393
  11   2.0000      -1.156302       -31.4646
  12   2.0000      -0.915079       -24.9006
  13   2.0000      -0.897518       -24.4227
  14   2.0000      -0.878127       -23.8951
  15   2.0000      -0.834132       -22.6979
  16   2.0000      -0.796206       -21.6659
  17   2.0000      -0.713371       -19.4118
  18   2.0000      -0.681586       -18.5469
  19   2.0000      -0.607019       -16.5178
  20   2.0000      -0.598543       -16.2872
  21   2.0000      -0.536494       -14.5988
  22   2.0000      -0.527491       -14.3538
  23   2.0000      -0.510471       -13.8906
  24   2.0000      -0.506720       -13.7886
  25   2.0000      -0.495702       -13.4887
  26   2.0000      -0.424783       -11.5589
  27   2.0000      -0.418730       -11.3942
  28   2.0000      -0.409564       -11.1448
  29   2.0000      -0.368973       -10.0403
  30   2.0000      -0.365154        -9.9363
  31   2.0000      -0.356137        -9.6910
  32   2.0000      -0.351891        -9.5754
  33   2.0000      -0.349573        -9.5124
  34   2.0000      -0.339394        -9.2354
  35   2.0000      -0.333058        -9.0630
  36   2.0000      -0.242893        -6.6095
  37   0.0000      -0.097510        -2.6534
  38   0.0000      -0.061586        -1.6758
  39   0.0000      -0.000723        -0.0197
  40   0.0000       0.042251         1.1497
  41   0.0000       0.044798         1.2190

MULLIKEN ATOMIC CHARGES
-----------------------
   0 C :    0.177126
   1 C :   -0.045270
   2 C :    0.170115
   3 C :   -0.268392
   4 C :   -0.145009
   5 N :    0.079032
   6 C :   -0.146214
   7 N :    0.083303
   8 C :   -0.050196
   9 C :    0.175103
  10 O :   -0.199645
  11 H :    0.042187
  12 H :    0.040704
  13 H :    0.041131
  14 H :    0.046024
Sum of atomic charges:    0.0000000

LOEWDIN ATOMIC CHARGES
----------------------
   0 C :    0.098720
   1 C :   -0.041922
   2 C :    0.042783
   3 C :   -0.159955
   4 C :   -0.024926
   5 N :   -0.072028
   6 C :   -0.026195
   7 N :   -0.070920
   8 C :   -0.042361
   9 C :    0.097598
  10 O :    0.007140
  11 H :    0.041092
  12 H :    0.054452
  13 H :    0.054622
  14 H :    0.041900

  Mayer bond orders larger than 0.100000
B(  0-C ,  1-C ) :   1.6520 B(  0-C , 10-O ) :   1.1148 B(  0-C , 11-H ) :   0.9729
B(  1-C ,  2-C ) :   1.1470 B(  1-C , 12-H ) :   0.9566 B(  2-C ,  3-C ) :   1.5573
B(  2-C ,  8-C ) :   1.1454 B(  3-C ,  4-C ) :   1.1332 B(  3-C ,  6-C ) :   1.1315
B(  4-C ,  5-N ) :   2.9688 B(  6-C ,  7-N ) :   2.9723 B(  8-C ,  9-C ) :   1.6555
B(  8-C , 13-H ) :   0.9563 B(  9-C , 10-O ) :   1.1175 B(  9-C , 14-H ) :   0.9702

Dispersion correction           -0.030260604
FINAL SINGLE POINT ENERGY      -491.580035182097

DIPOLE MOMENT
-------------
                                X             Y             Z
Electronic contribution:      3.28384      -0.58326       0.68266
Nuclear contribution   :     -6.10787       1.10254      -1.28013
                        -----------------------------------------
Total Dipole Moment    :     -2.82404       0.51928      -0.59747
                        -----------------------------------------
Magnitude (a.u.)       :      2.93289
Magnitude (Debye)      :      7.45480

Rotational constants in cm-1:     0.063883     0.028353     0.019638
Rotational constants in MHz :  1915.164452   850.002487   588.726998

                             ****ORCA TERMINATED NORMALLY****
TOTAL RUN TIME: 0 days 0 hours 10 minutes 21 seconds 254 msec
