                         Program Version 4.2.0 -  RELEASE  -
|  1> # ORCA input file
|  2> # SCF done        -33.564450201665          0.000905198721
|  3> ! B3LYP/G D3BJ Opt RIJCOSX def2-SVP def2/J
|  4> * xyz 0 1
|  5>    C       -0.74243         1.20877         0.00353
|  6>    C        0.64637         1.28234        -0.08575
|  7>    N        1.21849         2.59815        -0.18074
|  8>    O        0.52700         3.53504         0.16065
|  9>    O        2.35459         2.70497        -0.59872
| 10>    C        1.43215         0.12346        -0.08612
| 11>    C        2.94019         0.13261        -0.14841
| 12>    O        3.51901        -1.10299         0.18557
| 13>    C        0.76933        -1.09797        -0.01008
| 14>    C       -0.60873        -1.17337         0.06460
| 15>    C       -1.37223        -0.01539         0.07755
| 16>    H       -1.30499         2.13005         0.00468
| 17>    H        3.34533         0.93788         0.47891
| 18>    H        3.25324         0.34215        -1.17666
| 19>    H        3.38993        -1.26938         1.12632
| 20>    H        1.36139        -2.00071        -0.02669
| 21>    H       -1.08909        -2.13881         0.11191
| 22>    H       -2.44772        -0.06859         0.13786
| 23> *
| 24>
| 25>                          ****END OF INPUT****
 Total Charge           Charge          ....    0
 Multiplicity           Mult            ....    1
 Number of Electrons    NEL             ....   80
Dispersion correction           -0.033632304
FINAL SINGLE POINT ENERGY      -550.901469927336
Dispersion correction            ... done
Dispersion correction           -0.033412247
FINAL SINGLE POINT ENERGY      -550.903747379838
Dispersion correction            ... done
Dispersion correction           -0.033391719
FINAL SINGLE POINT ENERGY      -550.903723824571
Dispersion correction            ... done
FINAL SINGLE POINT ENERGY      -550.903712087230
FINAL SINGLE POINT ENERGY      -550.903994157000
FINAL SINGLE POINT ENERGY      -550.903991317654
Dispersion correction            ... done
Dispersion correction           -0.033387122
FINAL SINGLE POINT ENERGY      -550.903999931535
Dispersion correction            ... done
Dispersion correction           -0.033382860
FINAL SINGLE POINT ENERGY      -550.904003952897
Dispersion correction            ... done
                    ***********************HURRAY********************

CARTESIAN COORDINATES (ANGSTROEM)
---------------------------------
  C     -0.765002    1.217033   -0.002404
  C      0.629073    1.279562   -0.085756
  N      1.217313    2.627031   -0.191525
  O      0.504237    3.581731    0.066046
  O      2.387847    2.713487   -0.538855
  C      1.439423    0.127440   -0.074173
  C      2.960293    0.125456   -0.138874
  O      3.517736   -1.140407    0.120870
  C      0.770998   -1.103285    0.008837
  C     -0.619731   -1.183275    0.077529
  C     -1.394914   -0.020682    0.074258
  H     -1.324801    2.151003   -0.000049
  H      3.367035    0.904094    0.526340
  H      3.277751    0.418771   -1.150679
  H      3.431057   -1.322809    1.065795
  H      1.380193   -2.007192    0.011760
  H     -1.102904   -2.161480    0.135707
  H     -2.483774   -0.078270    0.133582

 Multiplicity           Mult            ....    1
 Number of Electrons    NEL             ....   80
 Basis Dimension        Dim             ....  189

ORBITAL ENERGIES
----------------

  NO   OCC          E(Eh)            E(eV)
   0   2.0000     -19.167563      -521.5759
   1   2.0000     -19.166197      -521.5387
   2   2.0000     -19.146599      -521.0054
   3   2.0000     -14.564069      -396.3085
   4   2.0000     -10.255170      -279.0574
   5   2.0000     -10.249739      -278.9096
   6   2.0000     -10.230466      -278.3851
   7   2.0000     -10.221665      -278.1456
   8   2.0000     -10.220804      -278.1222
   9   2.0000     -10.217198      -278.0241
  10   2.0000     -10.212738      -277.9027
  11   2.0000      -1.227929       -33.4137
  12   2.0000      -1.053206       -28.6592
  13   2.0000      -1.027229       -27.9523
  14   2.0000      -0.889236       -24.1973
  15   2.0000      -0.806301       -21.9406
  16   2.0000      -0.781449       -21.2643
  17   2.0000      -0.712812       -19.3966
  18   2.0000      -0.679871       -18.5002
  19   2.0000      -0.619410       -16.8550
  20   2.0000      -0.596618       -16.2348
  21   2.0000      -0.560312       -15.2469
  22   2.0000      -0.547131       -14.8882
  23   2.0000      -0.525233       -14.2923
  24   2.0000      -0.515949       -14.0397
  25   2.0000      -0.506784       -13.7903
  26   2.0000      -0.482880       -13.1398
  27   2.0000      -0.457535       -12.4502
  28   2.0000      -0.456101       -12.4111
  29   2.0000      -0.444089       -12.0843
  30   2.0000      -0.395632       -10.7657
  31   2.0000      -0.393385       -10.7045
  32   2.0000      -0.381244       -10.3742
  33   2.0000      -0.349231        -9.5030
  34   2.0000      -0.318227        -8.6594
  35   2.0000      -0.315832        -8.5942
  36   2.0000      -0.304107        -8.2752
  37   2.0000      -0.293515        -7.9870
  38   2.0000      -0.285472        -7.7681
  39   2.0000      -0.275540        -7.4978
  40   0.0000      -0.093454        -2.5430
  41   0.0000      -0.034436        -0.9370
  42   0.0000      -0.012559        -0.3418
  43   0.0000       0.043566         1.1855
  44   0.0000       0.054823         1.4918

MULLIKEN ATOMIC CHARGES
-----------------------
   0 C :   -0.002503
   1 C :    0.125794
   2 N :    0.229519
   3 O :   -0.238335
   4 O :   -0.249091
   5 C :   -0.139121
   6 C :    0.336937
   7 O :   -0.299944
   8 C :   -0.047168
   9 C :    0.071012
  10 C :    0.011579
  11 H :    0.007217
  12 H :    0.013405
  13 H :    0.028598
  14 H :    0.166092
  15 H :   -0.011748
  16 H :   -0.005488
  17 H :    0.003244
Sum of atomic charges:   -0.0000000

LOEWDIN ATOMIC CHARGES
----------------------
   0 C :    0.000158
   1 C :   -0.027680
   2 N :    0.275460
   3 O :   -0.201723
   4 O :   -0.201342
   5 C :   -0.022949
   6 C :    0.073744
   7 O :   -0.123746
   8 C :   -0.023159
   9 C :    0.003181
  10 C :   -0.023030
  11 H :    0.040454
  12 H :    0.017334
  13 H :    0.038211
  14 H :    0.078400
  15 H :    0.028659
  16 H :    0.033346
  17 H :    0.034682

  Mayer bond orders larger than 0.100000
B(  0-C ,  1-C ) :   1.3802 B(  0-C , 10-C ) :   1.3513 B(  0-C , 11-H ) :   0.9812
B(  1-C ,  2-N ) :   0.8680 B(  1-C ,  5-C ) :   1.3665 B(  2-N ,  3-O ) :   1.5452
B(  2-N ,  4-O ) :   1.4994 B(  3-O ,  4-O ) :   0.2736 B(  5-C ,  6-C ) :   0.9965
B(  5-C ,  8-C ) :   1.3935 B(  6-C ,  7-O ) :   1.0475 B(  6-C , 12-H ) :   0.9276
B(  6-C , 13-H ) :   0.9093 B(  7-O , 14-H ) :   0.9775 B(  8-C ,  9-C ) :   1.3529
B(  8-C , 15-H ) :   0.9779 B(  9-C , 10-C ) :   1.3510 B(  9-C , 16-H ) :   0.9911
B( 10-C , 17-H ) :   0.9880

Dispersion correction           -0.033380937
FINAL SINGLE POINT ENERGY      -550.904004119011

DIPOLE MOMENT
-------------
                                X             Y             Z
Electronic contribution:      0.02529       5.91528      -0.50597
Nuclear contribution   :     -0.77909      -7.16749       1.07225
                        -----------------------------------------
Total Dipole Moment    :     -0.75380      -1.25221       0.56628
                        -----------------------------------------
Magnitude (a.u.)       :      1.56746
Magnitude (Debye)      :      3.98416

Rotational constants in cm-1:     0.045898     0.038406     0.021224
Rotational constants in MHz :  1375.982884  1151.385434   636.280922

                             ****ORCA TERMINATED NORMALLY****
TOTAL RUN TIME: 0 days 0 hours 12 minutes 20 seconds 949 msec
