                         Program Version 4.2.0 -  RELEASE  -
|  1> # ORCA input file
|  2> # SCF done        -28.134392494388          0.000922858331
|  3> ! B3LYP/G D3BJ Opt RIJCOSX def2-SVP def2/J
|  4> * xyz 0 1
|  5>    C       -0.46684         1.45179        -0.16187
|  6>    C        0.81130         1.12120         0.07680
|  7>    C        1.29479        -0.22376         0.20772
|  8>    C        2.63407        -0.46569         0.45329
|  9>    C        3.14904        -1.76668         0.58745
| 10>    N        3.57007        -2.82968         0.69593
| 11>    C        3.57219         0.57266         0.58550
| 12>    N        4.33908         1.42085         0.69181
| 13>    C        0.37091        -1.31451         0.07905
| 14>    C       -0.94214        -1.17704        -0.15954
| 15>    S       -1.76915         0.32971        -0.35454
| 16>    H       -0.78325         2.47835        -0.25161
| 17>    H        1.53912         1.91548         0.18001
| 18>    H        0.77457        -2.31317         0.18394
| 19>    H       -1.59801        -2.02793        -0.24774
| 20> *
| 21>
| 22>                          ****END OF INPUT****
 Total Charge           Charge          ....    0
 Multiplicity           Mult            ....    1
 Number of Electrons    NEL             ....   82
Dispersion correction           -0.035434119
FINAL SINGLE POINT ENERGY      -814.502907796731
Dispersion correction            ... done
Dispersion correction           -0.035138498
FINAL SINGLE POINT ENERGY      -814.505936046788
Dispersion correction            ... done
Dispersion correction           -0.035105981
FINAL SINGLE POINT ENERGY      -814.506061103131
Dispersion correction            ... done
FINAL SINGLE POINT ENERGY      -814.506106627794
FINAL SINGLE POINT ENERGY      -814.506128806393
FINAL SINGLE POINT ENERGY      -814.506136474254
Dispersion correction            ... done
Dispersion correction           -0.035147962
FINAL SINGLE POINT ENERGY      -814.506141158237
Dispersion correction            ... done
Dispersion correction           -0.035150012
FINAL SINGLE POINT ENERGY      -814.506141990595
Dispersion correction            ... done
                    ***********************HURRAY********************

CARTESIAN COORDINATES (ANGSTROEM)
---------------------------------
  C     -0.479355    1.452147   -0.161323
  C      0.816929    1.128236    0.068735
  C      1.315252   -0.221846    0.201504
  C      2.666306   -0.466443    0.453535
  C      3.152918   -1.799605    0.594235
  N      3.505850   -2.902631    0.701954
  C      3.601474    0.601162    0.590428
  N      4.343265    1.490521    0.698255
  C      0.382389   -1.317950    0.072832
  C     -0.945462   -1.177588   -0.155868
  S     -1.784699    0.327425   -0.342166
  H     -0.795277    2.494763   -0.247342
  H      1.535248    1.945347    0.167558
  H      0.777352   -2.331877    0.168845
  H     -1.596441   -2.050079   -0.244981

 Multiplicity           Mult            ....    1
 Number of Electrons    NEL             ....   82
 Basis Dimension        Dim             ....  178

ORBITAL ENERGIES
----------------

  NO   OCC          E(Eh)            E(eV)
   0   2.0000     -88.923891     -2419.7421
   1   2.0000     -14.333194      -390.0260
   2   2.0000     -14.333069      -390.0226
   3   2.0000     -10.272769      -279.5362
   4   2.0000     -10.271938      -279.5136
   5   2.0000     -10.266305      -279.3604
   6   2.0000     -10.259489      -279.1749
   7   2.0000     -10.246263      -278.8150
   8   2.0000     -10.245618      -278.7975
   9   2.0000     -10.236530      -278.5502
  10   2.0000     -10.236524      -278.5500
  11   2.0000      -8.019277      -218.2156
  12   2.0000      -5.987705      -162.9337
  13   2.0000      -5.983131      -162.8093
  14   2.0000      -5.980224      -162.7302
  15   2.0000      -0.921617       -25.0785
  16   2.0000      -0.904881       -24.6231
  17   2.0000      -0.897984       -24.4354
  18   2.0000      -0.848729       -23.0951
  19   2.0000      -0.808610       -22.0034
  20   2.0000      -0.771063       -20.9817
  21   2.0000      -0.672169       -18.2906
  22   2.0000      -0.666164       -18.1272
  23   2.0000      -0.587728       -15.9929
  24   2.0000      -0.574687       -15.6380
  25   2.0000      -0.518795       -14.1171
  26   2.0000      -0.504795       -13.7362
  27   2.0000      -0.485940       -13.2231
  28   2.0000      -0.475791       -12.9469
  29   2.0000      -0.441906       -12.0249
  30   2.0000      -0.402994       -10.9660
  31   2.0000      -0.394625       -10.7383
  32   2.0000      -0.392967       -10.6932
  33   2.0000      -0.369179       -10.0459
  34   2.0000      -0.365556        -9.9473
  35   2.0000      -0.351814        -9.5734
  36   2.0000      -0.349808        -9.5188
  37   2.0000      -0.338662        -9.2155
  38   2.0000      -0.334611        -9.1052
  39   2.0000      -0.331558        -9.0221
  40   2.0000      -0.236753        -6.4424
  41   0.0000      -0.106384        -2.8949
  42   0.0000      -0.069961        -1.9037
  43   0.0000      -0.001985        -0.0540
  44   0.0000       0.010342         0.2814
  45   0.0000       0.035396         0.9632

MULLIKEN ATOMIC CHARGES
-----------------------
   0 C :   -0.072121
   1 C :    0.020702
   2 C :    0.161476
   3 C :   -0.286723
   4 C :   -0.136363
   5 N :    0.078669
   6 C :   -0.137491
   7 N :    0.083041
   8 C :    0.019384
   9 C :   -0.067981
  10 S :    0.145575
  11 H :    0.062443
  12 H :    0.034613
  13 H :    0.032089
  14 H :    0.062688
Sum of atomic charges:    0.0000000

LOEWDIN ATOMIC CHARGES
----------------------
   0 C :   -0.141251
   1 C :   -0.025803
   2 C :    0.032218
   3 C :   -0.153402
   4 C :   -0.025158
   5 N :   -0.070646
   6 C :   -0.026537
   7 N :   -0.069505
   8 C :   -0.025828
   9 C :   -0.140698
  10 S :    0.456567
  11 H :    0.042658
  12 H :    0.052444
  13 H :    0.052135
  14 H :    0.042807

  Mayer bond orders larger than 0.100000
B(  0-C ,  1-C ) :   1.6831 B(  0-C , 10-S ) :   1.1174 B(  0-C , 11-H ) :   0.9338
B(  1-C ,  2-C ) :   1.1442 B(  1-C , 12-H ) :   0.9592 B(  2-C ,  3-C ) :   1.5207
B(  2-C ,  8-C ) :   1.1404 B(  3-C ,  4-C ) :   1.1345 B(  3-C ,  6-C ) :   1.1321
B(  4-C ,  5-N ) :   2.9593 B(  6-C ,  7-N ) :   2.9631 B(  8-C ,  9-C ) :   1.6846
B(  8-C , 13-H ) :   0.9598 B(  9-C , 10-S ) :   1.1143 B(  9-C , 14-H ) :   0.9332

Dispersion correction           -0.035149276
FINAL SINGLE POINT ENERGY      -814.506142096208

DIPOLE MOMENT
-------------
                                X             Y             Z
Electronic contribution:      1.24376      -0.21960       0.24786
Nuclear contribution   :     -4.14990       0.75692      -0.79248
                        -----------------------------------------
Total Dipole Moment    :     -2.90614       0.53732      -0.54462
                        -----------------------------------------
Magnitude (a.u.)       :      3.00516
Magnitude (Debye)      :      7.63851

Rotational constants in cm-1:     0.061068     0.021359     0.015825
Rotational constants in MHz :  1830.773238   640.332120   474.415134

                             ****ORCA TERMINATED NORMALLY****
TOTAL RUN TIME: 0 days 0 hours 10 minutes 59 seconds 104 msec
