                         Program Version 4.2.0 -  RELEASE  -
|  1> # ORCA input file
|  2> # SCF done        -59.712970170777          0.000308253823
|  3> ! B3LYP/G D3BJ Opt RIJCOSX def2-SVP def2/J
|  4> * xyz 0 1
|  5>    C        1.80673         1.32748        -0.30383
|  6>    C        2.25980         0.03446        -0.50955
|  7>    C        1.40478        -1.05360        -0.41491
|  8>    C        0.06941        -0.83764        -0.10163
|  9>    C       -0.37879         0.49088         0.06567
| 10>    C        0.46974         1.57449        -0.02061
| 11>    N       -1.74156         0.49245         0.28887
| 12>    C       -2.54680         1.65831         0.52428
| 13>    C       -2.25110        -0.77737         0.22907
| 14>    O       -3.42490        -1.02746         0.41100
| 15>    C       -1.09003        -1.70473         0.00387
| 16>    C       -1.17555        -3.06676         0.00182
| 17>    C       -0.02037        -3.99325         0.25922
| 18>    O        1.14606        -3.74143         0.48160
| 19>    N       -0.52857        -5.26426         0.29531
| 20>    C        0.27139        -6.42957         0.55099
| 21>    C       -1.88409        -5.26388         0.03166
| 22>    C       -2.33009        -3.93516        -0.14018
| 23>    C       -3.65700        -3.71981        -0.48807
| 24>    C       -4.50669        -4.80898        -0.61311
| 25>    C       -4.05632        -6.10253        -0.40497
| 26>    C       -2.72711        -6.34872        -0.08663
| 27>    H        2.49573         2.15627        -0.37144
| 28>    H        3.29986        -0.13291        -0.74448
| 29>    H        1.78245        -2.04889        -0.56634
| 30>    H        0.10893         2.58134         0.12115
| 31>    H       -2.48683         2.34658        -0.32177
| 32>    H       -2.22079         2.17215         1.43090
| 33>    H       -3.57604         1.32342         0.64924
| 34>    H        1.29041        -6.09081         0.73556
| 35>    H        0.26151        -7.10178        -0.30989
| 36>    H       -0.09903        -6.96245         1.42894
| 37>    H       -4.03267        -2.72412        -0.64186
| 38>    H       -5.54051        -4.64215        -0.87447
| 39>    H       -4.74109        -6.93236        -0.49800
| 40>    H       -2.36778        -7.35576         0.05752
| 41> *
| 42>
| 43>                          ****END OF INPUT****
 Total Charge           Charge          ....    0
 Multiplicity           Mult            ....    1
 Number of Electrons    NEL             ....  152
Dispersion correction           -0.085080457
FINAL SINGLE POINT ENERGY      -953.733663393450
Dispersion correction            ... done
Dispersion correction           -0.084731597
FINAL SINGLE POINT ENERGY      -953.738825860420
Dispersion correction            ... done
Dispersion correction           -0.084502655
FINAL SINGLE POINT ENERGY      -953.739404412608
Dispersion correction            ... done
FINAL SINGLE POINT ENERGY      -953.739069816666
FINAL SINGLE POINT ENERGY      -953.739414683991
FINAL SINGLE POINT ENERGY      -953.739563884976
FINAL SINGLE POINT ENERGY      -953.739697175152
Dispersion correction            ... done
Dispersion correction           -0.084503929
FINAL SINGLE POINT ENERGY      -953.739701669766
Dispersion correction            ... done
Dispersion correction           -0.084508225
FINAL SINGLE POINT ENERGY      -953.739701423984
Dispersion correction            ... done
                    ***********************HURRAY********************

CARTESIAN COORDINATES (ANGSTROEM)
---------------------------------
  C      1.866167    1.405249    0.053438
  C      2.368760    0.103096    0.058825
  C      1.512633   -1.004507    0.045301
  C      0.121428   -0.816407    0.025939
  C     -0.355730    0.524498    0.022070
  C      0.483799    1.631454    0.034875
  N     -1.744277    0.538222    0.004174
  C     -2.563769    1.724621   -0.009783
  C     -2.253627   -0.746579   -0.005092
  O     -3.447109   -0.983138   -0.020530
  C     -1.062016   -1.700036    0.007879
  C     -1.199880   -3.072690    0.001452
  C     -0.008288   -4.026217    0.014309
  O      1.185253   -3.789793    0.027874
  N     -0.517811   -5.310970    0.007948
  C      0.301544   -6.497459    0.018743
  C     -1.906316   -5.297174   -0.012189
  C     -2.383386   -3.956260   -0.016746
  C     -3.774590   -3.768070   -0.036351
  C     -4.630778   -4.875612   -0.050309
  C     -4.128244   -6.177786   -0.045671
  C     -2.745903   -6.404076   -0.026693
  H      2.549343    2.257664    0.064333
  H      3.448108   -0.064711    0.074515
  H      1.916064   -2.009865    0.049089
  H      0.078369    2.643716    0.030481
  H     -2.358656    2.334746   -0.905612
  H     -2.377659    2.342579    0.884546
  H     -3.613001    1.402909   -0.019796
  H      1.350019   -6.176292    0.063782
  H      0.141196   -7.097597   -0.892825
  H      0.071458   -7.125086    0.895885
  H     -4.177893   -2.762670   -0.040931
  H     -5.710118   -4.707764   -0.066206
  H     -4.811442   -7.030168   -0.057847
  H     -2.340558   -7.416376   -0.023945

 Multiplicity           Mult            ....    1
 Number of Electrons    NEL             ....  152
 Basis Dimension        Dim             ....  378

ORBITAL ENERGIES
----------------

  NO   OCC          E(Eh)            E(eV)
   0   2.0000     -19.120717      -520.3012
   1   2.0000     -19.120701      -520.3007
   2   2.0000     -14.374109      -391.1394
   3   2.0000     -14.374100      -391.1391
   4   2.0000     -10.300265      -280.2844
   5   2.0000     -10.300230      -280.2835
   6   2.0000     -10.235646      -278.5261
   7   2.0000     -10.235643      -278.5260
   8   2.0000     -10.233700      -278.4731
   9   2.0000     -10.233679      -278.4726
  10   2.0000     -10.230321      -278.3812
  11   2.0000     -10.229841      -278.3681
  12   2.0000     -10.202502      -277.6242
  13   2.0000     -10.202453      -277.6229
  14   2.0000     -10.199836      -277.5516
  15   2.0000     -10.199831      -277.5515
  16   2.0000     -10.196221      -277.4533
  17   2.0000     -10.196216      -277.4532
  18   2.0000     -10.187403      -277.2133
  19   2.0000     -10.187380      -277.2127
  20   2.0000     -10.185374      -277.1581
  21   2.0000     -10.185368      -277.1580
  22   2.0000      -1.049645       -28.5623
  23   2.0000      -1.048174       -28.5223
  24   2.0000      -0.968899       -26.3651
  25   2.0000      -0.968427       -26.3523
  26   2.0000      -0.853121       -23.2146
  27   2.0000      -0.845809       -23.0156
  28   2.0000      -0.820256       -22.3203
  29   2.0000      -0.787996       -21.4425
  30   2.0000      -0.745630       -20.2896
  31   2.0000      -0.745618       -20.2893
  32   2.0000      -0.725359       -19.7380
  33   2.0000      -0.713130       -19.4053
  34   2.0000      -0.711754       -19.3678
  35   2.0000      -0.663510       -18.0550
  36   2.0000      -0.621591       -16.9144
  37   2.0000      -0.614221       -16.7138
  38   2.0000      -0.602285       -16.3890
  39   2.0000      -0.588312       -16.0088
  40   2.0000      -0.561146       -15.2696
  41   2.0000      -0.554255       -15.0820
  42   2.0000      -0.536498       -14.5989
  43   2.0000      -0.509881       -13.8746
  44   2.0000      -0.498107       -13.5542
  45   2.0000      -0.486359       -13.2345
  46   2.0000      -0.485873       -13.2213
  47   2.0000      -0.481131       -13.0922
  48   2.0000      -0.472722       -12.8634
  49   2.0000      -0.470420       -12.8008
  50   2.0000      -0.452978       -12.3262
  51   2.0000      -0.445009       -12.1093
  52   2.0000      -0.443133       -12.0583
  53   2.0000      -0.441678       -12.0187
  54   2.0000      -0.433897       -11.8069
  55   2.0000      -0.426700       -11.6111
  56   2.0000      -0.421738       -11.4761
  57   2.0000      -0.408418       -11.1136
  58   2.0000      -0.401836       -10.9345
  59   2.0000      -0.399861       -10.8808
  60   2.0000      -0.397734       -10.8229
  61   2.0000      -0.380859       -10.3637
  62   2.0000      -0.376186       -10.2365
  63   2.0000      -0.372222       -10.1287
  64   2.0000      -0.371095       -10.0980
  65   2.0000      -0.352384        -9.5889
  66   2.0000      -0.345056        -9.3895
  67   2.0000      -0.321339        -8.7441
  68   2.0000      -0.310736        -8.4555
  69   2.0000      -0.308053        -8.3826
  70   2.0000      -0.278499        -7.5783
  71   2.0000      -0.274058        -7.4575
  72   2.0000      -0.265645        -7.2286
  73   2.0000      -0.239651        -6.5212
  74   2.0000      -0.224258        -6.1024
  75   2.0000      -0.213434        -5.8078
  76   0.0000      -0.104930        -2.8553
  77   0.0000      -0.011979        -0.3260
  78   0.0000      -0.007294        -0.1985
  79   0.0000       0.003738         0.1017
  80   0.0000       0.012997         0.3537

MULLIKEN ATOMIC CHARGES
-----------------------
   0 C :    0.039910
   1 C :    0.016419
   2 C :   -0.049865
   3 C :    0.072428
   4 C :    0.147730
   5 C :   -0.080287
   6 N :   -0.246962
   7 C :    0.118937
   8 C :    0.196388
   9 O :   -0.212145
  10 C :   -0.060573
  11 C :   -0.060578
  12 C :    0.196397
  13 O :   -0.212150
  14 N :   -0.246902
  15 C :    0.119050
  16 C :    0.147742
  17 C :    0.072425
  18 C :   -0.049860
  19 C :    0.016411
  20 C :    0.039856
  21 C :   -0.080244
  22 H :   -0.012081
  23 H :   -0.015780
  24 H :    0.003697
  25 H :   -0.040093
  26 H :    0.033772
  27 H :    0.034005
  28 H :    0.054500
  29 H :    0.054346
  30 H :    0.033926
  31 H :    0.033850
  32 H :    0.003702
  33 H :   -0.015778
  34 H :   -0.012082
  35 H :   -0.040111
Sum of atomic charges:   -0.0000000

LOEWDIN ATOMIC CHARGES
----------------------
   0 C :   -0.001749
   1 C :   -0.049922
   2 C :    0.010867
   3 C :   -0.050283
   4 C :    0.041484
   5 C :   -0.068723
   6 N :   -0.014019
   7 C :    0.034688
   8 C :    0.090998
   9 O :   -0.177086
  10 C :   -0.018924
  11 C :   -0.018913
  12 C :    0.090995
  13 O :   -0.177105
  14 N :   -0.014006
  15 C :    0.034720
  16 C :    0.041482
  17 C :   -0.050287
  18 C :    0.010868
  19 C :   -0.049926
  20 C :   -0.001749
  21 C :   -0.068724
  22 H :    0.028769
  23 H :    0.027732
  24 H :    0.028425
  25 H :    0.026104
  26 H :    0.026630
  27 H :    0.026625
  28 H :    0.038394
  29 H :    0.038377
  30 H :    0.026525
  31 H :    0.026723
  32 H :    0.028416
  33 H :    0.027730
  34 H :    0.028768
  35 H :    0.026096

  Mayer bond orders larger than 0.100000
B(  0-C ,  1-C ) :   1.3792 B(  0-C ,  5-C ) :   1.3171 B(  0-C , 22-H ) :   0.9811
B(  1-C ,  2-C ) :   1.3311 B(  1-C , 23-H ) :   0.9861 B(  2-C ,  3-C ) :   1.3789
B(  2-C , 24-H ) :   0.9759 B(  3-C ,  4-C ) :   1.2623 B(  3-C , 10-C ) :   1.0845
B(  4-C ,  5-C ) :   1.3731 B(  4-C ,  6-N ) :   1.0639 B(  5-C , 25-H ) :   0.9979
B(  6-N ,  7-C ) :   0.9732 B(  6-N ,  8-C ) :   1.1288 B(  7-C , 26-H ) :   0.9687
B(  7-C , 27-H ) :   0.9687 B(  7-C , 28-H ) :   0.9560 B(  8-C ,  9-O ) :   2.0100
B(  8-C , 10-C ) :   0.9034 B( 10-C , 11-C ) :   1.6294 B( 11-C , 12-C ) :   0.9034
B( 11-C , 17-C ) :   1.0845 B( 12-C , 13-O ) :   2.0101 B( 12-C , 14-N ) :   1.1287
B( 14-N , 15-C ) :   0.9733 B( 14-N , 16-C ) :   1.0639 B( 15-C , 29-H ) :   0.9560
B( 15-C , 30-H ) :   0.9693 B( 15-C , 31-H ) :   0.9681 B( 16-C , 17-C ) :   1.2623
B( 16-C , 21-C ) :   1.3731 B( 17-C , 18-C ) :   1.3789 B( 18-C , 19-C ) :   1.3310
B( 18-C , 32-H ) :   0.9759 B( 19-C , 20-C ) :   1.3793 B( 19-C , 33-H ) :   0.9861
B( 20-C , 21-C ) :   1.3172 B( 20-C , 34-H ) :   0.9811 B( 21-C , 35-H ) :   0.9978

Dispersion correction           -0.084508429
FINAL SINGLE POINT ENERGY      -953.739703028671

DIPOLE MOMENT
-------------
                                X             Y             Z
Electronic contribution:      0.00057       0.00008       0.00784
Nuclear contribution   :     -0.00063      -0.00001      -0.00696
                        -----------------------------------------
Total Dipole Moment    :     -0.00005       0.00007       0.00088
                        -----------------------------------------
Magnitude (a.u.)       :      0.00089
Magnitude (Debye)      :      0.00225

Rotational constants in cm-1:     0.017667     0.006976     0.005011
Rotational constants in MHz :   529.636443   209.126332   150.215666

                             ****ORCA TERMINATED NORMALLY****
TOTAL RUN TIME: 0 days 0 hours 54 minutes 25 seconds 66 msec
