                         Program Version 4.2.0 -  RELEASE  -
|  1> # ORCA input file
|  2> # SCF done        -50.273211869591          0.000842755208
|  3> ! B3LYP/G D3BJ Opt RIJCOSX def2-SVP def2/J
|  4> * xyz 0 1
|  5>    C        1.59069        -0.77581         0.34952
|  6>    C        0.59301        -1.00123         1.44520
|  7>    O        0.83302        -0.96909         2.63076
|  8>    C       -0.68693        -1.25610         0.76812
|  9>    C       -0.50448        -1.20763        -0.61667
| 10>    C        0.88938        -0.92610        -0.92561
| 11>    C        1.44739        -0.83059        -2.16709
| 12>    C        2.81169        -0.55307        -2.41082
| 13>    N        3.90440        -0.33104        -2.67963
| 14>    C        0.74851        -1.00494        -3.38261
| 15>    N        0.24665        -1.13768        -4.40580
| 16>    C       -1.59109        -1.41215        -1.48162
| 17>    C       -2.82595        -1.66160        -0.94511
| 18>    C       -3.04144        -1.72248         0.44992
| 19>    C       -1.94852        -1.51478         1.34078
| 20>    C       -2.16673        -1.57635         2.73227
| 21>    C       -3.41805        -1.83559         3.22042
| 22>    C       -4.49781        -2.04102         2.34680
| 23>    C       -4.31534        -1.98512         0.99178
| 24>    C        2.86665        -0.48832         0.61237
| 25>    H       -1.46132        -1.37218        -2.55045
| 26>    H       -3.67104        -1.81900        -1.59971
| 27>    H       -1.33077        -1.41663         3.39463
| 28>    H       -3.58426        -1.88421         4.28610
| 29>    H       -5.47706        -2.24372         2.75434
| 30>    H       -5.14453        -2.14168         0.31713
| 31>    H        3.17704        -0.42540         1.64363
| 32>    H        3.61372        -0.31478        -0.14180
| 33> *
| 34>
| 35>                          ****END OF INPUT****
 Total Charge           Charge          ....    0
 Multiplicity           Mult            ....    1
 Number of Electrons    NEL             ....  132
Dispersion correction           -0.072605086
FINAL SINGLE POINT ENERGY      -836.765280674268
Dispersion correction            ... done
Dispersion correction           -0.072147112
FINAL SINGLE POINT ENERGY      -836.770149237439
Dispersion correction            ... done
Dispersion correction           -0.072102271
FINAL SINGLE POINT ENERGY      -836.770391837698
Dispersion correction            ... done
FINAL SINGLE POINT ENERGY      -836.770463325325
FINAL SINGLE POINT ENERGY      -836.770481510645
FINAL SINGLE POINT ENERGY      -836.770519037756
Dispersion correction            ... done
Dispersion correction           -0.072163595
FINAL SINGLE POINT ENERGY      -836.770528616959
Dispersion correction            ... done
Dispersion correction           -0.072165125
FINAL SINGLE POINT ENERGY      -836.770534643130
Dispersion correction            ... done
                    ***********************HURRAY********************

CARTESIAN COORDINATES (ANGSTROEM)
---------------------------------
  C      1.625170   -0.796498    0.328813
  C      0.614286   -1.013612    1.428227
  O      0.850260   -0.965279    2.618265
  C     -0.677194   -1.285073    0.752870
  C     -0.491491   -1.251343   -0.637239
  C      0.914689   -0.942521   -0.956002
  C      1.461372   -0.799878   -2.211701
  C      2.841394   -0.477511   -2.410744
  N      3.959625   -0.214094   -2.581932
  C      0.714492   -0.946548   -3.424420
  N      0.127725   -1.061390   -4.420415
  C     -1.587826   -1.484768   -1.505592
  C     -2.830097   -1.721235   -0.957901
  C     -3.052191   -1.747440    0.449512
  C     -1.945673   -1.534003    1.340837
  C     -2.163579   -1.571924    2.744851
  C     -3.432493   -1.798243    3.240072
  C     -4.526613   -1.998336    2.364092
  C     -4.340651   -1.976998    0.996723
  C      2.905706   -0.521005    0.626657
  H     -1.467395   -1.475913   -2.586037
  H     -3.682044   -1.899460   -1.618650
  H     -1.313043   -1.410935    3.406557
  H     -3.599034   -1.823439    4.319689
  H     -5.521094   -2.178542    2.778943
  H     -5.181782   -2.141083    0.319201
  H      3.170457   -0.463395    1.686742
  H      3.683855   -0.347821   -0.114568

 Multiplicity           Mult            ....    1
 Number of Electrons    NEL             ....  132
 Basis Dimension        Dim             ....  320

ORBITAL ENERGIES
----------------

  NO   OCC          E(Eh)            E(eV)
   0   2.0000     -19.151013      -521.1255
   1   2.0000     -14.352856      -390.5611
   2   2.0000     -14.352690      -390.5566
   3   2.0000     -10.297933      -280.2210
   4   2.0000     -10.285034      -279.8700
   5   2.0000     -10.274672      -279.5880
   6   2.0000     -10.255435      -279.0646
   7   2.0000     -10.254850      -279.0486
   8   2.0000     -10.246259      -278.8149
   9   2.0000     -10.235092      -278.5110
  10   2.0000     -10.234091      -278.4838
  11   2.0000     -10.233488      -278.4674
  12   2.0000     -10.232419      -278.4383
  13   2.0000     -10.232034      -278.4278
  14   2.0000     -10.231767      -278.4205
  15   2.0000     -10.226874      -278.2874
  16   2.0000     -10.221792      -278.1491
  17   2.0000     -10.220974      -278.1269
  18   2.0000     -10.219502      -278.0868
  19   2.0000     -10.215511      -277.9782
  20   2.0000      -1.055434       -28.7198
  21   2.0000      -0.935627       -25.4597
  22   2.0000      -0.917509       -24.9667
  23   2.0000      -0.915865       -24.9219
  24   2.0000      -0.884848       -24.0779
  25   2.0000      -0.841474       -22.8977
  26   2.0000      -0.822285       -22.3755
  27   2.0000      -0.797204       -21.6930
  28   2.0000      -0.774789       -21.0831
  29   2.0000      -0.756780       -20.5930
  30   2.0000      -0.702937       -19.1279
  31   2.0000      -0.687460       -18.7067
  32   2.0000      -0.641797       -17.4642
  33   2.0000      -0.635510       -17.2931
  34   2.0000      -0.609599       -16.5880
  35   2.0000      -0.608334       -16.5536
  36   2.0000      -0.562170       -15.2974
  37   2.0000      -0.550088       -14.9687
  38   2.0000      -0.526519       -14.3273
  39   2.0000      -0.520341       -14.1592
  40   2.0000      -0.502811       -13.6822
  41   2.0000      -0.493693       -13.4341
  42   2.0000      -0.468848       -12.7580
  43   2.0000      -0.466660       -12.6985
  44   2.0000      -0.458078       -12.4649
  45   2.0000      -0.451085       -12.2747
  46   2.0000      -0.444854       -12.1051
  47   2.0000      -0.439946       -11.9715
  48   2.0000      -0.430139       -11.7047
  49   2.0000      -0.417936       -11.3726
  50   2.0000      -0.414171       -11.2702
  51   2.0000      -0.407501       -11.0887
  52   2.0000      -0.387748       -10.5511
  53   2.0000      -0.382622       -10.4117
  54   2.0000      -0.380311       -10.3488
  55   2.0000      -0.374522       -10.1913
  56   2.0000      -0.373917       -10.1748
  57   2.0000      -0.367364        -9.9965
  58   2.0000      -0.360955        -9.8221
  59   2.0000      -0.352093        -9.5809
  60   2.0000      -0.343225        -9.3396
  61   2.0000      -0.319639        -8.6978
  62   2.0000      -0.292133        -7.9493
  63   2.0000      -0.279970        -7.6184
  64   2.0000      -0.270442        -7.3591
  65   2.0000      -0.254281        -6.9193
  66   0.0000      -0.129179        -3.5151
  67   0.0000      -0.108755        -2.9594
  68   0.0000      -0.051524        -1.4020
  69   0.0000      -0.035464        -0.9650
  70   0.0000      -0.022439        -0.6106

MULLIKEN ATOMIC CHARGES
-----------------------
   0 C :   -0.110053
   1 C :    0.131332
   2 O :   -0.161152
   3 C :   -0.005059
   4 C :    0.009382
   5 C :    0.264276
   6 C :   -0.295311
   7 C :   -0.151250
   8 N :    0.114404
   9 C :   -0.137796
  10 N :    0.111010
  11 C :   -0.022914
  12 C :    0.007255
  13 C :    0.077826
  14 C :    0.037956
  15 C :   -0.017626
  16 C :    0.032285
  17 C :    0.041854
  18 C :   -0.018020
  19 C :    0.009850
  20 H :    0.004589
  21 H :   -0.010639
  22 H :    0.005328
  23 H :    0.000503
  24 H :   -0.006147
  25 H :   -0.016533
  26 H :    0.049445
  27 H :    0.055204
Sum of atomic charges:   -0.0000000

LOEWDIN ATOMIC CHARGES
----------------------
   0 C :   -0.068799
   1 C :    0.083221
   2 O :   -0.136283
   3 C :   -0.028605
   4 C :   -0.002996
   5 C :    0.063891
   6 C :   -0.117123
   7 C :   -0.010051
   8 N :   -0.048627
   9 C :   -0.012134
  10 N :   -0.050013
  11 C :   -0.016561
  12 C :    0.020516
  13 C :   -0.006665
  14 C :   -0.002536
  15 C :    0.002149
  16 C :   -0.010995
  17 C :   -0.007212
  18 C :   -0.010942
  19 C :    0.062479
  20 H :    0.040720
  21 H :    0.036859
  22 H :    0.037112
  23 H :    0.034704
  24 H :    0.032996
  25 H :    0.031933
  26 H :    0.043142
  27 H :    0.039821

  Mayer bond orders larger than 0.100000
B(  0-C ,  1-C ) :   0.9349 B(  0-C ,  5-C ) :   0.9990 B(  0-C , 19-C ) :   1.9218
B(  1-C ,  2-O ) :   2.1467 B(  1-C ,  3-C ) :   0.9596 B(  3-C ,  4-C ) :   1.3711
B(  3-C , 14-C ) :   1.2311 B(  4-C ,  5-C ) :   1.0310 B(  4-C , 11-C ) :   1.2402
B(  5-C ,  6-C ) :   1.6245 B(  6-C ,  7-C ) :   1.1437 B(  6-C ,  9-C ) :   1.1306
B(  7-C ,  8-N ) :   2.9435 B(  9-C , 10-N ) :   2.9367 B( 11-C , 12-C ) :   1.4629
B( 11-C , 20-H ) :   0.9802 B( 12-C , 13-C ) :   1.2152 B( 12-C , 21-H ) :   0.9848
B( 13-C , 14-C ) :   1.2166 B( 13-C , 18-C ) :   1.2494 B( 14-C , 15-C ) :   1.2851
B( 15-C , 16-C ) :   1.4445 B( 15-C , 22-H ) :   0.9787 B( 16-C , 17-C ) :   1.2605
B( 16-C , 23-H ) :   0.9830 B( 17-C , 18-C ) :   1.4643 B( 17-C , 24-H ) :   0.9833
B( 18-C , 25-H ) :   0.9905 B( 19-C , 26-H ) :   0.9103 B( 19-C , 27-H ) :   0.9185

Dispersion correction           -0.072164924
FINAL SINGLE POINT ENERGY      -836.770532478055

DIPOLE MOMENT
-------------
                                X             Y             Z
Electronic contribution:      7.97537       1.59210      -6.99946
Nuclear contribution   :     -9.75383      -1.99063       8.32868
                        -----------------------------------------
Total Dipole Moment    :     -1.77846      -0.39853       1.32922
                        -----------------------------------------
Magnitude (a.u.)       :      2.25578
Magnitude (Debye)      :      5.73374

Rotational constants in cm-1:     0.023536     0.008061     0.006006
Rotational constants in MHz :   705.604993   241.661941   180.043858

                             ****ORCA TERMINATED NORMALLY****
TOTAL RUN TIME: 0 days 0 hours 38 minutes 5 seconds 249 msec
