                         Program Version 4.2.0 -  RELEASE  -
|  1> # ORCA input file
|  2> # SCF done        -34.778103124389          0.000317274971
|  3> ! B3LYP/G D3BJ Opt RIJCOSX def2-SVP def2/J
|  4> * xyz 0 1
|  5>    C       -1.28303         0.54528        -0.67571
|  6>    C       -0.19355         1.30196        -0.37569
|  7>    C        0.94105         0.53242        -0.04360
|  8>    C        0.65449        -0.82599        -0.10766
|  9>    S       -0.97148        -1.14823        -0.56630
| 10>    C        1.73342        -1.70395         0.21048
| 11>    C        2.93385        -1.08932         0.54578
| 12>   Si        2.72792         0.76861         0.45964
| 13>    C        2.93301         1.62770         2.11307
| 14>    C        3.78227         1.56647        -0.86948
| 15>    C        3.92575        -2.04850         0.83842
| 16>    C        3.48059        -3.32856         0.72532
| 17>    S        1.82350        -3.42090         0.25353
| 18>    H       -2.26449         0.87237        -0.95843
| 19>    H       -0.20231         2.37764        -0.39113
| 20>    H        2.61551         2.66757         2.06630
| 21>    H        3.97156         1.62831         2.43825
| 22>    H        2.35147         1.15090         2.89963
| 23>    H        3.64553         1.09440        -1.84022
| 24>    H        4.84197         1.50424        -0.63033
| 25>    H        3.54649         2.62171        -0.99051
| 26>    H        4.93276        -1.79873         1.12279
| 27>    H        4.02232        -4.23949         0.88916
| 28> *
| 29>
| 30>                          ****END OF INPUT****
 Total Charge           Charge          ....    0
 Multiplicity           Mult            ....    1
 Number of Electrons    NEL             ....  116
Dispersion correction           -0.058934839
FINAL SINGLE POINT ENERGY     -1472.456717444651
Dispersion correction            ... done
Dispersion correction           -0.058799966
FINAL SINGLE POINT ENERGY     -1472.461331574269
Dispersion correction            ... done
Dispersion correction           -0.058764237
FINAL SINGLE POINT ENERGY     -1472.461636099097
Dispersion correction            ... done
FINAL SINGLE POINT ENERGY     -1472.461665546669
FINAL SINGLE POINT ENERGY     -1472.461645163976
FINAL SINGLE POINT ENERGY     -1472.461643835547
FINAL SINGLE POINT ENERGY     -1472.461605005546
FINAL SINGLE POINT ENERGY     -1472.461564377300
Dispersion correction            ... done
Dispersion correction           -0.058795039
FINAL SINGLE POINT ENERGY     -1472.461546386425
Dispersion correction            ... done
Dispersion correction           -0.058799086
FINAL SINGLE POINT ENERGY     -1472.461522269379
Dispersion correction            ... done
                    ***********************HURRAY********************

CARTESIAN COORDINATES (ANGSTROEM)
---------------------------------
  C     -1.339940    0.568551   -0.650343
  C     -0.224468    1.342273   -0.423214
  C      0.931997    0.575546   -0.094770
  C      0.651143   -0.790515   -0.089275
  S     -1.003727   -1.128294   -0.471711
  C      1.752787   -1.686718    0.232994
  C      2.983354   -1.091689    0.506295
  Si     2.743368    0.778029    0.408458
  C      2.918656    1.563891    2.108708
  C      3.813443    1.616742   -0.887768
  C      3.977179   -2.064217    0.816396
  C      3.501140   -3.355065    0.771713
  S      1.814748   -3.414128    0.350519
  H     -2.339870    0.895122   -0.931553
  H     -0.243715    2.431273   -0.500459
  H      2.619955    2.625120    2.103665
  H      3.958132    1.499038    2.470244
  H      2.274619    1.031151    2.824824
  H      3.735294    1.084353   -1.848091
  H      4.871884    1.620118   -0.578298
  H      3.501484    2.662090   -1.045717
  H      5.011032   -1.826138    1.074332
  H      4.040105   -4.280623    0.966361

 Multiplicity           Mult            ....    1
 Number of Electrons    NEL             ....  116
 Basis Dimension        Dim             ....  244

ORBITAL ENERGIES
----------------

  NO   OCC          E(Eh)            E(eV)
   0   2.0000     -88.874843     -2418.4074
   1   2.0000     -88.874655     -2418.4023
   2   2.0000     -66.111723     -1798.9915
   3   2.0000     -10.220595      -278.1165
   4   2.0000     -10.220223      -278.1064
   5   2.0000     -10.209758      -277.8216
   6   2.0000     -10.209559      -277.8162
   7   2.0000     -10.194824      -277.4153
   8   2.0000     -10.194306      -277.4012
   9   2.0000     -10.173076      -276.8235
  10   2.0000     -10.171540      -276.7817
  11   2.0000     -10.171362      -276.7768
  12   2.0000     -10.170584      -276.7557
  13   2.0000      -7.969583      -216.8634
  14   2.0000      -7.969419      -216.8589
  15   2.0000      -5.937592      -161.5701
  16   2.0000      -5.937454      -161.5663
  17   2.0000      -5.933692      -161.4640
  18   2.0000      -5.933525      -161.4594
  19   2.0000      -5.930996      -161.3906
  20   2.0000      -5.930835      -161.3862
  21   2.0000      -5.276199      -143.5727
  22   2.0000      -3.638904       -99.0196
  23   2.0000      -3.638073       -98.9970
  24   2.0000      -3.636949       -98.9664
  25   2.0000      -0.888499       -24.1773
  26   2.0000      -0.863289       -23.4913
  27   2.0000      -0.764905       -20.8141
  28   2.0000      -0.737330       -20.0638
  29   2.0000      -0.721331       -19.6284
  30   2.0000      -0.698325       -19.0024
  31   2.0000      -0.678617       -18.4661
  32   2.0000      -0.676126       -18.3983
  33   2.0000      -0.587067       -15.9749
  34   2.0000      -0.572773       -15.5859
  35   2.0000      -0.535471       -14.5709
  36   2.0000      -0.514625       -14.0037
  37   2.0000      -0.495206       -13.4752
  38   2.0000      -0.465051       -12.6547
  39   2.0000      -0.440873       -11.9968
  40   2.0000      -0.417010       -11.3474
  41   2.0000      -0.411828       -11.2064
  42   2.0000      -0.411344       -11.1932
  43   2.0000      -0.410010       -11.1569
  44   2.0000      -0.397394       -10.8136
  45   2.0000      -0.391865       -10.6632
  46   2.0000      -0.391154       -10.6438
  47   2.0000      -0.369594       -10.0572
  48   2.0000      -0.367072        -9.9885
  49   2.0000      -0.360724        -9.8158
  50   2.0000      -0.354964        -9.6591
  51   2.0000      -0.318859        -8.6766
  52   2.0000      -0.307945        -8.3796
  53   2.0000      -0.304716        -8.2917
  54   2.0000      -0.277278        -7.5451
  55   2.0000      -0.255334        -6.9480
  56   2.0000      -0.252252        -6.8641
  57   2.0000      -0.200963        -5.4685
  58   0.0000      -0.052427        -1.4266
  59   0.0000       0.017552         0.4776
  60   0.0000       0.024120         0.6564
  61   0.0000       0.027171         0.7394
  62   0.0000       0.045393         1.2352

MULLIKEN ATOMIC CHARGES
-----------------------
   0 C :   -0.087806
   1 C :    0.011215
   2 C :   -0.142939
   3 C :   -0.111027
   4 S :    0.122398
   5 C :   -0.104767
   6 C :   -0.147044
   7 Si:    0.525113
   8 C :   -0.200076
   9 C :   -0.200897
  10 C :    0.017090
  11 C :   -0.092270
  12 S :    0.123225
  13 H :    0.022396
  14 H :   -0.011707
  15 H :    0.039526
  16 H :    0.038733
  17 H :    0.053374
  18 H :    0.053770
  19 H :    0.041817
  20 H :    0.040500
  21 H :   -0.014793
  22 H :    0.024170
Sum of atomic charges:   -0.0000000

LOEWDIN ATOMIC CHARGES
----------------------
   0 C :   -0.194420
   1 C :   -0.064672
   2 C :   -0.215706
   3 C :   -0.196408
   4 S :    0.421800
   5 C :   -0.197088
   6 C :   -0.214574
   7 Si:    0.664558
   8 C :   -0.241486
   9 C :   -0.243306
  10 C :   -0.063719
  11 C :   -0.194491
  12 S :    0.421580
  13 H :    0.022853
  14 H :    0.027956
  15 H :    0.033480
  16 H :    0.033495
  17 H :    0.040164
  18 H :    0.039911
  19 H :    0.034877
  20 H :    0.034768
  21 H :    0.027460
  22 H :    0.022965

  Mayer bond orders larger than 0.100000
B(  0-C ,  1-C ) :   1.5500 B(  0-C ,  4-S ) :   1.1421 B(  0-C , 13-H ) :   0.9677
B(  1-C ,  2-C ) :   1.2450 B(  1-C , 14-H ) :   0.9910 B(  2-C ,  3-C ) :   1.5246
B(  2-C ,  7-Si) :   0.8884 B(  3-C ,  4-S ) :   1.1252 B(  3-C ,  5-C ) :   1.1365
B(  5-C ,  6-C ) :   1.5242 B(  5-C , 12-S ) :   1.1227 B(  6-C ,  7-Si) :   0.8862
B(  6-C , 10-C ) :   1.2522 B(  7-Si,  8-C ) :   1.0449 B(  7-Si,  9-C ) :   1.0420
B(  8-C , 15-H ) :   0.9547 B(  8-C , 16-H ) :   0.9528 B(  8-C , 17-H ) :   0.9481
B(  9-C , 18-H ) :   0.9514 B(  9-C , 19-H ) :   0.9521 B(  9-C , 20-H ) :   0.9528
B( 10-C , 11-C ) :   1.5465 B( 10-C , 21-H ) :   0.9891 B( 11-C , 12-S ) :   1.1445
B( 11-C , 22-H ) :   0.9679

Dispersion correction           -0.058799292
FINAL SINGLE POINT ENERGY     -1472.461521152517

DIPOLE MOMENT
-------------
                                X             Y             Z
Electronic contribution:    -10.27858     -13.40423      -2.50254
Nuclear contribution   :     10.61561      13.84478       2.58208
                        -----------------------------------------
Total Dipole Moment    :      0.33702       0.44056       0.07954
                        -----------------------------------------
Magnitude (a.u.)       :      0.56036
Magnitude (Debye)      :      1.42432

Rotational constants in cm-1:     0.022487     0.019747     0.011699
Rotational constants in MHz :   674.150332   591.985266   350.735297

                             ****ORCA TERMINATED NORMALLY****
TOTAL RUN TIME: 0 days 0 hours 27 minutes 25 seconds 807 msec
