                         Program Version 4.2.0 -  RELEASE  -
|  1> # ORCA input file
|  2> # SCF done        -40.647173015081          0.000295533795
|  3> ! B3LYP/G D3BJ Opt RIJCOSX def2-SVP def2/J
|  4> * xyz 0 1
|  5>    C        1.60616        -1.04534         0.66918
|  6>    O        1.05404        -1.79376         1.43644
|  7>    C        3.05850        -0.75841         0.57290
|  8>    C        3.30102         0.17798        -0.44155
|  9>    C        4.58631         0.60374        -0.72296
| 10>    C        5.63397         0.07779         0.02326
| 11>    C        5.39155        -0.86032         1.03707
| 12>    C        4.09805        -1.28281         1.31910
| 13>   Cl        6.70545        -1.49572         1.94038
| 14>   Cl        7.24190         0.58219        -0.30242
| 15>    C        2.02656         0.57378        -1.08948
| 16>    O        1.87345         1.35805        -1.99228
| 17>    C        0.96848        -0.20904        -0.38825
| 18>    C       -0.33357        -0.17342        -0.66673
| 19>    H        4.77134         1.32550        -1.50304
| 20>    H        3.90997        -2.00336         2.09944
| 21>    H       -1.03428        -0.77704        -0.11273
| 22>    H       -0.71351         0.45698        -1.45442
| 23> *
| 24>
| 25>                          ****END OF INPUT****
 Total Charge           Charge          ....    0
 Multiplicity           Mult            ....    1
 Number of Electrons    NEL             ....  114
Dispersion correction           -0.046459704
FINAL SINGLE POINT ENERGY     -1453.691627187559
Dispersion correction            ... done
Dispersion correction           -0.046238682
FINAL SINGLE POINT ENERGY     -1453.693525360442
Dispersion correction            ... done
Dispersion correction           -0.046202815
FINAL SINGLE POINT ENERGY     -1453.693551868719
Dispersion correction            ... done
FINAL SINGLE POINT ENERGY     -1453.693577176643
Dispersion correction            ... done
Dispersion correction           -0.046209818
FINAL SINGLE POINT ENERGY     -1453.693582546387
Dispersion correction            ... done
Dispersion correction           -0.046216959
FINAL SINGLE POINT ENERGY     -1453.693581163848
Dispersion correction            ... done
                    ***********************HURRAY********************

CARTESIAN COORDINATES (ANGSTROEM)
---------------------------------
  C      1.604072   -1.072968    0.648506
  O      1.072654   -1.840442    1.419948
  C      3.065384   -0.779197    0.551488
  C      3.307052    0.159622   -0.463281
  C      4.597517    0.599151   -0.742867
  C      5.648123    0.085437    0.023806
  C      5.401054   -0.857038    1.055522
  C      4.102329   -1.299217    1.319315
  Cl     6.709728   -1.466687    2.010153
  Cl     7.264508    0.616631   -0.297885
  C      2.018535    0.562667   -1.108100
  O      1.872802    1.360609   -2.007161
  C      0.950191   -0.218091   -0.398361
  C     -0.361785   -0.150569   -0.651540
  H      4.790290    1.323189   -1.535686
  H      3.909556   -2.023986    2.111179
  H     -1.068218   -0.754616   -0.075160
  H     -0.738403    0.512294   -1.435966

 Multiplicity           Mult            ....    1
 Number of Electrons    NEL             ....  114
 Basis Dimension        Dim             ....  224

ORBITAL ENERGIES
----------------

  NO   OCC          E(Eh)            E(eV)
   0   2.0000    -101.532456     -2762.8386
   1   2.0000    -101.531465     -2762.8116
   2   2.0000     -19.147444      -521.0284
   3   2.0000     -19.147125      -521.0198
   4   2.0000     -10.296998      -280.1956
   5   2.0000     -10.296530      -280.1828
   6   2.0000     -10.287952      -279.9494
   7   2.0000     -10.287570      -279.9390
   8   2.0000     -10.240112      -278.6476
   9   2.0000     -10.239548      -278.6323
  10   2.0000     -10.235783      -278.5298
  11   2.0000     -10.231458      -278.4121
  12   2.0000     -10.230810      -278.3945
  13   2.0000     -10.219379      -278.0834
  14   2.0000      -9.486483      -258.1403
  15   2.0000      -9.485793      -258.1216
  16   2.0000      -7.255727      -197.4384
  17   2.0000      -7.255038      -197.4196
  18   2.0000      -7.245841      -197.1693
  19   2.0000      -7.245155      -197.1507
  20   2.0000      -7.245055      -197.1480
  21   2.0000      -7.244280      -197.1269
  22   2.0000      -1.054215       -28.6866
  23   2.0000      -1.049813       -28.5669
  24   2.0000      -0.939254       -25.5584
  25   2.0000      -0.885776       -24.1032
  26   2.0000      -0.880582       -23.9619
  27   2.0000      -0.826297       -22.4847
  28   2.0000      -0.779405       -21.2087
  29   2.0000      -0.770078       -20.9549
  30   2.0000      -0.690278       -18.7834
  31   2.0000      -0.661348       -17.9962
  32   2.0000      -0.628834       -17.1115
  33   2.0000      -0.582303       -15.8453
  34   2.0000      -0.563218       -15.3259
  35   2.0000      -0.526022       -14.3138
  36   2.0000      -0.515761       -14.0346
  37   2.0000      -0.494033       -13.4433
  38   2.0000      -0.479013       -13.0346
  39   2.0000      -0.467835       -12.7304
  40   2.0000      -0.464405       -12.6371
  41   2.0000      -0.456172       -12.4131
  42   2.0000      -0.449867       -12.2415
  43   2.0000      -0.433363       -11.7924
  44   2.0000      -0.429554       -11.6888
  45   2.0000      -0.415304       -11.3010
  46   2.0000      -0.411314       -11.1924
  47   2.0000      -0.405375       -11.0308
  48   2.0000      -0.369029       -10.0418
  49   2.0000      -0.354678        -9.6513
  50   2.0000      -0.347635        -9.4596
  51   2.0000      -0.324337        -8.8257
  52   2.0000      -0.307836        -8.3766
  53   2.0000      -0.293684        -7.9915
  54   2.0000      -0.290569        -7.9068
  55   2.0000      -0.274138        -7.4597
  56   2.0000      -0.265031        -7.2119
  57   0.0000      -0.108686        -2.9575
  58   0.0000      -0.098464        -2.6793
  59   0.0000      -0.038910        -1.0588
  60   0.0000       0.000728         0.0198
  61   0.0000       0.004864         0.1324

MULLIKEN ATOMIC CHARGES
-----------------------
   0 C :    0.173939
   1 O :   -0.144860
   2 C :   -0.007568
   3 C :   -0.000996
   4 C :   -0.018412
   5 C :    0.060201
   6 C :    0.064462
   7 C :   -0.017340
   8 Cl:   -0.043723
   9 Cl:   -0.046500
  10 C :    0.172193
  11 O :   -0.144214
  12 C :   -0.171633
  13 C :    0.023366
  14 H :    0.002154
  15 H :    0.000532
  16 H :    0.048708
  17 H :    0.049689
Sum of atomic charges:   -0.0000000

LOEWDIN ATOMIC CHARGES
----------------------
   0 C :    0.077273
   1 O :   -0.132402
   2 C :   -0.044878
   3 C :   -0.044923
   4 C :   -0.002228
   5 C :   -0.125660
   6 C :   -0.125734
   7 C :   -0.001638
   8 Cl:    0.155417
   9 Cl:    0.153987
  10 C :    0.077888
  11 O :   -0.131990
  12 C :   -0.106754
  13 C :    0.074882
  14 H :    0.045965
  15 H :    0.045684
  16 H :    0.042521
  17 H :    0.042590

  Mayer bond orders larger than 0.100000
B(  0-C ,  1-O ) :   2.2411 B(  0-C ,  2-C ) :   0.9175 B(  0-C , 12-C ) :   0.9267
B(  2-C ,  3-C ) :   1.3325 B(  2-C ,  7-C ) :   1.3166 B(  3-C ,  4-C ) :   1.3166
B(  3-C , 10-C ) :   0.9133 B(  4-C ,  5-C ) :   1.3576 B(  4-C , 14-H ) :   1.0086
B(  5-C ,  6-C ) :   1.3697 B(  5-C ,  9-Cl) :   1.0437 B(  6-C ,  7-C ) :   1.3541
B(  6-C ,  8-Cl) :   1.0488 B(  7-C , 15-H ) :   1.0095 B( 10-C , 11-O ) :   2.2457
B( 10-C , 12-C ) :   0.9263 B( 12-C , 13-C ) :   1.9477 B( 13-C , 16-H ) :   0.9263
B( 13-C , 17-H ) :   0.9267

Dispersion correction           -0.046213361
FINAL SINGLE POINT ENERGY     -1453.693579405084

DIPOLE MOMENT
-------------
                                X             Y             Z
Electronic contribution:     16.76248      -0.60853       3.46388
Nuclear contribution   :    -16.66445       0.60899      -3.44186
                        -----------------------------------------
Total Dipole Moment    :      0.09803       0.00046       0.02202
                        -----------------------------------------
Magnitude (a.u.)       :      0.10047
Magnitude (Debye)      :      0.25537

Rotational constants in cm-1:     0.035073     0.011403     0.008606
Rotational constants in MHz :  1051.450817   341.861789   258.002174

                             ****ORCA TERMINATED NORMALLY****
TOTAL RUN TIME: 0 days 0 hours 8 minutes 38 seconds 405 msec
