                         Program Version 4.2.0 -  RELEASE  -
|  1> # ORCA input file
|  2> # SCF done        -58.198642672284          0.000360849345
|  3> ! B3LYP/G D3BJ Opt RIJCOSX def2-SVP def2/J
|  4> * xyz 0 1
|  5>    C       -0.30563         1.29587        -2.17940
|  6>    C        0.71316         1.73305        -1.39153
|  7>    C        1.26671         0.71339        -0.58993
|  8>    C        0.62349        -0.49832        -0.80875
|  9>    S       -0.63540        -0.38577        -1.97532
| 10>    C        1.10846        -1.60495        -0.04969
| 11>    C        2.16734        -1.33318         0.80774
| 12>   Si        2.62183         0.47624         0.67688
| 13>    C        2.34779         1.40723         2.27081
| 14>    C        1.55091         0.88510         3.29294
| 15>    C        1.34298         1.58074         4.46907
| 16>    C        1.92796         2.82231         4.65337
| 17>    C        2.72095         3.36140         3.65402
| 18>    C        2.92591         2.66160         2.48000
| 19>    C        4.32111         0.78795        -0.02898
| 20>    C        4.53529         0.86391        -1.40762
| 21>    C        5.79493         1.09376        -1.92815
| 22>    C        6.87777         1.25253        -1.07961
| 23>    C        6.69112         1.17853         0.29085
| 24>    C        5.42945         0.94884         0.80614
| 25>    C        2.56086        -2.49136         1.50969
| 26>    C        1.82077        -3.58586         1.18722
| 27>    S        0.60855        -3.24965         0.00578
| 28>    H       -0.89551         1.85620        -2.87804
| 29>    H        1.05906         2.75170        -1.38367
| 30>    H        1.09211        -0.08405         3.15644
| 31>    H        0.72349         1.15474         5.24538
| 32>    H        1.76761         3.36716         5.57239
| 33>    H        3.18076         4.32964         3.79207
| 34>    H        3.54768         3.08864         1.70568
| 35>    H        3.69431         0.74441        -2.07593
| 36>    H        5.93367         1.15185        -2.99826
| 37>    H        7.86283         1.43435        -1.48431
| 38>    H        7.53230         1.30135         0.95827
| 39>    H        5.29200         0.89501         1.87704
| 40>    H        3.36168        -2.51026         2.22775
| 41>    H        1.90641        -4.58450         1.56860
| 42> *
| 43>
| 44>                          ****END OF INPUT****
 Total Charge           Charge          ....    0
 Multiplicity           Mult            ....    1
 Number of Electrons    NEL             ....  180
Dispersion correction           -0.105762543
FINAL SINGLE POINT ENERGY     -1855.694180185501
Dispersion correction            ... done
Dispersion correction           -0.105316175
FINAL SINGLE POINT ENERGY     -1855.700853464851
Dispersion correction            ... done
Dispersion correction           -0.105199563
FINAL SINGLE POINT ENERGY     -1855.701020921827
Dispersion correction            ... done
FINAL SINGLE POINT ENERGY     -1855.700764191002
FINAL SINGLE POINT ENERGY     -1855.700402499089
FINAL SINGLE POINT ENERGY     -1855.700116178181
FINAL SINGLE POINT ENERGY     -1855.700304249937
FINAL SINGLE POINT ENERGY     -1855.700373800973
Dispersion correction            ... done
Dispersion correction           -0.105299671
FINAL SINGLE POINT ENERGY     -1855.700361157385
Dispersion correction            ... done
Dispersion correction           -0.105305200
FINAL SINGLE POINT ENERGY     -1855.700352230854
Dispersion correction            ... done
                    ***********************HURRAY********************

CARTESIAN COORDINATES (ANGSTROEM)
---------------------------------
  C     -0.411802    1.158025   -2.211278
  C      0.630015    1.684075   -1.480668
  C      1.245703    0.729912   -0.617939
  C      0.638611   -0.521227   -0.725563
  S     -0.669038   -0.525830   -1.860617
  C      1.194236   -1.592097    0.091613
  C      2.287540   -1.261687    0.888095
  Si     2.643583    0.575294    0.644366
  C      2.343506    1.487541    2.258061
  C      1.239393    1.094837    3.039701
  C      0.957351    1.724916    4.251610
  C      1.780641    2.760268    4.708216
  C      2.882967    3.159914    3.948942
  C      3.159518    2.529130    2.730585
  C      4.336445    0.904776   -0.087600
  C      4.489438    1.146052   -1.464281
  C      5.758748    1.278119   -2.033214
  C      6.899280    1.174931   -1.233074
  C      6.766797    0.943022    0.139384
  C      5.496413    0.809812    0.704470
  C      2.754788   -2.382271    1.633459
  C      2.021585   -3.523119    1.401191
  S      0.735931   -3.253518    0.260992
  H     -1.051281    1.663378   -2.933334
  H      0.940697    2.727028   -1.567081
  H      0.597146    0.278012    2.697582
  H      0.099295    1.403366    4.847284
  H      1.562421    3.250892    5.660003
  H      3.532484    3.962958    4.306778
  H      4.024814    2.851574    2.145709
  H      3.603806    1.223678   -2.100094
  H      5.859041    1.466553   -3.105162
  H      7.891206    1.276793   -1.680763
  H      7.656079    0.857749    0.768490
  H      5.407373    0.618560    1.777976
  H      3.605544   -2.357334    2.316596
  H      2.164431   -4.514482    1.828502

 Multiplicity           Mult            ....    1
 Number of Electrons    NEL             ....  180
 Basis Dimension        Dim             ....  404

ORBITAL ENERGIES
----------------

  NO   OCC          E(Eh)            E(eV)
   0   2.0000     -88.877775     -2418.4872
   1   2.0000     -88.876195     -2418.4442
   2   2.0000     -66.118981     -1799.1890
   3   2.0000     -10.224124      -278.2125
   4   2.0000     -10.222013      -278.1551
   5   2.0000     -10.212102      -277.8854
   6   2.0000     -10.210791      -277.8498
   7   2.0000     -10.197164      -277.4789
   8   2.0000     -10.196974      -277.4738
   9   2.0000     -10.196569      -277.4627
  10   2.0000     -10.195019      -277.4206
  11   2.0000     -10.194967      -277.4192
  12   2.0000     -10.194797      -277.4145
  13   2.0000     -10.194200      -277.3983
  14   2.0000     -10.193950      -277.3915
  15   2.0000     -10.193659      -277.3836
  16   2.0000     -10.192521      -277.3526
  17   2.0000     -10.192321      -277.3472
  18   2.0000     -10.191502      -277.3249
  19   2.0000     -10.182250      -277.0731
  20   2.0000     -10.180121      -277.0152
  21   2.0000     -10.175284      -276.8835
  22   2.0000     -10.172276      -276.8017
  23   2.0000      -7.972449      -216.9414
  24   2.0000      -7.970925      -216.8999
  25   2.0000      -5.940474      -161.6485
  26   2.0000      -5.938918      -161.6062
  27   2.0000      -5.936507      -161.5406
  28   2.0000      -5.935036      -161.5005
  29   2.0000      -5.933928      -161.4704
  30   2.0000      -5.932360      -161.4277
  31   2.0000      -5.281272      -143.7107
  32   2.0000      -3.643677       -99.1495
  33   2.0000      -3.643234       -99.1374
  34   2.0000      -3.642611       -99.1205
  35   2.0000      -0.890911       -24.2429
  36   2.0000      -0.865433       -23.5496
  37   2.0000      -0.848336       -23.0844
  38   2.0000      -0.844907       -22.9911
  39   2.0000      -0.767540       -20.8858
  40   2.0000      -0.745786       -20.2939
  41   2.0000      -0.741058       -20.1652
  42   2.0000      -0.738497       -20.0955
  43   2.0000      -0.734318       -19.9818
  44   2.0000      -0.733222       -19.9520
  45   2.0000      -0.723129       -19.6774
  46   2.0000      -0.680651       -18.5215
  47   2.0000      -0.609838       -16.5945
  48   2.0000      -0.602544       -16.3960
  49   2.0000      -0.598050       -16.2738
  50   2.0000      -0.590934       -16.0801
  51   2.0000      -0.588775       -16.0214
  52   2.0000      -0.573009       -15.5924
  53   2.0000      -0.537130       -14.6161
  54   2.0000      -0.535565       -14.5735
  55   2.0000      -0.514923       -14.0118
  56   2.0000      -0.504701       -13.7336
  57   2.0000      -0.496550       -13.5118
  58   2.0000      -0.466696       -12.6994
  59   2.0000      -0.461726       -12.5642
  60   2.0000      -0.454510       -12.3678
  61   2.0000      -0.451397       -12.2831
  62   2.0000      -0.448119       -12.1939
  63   2.0000      -0.437350       -11.9009
  64   2.0000      -0.424302       -11.5458
  65   2.0000      -0.422346       -11.4926
  66   2.0000      -0.418294       -11.3824
  67   2.0000      -0.411036       -11.1849
  68   2.0000      -0.394607       -10.7378
  69   2.0000      -0.393874       -10.7179
  70   2.0000      -0.381638       -10.3849
  71   2.0000      -0.374150       -10.1811
  72   2.0000      -0.371461       -10.1080
  73   2.0000      -0.371255       -10.1024
  74   2.0000      -0.367978       -10.0132
  75   2.0000      -0.358074        -9.7437
  76   2.0000      -0.357048        -9.7158
  77   2.0000      -0.347933        -9.4677
  78   2.0000      -0.345397        -9.3987
  79   2.0000      -0.317023        -8.6266
  80   2.0000      -0.310868        -8.4591
  81   2.0000      -0.310535        -8.4501
  82   2.0000      -0.279433        -7.6038
  83   2.0000      -0.263601        -7.1729
  84   2.0000      -0.260197        -7.0803
  85   2.0000      -0.259077        -7.0499
  86   2.0000      -0.257284        -7.0011
  87   2.0000      -0.254470        -6.9245
  88   2.0000      -0.249617        -6.7924
  89   2.0000      -0.202703        -5.5158
  90   0.0000      -0.056128        -1.5273
  91   0.0000      -0.028974        -0.7884
  92   0.0000      -0.022413        -0.6099
  93   0.0000      -0.015074        -0.4102
  94   0.0000      -0.010021        -0.2727

MULLIKEN ATOMIC CHARGES
-----------------------
   0 C :   -0.092383
   1 C :    0.021459
   2 C :   -0.156423
   3 C :   -0.109503
   4 S :    0.127856
   5 C :   -0.098370
   6 C :   -0.151681
   7 Si:    0.625135
   8 C :   -0.114708
   9 C :    0.002728
  10 C :    0.024845
  11 C :    0.025531
  12 C :    0.022300
  13 C :   -0.022001
  14 C :   -0.123209
  15 C :   -0.006701
  16 C :    0.024801
  17 C :    0.022562
  18 C :    0.028246
  19 C :   -0.011322
  20 C :    0.019077
  21 C :   -0.087732
  22 S :    0.123134
  23 H :    0.027691
  24 H :   -0.008419
  25 H :    0.000501
  26 H :   -0.015961
  27 H :   -0.016912
  28 H :   -0.017261
  29 H :   -0.014210
  30 H :   -0.009177
  31 H :   -0.013313
  32 H :   -0.016691
  33 H :   -0.016639
  34 H :   -0.009090
  35 H :   -0.009253
  36 H :    0.025092
Sum of atomic charges:   -0.0000000

LOEWDIN ATOMIC CHARGES
----------------------
   0 C :   -0.194762
   1 C :   -0.061103
   2 C :   -0.214424
   3 C :   -0.194177
   4 S :    0.426149
   5 C :   -0.199832
   6 C :   -0.206266
   7 Si:    0.677491
   8 C :   -0.178899
   9 C :   -0.013540
  10 C :   -0.026097
  11 C :   -0.017567
  12 C :   -0.028340
  13 C :   -0.025306
  14 C :   -0.178028
  15 C :   -0.018019
  16 C :   -0.025585
  17 C :   -0.017315
  18 C :   -0.026376
  19 C :   -0.024020
  20 C :   -0.059230
  21 C :   -0.191813
  22 S :    0.422331
  23 H :    0.024101
  24 H :    0.030008
  25 H :    0.029590
  26 H :    0.026972
  27 H :    0.026446
  28 H :    0.026163
  29 H :    0.024463
  30 H :    0.027680
  31 H :    0.027803
  32 H :    0.026846
  33 H :    0.026893
  34 H :    0.024333
  35 H :    0.029866
  36 H :    0.023565

  Mayer bond orders larger than 0.100000
B(  0-C ,  1-C ) :   1.5458 B(  0-C ,  4-S ) :   1.1407 B(  0-C , 23-H ) :   0.9682
B(  1-C ,  2-C ) :   1.2391 B(  1-C , 24-H ) :   0.9898 B(  2-C ,  3-C ) :   1.5140
B(  2-C ,  7-Si) :   0.8982 B(  3-C ,  4-S ) :   1.1290 B(  3-C ,  5-C ) :   1.1323
B(  5-C ,  6-C ) :   1.5125 B(  5-C , 22-S ) :   1.1222 B(  6-C ,  7-Si) :   0.9084
B(  6-C , 20-C ) :   1.2459 B(  7-Si,  8-C ) :   0.9577 B(  7-Si, 14-C ) :   0.9527
B(  8-C ,  9-C ) :   1.3474 B(  8-C , 13-C ) :   1.3665 B(  9-C , 10-C ) :   1.3889
B(  9-C , 25-H ) :   0.9831 B( 10-C , 11-C ) :   1.3692 B( 10-C , 26-H ) :   0.9869
B( 11-C , 12-C ) :   1.3881 B( 11-C , 27-H ) :   0.9841 B( 12-C , 13-C ) :   1.3730
B( 12-C , 28-H ) :   0.9873 B( 13-C , 29-H ) :   0.9861 B( 14-C , 15-C ) :   1.3650
B( 14-C , 19-C ) :   1.3475 B( 15-C , 16-C ) :   1.3808 B( 15-C , 30-H ) :   0.9866
B( 16-C , 17-C ) :   1.3827 B( 16-C , 31-H ) :   0.9848 B( 17-C , 18-C ) :   1.3748
B( 17-C , 32-H ) :   0.9868 B( 18-C , 19-C ) :   1.3848 B( 18-C , 33-H ) :   0.9867
B( 19-C , 34-H ) :   0.9807 B( 20-C , 21-C ) :   1.5489 B( 20-C , 35-H ) :   0.9916
B( 21-C , 22-S ) :   1.1415 B( 21-C , 36-H ) :   0.9670

Dispersion correction           -0.105308324
FINAL SINGLE POINT ENERGY     -1855.700347698940

DIPOLE MOMENT
-------------
                                X             Y             Z
Electronic contribution:    -12.45951     -10.98704      -7.36961
Nuclear contribution   :     12.81200      11.26022       7.53339
                        -----------------------------------------
Total Dipole Moment    :      0.35250       0.27318       0.16379
                        -----------------------------------------
Magnitude (a.u.)       :      0.47509
Magnitude (Debye)      :      1.20757

Rotational constants in cm-1:     0.007663     0.006131     0.005072
Rotational constants in MHz :   229.734648   183.816889   152.068418

                             ****ORCA TERMINATED NORMALLY****
TOTAL RUN TIME: 0 days 0 hours 55 minutes 52 seconds 476 msec
