                         Program Version 4.2.0 -  RELEASE  -
|  1> # ORCA input file
|  2> # SCF done        -24.240132227056          0.000182408208
|  3> ! B3LYP/G D3BJ Opt RIJCOSX def2-SVP def2/J
|  4> * xyz 0 1
|  5>    C        2.95569         0.02589         1.27056
|  6>    C        2.38834        -0.04009         0.06413
|  7>    C        3.24075        -0.10729        -1.16650
|  8>    O        4.44358        -0.10619        -1.14794
|  9>    O        2.49672        -0.16749        -2.26888
| 10>    C        3.19970        -0.23483        -3.50149
| 11>    C        0.98441        -0.05014        -0.11948
| 12>    N       -0.15251        -0.05739        -0.25703
| 13>    H        4.03061         0.03049         1.35157
| 14>    H        2.37458         0.07533         2.17560
| 15>    H        2.44167        -0.27725        -4.27872
| 16>    H        3.83052        -1.12562        -3.52894
| 17>    H        3.83060         0.64762        -3.62579
| 18> *
| 19>
| 20>                          ****END OF INPUT****
 Total Charge           Charge          ....    0
 Multiplicity           Mult            ....    1
 Number of Electrons    NEL             ....   58
Dispersion correction           -0.018685286
FINAL SINGLE POINT ENERGY      -398.427723571784
Dispersion correction            ... done
Dispersion correction           -0.018527045
FINAL SINGLE POINT ENERGY      -398.429379140518
Dispersion correction            ... done
Dispersion correction           -0.018506291
FINAL SINGLE POINT ENERGY      -398.429430115901
Dispersion correction            ... done
Dispersion correction           -0.018491334
FINAL SINGLE POINT ENERGY      -398.429419843005
Dispersion correction            ... done
Dispersion correction           -0.018501996
FINAL SINGLE POINT ENERGY      -398.429449075214
Dispersion correction            ... done
                    ***********************HURRAY********************

CARTESIAN COORDINATES (ANGSTROEM)
---------------------------------
  C      2.959460    0.026699    1.268389
  C      2.371151   -0.039853    0.061241
  C      3.236116   -0.105667   -1.170203
  O      4.441723   -0.111185   -1.143873
  O      2.500484   -0.158310   -2.283901
  C      3.220926   -0.234337   -3.516264
  C      0.942700   -0.051732   -0.086522
  N     -0.213084   -0.060187   -0.187517
  H      4.050666    0.033609    1.325803
  H      2.374324    0.075694    2.188089
  H      2.462570   -0.274628   -4.306251
  H      3.852062   -1.135078   -3.539328
  H      3.865563    0.648015   -3.642573

 Multiplicity           Mult            ....    1
 Number of Electrons    NEL             ....   58
 Basis Dimension        Dim             ....  137

ORBITAL ENERGIES
----------------

  NO   OCC          E(Eh)            E(eV)
   0   2.0000     -19.201684      -522.5044
   1   2.0000     -19.143844      -520.9305
   2   2.0000     -14.337339      -390.1388
   3   2.0000     -10.340817      -281.3879
   4   2.0000     -10.261007      -279.2162
   5   2.0000     -10.259642      -279.1791
   6   2.0000     -10.245866      -278.8042
   7   2.0000     -10.237859      -278.5863
   8   2.0000      -1.121660       -30.5219
   9   2.0000      -1.030722       -28.0474
  10   2.0000      -0.907497       -24.6942
  11   2.0000      -0.835325       -22.7304
  12   2.0000      -0.750746       -20.4288
  13   2.0000      -0.663615       -18.0579
  14   2.0000      -0.604960       -16.4618
  15   2.0000      -0.568517       -15.4701
  16   2.0000      -0.509288       -13.8584
  17   2.0000      -0.507374       -13.8064
  18   2.0000      -0.475955       -12.9514
  19   2.0000      -0.460467       -12.5299
  20   2.0000      -0.429728       -11.6935
  21   2.0000      -0.425167       -11.5694
  22   2.0000      -0.381120       -10.3708
  23   2.0000      -0.380323       -10.3491
  24   2.0000      -0.367913       -10.0114
  25   2.0000      -0.352949        -9.6042
  26   2.0000      -0.328090        -8.9278
  27   2.0000      -0.302389        -8.2284
  28   2.0000      -0.301223        -8.1967
  29   0.0000      -0.090408        -2.4601
  30   0.0000       0.008057         0.2192
  31   0.0000       0.020529         0.5586
  32   0.0000       0.064654         1.7593
  33   0.0000       0.075937         2.0664

MULLIKEN ATOMIC CHARGES
-----------------------
   0 C :    0.073686
   1 C :   -0.229731
   2 C :    0.234374
   3 O :   -0.208608
   4 O :   -0.287166
   5 C :    0.189535
   6 C :   -0.073628
   7 N :    0.072151
   8 H :    0.062900
   9 H :    0.049926
  10 H :    0.042727
  11 H :    0.036552
  12 H :    0.037281
Sum of atomic charges:   -0.0000000

LOEWDIN ATOMIC CHARGES
----------------------
   0 C :    0.073407
   1 C :   -0.102709
   2 C :    0.089082
   3 O :   -0.167154
   4 O :   -0.075567
   5 C :    0.091856
   6 C :   -0.028115
   7 N :   -0.051233
   8 H :    0.045682
   9 H :    0.043632
  10 H :    0.030282
  11 H :    0.025385
  12 H :    0.025451

  Mayer bond orders larger than 0.100000
B(  0-C ,  1-C ) :   1.9568 B(  0-C ,  8-H ) :   0.9249 B(  0-C ,  9-H ) :   0.9443
B(  1-C ,  2-C ) :   0.9291 B(  1-C ,  6-C ) :   1.0366 B(  2-C ,  3-O ) :   2.0879
B(  2-C ,  4-O ) :   1.2460 B(  4-O ,  5-C ) :   0.9074 B(  5-C , 10-H ) :   0.9792
B(  5-C , 11-H ) :   0.9742 B(  5-C , 12-H ) :   0.9742 B(  6-C ,  7-N ) :   3.0086

Dispersion correction           -0.018504065
FINAL SINGLE POINT ENERGY      -398.429450398736

DIPOLE MOMENT
-------------
                                X             Y             Z
Electronic contribution:     -2.96219       0.16046       2.87777
Nuclear contribution   :      3.86619      -0.16226      -2.98722
                        -----------------------------------------
Total Dipole Moment    :      0.90400      -0.00180      -0.10946
                        -----------------------------------------
Magnitude (a.u.)       :      0.91061
Magnitude (Debye)      :      2.31458

Rotational constants in cm-1:     0.106567     0.056626     0.037241
Rotational constants in MHz :  3194.789231  1697.612963  1116.445461

                             ****ORCA TERMINATED NORMALLY****
TOTAL RUN TIME: 0 days 0 hours 2 minutes 32 seconds 760 msec
