                         Program Version 4.2.0 -  RELEASE  -
|  1> # ORCA input file
|  2> # SCF done        -24.526058706208          0.000232492507
|  3> ! B3LYP/G D3BJ Opt RIJCOSX def2-SVP def2/J
|  4> * xyz 0 1
|  5>    C       -2.07344        -0.72792         0.00008
|  6>    C       -2.09289         0.66767         0.00017
|  7>    C       -0.93125         1.41267         0.00017
|  8>    C        0.26857         0.71432         0.00008
|  9>    C        0.27512        -0.69612        -0.00001
| 10>    C       -0.88943        -1.44125        -0.00001
| 11>    O        1.57439        -1.09522        -0.00008
| 12>    C        2.27118         0.05901        -0.00004
| 13>    N        1.58033         1.13933         0.00006
| 14>    H       -3.00978        -1.26496         0.00008
| 15>    H       -3.04653         1.17393         0.00023
| 16>    H       -0.94078         2.49010         0.00024
| 17>    H       -0.86822        -2.51906        -0.00008
| 18>    H        3.34230         0.00063        -0.00008
| 19> *
| 20>
| 21>                          ****END OF INPUT****
 Total Charge           Charge          ....    0
 Multiplicity           Mult            ....    1
 Number of Electrons    NEL             ....   62
Dispersion correction           -0.025101261
FINAL SINGLE POINT ENERGY      -399.457103998448
Dispersion correction            ... done
Dispersion correction           -0.025146261
FINAL SINGLE POINT ENERGY      -399.459315766291
Dispersion correction            ... done
Dispersion correction           -0.025144504
FINAL SINGLE POINT ENERGY      -399.459470917936
Dispersion correction            ... done
FINAL SINGLE POINT ENERGY      -399.459514593093
Dispersion correction            ... done
Dispersion correction           -0.025143988
FINAL SINGLE POINT ENERGY      -399.459520703494
Dispersion correction            ... done
Dispersion correction           -0.025144915
FINAL SINGLE POINT ENERGY      -399.459522062203
Dispersion correction            ... done
                    ***********************HURRAY********************

CARTESIAN COORDINATES (ANGSTROEM)
---------------------------------
  C     -2.089117   -0.737386    0.000078
  C     -2.112209    0.672274    0.000165
  C     -0.936083    1.423676    0.000169
  C      0.275341    0.722862    0.000083
  C      0.271050   -0.683475   -0.000008
  C     -0.887039   -1.450983   -0.000011
  O      1.576242   -1.094316   -0.000085
  C      2.292551    0.069444   -0.000036
  N      1.602599    1.157614    0.000065
  H     -3.032842   -1.287159    0.000082
  H     -3.076137    1.186064    0.000235
  H     -0.947854    2.515081    0.000241
  H     -0.854056   -2.541606   -0.000080
  H      3.377123   -0.038960   -0.000087

 Multiplicity           Mult            ....    1
 Number of Electrons    NEL             ....   62
 Basis Dimension        Dim             ....  151

ORBITAL ENERGIES
----------------

  NO   OCC          E(Eh)            E(eV)
   0   2.0000     -19.216228      -522.9001
   1   2.0000     -14.333225      -390.0269
   2   2.0000     -10.287244      -279.9301
   3   2.0000     -10.253479      -279.0113
   4   2.0000     -10.224023      -278.2098
   5   2.0000     -10.208241      -277.7804
   6   2.0000     -10.203994      -277.6648
   7   2.0000     -10.202840      -277.6334
   8   2.0000     -10.199931      -277.5542
   9   2.0000      -1.130016       -30.7493
  10   2.0000      -0.926998       -25.2249
  11   2.0000      -0.854981       -23.2652
  12   2.0000      -0.756355       -20.5815
  13   2.0000      -0.747954       -20.3529
  14   2.0000      -0.651270       -17.7220
  15   2.0000      -0.621340       -16.9075
  16   2.0000      -0.601903       -16.3786
  17   2.0000      -0.529287       -14.4026
  18   2.0000      -0.519097       -14.1254
  19   2.0000      -0.493650       -13.4329
  20   2.0000      -0.486441       -13.2367
  21   2.0000      -0.453127       -12.3302
  22   2.0000      -0.438399       -11.9294
  23   2.0000      -0.417091       -11.3496
  24   2.0000      -0.382637       -10.4121
  25   2.0000      -0.368267       -10.0211
  26   2.0000      -0.364724        -9.9246
  27   2.0000      -0.341352        -9.2887
  28   2.0000      -0.297002        -8.0818
  29   2.0000      -0.257084        -6.9956
  30   2.0000      -0.249976        -6.8022
  31   0.0000      -0.039133        -1.0649
  32   0.0000      -0.005769        -0.1570
  33   0.0000       0.028157         0.7662
  34   0.0000       0.060697         1.6516
  35   0.0000       0.090894         2.4733

MULLIKEN ATOMIC CHARGES
-----------------------
   0 C :    0.025314
   1 C :    0.022721
   2 C :   -0.050491
   3 C :    0.032605
   4 C :    0.190519
   5 C :   -0.069976
   6 O :   -0.218236
   7 C :    0.176547
   8 N :   -0.097403
   9 H :   -0.009373
  10 H :   -0.013213
  11 H :   -0.014903
  12 H :   -0.009999
  13 H :    0.035891
Sum of atomic charges:    0.0000000

LOEWDIN ATOMIC CHARGES
----------------------
   0 C :   -0.020716
   1 C :   -0.030267
   2 C :   -0.019810
   3 C :   -0.031831
   4 C :    0.030074
   5 C :   -0.043389
   6 O :   -0.022170
   7 C :    0.083902
   8 N :   -0.103731
   9 H :    0.029641
  10 H :    0.028944
  11 H :    0.035788
  12 H :    0.036652
  13 H :    0.026913

  Mayer bond orders larger than 0.100000
B(  0-C ,  1-C ) :   1.3515 B(  0-C ,  5-C ) :   1.3768 B(  0-C ,  9-H ) :   0.9849
B(  1-C ,  2-C ) :   1.3807 B(  1-C , 10-H ) :   0.9850 B(  2-C ,  3-C ) :   1.3160
B(  2-C ,  5-C ) :   0.1139 B(  2-C , 11-H ) :   1.0140 B(  3-C ,  4-C ) :   1.3089
B(  3-C ,  8-N ) :   1.2660 B(  4-C ,  5-C ) :   1.3356 B(  4-C ,  6-O ) :   1.0918
B(  5-C , 12-H ) :   1.0120 B(  6-O ,  7-C ) :   1.1217 B(  7-C ,  8-N ) :   1.7723
B(  7-C , 13-H ) :   0.9783

Dispersion correction           -0.025145436
FINAL SINGLE POINT ENERGY      -399.459522480636

DIPOLE MOMENT
-------------
                                X             Y             Z
Electronic contribution:      4.17682      -0.32242      -0.00018
Nuclear contribution   :     -4.41254      -0.11610       0.00016
                        -----------------------------------------
Total Dipole Moment    :     -0.23573      -0.43852      -0.00002
                        -----------------------------------------
Magnitude (a.u.)       :      0.49787
Magnitude (Debye)      :      1.26547

Rotational constants in cm-1:     0.132301     0.056496     0.039590
Rotational constants in MHz :  3966.276486  1693.695373  1186.872355

                             ****ORCA TERMINATED NORMALLY****
TOTAL RUN TIME: 0 days 0 hours 3 minutes 24 seconds 350 msec
