                         Program Version 4.2.0 -  RELEASE  -
|  1> # ORCA input file
|  2> # SCF done        -37.732417993632          0.000414590096
|  3> ! B3LYP/G D3BJ Opt RIJCOSX def2-SVP def2/J
|  4> * xyz 0 1
|  5>    C        1.60137         1.26985        -0.00093
|  6>    C        1.96354         2.59074        -0.00141
|  7>    C        3.32523         2.96284        -0.00230
|  8>    N        4.43163         3.26474        -0.00265
|  9>    C        1.07593         3.68151        -0.00127
| 10>    N        0.40516         4.61378        -0.00158
| 11>    C        0.27257         0.69717         0.00015
| 12>    C        0.28322        -0.70904         0.00027
| 13>    C       -0.91088        -1.41652         0.00144
| 14>    C       -2.10738        -0.72295         0.00256
| 15>    C       -2.11947         0.66598         0.00247
| 16>    C       -0.93847         1.38429         0.00124
| 17>    C        1.61688        -1.28318        -0.00066
| 18>    S        2.82138         0.02185        -0.00168
| 19>    C        1.97168        -2.56697        -0.00104
| 20>    H       -0.90419        -2.49502         0.00153
| 21>    H       -3.03976        -1.26670         0.00352
| 22>    H       -3.06037         1.19410         0.00338
| 23>    H       -0.95950         2.46146         0.00125
| 24>    H        1.23715        -3.35251        -0.00097
| 25>    H        3.00509        -2.86352        -0.00232
| 26> *
| 27>
| 28>                          ****END OF INPUT****
 Total Charge           Charge          ....    0
 Multiplicity           Mult            ....    1
 Number of Electrons    NEL             ....  108
Dispersion correction           -0.054463774
FINAL SINGLE POINT ENERGY      -968.052377784423
Dispersion correction            ... done
Dispersion correction           -0.054071895
FINAL SINGLE POINT ENERGY      -968.056484913573
Dispersion correction            ... done
Dispersion correction           -0.054047482
FINAL SINGLE POINT ENERGY      -968.056643852284
Dispersion correction            ... done
FINAL SINGLE POINT ENERGY      -968.056703442474
FINAL SINGLE POINT ENERGY      -968.056742283966
FINAL SINGLE POINT ENERGY      -968.056758970693
Dispersion correction            ... done
Dispersion correction           -0.054093054
FINAL SINGLE POINT ENERGY      -968.056766646304
Dispersion correction            ... done
Dispersion correction           -0.054094202
FINAL SINGLE POINT ENERGY      -968.056769872654
Dispersion correction            ... done
                    ***********************HURRAY********************

CARTESIAN COORDINATES (ANGSTROEM)
---------------------------------
  C      1.611452    1.289706   -0.001599
  C      1.995079    2.618192   -0.001510
  C      3.382783    2.964886   -0.002919
  N      4.514161    3.230685   -0.003840
  C      1.076601    3.710036    0.000137
  N      0.349039    4.616809    0.001270
  C      0.266525    0.711294   -0.000123
  C      0.282581   -0.704824    0.000074
  C     -0.916178   -1.425230    0.001354
  C     -2.127899   -0.737336    0.002294
  C     -2.148410    0.665448    0.002076
  C     -0.962163    1.395178    0.000949
  C      1.632079   -1.279685   -0.001198
  S      2.835819    0.032658   -0.003442
  C      1.986244   -2.575039   -0.000557
  H     -0.901550   -2.517225    0.001546
  H     -3.066273   -1.296062    0.003216
  H     -3.102214    1.196786    0.002812
  H     -0.996734    2.483060    0.000837
  H      1.227741   -3.360242    0.001025
  H      3.032128   -2.887195   -0.001403

 Multiplicity           Mult            ....    1
 Number of Electrons    NEL             ....  108
 Basis Dimension        Dim             ....  244

ORBITAL ENERGIES
----------------

  NO   OCC          E(Eh)            E(eV)
   0   2.0000     -88.901824     -2419.1416
   1   2.0000     -14.342548      -390.2806
   2   2.0000     -14.340200      -390.2167
   3   2.0000     -10.287104      -279.9263
   4   2.0000     -10.273522      -279.5567
   5   2.0000     -10.261224      -279.2221
   6   2.0000     -10.246723      -278.8275
   7   2.0000     -10.244041      -278.7545
   8   2.0000     -10.242793      -278.7206
   9   2.0000     -10.242029      -278.6998
  10   2.0000     -10.231688      -278.4184
  11   2.0000     -10.230854      -278.3957
  12   2.0000     -10.230275      -278.3799
  13   2.0000     -10.229130      -278.3488
  14   2.0000     -10.226288      -278.2714
  15   2.0000      -7.996988      -217.6091
  16   2.0000      -5.965488      -162.3292
  17   2.0000      -5.961635      -162.2243
  18   2.0000      -5.957015      -162.0986
  19   2.0000      -0.933899       -25.4127
  20   2.0000      -0.914028       -24.8720
  21   2.0000      -0.905414       -24.6376
  22   2.0000      -0.866902       -23.5896
  23   2.0000      -0.839830       -22.8529
  24   2.0000      -0.788531       -21.4570
  25   2.0000      -0.770709       -20.9721
  26   2.0000      -0.759419       -20.6648
  27   2.0000      -0.679655       -18.4944
  28   2.0000      -0.651938       -17.7401
  29   2.0000      -0.626140       -17.0381
  30   2.0000      -0.607208       -16.5230
  31   2.0000      -0.572932       -15.5903
  32   2.0000      -0.551438       -15.0054
  33   2.0000      -0.506726       -13.7887
  34   2.0000      -0.499730       -13.5984
  35   2.0000      -0.489953       -13.3323
  36   2.0000      -0.468367       -12.7449
  37   2.0000      -0.456100       -12.4111
  38   2.0000      -0.453698       -12.3457
  39   2.0000      -0.428997       -11.6736
  40   2.0000      -0.413918       -11.2633
  41   2.0000      -0.396006       -10.7759
  42   2.0000      -0.390577       -10.6281
  43   2.0000      -0.379330       -10.3221
  44   2.0000      -0.374924       -10.2022
  45   2.0000      -0.373165       -10.1543
  46   2.0000      -0.370418       -10.0796
  47   2.0000      -0.355820        -9.6823
  48   2.0000      -0.352682        -9.5970
  49   2.0000      -0.343588        -9.3495
  50   2.0000      -0.338375        -9.2077
  51   2.0000      -0.289312        -7.8726
  52   2.0000      -0.281222        -7.6524
  53   2.0000      -0.243696        -6.6313
  54   0.0000      -0.114974        -3.1286
  55   0.0000      -0.070689        -1.9235
  56   0.0000      -0.025094        -0.6828
  57   0.0000      -0.014994        -0.4080
  58   0.0000       0.009025         0.2456

MULLIKEN ATOMIC CHARGES
-----------------------
   0 C :    0.029970
   1 C :   -0.249465
   2 C :   -0.165776
   3 N :    0.103277
   4 C :   -0.140623
   5 N :    0.107136
   6 C :    0.066251
   7 C :    0.150413
   8 C :   -0.061076
   9 C :    0.048007
  10 C :    0.035237
  11 C :   -0.033372
  12 C :   -0.087048
  13 S :    0.147480
  14 C :   -0.026010
  15 H :   -0.011606
  16 H :   -0.000876
  17 H :    0.000736
  18 H :    0.014560
  19 H :    0.034918
  20 H :    0.037865
Sum of atomic charges:    0.0000000

LOEWDIN ATOMIC CHARGES
----------------------
   0 C :   -0.074668
   1 C :   -0.160863
   2 C :   -0.033730
   3 N :   -0.049112
   4 C :   -0.017947
   5 N :   -0.061412
   6 C :   -0.039465
   7 C :   -0.018529
   8 C :   -0.009177
   9 C :    0.002036
  10 C :   -0.007831
  11 C :    0.006435
  12 C :   -0.138196
  13 S :    0.426677
  14 C :   -0.043699
  15 H :    0.033518
  16 H :    0.035445
  17 H :    0.036933
  18 H :    0.042498
  19 H :    0.035020
  20 H :    0.036069

  Mayer bond orders larger than 0.100000
B(  0-C ,  1-C ) :   1.5872 B(  0-C ,  6-C ) :   1.0738 B(  0-C , 13-S ) :   1.1197
B(  1-C ,  2-C ) :   1.1368 B(  1-C ,  4-C ) :   1.1695 B(  2-C ,  3-N ) :   2.9870
B(  4-C ,  5-N ) :   2.9333 B(  6-C ,  7-C ) :   1.3248 B(  6-C , 11-C ) :   1.3291
B(  7-C ,  8-C ) :   1.3569 B(  7-C , 12-C ) :   1.0174 B(  8-C ,  9-C ) :   1.3889
B(  8-C , 15-H ) :   0.9913 B(  9-C , 10-C ) :   1.3403 B(  9-C , 16-H ) :   0.9839
B( 10-C , 11-C ) :   1.3990 B( 10-C , 17-H ) :   0.9838 B( 11-C , 18-H ) :   0.9798
B( 12-C , 13-S ) :   0.9904 B( 12-C , 14-C ) :   1.9030 B( 14-C , 19-H ) :   0.9365
B( 14-C , 20-H ) :   0.9333

Dispersion correction           -0.054093243
FINAL SINGLE POINT ENERGY      -968.056770897511

DIPOLE MOMENT
-------------
                                X             Y             Z
Electronic contribution:      8.20214       8.14479      -0.01056
Nuclear contribution   :     -9.71716     -10.85992       0.01164
                        -----------------------------------------
Total Dipole Moment    :     -1.51502      -2.71513       0.00108
                        -----------------------------------------
Magnitude (a.u.)       :      3.10921
Magnitude (Debye)      :      7.90299

Rotational constants in cm-1:     0.027007     0.016681     0.010312
Rotational constants in MHz :   809.663794   500.087247   309.144689

                             ****ORCA TERMINATED NORMALLY****
TOTAL RUN TIME: 0 days 0 hours 12 minutes 54 seconds 640 msec
