                         Program Version 4.2.0 -  RELEASE  -
|  1> # ORCA input file
|  2> # SCF done        -25.161210206691          0.000362342453
|  3> ! B3LYP/G D3BJ Opt RIJCOSX def2-SVP def2/J
|  4> * xyz 0 1
|  5>    C       -1.18066         0.02983        -0.00344
|  6>    C       -0.41275         1.16934         0.00071
|  7>    C       -0.77161         2.60255         0.00376
|  8>    O        0.04806         3.47514         0.00764
|  9>    O       -2.08780         2.88445         0.00196
| 10>    C        0.91531         0.64922         0.00158
| 11>    N        0.90030        -0.64813        -0.00165
| 12>    O       -0.39283        -1.03907        -0.00480
| 13>    H       -2.23814        -0.15703        -0.00563
| 14>    H       -2.65382         2.10362        -0.00123
| 15>    H        1.83204         1.20125         0.00447
| 16> *
| 17>
| 18>                          ****END OF INPUT****
 Total Charge           Charge          ....    0
 Multiplicity           Mult            ....    1
 Number of Electrons    NEL             ....   58
Dispersion correction           -0.016775060
FINAL SINGLE POINT ENERGY      -434.290398902264
Dispersion correction            ... done
Dispersion correction           -0.016758605
FINAL SINGLE POINT ENERGY      -434.291906486403
Dispersion correction            ... done
Dispersion correction           -0.016760236
FINAL SINGLE POINT ENERGY      -434.292141573808
Dispersion correction            ... done
FINAL SINGLE POINT ENERGY      -434.292208810294
FINAL SINGLE POINT ENERGY      -434.292215767199
Dispersion correction            ... done
Dispersion correction           -0.016767154
FINAL SINGLE POINT ENERGY      -434.292214993092
Dispersion correction            ... done
Dispersion correction           -0.016766259
FINAL SINGLE POINT ENERGY      -434.292217727489
Dispersion correction            ... done
                    ***********************HURRAY********************

CARTESIAN COORDINATES (ANGSTROEM)
---------------------------------
  C     -1.184869    0.019608   -0.004947
  C     -0.426675    1.162307    0.000285
  C     -0.777278    2.604249    0.002407
  O      0.058486    3.467295    0.003352
  O     -2.093584    2.915835    0.003312
  C      0.910566    0.648905    0.002686
  N      0.934915   -0.656183   -0.000330
  O     -0.397188   -1.054817   -0.005272
  H     -2.256078   -0.182915   -0.009253
  H     -2.647216    2.124050    0.004315
  H      1.837021    1.222836    0.006816

 Multiplicity           Mult            ....    1
 Number of Electrons    NEL             ....   58
 Basis Dimension        Dim             ....  127

ORBITAL ENERGIES
----------------

  NO   OCC          E(Eh)            E(eV)
   0   2.0000     -19.255830      -523.9778
   1   2.0000     -19.198656      -522.4220
   2   2.0000     -19.135157      -520.6941
   3   2.0000     -14.400133      -391.8475
   4   2.0000     -10.342008      -281.4203
   5   2.0000     -10.299589      -280.2661
   6   2.0000     -10.252745      -278.9914
   7   2.0000     -10.237119      -278.5662
   8   2.0000      -1.174460       -31.9587
   9   2.0000      -1.109405       -30.1884
  10   2.0000      -1.027540       -27.9608
  11   2.0000      -0.894841       -24.3499
  12   2.0000      -0.831762       -22.6334
  13   2.0000      -0.685920       -18.6648
  14   2.0000      -0.637322       -17.3424
  15   2.0000      -0.628474       -17.1016
  16   2.0000      -0.601916       -16.3790
  17   2.0000      -0.527905       -14.3650
  18   2.0000      -0.510279       -13.8854
  19   2.0000      -0.472284       -12.8515
  20   2.0000      -0.465547       -12.6682
  21   2.0000      -0.443618       -12.0714
  22   2.0000      -0.430850       -11.7240
  23   2.0000      -0.409166       -11.1340
  24   2.0000      -0.345559        -9.4032
  25   2.0000      -0.331890        -9.0312
  26   2.0000      -0.329738        -8.9726
  27   2.0000      -0.303902        -8.2696
  28   2.0000      -0.298882        -8.1330
  29   0.0000      -0.065870        -1.7924
  30   0.0000      -0.026576        -0.7232
  31   0.0000       0.009029         0.2457
  32   0.0000       0.069799         1.8993
  33   0.0000       0.078993         2.1495

MULLIKEN ATOMIC CHARGES
-----------------------
   0 C :    0.130211
   1 C :   -0.139116
   2 C :    0.203806
   3 O :   -0.171957
   4 O :   -0.156069
   5 C :    0.043644
   6 N :    0.005489
   7 O :   -0.172080
   8 H :    0.041470
   9 H :    0.170209
  10 H :    0.044395
Sum of atomic charges:   -0.0000000

LOEWDIN ATOMIC CHARGES
----------------------
   0 C :    0.058149
   1 C :   -0.155067
   2 C :    0.080826
   3 O :   -0.146756
   4 O :   -0.029921
   5 C :    0.011416
   6 N :   -0.017260
   7 O :    0.029528
   8 H :    0.033261
   9 H :    0.089090
  10 H :    0.046732

  Mayer bond orders larger than 0.100000
B(  0-C ,  1-C ) :   1.4876 B(  0-C ,  6-N ) :   0.1088 B(  0-C ,  7-O ) :   1.2115
B(  0-C ,  8-H ) :   0.9843 B(  1-C ,  2-C ) :   0.9181 B(  1-C ,  5-C ) :   1.2101
B(  2-C ,  3-O ) :   2.1766 B(  2-C ,  4-O ) :   1.2230 B(  4-O ,  9-H ) :   0.9581
B(  5-C ,  6-N ) :   1.7207 B(  5-C , 10-H ) :   0.9853 B(  6-N ,  7-O ) :   0.9825

Dispersion correction           -0.016765950
FINAL SINGLE POINT ENERGY      -434.292217851060

DIPOLE MOMENT
-------------
                                X             Y             Z
Electronic contribution:      0.55907      -0.36120      -0.00165
Nuclear contribution   :     -1.72539      -0.31340       0.00115
                        -----------------------------------------
Total Dipole Moment    :     -1.16631      -0.67461      -0.00050
                        -----------------------------------------
Magnitude (a.u.)       :      1.34736
Magnitude (Debye)      :      3.42472

Rotational constants in cm-1:     0.176495     0.051431     0.039826
Rotational constants in MHz :  5291.198711  1541.866124  1193.949105

                             ****ORCA TERMINATED NORMALLY****
TOTAL RUN TIME: 0 days 0 hours 2 minutes 44 seconds 713 msec
