                         Program Version 4.2.0 -  RELEASE  -
|  1> # ORCA input file
|  2> # SCF done        -58.638415269798          0.000305679859
|  3> ! B3LYP/G D3BJ Opt RIJCOSX def2-SVP def2/J
|  4> * xyz 0 1
|  5>    C        1.29371        -0.12213        -0.76554
|  6>    C        0.36806        -0.49821         0.16136
|  7>    C        0.63365        -1.35038         1.25845
|  8>    N        0.78596        -2.03226         2.16755
|  9>    C       -0.98492        -0.08611         0.15297
| 10>    N       -2.09146         0.20965         0.20300
| 11>    C        2.69674        -0.52121        -0.79632
| 12>    C        3.33423         0.07686        -1.90187
| 13>    C        4.67061        -0.13095        -2.17091
| 14>    C        5.40027        -0.95897        -1.31284
| 15>    C        4.77243        -1.56132        -0.20897
| 16>    C        3.42286        -1.34493         0.05156
| 17>    C        5.59047        -2.43097         0.68772
| 18>    O        6.78666        -2.53804         0.60747
| 19>    O        4.83897        -3.06970         1.58478
| 20>    C        5.53366        -3.91935         2.48860
| 21>    C        6.77149        -1.16812        -1.61127
| 22>    N        7.85489        -1.26426        -1.97086
| 23>    C        2.36245         0.90083        -2.65246
| 24>    O        2.55453         1.55192        -3.64759
| 25>    C        1.06654         0.75876        -1.91344
| 26>    C       -0.04233         1.37731        -2.32599
| 27>    H        5.14022         0.33564        -3.02373
| 28>    H        2.97540        -1.82243         0.90740
| 29>    H        4.78132        -4.31914         3.16301
| 30>    H        6.28578        -3.35121         3.03920
| 31>    H        6.03116        -4.72385         1.94358
| 32>    H       -0.99359         1.30498        -1.82941
| 33>    H        0.01141         1.99078        -3.21187
| 34> *
| 35>
| 36>                          ****END OF INPUT****
 Total Charge           Charge          ....    0
 Multiplicity           Mult            ....    1
 Number of Electrons    NEL             ....  148
Dispersion correction           -0.071882385
FINAL SINGLE POINT ENERGY     -1003.094276484416
Dispersion correction            ... done
Dispersion correction           -0.071245298
FINAL SINGLE POINT ENERGY     -1003.099362739629
Dispersion correction            ... done
Dispersion correction           -0.071193993
FINAL SINGLE POINT ENERGY     -1003.099459822188
Dispersion correction            ... done
FINAL SINGLE POINT ENERGY     -1003.099410351174
FINAL SINGLE POINT ENERGY     -1003.099523632450
FINAL SINGLE POINT ENERGY     -1003.099605915136
FINAL SINGLE POINT ENERGY     -1003.099638822094
Dispersion correction            ... done
Dispersion correction           -0.071316204
FINAL SINGLE POINT ENERGY     -1003.099634790509
Dispersion correction            ... done
Dispersion correction           -0.071308096
FINAL SINGLE POINT ENERGY     -1003.099628576117
Dispersion correction            ... done
                    ***********************HURRAY********************

CARTESIAN COORDINATES (ANGSTROEM)
---------------------------------
  C      1.263275   -0.133378   -0.749581
  C      0.324431   -0.549731    0.164151
  C      0.606290   -1.499422    1.197778
  N      0.814404   -2.271342    2.039882
  C     -1.025589   -0.075354    0.145874
  N     -2.122048    0.307260    0.141455
  C      2.681910   -0.549933   -0.796209
  C      3.310544    0.036367   -1.914362
  C      4.646753   -0.179387   -2.212044
  C      5.407784   -0.992102   -1.353185
  C      4.794432   -1.573014   -0.210413
  C      3.436662   -1.362658    0.058987
  C      5.618930   -2.397870    0.734350
  O      6.823818   -2.441772    0.717773
  O      4.853823   -3.070423    1.602327
  C      5.546718   -3.889418    2.549069
  C      6.783485   -1.207479   -1.706990
  N      7.861141   -1.308559   -2.125214
  C      2.339727    0.885511   -2.652657
  O      2.537308    1.525097   -3.659200
  C      1.045521    0.793382   -1.880206
  C     -0.030858    1.494232   -2.279032
  H      5.094985    0.281457   -3.093476
  H      3.011312   -1.837527    0.939158
  H      4.773035   -4.405918    3.128382
  H      6.174006   -3.268543    3.205970
  H      6.191803   -4.611556    2.027722
  H     -0.995178    1.481078   -1.773000
  H      0.082746    2.114194   -3.173728

 Multiplicity           Mult            ....    1
 Number of Electrons    NEL             ....  148
 Basis Dimension        Dim             ....  343

ORBITAL ENERGIES
----------------

  NO   OCC          E(Eh)            E(eV)
   0   2.0000     -19.208914      -522.7011
   1   2.0000     -19.168701      -521.6069
   2   2.0000     -19.153645      -521.1972
   3   2.0000     -14.368836      -390.9959
   4   2.0000     -14.368720      -390.9928
   5   2.0000     -14.346231      -390.3808
   6   2.0000     -10.348308      -281.5918
   7   2.0000     -10.315514      -280.6994
   8   2.0000     -10.303825      -280.3813
   9   2.0000     -10.293036      -280.0878
  10   2.0000     -10.283729      -279.8345
  11   2.0000     -10.270163      -279.4654
  12   2.0000     -10.269971      -279.4601
  13   2.0000     -10.267664      -279.3973
  14   2.0000     -10.266262      -279.3592
  15   2.0000     -10.266038      -279.3531
  16   2.0000     -10.258759      -279.1550
  17   2.0000     -10.255299      -279.0609
  18   2.0000     -10.254423      -279.0370
  19   2.0000     -10.252555      -278.9862
  20   2.0000     -10.251867      -278.9675
  21   2.0000     -10.246786      -278.8292
  22   2.0000      -1.129825       -30.7441
  23   2.0000      -1.074337       -29.2342
  24   2.0000      -1.039649       -28.2903
  25   2.0000      -0.952991       -25.9322
  26   2.0000      -0.937222       -25.5031
  27   2.0000      -0.932822       -25.3834
  28   2.0000      -0.916197       -24.9310
  29   2.0000      -0.890390       -24.2287
  30   2.0000      -0.844374       -22.9766
  31   2.0000      -0.818045       -22.2601
  32   2.0000      -0.816225       -22.2106
  33   2.0000      -0.758748       -20.6466
  34   2.0000      -0.740801       -20.1582
  35   2.0000      -0.711483       -19.3604
  36   2.0000      -0.670361       -18.2415
  37   2.0000      -0.642302       -17.4779
  38   2.0000      -0.633469       -17.2376
  39   2.0000      -0.610672       -16.6172
  40   2.0000      -0.595618       -16.2076
  41   2.0000      -0.566919       -15.4266
  42   2.0000      -0.549028       -14.9398
  43   2.0000      -0.541992       -14.7484
  44   2.0000      -0.524137       -14.2625
  45   2.0000      -0.514822       -14.0090
  46   2.0000      -0.497990       -13.5510
  47   2.0000      -0.492628       -13.4051
  48   2.0000      -0.487376       -13.2622
  49   2.0000      -0.484810       -13.1924
  50   2.0000      -0.468870       -12.7586
  51   2.0000      -0.466291       -12.6884
  52   2.0000      -0.448938       -12.2162
  53   2.0000      -0.447885       -12.1876
  54   2.0000      -0.441883       -12.0242
  55   2.0000      -0.429989       -11.7006
  56   2.0000      -0.418305       -11.3827
  57   2.0000      -0.414752       -11.2860
  58   2.0000      -0.402161       -10.9434
  59   2.0000      -0.397335       -10.8120
  60   2.0000      -0.389171       -10.5899
  61   2.0000      -0.386486       -10.5168
  62   2.0000      -0.382394       -10.4055
  63   2.0000      -0.379509       -10.3270
  64   2.0000      -0.375109       -10.2072
  65   2.0000      -0.368664       -10.0319
  66   2.0000      -0.361227        -9.8295
  67   2.0000      -0.358472        -9.7545
  68   2.0000      -0.334778        -9.1098
  69   2.0000      -0.319131        -8.6840
  70   2.0000      -0.313531        -8.5316
  71   2.0000      -0.307118        -8.3571
  72   2.0000      -0.298966        -8.1353
  73   2.0000      -0.286759        -7.8031
  74   0.0000      -0.149982        -4.0812
  75   0.0000      -0.131526        -3.5790
  76   0.0000      -0.070109        -1.9078
  77   0.0000      -0.063629        -1.7314
  78   0.0000      -0.036977        -1.0062

MULLIKEN ATOMIC CHARGES
-----------------------
   0 C :    0.267674
   1 C :   -0.286880
   2 C :   -0.134910
   3 N :    0.119778
   4 C :   -0.146995
   5 N :    0.121996
   6 C :    0.069550
   7 C :   -0.006122
   8 C :   -0.027792
   9 C :   -0.079563
  10 C :    0.047076
  11 C :   -0.053160
  12 C :    0.201582
  13 O :   -0.184406
  14 O :   -0.299654
  15 C :    0.196822
  16 C :   -0.112233
  17 N :    0.104775
  18 C :    0.157011
  19 O :   -0.129736
  20 C :   -0.122774
  21 C :    0.020951
  22 H :    0.014188
  23 H :    0.018265
  24 H :    0.045421
  25 H :    0.037908
  26 H :    0.039450
  27 H :    0.060905
  28 H :    0.060871
Sum of atomic charges:   -0.0000000

LOEWDIN ATOMIC CHARGES
----------------------
   0 C :    0.060813
   1 C :   -0.105743
   2 C :   -0.012539
   3 N :   -0.037645
   4 C :   -0.010204
   5 N :   -0.036582
   6 C :   -0.002541
   7 C :   -0.033883
   8 C :    0.048490
   9 C :   -0.018885
  10 C :   -0.022947
  11 C :    0.028404
  12 C :    0.083900
  13 O :   -0.139980
  14 O :   -0.081364
  15 C :    0.093229
  16 C :   -0.025748
  17 N :   -0.031844
  18 C :    0.083382
  19 O :   -0.116707
  20 C :   -0.073173
  21 C :    0.078458
  22 H :    0.053335
  23 H :    0.044369
  24 H :    0.031345
  25 H :    0.026872
  26 H :    0.027082
  27 H :    0.042527
  28 H :    0.047580

  Mayer bond orders larger than 0.100000
B(  0-C ,  1-C ) :   1.6485 B(  0-C ,  6-C ) :   1.0118 B(  0-C , 20-C ) :   1.0051
B(  1-C ,  2-C ) :   1.1307 B(  1-C ,  4-C ) :   1.1424 B(  2-C ,  3-N ) :   2.9325
B(  4-C ,  5-N ) :   2.9407 B(  6-C ,  7-C ) :   1.3149 B(  6-C , 11-C ) :   1.2897
B(  7-C ,  8-C ) :   1.3347 B(  7-C , 18-C ) :   0.9182 B(  8-C ,  9-C ) :   1.3548
B(  8-C , 22-H ) :   1.0096 B(  9-C , 10-C ) :   1.3538 B(  9-C , 16-C ) :   1.0770
B( 10-C , 11-C ) :   1.3482 B( 10-C , 12-C ) :   0.8841 B( 11-C , 23-H ) :   0.9813
B( 12-C , 13-O ) :   2.0812 B( 12-C , 14-O ) :   1.2352 B( 14-O , 15-C ) :   0.9023
B( 15-C , 24-H ) :   0.9787 B( 15-C , 25-H ) :   0.9746 B( 15-C , 26-H ) :   0.9724
B( 16-C , 17-N ) :   2.9908 B( 18-C , 19-O ) :   2.2429 B( 18-C , 20-C ) :   0.9160
B( 20-C , 21-C ) :   1.9102 B( 21-C , 27-H ) :   0.9199 B( 21-C , 28-H ) :   0.9128

Dispersion correction           -0.071303771
FINAL SINGLE POINT ENERGY     -1003.099631049208

DIPOLE MOMENT
-------------
                                X             Y             Z
Electronic contribution:     -2.94560       3.83134      -4.28974
Nuclear contribution   :      2.33075      -3.85883       4.60861
                        -----------------------------------------
Total Dipole Moment    :     -0.61485      -0.02749       0.31887
                        -----------------------------------------
Magnitude (a.u.)       :      0.69317
Magnitude (Debye)      :      1.76189

Rotational constants in cm-1:     0.014207     0.007021     0.004713
Rotational constants in MHz :   425.904892   210.497038   141.286609

                             ****ORCA TERMINATED NORMALLY****
TOTAL RUN TIME: 0 days 0 hours 35 minutes 51 seconds 417 msec
