                         Program Version 4.2.0 -  RELEASE  -
|  1> # ORCA input file
|  2> # SCF done        -24.101129057114          0.000243994631
|  3> ! B3LYP/G D3BJ Opt RIJCOSX def2-SVP def2/J
|  4> * xyz 0 1
|  5>    C       -1.29445         0.08223        -0.00205
|  6>    C       -0.42728         1.14224         0.00050
|  7>    C       -0.76554         2.58313         0.00283
|  8>    O        0.06839         3.44609         0.00646
|  9>    O       -2.07613         2.89812         0.00166
| 10>    C        0.93023         0.71168         0.00084
| 11>    C        1.05178        -0.63475        -0.00166
| 12>    S       -0.47941        -1.42263        -0.00419
| 13>    H       -2.36858         0.07301        -0.00273
| 14>    H       -2.65038         2.12306        -0.00126
| 15>    H        1.74967         1.40596         0.00273
| 16>    H        1.94536        -1.22603        -0.00219
| 17> *
| 18>
| 19>                          ****END OF INPUT****
 Total Charge           Charge          ....    0
 Multiplicity           Mult            ....    1
 Number of Electrons    NEL             ....   66
Dispersion correction           -0.022955510
FINAL SINGLE POINT ENERGY      -741.234961476152
Dispersion correction            ... done
Dispersion correction           -0.022908533
FINAL SINGLE POINT ENERGY      -741.236321353661
Dispersion correction            ... done
Dispersion correction           -0.022910556
FINAL SINGLE POINT ENERGY      -741.236385088763
Dispersion correction            ... done
FINAL SINGLE POINT ENERGY      -741.236376981715
Dispersion correction            ... done
Dispersion correction           -0.022920203
FINAL SINGLE POINT ENERGY      -741.236390597554
Dispersion correction            ... done
Dispersion correction           -0.022919072
FINAL SINGLE POINT ENERGY      -741.236393604097
Dispersion correction            ... done
                    ***********************HURRAY********************

CARTESIAN COORDINATES (ANGSTROEM)
---------------------------------
  C     -1.306873    0.078850   -0.003436
  C     -0.427578    1.143351   -0.000218
  C     -0.775013    2.594150    0.001963
  O      0.059181    3.461004    0.002080
  O     -2.091151    2.909228    0.003474
  C      0.939837    0.712034    0.001191
  C      1.061426   -0.649673   -0.000763
  S     -0.487381   -1.433234   -0.006019
  H     -2.397102    0.086050   -0.005790
  H     -2.636077    2.111761    0.004359
  H      1.772193    1.415413    0.004132
  H      1.972196   -1.246823   -0.000034

 Multiplicity           Mult            ....    1
 Number of Electrons    NEL             ....   66
 Basis Dimension        Dim             ....  136

ORBITAL ENERGIES
----------------

  NO   OCC          E(Eh)            E(eV)
   0   2.0000     -88.899875     -2419.0886
   1   2.0000     -19.182354      -521.9784
   2   2.0000     -19.119173      -520.2591
   3   2.0000     -10.322549      -280.8908
   4   2.0000     -10.244784      -278.7747
   5   2.0000     -10.232433      -278.4386
   6   2.0000     -10.221513      -278.1415
   7   2.0000     -10.211975      -277.8820
   8   2.0000      -7.995045      -217.5562
   9   2.0000      -5.963129      -162.2650
  10   2.0000      -5.958855      -162.1487
  11   2.0000      -5.956574      -162.0866
  12   2.0000      -1.093254       -29.7490
  13   2.0000      -1.010738       -27.5036
  14   2.0000      -0.902425       -24.5562
  15   2.0000      -0.766867       -20.8675
  16   2.0000      -0.745181       -20.2774
  17   2.0000      -0.638045       -17.3621
  18   2.0000      -0.600459       -16.3393
  19   2.0000      -0.585825       -15.9411
  20   2.0000      -0.555410       -15.1135
  21   2.0000      -0.465232       -12.6596
  22   2.0000      -0.456698       -12.4274
  23   2.0000      -0.452059       -12.3012
  24   2.0000      -0.431858       -11.7514
  25   2.0000      -0.412103       -11.2139
  26   2.0000      -0.400212       -10.8903
  27   2.0000      -0.385910       -10.5011
  28   2.0000      -0.374794       -10.1987
  29   2.0000      -0.323883        -8.8133
  30   2.0000      -0.281061        -7.6481
  31   2.0000      -0.276557        -7.5255
  32   2.0000      -0.267508        -7.2793
  33   0.0000      -0.058214        -1.5841
  34   0.0000      -0.008576        -0.2334
  35   0.0000       0.013914         0.3786
  36   0.0000       0.031556         0.8587
  37   0.0000       0.080831         2.1995

MULLIKEN ATOMIC CHARGES
-----------------------
   0 C :   -0.154779
   1 C :   -0.035836
   2 C :    0.182201
   3 O :   -0.180375
   4 O :   -0.158998
   5 C :    0.049546
   6 C :   -0.082160
   7 S :    0.124018
   8 H :    0.032713
   9 H :    0.165851
  10 H :    0.016780
  11 H :    0.041039
Sum of atomic charges:    0.0000000

LOEWDIN ATOMIC CHARGES
----------------------
   0 C :   -0.196944
   1 C :   -0.118420
   2 C :    0.080564
   3 O :   -0.155715
   4 O :   -0.034210
   5 C :   -0.031661
   6 C :   -0.179488
   7 S :    0.455035
   8 H :    0.022013
   9 H :    0.085258
  10 H :    0.042969
  11 H :    0.030600

  Mayer bond orders larger than 0.100000
B(  0-C ,  1-C ) :   1.4858 B(  0-C ,  7-S ) :   1.2018 B(  0-C ,  8-H ) :   0.9603
B(  1-C ,  2-C ) :   0.9271 B(  1-C ,  5-C ) :   1.2679 B(  2-C ,  3-O ) :   2.1659
B(  2-C ,  4-O ) :   1.2205 B(  4-O ,  9-H ) :   0.9609 B(  5-C ,  6-C ) :   1.5637
B(  5-C , 10-H ) :   0.9967 B(  6-C ,  7-S ) :   1.1597 B(  6-C , 11-H ) :   0.9687

Dispersion correction           -0.022919153
FINAL SINGLE POINT ENERGY      -741.236393289790

DIPOLE MOMENT
-------------
                                X             Y             Z
Electronic contribution:     -0.87035      -0.91528      -0.00675
Nuclear contribution   :      0.40164      -0.71787       0.00617
                        -----------------------------------------
Total Dipole Moment    :     -0.46871      -1.63315      -0.00058
                        -----------------------------------------
Magnitude (a.u.)       :      1.69908
Magnitude (Debye)      :      4.31872

Rotational constants in cm-1:     0.147284     0.038675     0.030631
Rotational constants in MHz :  4415.474318  1159.437104   918.305086

                             ****ORCA TERMINATED NORMALLY****
TOTAL RUN TIME: 0 days 0 hours 2 minutes 48 seconds 779 msec
