                         Program Version 4.2.0 -  RELEASE  -
|  1> # ORCA input file
|  2> # SCF done        -67.572803988992          0.000698400998
|  3> ! B3LYP/G D3BJ Opt RIJCOSX def2-SVP def2/J
|  4> * xyz 0 1
|  5>    C        1.33248        -0.11686        -0.78112
|  6>    C        0.35608        -0.55545         0.06219
|  7>    C        0.57146        -1.43650         1.14727
|  8>    N        0.67817        -2.14374         2.04340
|  9>    C       -1.00601        -0.18618        -0.02878
| 10>    N       -2.12332         0.07112        -0.04589
| 11>    C        2.74651        -0.47307        -0.72635
| 12>    C        3.44323         0.19419        -1.75279
| 13>    C        4.80343         0.03044        -1.93523
| 14>    C        5.48948        -0.81370        -1.07054
| 15>    C        4.80460        -1.48247        -0.04896
| 16>    C        3.43304        -1.31850         0.13117
| 17>    C        5.59243        -2.37572         0.84815
| 18>    O        6.79572        -2.45691         0.81816
| 19>    O        4.82030        -3.06432         1.68430
| 20>    C        5.48979        -3.94562         2.57673
| 21>    C        6.96104        -1.06274        -1.27791
| 22>    O        7.38519        -1.90389        -2.02149
| 23>    O        7.69272        -0.17689        -0.61093
| 24>    C        9.10196        -0.36439        -0.68099
| 25>    C        2.50370         1.02656        -2.53273
| 26>    O        2.74579         1.73890        -3.47413
| 27>    C        1.15967         0.80405        -1.90667
| 28>    C        0.06093         1.39369        -2.38302
| 29>    H        5.31156         0.54776        -2.73446
| 30>    H        2.94178        -1.85126         0.92843
| 31>    H        4.71592        -4.38838         3.19771
| 32>    H        6.20697        -3.39356         3.18710
| 33>    H        6.02335        -4.71602         2.01684
| 34>    H        9.36457        -1.31541        -0.21523
| 35>    H        9.54578         0.46610        -0.13894
| 36>    H        9.43300        -0.37109        -1.72122
| 37>    H       -0.92291         1.25807        -1.97004
| 38>    H        0.15686         2.04650        -3.23659
| 39> *
| 40>
| 41>                          ****END OF INPUT****
 Total Charge           Charge          ....    0
 Multiplicity           Mult            ....    1
 Number of Electrons    NEL             ....  166
Dispersion correction           -0.079833035
FINAL SINGLE POINT ENERGY     -1138.639175175367
Dispersion correction            ... done
Dispersion correction           -0.079029254
FINAL SINGLE POINT ENERGY     -1138.643691445619
Dispersion correction            ... done
Dispersion correction           -0.079039883
FINAL SINGLE POINT ENERGY     -1138.643588440159
Dispersion correction            ... done
FINAL SINGLE POINT ENERGY     -1138.643925304547
FINAL SINGLE POINT ENERGY     -1138.643876117018
FINAL SINGLE POINT ENERGY     -1138.643831193183
FINAL SINGLE POINT ENERGY     -1138.643874252185
FINAL SINGLE POINT ENERGY     -1138.643917285653
FINAL SINGLE POINT ENERGY     -1138.643916753166
Dispersion correction            ... done
Dispersion correction           -0.079086879
FINAL SINGLE POINT ENERGY     -1138.643901957591
Dispersion correction            ... done
Dispersion correction           -0.079086656
FINAL SINGLE POINT ENERGY     -1138.643892834206
Dispersion correction            ... done
                    ***********************HURRAY********************

CARTESIAN COORDINATES (ANGSTROEM)
---------------------------------
  C      1.291924   -0.133587   -0.767735
  C      0.265356   -0.681563   -0.035153
  C      0.476994   -1.662853    0.985459
  N      0.635114   -2.458278    1.816645
  C     -1.105075   -0.325500   -0.243975
  N     -2.219987   -0.044541   -0.408124
  C      2.726966   -0.470483   -0.649756
  C      3.460028    0.248824   -1.617206
  C      4.829140    0.095386   -1.783352
  C      5.505602   -0.800378   -0.952496
  C      4.798146   -1.487356    0.061187
  C      3.413683   -1.336178    0.212693
  C      5.578416   -2.349197    1.005750
  O      6.786674   -2.355527    1.060597
  O      4.794592   -3.092445    1.793172
  C      5.468867   -3.936702    2.729694
  C      6.950565   -1.107329   -1.246332
  O      7.288901   -2.080693   -1.867763
  O      7.760806   -0.134994   -0.826204
  C      9.158442   -0.363748   -1.028551
  C      2.554267    1.136541   -2.384553
  O      2.858982    1.913663   -3.260112
  C      1.168362    0.876658   -1.842196
  C      0.106300    1.524712   -2.351805
  H      5.348491    0.658272   -2.561188
  H      2.916165   -1.896733    1.000016
  H      4.685572   -4.475236    3.274789
  H      6.078993   -3.333981    3.418676
  H      6.129274   -4.639174    2.200298
  H      9.489324   -1.212009   -0.412638
  H      9.667289    0.555954   -0.717084
  H      9.367670   -0.588588   -2.084447
  H     -0.918876    1.384092   -2.011177
  H      0.298302    2.237683   -3.159689

 Multiplicity           Mult            ....    1
 Number of Electrons    NEL             ....  166
 Basis Dimension        Dim             ....  386

ORBITAL ENERGIES
----------------

  NO   OCC          E(Eh)            E(eV)
   0   2.0000     -19.203596      -522.5564
   1   2.0000     -19.192221      -522.2469
   2   2.0000     -19.158603      -521.3321
   3   2.0000     -19.148107      -521.0465
   4   2.0000     -19.135165      -520.6943
   5   2.0000     -14.359597      -390.7445
   6   2.0000     -14.359323      -390.7370
   7   2.0000     -10.341459      -281.4054
   8   2.0000     -10.332344      -281.1574
   9   2.0000     -10.305002      -280.4134
  10   2.0000     -10.292651      -280.0773
  11   2.0000     -10.283290      -279.8225
  12   2.0000     -10.261719      -279.2356
  13   2.0000     -10.261339      -279.2252
  14   2.0000     -10.261146      -279.2200
  15   2.0000     -10.253665      -279.0164
  16   2.0000     -10.252638      -278.9885
  17   2.0000     -10.250752      -278.9372
  18   2.0000     -10.249712      -278.9088
  19   2.0000     -10.245346      -278.7900
  20   2.0000     -10.243438      -278.7381
  21   2.0000     -10.243406      -278.7372
  22   2.0000     -10.241499      -278.6854
  23   2.0000     -10.239150      -278.6214
  24   2.0000      -1.124607       -30.6021
  25   2.0000      -1.112344       -30.2684
  26   2.0000      -1.063987       -28.9526
  27   2.0000      -1.033240       -28.1159
  28   2.0000      -1.022529       -27.8244
  29   2.0000      -0.942638       -25.6505
  30   2.0000      -0.924237       -25.1498
  31   2.0000      -0.922984       -25.1157
  32   2.0000      -0.881434       -23.9851
  33   2.0000      -0.833445       -22.6792
  34   2.0000      -0.806153       -21.9365
  35   2.0000      -0.805254       -21.9121
  36   2.0000      -0.752200       -20.4684
  37   2.0000      -0.747227       -20.3331
  38   2.0000      -0.715265       -19.4633
  39   2.0000      -0.699588       -19.0367
  40   2.0000      -0.651426       -17.7262
  41   2.0000      -0.631293       -17.1784
  42   2.0000      -0.622885       -16.9495
  43   2.0000      -0.600219       -16.3328
  44   2.0000      -0.588438       -16.0122
  45   2.0000      -0.563383       -15.3304
  46   2.0000      -0.557841       -15.1796
  47   2.0000      -0.538982       -14.6664
  48   2.0000      -0.530356       -14.4317
  49   2.0000      -0.512805       -13.9541
  50   2.0000      -0.508770       -13.8443
  51   2.0000      -0.502340       -13.6694
  52   2.0000      -0.488299       -13.2873
  53   2.0000      -0.484109       -13.1733
  54   2.0000      -0.479013       -13.0346
  55   2.0000      -0.474315       -12.9068
  56   2.0000      -0.472435       -12.8556
  57   2.0000      -0.462690       -12.5904
  58   2.0000      -0.456805       -12.4303
  59   2.0000      -0.444192       -12.0871
  60   2.0000      -0.436293       -11.8721
  61   2.0000      -0.432720       -11.7749
  62   2.0000      -0.428044       -11.6477
  63   2.0000      -0.419321       -11.4103
  64   2.0000      -0.409861       -11.1529
  65   2.0000      -0.400412       -10.8958
  66   2.0000      -0.395372       -10.7586
  67   2.0000      -0.393619       -10.7109
  68   2.0000      -0.388787       -10.5794
  69   2.0000      -0.380689       -10.3591
  70   2.0000      -0.373601       -10.1662
  71   2.0000      -0.371690       -10.1142
  72   2.0000      -0.367978       -10.0132
  73   2.0000      -0.362765        -9.8713
  74   2.0000      -0.359331        -9.7779
  75   2.0000      -0.331529        -9.0214
  76   2.0000      -0.317280        -8.6336
  77   2.0000      -0.313710        -8.5365
  78   2.0000      -0.307949        -8.3797
  79   2.0000      -0.303623        -8.2620
  80   2.0000      -0.294181        -8.0051
  81   2.0000      -0.287751        -7.8301
  82   2.0000      -0.274993        -7.4829
  83   0.0000      -0.136053        -3.7022
  84   0.0000      -0.120250        -3.2722
  85   0.0000      -0.054034        -1.4703
  86   0.0000      -0.040174        -1.0932
  87   0.0000      -0.028092        -0.7644

MULLIKEN ATOMIC CHARGES
-----------------------
   0 C :    0.262779
   1 C :   -0.289598
   2 C :   -0.138086
   3 N :    0.115399
   4 C :   -0.149591
   5 N :    0.117619
   6 C :    0.065272
   7 C :   -0.010849
   8 C :   -0.028458
   9 C :    0.021341
  10 C :    0.025550
  11 C :   -0.049947
  12 C :    0.216727
  13 O :   -0.216228
  14 O :   -0.294701
  15 C :    0.196919
  16 C :    0.211815
  17 O :   -0.217577
  18 O :   -0.300503
  19 C :    0.194060
  20 C :    0.153368
  21 O :   -0.138072
  22 C :   -0.116409
  23 C :    0.010049
  24 H :    0.003589
  25 H :    0.014573
  26 H :    0.043974
  27 H :    0.034194
  28 H :    0.037813
  29 H :    0.040437
  30 H :    0.033514
  31 H :    0.030915
  32 H :    0.060894
  33 H :    0.059217
Sum of atomic charges:    0.0000000

LOEWDIN ATOMIC CHARGES
----------------------
   0 C :    0.063693
   1 C :   -0.112504
   2 C :   -0.011998
   3 N :   -0.043641
   4 C :   -0.010874
   5 N :   -0.043277
   6 C :   -0.011012
   7 C :   -0.030886
   8 C :    0.029881
   9 C :    0.005189
  10 C :   -0.033645
  11 C :    0.028204
  12 C :    0.091412
  13 O :   -0.159565
  14 O :   -0.078416
  15 C :    0.092613
  16 C :    0.078609
  17 O :   -0.157569
  18 O :   -0.081450
  19 C :    0.090018
  20 C :    0.082271
  21 O :   -0.122922
  22 C :   -0.071521
  23 C :    0.072053
  24 H :    0.046056
  25 H :    0.042811
  26 H :    0.030602
  27 H :    0.024961
  28 H :    0.026538
  29 H :    0.028200
  30 H :    0.026029
  31 H :    0.022271
  32 H :    0.041764
  33 H :    0.046101

  Mayer bond orders larger than 0.100000
B(  0-C ,  1-C ) :   1.6429 B(  0-C ,  6-C ) :   1.0135 B(  0-C , 22-C ) :   1.0072
B(  1-C ,  2-C ) :   1.1336 B(  1-C ,  4-C ) :   1.1406 B(  2-C ,  3-N ) :   2.9339
B(  4-C ,  5-N ) :   2.9424 B(  6-C ,  7-C ) :   1.3156 B(  6-C , 11-C ) :   1.2912
B(  7-C ,  8-C ) :   1.3423 B(  7-C , 20-C ) :   0.9331 B(  8-C ,  9-C ) :   1.3704
B(  8-C , 24-H ) :   1.0055 B(  9-C , 10-C ) :   1.4162 B(  9-C , 16-C ) :   0.8521
B( 10-C , 11-C ) :   1.3422 B( 10-C , 12-C ) :   0.9066 B( 11-C , 25-H ) :   0.9831
B( 12-C , 13-O ) :   2.0238 B( 12-C , 14-O ) :   1.2402 B( 14-O , 15-C ) :   0.9052
B( 15-C , 26-H ) :   0.9787 B( 15-C , 27-H ) :   0.9737 B( 15-C , 28-H ) :   0.9737
B( 16-C , 17-O ) :   2.0771 B( 16-C , 18-O ) :   1.2154 B( 18-O , 19-C ) :   0.9123
B( 19-C , 29-H ) :   0.9745 B( 19-C , 30-H ) :   0.9791 B( 19-C , 31-H ) :   0.9701
B( 20-C , 21-O ) :   2.2349 B( 20-C , 22-C ) :   0.9154 B( 22-C , 23-C ) :   1.9073
B( 23-C , 32-H ) :   0.9201 B( 23-C , 33-H ) :   0.9146

Dispersion correction           -0.079086332
FINAL SINGLE POINT ENERGY     -1138.643894356251

DIPOLE MOMENT
-------------
                                X             Y             Z
Electronic contribution:    -14.23854       3.16381      -3.06140
Nuclear contribution   :     15.44441      -2.84156       3.37903
                        -----------------------------------------
Total Dipole Moment    :      1.20587       0.32225       0.31763
                        -----------------------------------------
Magnitude (a.u.)       :      1.28796
Magnitude (Debye)      :      3.27374

Rotational constants in cm-1:     0.012453     0.005426     0.003872
Rotational constants in MHz :   373.335927   162.668808   116.090243

                             ****ORCA TERMINATED NORMALLY****
TOTAL RUN TIME: 0 days 0 hours 51 minutes 53 seconds 509 msec
