                         Program Version 4.2.0 -  RELEASE  -
|  1> # ORCA input file
|  2> # SCF done        -22.854030616476          0.000428690856
|  3> ! B3LYP/G D3BJ Opt RIJCOSX def2-SVP def2/J
|  4> * xyz 0 1
|  5>    C       -1.16500         0.03271         0.00299
|  6>    C       -0.41888         1.18010         0.00071
|  7>    C       -0.89688         2.49511         0.00003
|  8>    N       -1.29626         3.57001         0.00097
|  9>    S        1.29089         0.84647        -0.00176
| 10>    C        0.98829        -0.83150        -0.00001
| 11>    C       -0.35315        -1.12732         0.00252
| 12>    C       -0.86417        -2.44082         0.00462
| 13>    N       -1.28526        -3.50609         0.00540
| 14>    H       -2.24021         0.01603         0.00480
| 15>    H        1.80481        -1.52723        -0.00086
| 16> *
| 17>
| 18>                          ****END OF INPUT****
 Total Charge           Charge          ....    0
 Multiplicity           Mult            ....    1
 Number of Electrons    NEL             ....   68
Dispersion correction           -0.024441899
FINAL SINGLE POINT ENERGY      -737.147051952393
Dispersion correction            ... done
Dispersion correction           -0.024293433
FINAL SINGLE POINT ENERGY      -737.149569198990
Dispersion correction            ... done
Dispersion correction           -0.024274153
FINAL SINGLE POINT ENERGY      -737.149607113129
Dispersion correction            ... done
Dispersion correction           -0.024271009
FINAL SINGLE POINT ENERGY      -737.149608933376
Dispersion correction            ... done
Dispersion correction           -0.024269877
FINAL SINGLE POINT ENERGY      -737.149610245436
Dispersion correction            ... done
                    ***********************HURRAY********************

CARTESIAN COORDINATES (ANGSTROEM)
---------------------------------
  C     -1.168192    0.032736    0.002650
  C     -0.422307    1.192144    0.000159
  C     -0.903658    2.526450    0.000220
  N     -1.300508    3.618204    0.001549
  S      1.293270    0.852254   -0.002027
  C      1.004273   -0.836037   -0.000086
  C     -0.348203   -1.137773    0.002549
  C     -0.866345   -2.469562    0.004769
  N     -1.300265   -3.545762    0.005759
  H     -2.257691    0.016335    0.004491
  H      1.833805   -1.541519   -0.000623

 Multiplicity           Mult            ....    1
 Number of Electrons    NEL             ....   68
 Basis Dimension        Dim             ....  140

ORBITAL ENERGIES
----------------

  NO   OCC          E(Eh)            E(eV)
   0   2.0000     -88.933498     -2420.0035
   1   2.0000     -14.354384      -390.6026
   2   2.0000     -14.349300      -390.4643
   3   2.0000     -10.285940      -279.8946
   4   2.0000     -10.274420      -279.5812
   5   2.0000     -10.270889      -279.4851
   6   2.0000     -10.257034      -279.1081
   7   2.0000     -10.256767      -279.1008
   8   2.0000     -10.250388      -278.9272
   9   2.0000      -8.028437      -218.4649
  10   2.0000      -5.996518      -163.1736
  11   2.0000      -5.992205      -163.0562
  12   2.0000      -5.989884      -162.9930
  13   2.0000      -0.947115       -25.7723
  14   2.0000      -0.920713       -25.0539
  15   2.0000      -0.911908       -24.8143
  16   2.0000      -0.808800       -22.0086
  17   2.0000      -0.793991       -21.6056
  18   2.0000      -0.675787       -18.3891
  19   2.0000      -0.647128       -17.6093
  20   2.0000      -0.588156       -16.0045
  21   2.0000      -0.520069       -14.1518
  22   2.0000      -0.475469       -12.9382
  23   2.0000      -0.468076       -12.7370
  24   2.0000      -0.456707       -12.4276
  25   2.0000      -0.412469       -11.2239
  26   2.0000      -0.398718       -10.8497
  27   2.0000      -0.384053       -10.4506
  28   2.0000      -0.378779       -10.3071
  29   2.0000      -0.366694        -9.9783
  30   2.0000      -0.364444        -9.9170
  31   2.0000      -0.355643        -9.6775
  32   2.0000      -0.304973        -8.2987
  33   2.0000      -0.284996        -7.7551
  34   0.0000      -0.095188        -2.5902
  35   0.0000      -0.050002        -1.3606
  36   0.0000      -0.029842        -0.8121
  37   0.0000      -0.003989        -0.1086
  38   0.0000       0.021255         0.5784

MULLIKEN ATOMIC CHARGES
-----------------------
   0 C :    0.119643
   1 C :   -0.268144
   2 C :   -0.103873
   3 N :    0.105861
   4 S :    0.219445
   5 C :   -0.056565
   6 C :   -0.082084
   7 C :   -0.120910
   8 N :    0.104070
   9 H :    0.026141
  10 H :    0.056416
Sum of atomic charges:   -0.0000000

LOEWDIN ATOMIC CHARGES
----------------------
   0 C :    0.008888
   1 C :   -0.213753
   2 C :   -0.048789
   3 N :   -0.040159
   4 S :    0.510822
   5 C :   -0.138598
   6 C :   -0.099977
   7 C :   -0.028818
   8 N :   -0.046638
   9 H :    0.052768
  10 H :    0.044255

  Mayer bond orders larger than 0.100000
B(  0-C ,  1-C ) :   1.5149 B(  0-C ,  6-C ) :   1.2593 B(  0-C ,  9-H ) :   0.9983
B(  1-C ,  2-C ) :   1.1714 B(  1-C ,  4-S ) :   1.1434 B(  2-C ,  3-N ) :   2.9855
B(  4-S ,  5-C ) :   1.2072 B(  5-C ,  6-C ) :   1.5029 B(  5-C , 10-H ) :   0.9678
B(  6-C ,  7-C ) :   1.0937 B(  7-C ,  8-N ) :   3.0162

Dispersion correction           -0.024271971
FINAL SINGLE POINT ENERGY      -737.149610833244

DIPOLE MOMENT
-------------
                                X             Y             Z
Electronic contribution:      1.16399       1.62568      -0.00365
Nuclear contribution   :     -0.06327      -1.71128       0.00145
                        -----------------------------------------
Total Dipole Moment    :      1.10072      -0.08560      -0.00221
                        -----------------------------------------
Magnitude (a.u.)       :      1.10405
Magnitude (Debye)      :      2.80627

Rotational constants in cm-1:     0.109775     0.029336     0.023150
Rotational constants in MHz :  3290.985618   879.467545   694.004976

                             ****ORCA TERMINATED NORMALLY****
TOTAL RUN TIME: 0 days 0 hours 2 minutes 32 seconds 614 msec
