                         Program Version 4.2.0 -  RELEASE  -
|  1> # ORCA input file
|  2> # SCF done        -50.464208654901          0.000799060933
|  3> ! B3LYP/G D3BJ Opt RIJCOSX def2-SVP def2/J
|  4> * xyz 0 1
|  5>    C       -1.31567         1.16283        -0.06745
|  6>    C       -0.03719         0.67966        -0.00060
|  7>    C       -0.01197        -0.75577         0.01246
|  8>    C       -1.24424        -1.32100        -0.04598
|  9>    S       -2.46405        -0.10794        -0.11538
| 10>    C        1.37052        -1.22790         0.06105
| 11>    O        1.79052        -2.35446         0.12708
| 12>    C        2.21035         0.02404         0.01221
| 13>    C        1.31874         1.20094         0.00420
| 14>    C        1.66879         2.51327         0.02534
| 15>    N        0.71136         3.59511         0.19617
| 16>    O        0.89131         4.57753        -0.48063
| 17>    O       -0.18544         3.43302         0.98847
| 18>    N        3.01658         3.03760        -0.12145
| 19>    O        3.32048         3.93339         0.62685
| 20>    O        3.72128         2.54915        -0.97080
| 21>    C        3.53972        -0.09676         0.00597
| 22>    H       -1.67241         2.17315        -0.07077
| 23>    H       -1.50564        -2.36012        -0.05448
| 24>    H        3.94293        -1.09739         0.05697
| 25>    H        4.24664         0.70774        -0.07949
| 26> *
| 27>
| 28>                          ****END OF INPUT****
 Total Charge           Charge          ....    0
 Multiplicity           Mult            ....    1
 Number of Electrons    NEL             ....  128
Dispersion correction           -0.052341966
FINAL SINGLE POINT ENERGY     -1228.229799311885
Dispersion correction            ... done
Dispersion correction           -0.051905037
FINAL SINGLE POINT ENERGY     -1228.233000292144
Dispersion correction            ... done
Dispersion correction           -0.052018672
FINAL SINGLE POINT ENERGY     -1228.231332972307
Dispersion correction            ... done
FINAL SINGLE POINT ENERGY     -1228.233608833154
FINAL SINGLE POINT ENERGY     -1228.233678099785
FINAL SINGLE POINT ENERGY     -1228.233662869291
FINAL SINGLE POINT ENERGY     -1228.232931797568
FINAL SINGLE POINT ENERGY     -1228.234395941533
FINAL SINGLE POINT ENERGY     -1228.234565305806
FINAL SINGLE POINT ENERGY     -1228.234936557285
FINAL SINGLE POINT ENERGY     -1228.236120819254
FINAL SINGLE POINT ENERGY     -1228.236068606186
FINAL SINGLE POINT ENERGY     -1228.235534336049
FINAL SINGLE POINT ENERGY     -1228.236062314610
FINAL SINGLE POINT ENERGY     -1228.236090114806
FINAL SINGLE POINT ENERGY     -1228.236092650147
FINAL SINGLE POINT ENERGY     -1228.236086173759
Dispersion correction            ... done
Dispersion correction           -0.052196025
FINAL SINGLE POINT ENERGY     -1228.236100216932
Dispersion correction            ... done
Dispersion correction           -0.052195823
FINAL SINGLE POINT ENERGY     -1228.236117016134
Dispersion correction            ... done
                    ***********************HURRAY********************

CARTESIAN COORDINATES (ANGSTROEM)
---------------------------------
  C     -1.443017    1.078616    0.097818
  C     -0.127285    0.659010    0.034037
  C     -0.030848   -0.779058    0.024703
  C     -1.234466   -1.426119    0.083349
  S     -2.519063   -0.271561    0.151096
  C      1.377986   -1.199442   -0.028488
  O      1.839159   -2.316321   -0.074755
  C      2.177001    0.091930   -0.009089
  C      1.224018    1.245718   -0.002171
  C      1.617228    2.545347   -0.034395
  N      0.806152    3.740328   -0.084984
  O      1.411174    4.799493   -0.132521
  O     -0.410183    3.620934   -0.084348
  N      3.050270    2.911961   -0.032351
  O      3.569629    3.052766    1.057579
  O      3.595117    3.006260   -1.113561
  C      3.517874    0.024882    0.009589
  H     -1.835305    2.088173    0.117842
  H     -1.430176   -2.497282    0.090930
  H      3.954512   -0.979214   -0.003491
  H      4.202834    0.869668    0.042951

 Multiplicity           Mult            ....    1
 Number of Electrons    NEL             ....  128
 Basis Dimension        Dim             ....  262

ORBITAL ENERGIES
----------------

  NO   OCC          E(Eh)            E(eV)
   0   2.0000     -88.924765     -2419.7659
   1   2.0000     -19.198161      -522.4085
   2   2.0000     -19.197962      -522.4031
   3   2.0000     -19.189026      -522.1600
   4   2.0000     -19.188429      -522.1437
   5   2.0000     -19.153187      -521.1847
   6   2.0000     -14.594132      -397.1265
   7   2.0000     -14.593533      -397.1102
   8   2.0000     -10.313046      -280.6323
   9   2.0000     -10.304865      -280.4096
  10   2.0000     -10.289855      -280.0012
  11   2.0000     -10.261657      -279.2339
  12   2.0000     -10.260037      -279.1898
  13   2.0000     -10.251523      -278.9581
  14   2.0000     -10.246563      -278.8232
  15   2.0000     -10.244964      -278.7796
  16   2.0000     -10.232815      -278.4491
  17   2.0000      -8.019643      -218.2256
  18   2.0000      -5.987488      -162.9278
  19   2.0000      -5.983049      -162.8070
  20   2.0000      -5.981826      -162.7738
  21   2.0000      -1.265489       -34.4357
  22   2.0000      -1.247928       -33.9578
  23   2.0000      -1.086539       -29.5662
  24   2.0000      -1.078843       -29.3568
  25   2.0000      -1.060051       -28.8455
  26   2.0000      -0.940684       -25.5973
  27   2.0000      -0.905335       -24.6354
  28   2.0000      -0.857771       -23.3411
  29   2.0000      -0.794421       -21.6173
  30   2.0000      -0.775914       -21.1137
  31   2.0000      -0.740654       -20.1542
  32   2.0000      -0.725112       -19.7313
  33   2.0000      -0.692026       -18.8310
  34   2.0000      -0.620354       -16.8807
  35   2.0000      -0.606258       -16.4971
  36   2.0000      -0.587753       -15.9936
  37   2.0000      -0.584218       -15.8974
  38   2.0000      -0.573743       -15.6123
  39   2.0000      -0.566283       -15.4093
  40   2.0000      -0.553248       -15.0547
  41   2.0000      -0.548187       -14.9169
  42   2.0000      -0.536684       -14.6039
  43   2.0000      -0.526329       -14.3221
  44   2.0000      -0.496498       -13.5104
  45   2.0000      -0.474772       -12.9192
  46   2.0000      -0.468927       -12.7602
  47   2.0000      -0.468476       -12.7479
  48   2.0000      -0.445852       -12.1322
  49   2.0000      -0.429853       -11.6969
  50   2.0000      -0.415129       -11.2962
  51   2.0000      -0.413024       -11.2389
  52   2.0000      -0.394458       -10.7337
  53   2.0000      -0.393495       -10.7075
  54   2.0000      -0.352254        -9.5853
  55   2.0000      -0.348735        -9.4896
  56   2.0000      -0.338736        -9.2175
  57   2.0000      -0.334817        -9.1108
  58   2.0000      -0.333654        -9.0792
  59   2.0000      -0.318912        -8.6780
  60   2.0000      -0.307209        -8.3596
  61   2.0000      -0.293196        -7.9783
  62   2.0000      -0.286082        -7.7847
  63   2.0000      -0.278419        -7.5762
  64   0.0000      -0.138688        -3.7739
  65   0.0000      -0.104690        -2.8488
  66   0.0000      -0.103827        -2.8253
  67   0.0000      -0.054478        -1.4824
  68   0.0000      -0.039649        -1.0789

MULLIKEN ATOMIC CHARGES
-----------------------
   0 C :   -0.112054
   1 C :    0.063414
   2 C :    0.001834
   3 C :   -0.115627
   4 S :    0.163422
   5 C :    0.168433
   6 O :   -0.143794
   7 C :   -0.132718
   8 C :    0.216337
   9 C :    0.088575
  10 N :    0.248302
  11 O :   -0.225851
  12 O :   -0.251361
  13 N :    0.187358
  14 O :   -0.201312
  15 O :   -0.199201
  16 C :    0.015427
  17 H :    0.063228
  18 H :    0.050049
  19 H :    0.060442
  20 H :    0.055097
Sum of atomic charges:    0.0000000

LOEWDIN ATOMIC CHARGES
----------------------
   0 C :   -0.145043
   1 C :   -0.054980
   2 C :   -0.090692
   3 C :   -0.143636
   4 S :    0.503577
   5 C :    0.080174
   6 O :   -0.129550
   7 C :   -0.067486
   8 C :    0.034914
   9 C :   -0.026779
  10 N :    0.273753
  11 O :   -0.190099
  12 O :   -0.199162
  13 N :    0.264296
  14 O :   -0.167511
  15 O :   -0.164887
  16 C :    0.065647
  17 H :    0.034764
  18 H :    0.042429
  19 H :    0.047706
  20 H :    0.032567

  Mayer bond orders larger than 0.100000
B(  0-C ,  1-C ) :   1.4986 B(  0-C ,  4-S ) :   1.1891 B(  0-C , 17-H ) :   0.9481
B(  1-C ,  2-C ) :   1.2190 B(  1-C ,  8-C ) :   1.0345 B(  2-C ,  3-C ) :   1.5093
B(  2-C ,  5-C ) :   0.9639 B(  3-C ,  4-S ) :   1.1807 B(  3-C , 18-H ) :   0.9671
B(  5-C ,  6-O ) :   2.2212 B(  5-C ,  7-C ) :   0.9148 B(  7-C ,  8-C ) :   1.0109
B(  7-C , 16-C ) :   1.9247 B(  8-C ,  9-C ) :   1.6359 B(  9-C , 10-N ) :   0.9431
B(  9-C , 13-N ) :   0.8202 B( 10-N , 11-O ) :   1.5076 B( 10-N , 12-O ) :   1.4751
B( 11-O , 12-O ) :   0.2734 B( 13-N , 14-O ) :   1.5224 B( 13-N , 15-O ) :   1.5259
B( 14-O , 15-O ) :   0.3185 B( 16-C , 19-H ) :   0.9072 B( 16-C , 20-H ) :   0.9293

Dispersion correction           -0.052194650
FINAL SINGLE POINT ENERGY     -1228.236123719552

DIPOLE MOMENT
-------------
                                X             Y             Z
Electronic contribution:     -2.73357       3.61372      -0.08712
Nuclear contribution   :      1.45967      -4.87530       0.22279
                        -----------------------------------------
Total Dipole Moment    :     -1.27390      -1.26158       0.13567
                        -----------------------------------------
Magnitude (a.u.)       :      1.79801
Magnitude (Debye)      :      4.57017

Rotational constants in cm-1:     0.022620     0.011876     0.008074
Rotational constants in MHz :   678.132962   356.036446   242.052010

                             ****ORCA TERMINATED NORMALLY****
TOTAL RUN TIME: 0 days 0 hours 55 minutes 28 seconds 811 msec
