                         Program Version 4.2.0 -  RELEASE  -
|  1> # ORCA input file
|  2> # SCF done        -37.916870610988          0.000784328457
|  3> ! B3LYP/G D3BJ Opt RIJCOSX def2-SVP def2/J
|  4> * xyz 0 1
|  5>    C        2.99796        -0.91661         0.00121
|  6>    C        1.77214        -1.52595        -0.00037
|  7>    C        1.63871        -2.92760        -0.00192
|  8>    N        1.57716        -4.07136        -0.00680
|  9>    C        0.70612        -0.57641        -0.00016
| 10>    C        1.20197         0.72108         0.00169
| 11>    S        2.92340         0.80284         0.00336
| 12>    S       -0.00151         1.97111         0.00188
| 13>    C       -1.20946         0.72539        -0.00063
| 14>    C       -0.71825        -0.57386        -0.00131
| 15>    C       -1.78765        -1.51958        -0.00267
| 16>    C       -1.65915        -2.92170        -0.00195
| 17>    N       -1.60150        -4.06570        -0.00460
| 18>    C       -3.01128        -0.90587        -0.00353
| 19>    S       -2.93058         0.81330        -0.00212
| 20>    H        3.95420        -1.40234         0.00145
| 21>    H       -3.96925        -1.38818        -0.00466
| 22> *
| 23>
| 24>                          ****END OF INPUT****
 Total Charge           Charge          ....    0
 Multiplicity           Mult            ....    1
 Number of Electrons    NEL             ....  124
Dispersion correction           -0.054976464
FINAL SINGLE POINT ENERGY     -1685.641277481085
Dispersion correction            ... done
Dispersion correction           -0.054551822
FINAL SINGLE POINT ENERGY     -1685.645004503289
Dispersion correction            ... done
Dispersion correction           -0.054541373
FINAL SINGLE POINT ENERGY     -1685.645098115247
Dispersion correction            ... done
Dispersion correction           -0.054541648
FINAL SINGLE POINT ENERGY     -1685.645111093288
Dispersion correction            ... done
Dispersion correction           -0.054540802
FINAL SINGLE POINT ENERGY     -1685.645112561468
Dispersion correction            ... done
                    ***********************HURRAY********************

CARTESIAN COORDINATES (ANGSTROEM)
---------------------------------
  C      3.033528   -0.909759    0.001483
  C      1.798307   -1.525304   -0.000058
  C      1.683231   -2.947838   -0.001295
  N      1.643521   -4.107619   -0.005419
  C      0.715809   -0.568407   -0.000126
  C      1.213845    0.737067    0.001221
  S      2.942190    0.819045    0.002263
  S     -0.001497    1.988947    0.001409
  C     -1.221342    0.741493   -0.000487
  C     -0.727979   -0.565781   -0.001114
  C     -1.813870   -1.518767   -0.002462
  C     -1.703676   -2.941675   -0.003420
  N     -1.667696   -4.101579   -0.006996
  C     -3.046876   -0.898815   -0.002658
  S     -2.949379    0.829659   -0.001876
  H      4.003612   -1.403242    0.001916
  H     -4.018699   -1.388865   -0.003511

 Multiplicity           Mult            ....    1
 Number of Electrons    NEL             ....  124
 Basis Dimension        Dim             ....  232

ORBITAL ENERGIES
----------------

  NO   OCC          E(Eh)            E(eV)
   0   2.0000     -88.919845     -2419.6320
   1   2.0000     -88.919171     -2419.6137
   2   2.0000     -88.919167     -2419.6136
   3   2.0000     -14.332110      -389.9965
   4   2.0000     -14.332051      -389.9949
   5   2.0000     -10.268457      -279.4189
   6   2.0000     -10.268398      -279.4173
   7   2.0000     -10.257835      -279.1299
   8   2.0000     -10.257730      -279.1270
   9   2.0000     -10.256294      -279.0879
  10   2.0000     -10.256268      -279.0872
  11   2.0000     -10.243985      -278.7530
  12   2.0000     -10.243782      -278.7475
  13   2.0000     -10.232595      -278.4431
  14   2.0000     -10.232571      -278.4424
  15   2.0000      -8.013877      -218.0687
  16   2.0000      -8.013865      -218.0684
  17   2.0000      -8.013844      -218.0678
  18   2.0000      -5.982682      -162.7971
  19   2.0000      -5.982247      -162.7852
  20   2.0000      -5.982242      -162.7851
  21   2.0000      -5.978658      -162.6875
  22   2.0000      -5.978032      -162.6705
  23   2.0000      -5.978028      -162.6704
  24   2.0000      -5.974769      -162.5817
  25   2.0000      -5.974765      -162.5816
  26   2.0000      -5.973769      -162.5545
  27   2.0000      -0.953111       -25.9355
  28   2.0000      -0.919527       -25.0216
  29   2.0000      -0.902052       -24.5461
  30   2.0000      -0.895075       -24.3562
  31   2.0000      -0.858485       -23.3606
  32   2.0000      -0.810934       -22.0666
  33   2.0000      -0.786978       -21.4148
  34   2.0000      -0.744658       -20.2632
  35   2.0000      -0.730101       -19.8670
  36   2.0000      -0.645102       -17.5541
  37   2.0000      -0.630986       -17.1700
  38   2.0000      -0.597340       -16.2545
  39   2.0000      -0.589653       -16.0453
  40   2.0000      -0.567502       -15.4425
  41   2.0000      -0.513364       -13.9693
  42   2.0000      -0.470012       -12.7897
  43   2.0000      -0.464339       -12.6353
  44   2.0000      -0.457513       -12.4496
  45   2.0000      -0.457399       -12.4465
  46   2.0000      -0.430130       -11.7044
  47   2.0000      -0.424445       -11.5497
  48   2.0000      -0.407857       -11.0983
  49   2.0000      -0.399242       -10.8639
  50   2.0000      -0.390963       -10.6387
  51   2.0000      -0.385428       -10.4880
  52   2.0000      -0.363709        -9.8970
  53   2.0000      -0.363652        -9.8955
  54   2.0000      -0.359268        -9.7762
  55   2.0000      -0.351270        -9.5585
  56   2.0000      -0.342281        -9.3139
  57   2.0000      -0.327707        -8.9174
  58   2.0000      -0.317016        -8.6265
  59   2.0000      -0.279199        -7.5974
  60   2.0000      -0.254504        -6.9254
  61   2.0000      -0.248929        -6.7737
  62   0.0000      -0.065194        -1.7740
  63   0.0000      -0.064611        -1.7582
  64   0.0000      -0.042896        -1.1673
  65   0.0000      -0.016421        -0.4468
  66   0.0000      -0.007015        -0.1909

MULLIKEN ATOMIC CHARGES
-----------------------
   0 C :   -0.078706
   1 C :   -0.074861
   2 C :   -0.207618
   3 N :    0.144019
   4 C :    0.176681
   5 C :   -0.257116
   6 S :    0.163759
   7 S :    0.182883
   8 C :   -0.257013
   9 C :    0.176553
  10 C :   -0.074807
  11 C :   -0.207601
  12 N :    0.144073
  13 C :   -0.078834
  14 S :    0.163832
  15 H :    0.042388
  16 H :    0.042368
Sum of atomic charges:   -0.0000000

LOEWDIN ATOMIC CHARGES
----------------------
   0 C :   -0.143896
   1 C :   -0.092732
   2 C :   -0.035508
   3 N :   -0.039073
   4 C :   -0.061272
   5 C :   -0.336121
   6 S :    0.457743
   7 S :    0.421358
   8 C :   -0.336141
   9 C :   -0.061267
  10 C :   -0.092732
  11 C :   -0.035507
  12 N :   -0.039064
  13 C :   -0.143914
  14 S :    0.457753
  15 H :    0.040189
  16 H :    0.040184

  Mayer bond orders larger than 0.100000
B(  0-C ,  1-C ) :   1.5317 B(  0-C ,  6-S ) :   1.1635 B(  0-C , 15-H ) :   0.9663
B(  1-C ,  2-C ) :   1.1617 B(  1-C ,  4-C ) :   1.2383 B(  2-C ,  3-N ) :   2.9952
B(  4-C ,  5-C ) :   1.3695 B(  4-C ,  9-C ) :   1.0896 B(  5-C ,  6-S ) :   1.1175
B(  5-C ,  7-S ) :   1.0859 B(  7-S ,  8-C ) :   1.0858 B(  8-C ,  9-C ) :   1.3696
B(  8-C , 14-S ) :   1.1175 B(  9-C , 10-C ) :   1.2382 B( 10-C , 11-C ) :   1.1617
B( 10-C , 13-C ) :   1.5317 B( 11-C , 12-N ) :   2.9951 B( 13-C , 14-S ) :   1.1635
B( 13-C , 16-H ) :   0.9664

Dispersion correction           -0.054539507
FINAL SINGLE POINT ENERGY     -1685.645112830181

DIPOLE MOMENT
-------------
                                X             Y             Z
Electronic contribution:      0.00798       4.57399       0.00495
Nuclear contribution   :     -0.00335      -1.84851       0.00003
                        -----------------------------------------
Total Dipole Moment    :      0.00463       2.72548       0.00498
                        -----------------------------------------
Magnitude (a.u.)       :      2.72549
Magnitude (Debye)      :      6.92764

Rotational constants in cm-1:     0.019022     0.015565     0.008560
Rotational constants in MHz :   570.250468   466.626033   256.630129

                             ****ORCA TERMINATED NORMALLY****
TOTAL RUN TIME: 0 days 0 hours 7 minutes 28 seconds 575 msec
