                         Program Version 4.2.0 -  RELEASE  -
|  1> # ORCA input file
|  2> # SCF done        -35.209718595943          0.000244646903
|  3> ! B3LYP/G D3BJ Opt RIJCOSX def2-SVP def2/J
|  4> * xyz 0 1
|  5>    C        1.33952         1.09248         0.00058
|  6>    C        0.02758         0.72538         0.00029
|  7>    C       -1.33431         1.21389         0.00063
|  8>    O       -1.81595         2.32435         0.00170
|  9>    N       -2.11314         0.02968        -0.00066
| 10>    C       -3.54953         0.05309        -0.00101
| 11>    C       -1.33307        -1.08543        -0.00170
| 12>    C       -0.02113        -0.71833        -0.00115
| 13>    C        1.34075        -1.20684        -0.00167
| 14>    O        1.82237        -2.31730        -0.00276
| 15>    N        2.11958        -0.02264        -0.00053
| 16>    C        3.55597        -0.04606        -0.00085
| 17>    H        1.78256         2.07188         0.00151
| 18>    H       -3.85337         1.09994        -0.00011
| 19>    H       -3.94773        -0.43932         0.88826
| 20>    H       -3.94725        -0.43767        -0.89141
| 21>    H       -1.77610        -2.06484        -0.00277
| 22>    H        3.85979        -1.09293        -0.00141
| 23>    H        3.95414         0.44512         0.88910
| 24>    H        3.95374         0.44591        -0.89056
| 25> *
| 26>
| 27>                          ****END OF INPUT****
 Total Charge           Charge          ....    0
 Multiplicity           Mult            ....    1
 Number of Electrons    NEL             ....   86
Dispersion correction           -0.036576351
FINAL SINGLE POINT ENERGY      -569.232126698316
Dispersion correction            ... done
Dispersion correction           -0.036467157
FINAL SINGLE POINT ENERGY      -569.234775573839
Dispersion correction            ... done
Dispersion correction           -0.036451449
FINAL SINGLE POINT ENERGY      -569.234926926704
Dispersion correction            ... done
Dispersion correction           -0.036447022
FINAL SINGLE POINT ENERGY      -569.234962759376
Dispersion correction            ... done
Dispersion correction           -0.036448042
FINAL SINGLE POINT ENERGY      -569.234962742221
Dispersion correction            ... done
                    ***********************HURRAY********************

CARTESIAN COORDINATES (ANGSTROEM)
---------------------------------
  C      1.342775    1.102541    0.000201
  C      0.026433    0.724014   -0.000157
  C     -1.342904    1.233079    0.000407
  O     -1.821463    2.346723    0.001712
  N     -2.134748    0.025656   -0.000683
  C     -3.578401    0.051439   -0.000744
  C     -1.336335   -1.095505   -0.001719
  C     -0.019992   -0.716979   -0.001589
  C      1.349347   -1.226044   -0.002418
  O      1.827909   -2.339687   -0.003559
  N      2.141190   -0.018619   -0.000841
  C      3.584844   -0.044403   -0.000456
  H      1.785100    2.099083    0.001212
  H     -3.881542    1.106938   -0.000069
  H     -3.992107   -0.440123    0.894641
  H     -3.991946   -0.438971   -0.896848
  H     -1.778661   -2.092047   -0.002539
  H      3.887982   -1.099903   -0.000907
  H      3.998177    0.446149    0.895663
  H      3.998760    0.447018   -0.895826

 Multiplicity           Mult            ....    1
 Number of Electrons    NEL             ....   86
 Basis Dimension        Dim             ....  208

ORBITAL ENERGIES
----------------

  NO   OCC          E(Eh)            E(eV)
   0   2.0000     -19.116006      -520.1730
   1   2.0000     -19.115995      -520.1727
   2   2.0000     -14.381137      -391.3306
   3   2.0000     -14.381118      -391.3301
   4   2.0000     -10.297415      -280.2069
   5   2.0000     -10.297411      -280.2068
   6   2.0000     -10.258165      -279.1388
   7   2.0000     -10.258133      -279.1380
   8   2.0000     -10.235537      -278.5231
   9   2.0000     -10.235522      -278.5227
  10   2.0000     -10.189448      -277.2690
  11   2.0000     -10.189257      -277.2638
  12   2.0000      -1.042434       -28.3661
  13   2.0000      -1.037859       -28.2416
  14   2.0000      -0.972745       -26.4697
  15   2.0000      -0.961790       -26.1716
  16   2.0000      -0.831167       -22.6172
  17   2.0000      -0.762925       -20.7602
  18   2.0000      -0.726252       -19.7623
  19   2.0000      -0.689079       -18.7508
  20   2.0000      -0.680579       -18.5195
  21   2.0000      -0.594600       -16.1799
  22   2.0000      -0.592729       -16.1290
  23   2.0000      -0.533570       -14.5192
  24   2.0000      -0.504589       -13.7306
  25   2.0000      -0.504425       -13.7261
  26   2.0000      -0.490481       -13.3467
  27   2.0000      -0.487123       -13.2553
  28   2.0000      -0.472926       -12.8690
  29   2.0000      -0.444298       -12.0900
  30   2.0000      -0.434437       -11.8216
  31   2.0000      -0.430514       -11.7149
  32   2.0000      -0.420968       -11.4551
  33   2.0000      -0.405975       -11.0471
  34   2.0000      -0.403219       -10.9721
  35   2.0000      -0.399412       -10.8686
  36   2.0000      -0.389874       -10.6090
  37   2.0000      -0.341869        -9.3027
  38   2.0000      -0.338811        -9.2195
  39   2.0000      -0.280422        -7.6307
  40   2.0000      -0.265731        -7.2309
  41   2.0000      -0.254609        -6.9283
  42   2.0000      -0.208887        -5.6841
  43   0.0000      -0.086531        -2.3546
  44   0.0000      -0.006739        -0.1834
  45   0.0000       0.058298         1.5864
  46   0.0000       0.060755         1.6532
  47   0.0000       0.079568         2.1651

MULLIKEN ATOMIC CHARGES
-----------------------
   0 C :    0.072865
   1 C :   -0.035114
   2 C :    0.196269
   3 O :   -0.191716
   4 N :   -0.297060
   5 C :    0.124906
   6 C :    0.072868
   7 C :   -0.035094
   8 C :    0.196250
   9 O :   -0.191712
  10 N :   -0.297054
  11 C :    0.124903
  12 H :    0.017063
  13 H :    0.053040
  14 H :    0.029882
  15 H :    0.029860
  16 H :    0.017063
  17 H :    0.053039
  18 H :    0.029857
  19 H :    0.029887
Sum of atomic charges:   -0.0000000

LOEWDIN ATOMIC CHARGES
----------------------
   0 C :    0.093202
   1 C :   -0.127771
   2 C :    0.082612
   3 O :   -0.182825
   4 N :   -0.021824
   5 C :    0.032478
   6 C :    0.093196
   7 C :   -0.127767
   8 C :    0.082613
   9 O :   -0.182821
  10 N :   -0.021821
  11 C :    0.032479
  12 H :    0.033866
  13 H :    0.039058
  14 H :    0.025601
  15 H :    0.025599
  16 H :    0.033867
  17 H :    0.039057
  18 H :    0.025602
  19 H :    0.025598

  Mayer bond orders larger than 0.100000
B(  0-C ,  1-C ) :   1.4669 B(  0-C , 10-N ) :   1.1853 B(  0-C , 12-H ) :   0.9853
B(  1-C ,  2-C ) :   0.9774 B(  1-C ,  7-C ) :   1.2007 B(  2-C ,  3-O ) :   2.1311
B(  2-C ,  4-N ) :   0.9865 B(  4-N ,  5-C ) :   0.9656 B(  4-N ,  6-C ) :   1.1853
B(  5-C , 13-H ) :   0.9573 B(  5-C , 14-H ) :   0.9735 B(  5-C , 15-H ) :   0.9735
B(  6-C ,  7-C ) :   1.4669 B(  6-C , 16-H ) :   0.9853 B(  7-C ,  8-C ) :   0.9774
B(  8-C ,  9-O ) :   2.1311 B(  8-C , 10-N ) :   0.9865 B( 10-N , 11-C ) :   0.9656
B( 11-C , 17-H ) :   0.9573 B( 11-C , 18-H ) :   0.9735 B( 11-C , 19-H ) :   0.9735

Dispersion correction           -0.036449158
FINAL SINGLE POINT ENERGY      -569.234961610056

DIPOLE MOMENT
-------------
                                X             Y             Z
Electronic contribution:      0.00004      -0.00002      -0.00151
Nuclear contribution   :     -0.00000       0.00000       0.00171
                        -----------------------------------------
Total Dipole Moment    :      0.00004      -0.00001       0.00020
                        -----------------------------------------
Magnitude (a.u.)       :      0.00021
Magnitude (Debye)      :      0.00053

Rotational constants in cm-1:     0.073335     0.021813     0.016921
Rotational constants in MHz :  2198.520046   653.934421   507.291286

                             ****ORCA TERMINATED NORMALLY****
TOTAL RUN TIME: 0 days 0 hours 6 minutes 12 seconds 478 msec
