                         Program Version 4.2.0 -  RELEASE  -
|  1> # ORCA input file
|  2> # SCF done        -26.732048399073          0.000436804251
|  3> ! B3LYP/G D3BJ Opt RIJCOSX def2-SVP def2/J
|  4> * xyz 0 1
|  5>    N       -0.71909        -0.87469        -0.17912
|  6>    C       -1.52113        -2.01782        -0.54338
|  7>    C       -1.29509         0.27654         0.26505
|  8>    S       -2.89704         0.50116         0.43949
|  9>    S       -0.06674         1.48754         0.62663
| 10>    C        1.22361         0.38971         0.16160
| 11>    C        0.65654        -0.90934        -0.26896
| 12>    O        1.28753        -1.86609        -0.64508
| 13>    C        2.52755         0.65436         0.18183
| 14>    H       -2.21011        -1.74942        -1.34481
| 15>    H       -2.09933        -2.35818         0.31640
| 16>    H       -0.84055        -2.80042        -0.87504
| 17>    H        2.91791         1.60494         0.49734
| 18>    H        3.22311        -0.10763        -0.12825
| 19> *
| 20>
| 21>                          ****END OF INPUT****
 Total Charge           Charge          ....    0
 Multiplicity           Mult            ....    1
 Number of Electrons    NEL             ....   82
Dispersion correction           -0.032057238
FINAL SINGLE POINT ENERGY     -1119.476580426276
Dispersion correction            ... done
Dispersion correction           -0.031791865
FINAL SINGLE POINT ENERGY     -1119.478547612182
Dispersion correction            ... done
Dispersion correction           -0.031746571
FINAL SINGLE POINT ENERGY     -1119.478638551352
Dispersion correction            ... done
FINAL SINGLE POINT ENERGY     -1119.478650978803
Dispersion correction            ... done
Dispersion correction           -0.031735765
FINAL SINGLE POINT ENERGY     -1119.478660653622
Dispersion correction            ... done
Dispersion correction           -0.031744330
FINAL SINGLE POINT ENERGY     -1119.478660774265
Dispersion correction            ... done
                    ***********************HURRAY********************

CARTESIAN COORDINATES (ANGSTROEM)
---------------------------------
  N     -0.732458   -0.876562   -0.179191
  C     -1.523331   -2.036891   -0.557951
  C     -1.320851    0.283863    0.268792
  S     -2.925736    0.547926    0.459431
  S     -0.081359    1.504943    0.623870
  C      1.227718    0.411078    0.170160
  C      0.667163   -0.910387   -0.251334
  O      1.304707   -1.874322   -0.604889
  C      2.544041    0.659700    0.177145
  H     -2.239261   -1.757920   -1.343154
  H     -2.091378   -2.405865    0.308359
  H     -0.825529   -2.802291   -0.917586
  H      2.957119    1.621570    0.486299
  H      3.226325   -0.134182   -0.136251

 Multiplicity           Mult            ....    1
 Number of Electrons    NEL             ....   82
 Basis Dimension        Dim             ....  159

ORBITAL ENERGIES
----------------

  NO   OCC          E(Eh)            E(eV)
   0   2.0000     -88.891744     -2418.8673
   1   2.0000     -88.822315     -2416.9781
   2   2.0000     -19.145003      -520.9620
   3   2.0000     -14.410717      -392.1355
   4   2.0000     -10.327092      -281.0145
   5   2.0000     -10.309785      -280.5435
   6   2.0000     -10.251444      -278.9560
   7   2.0000     -10.240049      -278.6459
   8   2.0000     -10.228690      -278.3368
   9   2.0000      -7.987882      -217.3613
  10   2.0000      -7.918476      -215.4727
  11   2.0000      -5.956514      -162.0850
  12   2.0000      -5.952776      -161.9833
  13   2.0000      -5.947262      -161.8332
  14   2.0000      -5.887135      -160.1971
  15   2.0000      -5.883992      -160.1116
  16   2.0000      -5.877631      -159.9385
  17   2.0000      -1.073672       -29.2161
  18   2.0000      -0.995236       -27.0817
  19   2.0000      -0.858541       -23.3621
  20   2.0000      -0.801023       -21.7970
  21   2.0000      -0.750988       -20.4354
  22   2.0000      -0.721116       -19.6226
  23   2.0000      -0.656684       -17.8693
  24   2.0000      -0.610265       -16.6061
  25   2.0000      -0.554729       -15.0949
  26   2.0000      -0.505062       -13.7434
  27   2.0000      -0.502139       -13.6639
  28   2.0000      -0.477897       -13.0042
  29   2.0000      -0.466184       -12.6855
  30   2.0000      -0.433821       -11.8049
  31   2.0000      -0.428967       -11.6728
  32   2.0000      -0.417067       -11.3490
  33   2.0000      -0.395079       -10.7506
  34   2.0000      -0.383152       -10.4261
  35   2.0000      -0.382208       -10.4004
  36   2.0000      -0.341117        -9.2823
  37   2.0000      -0.300954        -8.1894
  38   2.0000      -0.276429        -7.5220
  39   2.0000      -0.247008        -6.7214
  40   2.0000      -0.237166        -6.4536
  41   0.0000      -0.093546        -2.5455
  42   0.0000      -0.034243        -0.9318
  43   0.0000       0.002675         0.0728
  44   0.0000       0.057681         1.5696
  45   0.0000       0.066590         1.8120

MULLIKEN ATOMIC CHARGES
-----------------------
   0 N :   -0.236163
   1 C :    0.135238
   2 C :   -0.020556
   3 S :   -0.147832
   4 S :    0.140614
   5 C :   -0.178491
   6 C :    0.237199
   7 O :   -0.180032
   8 C :    0.005283
   9 H :    0.046820
  10 H :    0.045221
  11 H :    0.054878
  12 H :    0.038310
  13 H :    0.059511
Sum of atomic charges:    0.0000000

LOEWDIN ATOMIC CHARGES
----------------------
   0 N :   -0.028749
   1 C :    0.039774
   2 C :   -0.254240
   3 S :   -0.018239
   4 S :    0.373280
   5 C :   -0.201134
   6 C :    0.071803
   7 O :   -0.158550
   8 C :   -0.007694
   9 H :    0.032512
  10 H :    0.033061
  11 H :    0.035975
  12 H :    0.036011
  13 H :    0.046192

  Mayer bond orders larger than 0.100000
B(  0-N ,  1-C ) :   0.9437 B(  0-N ,  2-C ) :   1.1357 B(  0-N ,  6-C ) :   1.0492
B(  1-C ,  9-H ) :   0.9672 B(  1-C , 10-H ) :   0.9690 B(  1-C , 11-H ) :   0.9539
B(  2-C ,  3-S ) :   1.6882 B(  2-C ,  4-S ) :   1.0426 B(  3-S ,  4-S ) :   0.1063
B(  4-S ,  5-C ) :   1.0215 B(  5-C ,  6-C ) :   0.9211 B(  5-C ,  8-C ) :   1.9384
B(  6-C ,  7-O ) :   2.1356 B(  8-C , 12-H ) :   0.9398 B(  8-C , 13-H ) :   0.9298

Dispersion correction           -0.031750128
FINAL SINGLE POINT ENERGY     -1119.478656283653

DIPOLE MOMENT
-------------
                                X             Y             Z
Electronic contribution:     -2.40994       5.24080       2.04427
Nuclear contribution   :      2.98335      -5.19975      -2.08838
                        -----------------------------------------
Total Dipole Moment    :      0.57341       0.04106      -0.04410
                        -----------------------------------------
Magnitude (a.u.)       :      0.57657
Magnitude (Debye)      :      1.46552

Rotational constants in cm-1:     0.063835     0.035974     0.023110
Rotational constants in MHz :  1913.714759  1078.485350   692.832660

                             ****ORCA TERMINATED NORMALLY****
TOTAL RUN TIME: 0 days 0 hours 4 minutes 18 seconds 427 msec
