                         Program Version 4.2.0 -  RELEASE  -
|  1> # ORCA input file
|  2> # SCF done        -16.988312434084          0.000101199375
|  3> ! B3LYP/G D3BJ Opt RIJCOSX def2-SVP def2/J
|  4> * xyz 0 1
|  5>    C       -1.27619         0.10730        -0.00255
|  6>    C       -0.37477         1.11955         0.00044
|  7>    C        0.97062         0.66629         0.00143
|  8>    C        2.15950         1.57258         0.00455
|  9>    C        1.03833        -0.69237        -0.00089
| 10>    S       -0.51355        -1.43305        -0.00430
| 11>    H       -2.34633         0.16496        -0.00387
| 12>    H       -0.64829         2.15989         0.00193
| 13>    H        1.84208         2.61189         0.00716
| 14>    H        2.77620         1.39829        -0.87617
| 15>    H        2.77524         1.39353         0.88498
| 16>    H        1.91428        -1.31038        -0.00082
| 17> *
| 18>
| 19>                          ****END OF INPUT****
 Total Charge           Charge          ....    0
 Multiplicity           Mult            ....    1
 Number of Electrons    NEL             ....   52
Dispersion correction           -0.020522527
FINAL SINGLE POINT ENERGY      -592.093100858929
Dispersion correction            ... done
Dispersion correction           -0.020429532
FINAL SINGLE POINT ENERGY      -592.095083579063
Dispersion correction            ... done
Dispersion correction           -0.020416438
FINAL SINGLE POINT ENERGY      -592.095140329128
Dispersion correction            ... done
FINAL SINGLE POINT ENERGY      -592.095150440724
Dispersion correction            ... done
Dispersion correction           -0.020414044
FINAL SINGLE POINT ENERGY      -592.095150986855
Dispersion correction            ... done
Dispersion correction           -0.020414929
FINAL SINGLE POINT ENERGY      -592.095151024926
Dispersion correction            ... done
                    ***********************HURRAY********************

CARTESIAN COORDINATES (ANGSTROEM)
---------------------------------
  C     -1.302095    0.096499   -0.002800
  C     -0.386396    1.117418    0.000022
  C      0.974255    0.662699    0.001503
  C      2.172487    1.576071    0.004523
  C      1.038939   -0.712922   -0.000368
  S     -0.528333   -1.447726   -0.003567
  H     -2.388688    0.168387   -0.004574
  H     -0.668461    2.172057    0.001033
  H      1.858753    2.630770    0.009427
  H      2.806368    1.419643   -0.883872
  H      2.807699    1.411800    0.890518
  H      1.932592   -1.336216    0.000046

 Multiplicity           Mult            ....    1
 Number of Electrons    NEL             ....   52
 Basis Dimension        Dim             ....  118

ORBITAL ENERGIES
----------------

  NO   OCC          E(Eh)            E(eV)
   0   2.0000     -88.868484     -2418.2344
   1   2.0000     -10.206771      -277.7403
   2   2.0000     -10.202128      -277.6140
   3   2.0000     -10.194297      -277.4009
   4   2.0000     -10.191117      -277.3144
   5   2.0000     -10.187629      -277.2195
   6   2.0000      -7.963666      -216.7024
   7   2.0000      -5.931767      -161.4116
   8   2.0000      -5.927644      -161.2994
   9   2.0000      -5.925091      -161.2299
  10   2.0000      -0.872096       -23.7309
  11   2.0000      -0.758521       -20.6404
  12   2.0000      -0.715626       -19.4732
  13   2.0000      -0.665141       -18.0994
  14   2.0000      -0.559900       -15.2357
  15   2.0000      -0.535042       -14.5592
  16   2.0000      -0.489308       -13.3147
  17   2.0000      -0.421170       -11.4606
  18   2.0000      -0.420405       -11.4398
  19   2.0000      -0.405353       -11.0302
  20   2.0000      -0.381088       -10.3699
  21   2.0000      -0.365584        -9.9481
  22   2.0000      -0.365319        -9.9408
  23   2.0000      -0.339537        -9.2393
  24   2.0000      -0.246376        -6.7042
  25   2.0000      -0.231610        -6.3024
  26   0.0000      -0.014690        -0.3997
  27   0.0000       0.047075         1.2810
  28   0.0000       0.058220         1.5842
  29   0.0000       0.072897         1.9836
  30   0.0000       0.087824         2.3898

MULLIKEN ATOMIC CHARGES
-----------------------
   0 C :   -0.097987
   1 C :    0.023143
   2 C :   -0.054358
   3 C :    0.086315
   4 C :   -0.134564
   5 S :    0.088313
   6 H :    0.029240
   7 H :   -0.017928
   8 H :    0.006466
   9 H :    0.027922
  10 H :    0.027758
  11 H :    0.015681
Sum of atomic charges:   -0.0000000

LOEWDIN ATOMIC CHARGES
----------------------
   0 C :   -0.196653
   1 C :   -0.071646
   2 C :   -0.069087
   3 C :   -0.047151
   4 C :   -0.206738
   5 S :    0.421153
   6 H :    0.024352
   7 H :    0.026183
   8 H :    0.029061
   9 H :    0.034691
  10 H :    0.034669
  11 H :    0.021164

  Mayer bond orders larger than 0.100000
B(  0-C ,  1-C ) :   1.5521 B(  0-C ,  5-S ) :   1.1813 B(  0-C ,  6-H ) :   0.9673
B(  1-C ,  2-C ) :   1.2787 B(  1-C ,  7-H ) :   0.9908 B(  2-C ,  3-C ) :   1.0726
B(  2-C ,  4-C ) :   1.5679 B(  3-C ,  8-H ) :   0.9577 B(  3-C ,  9-H ) :   0.9567
B(  3-C , 10-H ) :   0.9567 B(  4-C ,  5-S ) :   1.1578 B(  4-C , 11-H ) :   0.9736

Dispersion correction           -0.020414941
FINAL SINGLE POINT ENERGY      -592.095151992717

DIPOLE MOMENT
-------------
                                X             Y             Z
Electronic contribution:     -4.69805      -6.26964      -0.01532
Nuclear contribution   :      4.86123       6.50727       0.01573
                        -----------------------------------------
Total Dipole Moment    :      0.16317       0.23762       0.00041
                        -----------------------------------------
Magnitude (a.u.)       :      0.28825
Magnitude (Debye)      :      0.73269

Rotational constants in cm-1:     0.230812     0.080891     0.060582
Rotational constants in MHz :  6919.579732  2425.055819  1816.203052

                             ****ORCA TERMINATED NORMALLY****
TOTAL RUN TIME: 0 days 0 hours 2 minutes 10 seconds 155 msec
